Membrane in water
40155
    1TCq1    O1    1   3.362   1.993  11.505 -0.2600  0.0422  0.0435
    1TCq1    C1    2   3.307   1.875  11.468  0.2225 -0.7927 -0.0614
    1TCq1    O2    3   3.187   1.869  11.455 -0.5651 -0.5627  0.0238
    1TCq1    C2    4   3.391   1.760  11.493 -0.0566  0.0136  0.7356
    1TCq1    C3    5   3.506   1.748  11.424  0.1749 -0.1115 -0.0809
    1TCq1    C4    6   3.570   1.631  11.394  0.2214 -0.3836 -0.2714
    1TCq1    C5    7   3.518   1.515  11.436 -0.3368 -0.2822 -0.3000
    1TCq1    C6    8   3.396   1.520  11.500  0.1157 -0.2437  0.5304
    1TCq1    C7    9   3.333   1.645  11.533  0.2128 -0.2302  0.3989
    1TCq1    C8   10   3.332   1.396  11.549  0.7653  0.1414 -0.6448
    1TCq1    O4   11   3.237   1.410  11.627  0.0798  0.0942 -0.3694
    1TCq1    C9   12   3.682   1.632  11.306 -0.9299 -0.1098 -0.4762
    1TCq1    O5   13   3.697   1.730  11.231  0.1425  0.7462 -0.0940
    1TCq1    O6   14   3.735   1.520  11.278 -0.0998  0.3825  0.2517
    1TCq1    H1   15   3.458   1.990  11.524 -0.6733 -0.4064  2.0732
    1TCq1    H2   16   3.551   1.837  11.381 -1.6635  1.1027  0.5190
    1TCq1    H3   17   3.578   1.427  11.417  1.0867  0.6255 -0.0293
    1TCq1    H4   18   3.233   1.650  11.574 -0.6034  4.5657 -2.1777
    2MPD2     C   19   3.274   0.886  11.491 -0.1369 -0.0105  0.9909
    2MPD2    C1   20   3.214   0.975  11.581 -0.3019  0.8249 -0.3001
    2MPD2    C2   21   3.259   1.108  11.583 -0.0532 -0.0730  0.4878
    2MPD2    C3   22   3.359   1.151  11.504  0.1238  0.1290  0.5707
    2MPD2    C4   23   3.420   1.060  11.423 -0.1567  0.7592  0.3220
    2MPD2    C5   24   3.379   0.931  11.414  0.2545 -0.0169 -0.9050
    2MPD2     H   25   3.228   1.178  11.660 -3.6152  1.0717 -1.9978
    2MPD2    H1   26   3.487   1.091  11.344 -0.6984  0.8022 -0.1172
    2MPD2    H2   27   3.242   0.785  11.467  3.1161 -1.1320  1.4819
    2MPD2    H3   28   3.422   0.858  11.346  0.5603  0.6072 -1.3803
    2MPD2     N   29   3.396   1.284  11.499 -0.1471 -0.4991 -0.1512
    2MPD2    H5   30   3.476   1.303  11.441  0.8335  2.9960  2.3134
    2MPD2    N1   31   3.102   0.942  11.667 -0.1579  0.5256  0.0560
    2MPD2    H7   32   3.049   1.021  11.703 -0.2145  0.8950 -0.8349
    3TCq1    O1   33   2.300   2.116  10.142 -0.0646  0.0772 -0.2914
    3TCq1    C1   34   2.282   2.098  10.274  0.1905 -0.6156  0.1099
    3TCq1    O2   35   2.255   2.184  10.356  0.0200  0.0087  0.4297
    3TCq1    C2   36   2.248   1.959  10.305 -0.4698 -0.7206  0.0834
    3TCq1    C3   37   2.219   1.868  10.205 -0.1120  0.8228  0.1037
    3TCq1    C4   38   2.135   1.760  10.236  0.2637  0.2105 -0.4625
    3TCq1    C5   39   2.086   1.743  10.363 -0.7971 -0.2028 -0.1397
    3TCq1    C6   40   2.114   1.837  10.457 -1.2492  1.1289  0.0294
    3TCq1    C7   41   2.202   1.943  10.428  0.2507 -0.0064  0.9635
    3TCq1    C8   42   2.057   1.825  10.588  0.2429 -0.3744  0.3819
    3TCq1    O4   43   2.038   1.708  10.630 -0.4658  0.4427  0.3984
    3TCq1    C9   44   2.122   1.650  10.142 -1.3066 -0.6247 -0.1823
    3TCq1    O5   45   2.218   1.633  10.066  0.0943 -0.3781  0.0979
    3TCq1    O6   46   2.042   1.558  10.176 -0.7230 -0.3058 -0.2134
    3TCq1    H1   47   2.326   2.037  10.091 -0.7799 -0.1957 -0.2378
    3TCq1    H2   48   2.261   1.882  10.106 -0.5985 -3.1054 -0.6458
    3TCq1    H3   49   2.015   1.665  10.387 -1.4950  1.3318  2.7953
    3TCq1    H4   50   2.216   2.015  10.507 -0.4121 -0.0685  1.1373
    4MPD2     C   51   1.770   2.024  10.970 -0.3096 -0.4627 -0.0524
    4MPD2    C1   52   1.830   2.128  10.900 -0.4181 -0.1716 -0.5127
    4MPD2    C2   53   1.917   2.100  10.796 -0.3292 -0.0961  0.5308
    4MPD2    C3   54   1.937   1.966  10.758  0.1467  0.1717  0.4131
    4MPD2    C4   55   1.862   1.865  10.817 -0.4249 -0.2299 -0.6312
    4MPD2    C5   56   1.785   1.895  10.923  0.3641  0.3076  0.5910
    4MPD2     H   57   1.971   2.181  10.748  0.8845 -0.9201  0.5279
    4MPD2    H1   58   1.867   1.762  10.782  0.2411  0.0267 -1.2946
    4MPD2    H2   59   1.713   2.036  11.062 -0.9521 -0.7503 -0.4105
    4MPD2    H3   60   1.735   1.814  10.973  1.3689  0.1416  1.3334
    4MPD2     N   61   2.013   1.943  10.641 -0.1735 -0.5787  0.1795
    4MPD2    H5   62   2.049   2.027  10.595  2.4281 -1.4199  0.6476
    4MPD2    N1   63   1.810   2.262  10.930 -0.3082 -0.0754 -0.4635
    4MPD2    H7   64   1.856   2.331  10.870  1.6332 -0.3331  0.7174
    5TCq1    O1   65   2.517   3.697  11.691  0.3108  0.1261  0.0976
    5TCq1    C1   66   2.411   3.627  11.729  0.2225  0.4070  0.6660
    5TCq1    O2   67   2.391   3.584  11.841  0.3719 -0.0717 -0.2966
    5TCq1    C2   68   2.301   3.648  11.637 -0.3042 -0.2467  0.1819
    5TCq1    C3   69   2.173   3.613  11.683  0.1657  0.4946 -0.0102
    5TCq1    C4   70   2.074   3.594  11.591  0.1533  0.3967 -0.1472
    5TCq1    C5   71   2.094   3.631  11.459 -0.5400 -0.0542  0.3246
    5TCq1    C6   72   2.222   3.644  11.412  0.4305  0.5440 -0.2008
    5TCq1    C7   73   2.327   3.650  11.503 -0.4927 -0.4034 -0.0547
    5TCq1    C8   74   2.264   3.618  11.270 -0.3129  0.1190 -0.1555
    5TCq1    O4   75   2.385   3.644  11.238  0.4235 -0.2911 -0.0611
    5TCq1    C9   76   1.940   3.552  11.629  0.7828  0.0447  0.3649
    5TCq1    O5   77   1.874   3.491  11.540  0.2435  0.1357  0.3015
    5TCq1    O6   78   1.912   3.552  11.751 -0.1794  0.4119 -0.7199
    5TCq1    H1   79   2.503   3.749  11.609 -1.7709  0.4317  0.6633
    5TCq1    H2   80   2.156   3.587  11.786 -3.5430 -0.5076 -0.8812
    5TCq1    H3   81   2.016   3.633  11.384 -0.3350 -0.5526  0.0973
    5TCq1    H4   82   2.429   3.648  11.467 -0.7162 -1.9184 -0.6014
    6MPD2     C   83   2.101   3.396  11.023  0.2165 -0.7906 -0.6197
    6MPD2    C1   84   2.199   3.477  11.077 -0.5326 -0.2680  0.3372
    6MPD2    C2   85   2.320   3.493  11.000 -0.2728  0.8257 -0.3161
    6MPD2    C3   86   2.332   3.426  10.877 -0.1902 -0.5382 -0.2607
    6MPD2    C4   87   2.228   3.341  10.830  0.2429 -0.0677  0.3109
    6MPD2    C5   88   2.117   3.328  10.903 -0.2820 -0.1017  0.1787
    6MPD2     H   89   2.408   3.544  11.036 -0.6957  1.0505  0.3982
    6MPD2    H1   90   2.238   3.278  10.742  0.4775  0.3228  0.0606
    6MPD2    H2   91   2.006   3.386  11.075  1.1671  1.8308  1.6172
    6MPD2    H3   92   2.039   3.264  10.863  0.5466  1.2139 -3.5961
    6MPD2     N   93   2.455   3.448  10.803 -0.0787  0.1878  0.5375
    6MPD2    H5   94   2.531   3.503  10.844  2.1998 -1.3496 -1.6096
    6MPD2    N1   95   2.174   3.533  11.207  0.2820  0.4161 -0.1022
    6MPD2    H7   96   2.097   3.501  11.264 -0.1522 -2.0919 -2.0673
    7TCq1    O1   97   4.051   3.612  13.234 -0.0540  0.1276  0.2878
    7TCq1    C1   98   4.173   3.607  13.287  0.1687  0.6943 -0.0707
    7TCq1    O2   99   4.217   3.672  13.379 -0.4924 -0.1117  0.5491
    7TCq1    C2  100   4.256   3.501  13.219  0.3998 -0.0192 -1.3464
    7TCq1    C3  101   4.244   3.478  13.089 -0.5863 -0.2524  0.2929
    7TCq1    C4  102   4.320   3.377  13.041  0.1097 -0.0855 -0.5087
    7TCq1    C5  103   4.401   3.302  13.123 -0.2751  0.4590 -0.2220
    7TCq1    C6  104   4.402   3.331  13.257 -0.6504 -0.0400  0.1181
    7TCq1    C7  105   4.337   3.443  13.304  0.7452 -0.5554 -0.0830
    7TCq1    C8  106   4.479   3.239  13.344 -0.5950  0.9976 -0.5102
    7TCq1    O4  107   4.533   3.138  13.296 -0.7312 -0.0532 -0.4442
    7TCq1    C9  108   4.322   3.367  12.896 -0.7980  0.6508  0.1118
    7TCq1    O5  109   4.286   3.463  12.823 -0.0210  0.0321  0.1748
    7TCq1    O6  110   4.378   3.261  12.843 -0.3650 -0.1995  0.5154
    7TCq1    H1  111   4.021   3.525  13.201  0.1135 -0.4312  1.6222
    7TCq1    H2  112   4.179   3.538  13.027 -1.2033 -1.0543  0.1654
    7TCq1    H3  113   4.457   3.216  13.088 -0.7003  0.5300 -1.0618
    7TCq1    H4  114   4.321   3.464  13.409 -0.2401 -0.5266 -0.2428
    8MPD2     C  115   4.698   3.098  13.791  0.1115 -0.8249  0.3133
    8MPD2    C1  116   4.636   3.023  13.694 -0.0249  0.1793 -0.2050
    8MPD2    C2  117   4.571   3.082  13.583  0.4936 -0.9665 -0.1050
    8MPD2    C3  118   4.571   3.222  13.574  0.6039  0.1164  0.1962
    8MPD2    C4  119   4.626   3.299  13.675 -0.1389  0.0555  0.2856
    8MPD2    C5  120   4.688   3.233  13.779  0.0462  0.0603  0.6196
    8MPD2     H  121   4.516   3.019  13.513 -1.9456 -0.1880  1.0815
    8MPD2    H1  122   4.630   3.408  13.671 -0.3572  0.0243 -0.7112
    8MPD2    H2  123   0.020   3.056  13.879  2.0883 -1.6568 -1.1401
    8MPD2    H3  124   0.023   3.291  13.849  0.0824  1.2428 -0.3816
    8MPD2     N  125   4.502   3.288  13.466  0.0908  0.4268  0.4229
    8MPD2    H5  126   4.484   3.388  13.478 -2.3686  0.2308 -1.7868
    8MPD2    N1  127   4.620   2.888  13.711 -0.3032  0.4347 -0.1785
    8MPD2    H7  128   4.648   2.851  13.801  1.2195  0.1417 -0.7837
    9TCq1    O1  129   1.762   2.471  11.820 -0.1181  0.0138 -0.0133
    9TCq1    C1  130   1.686   2.563  11.762 -0.3038  0.5920 -0.1154
    9TCq1    O2  131   1.576   2.596  11.802 -0.0369 -0.0295  0.2679
    9TCq1    C2  132   1.762   2.633  11.656 -0.2463  0.0720 -0.5231
    9TCq1    C3  133   1.704   2.744  11.604  0.2382 -0.2666 -0.4226
    9TCq1    C4  134   1.761   2.814  11.504 -0.7869 -0.3829 -0.0596
    9TCq1    C5  135   1.877   2.774  11.448  0.7944  0.0489 -0.1220
    9TCq1    C6  136   1.943   2.671  11.514 -0.5735 -0.3382 -0.0816
    9TCq1    C7  137   1.891   2.595  11.616  0.7138  0.0292  0.0967
    9TCq1    C8  138   2.082   2.651  11.467 -0.0348  0.5518  0.3749
    9TCq1    O4  139   2.116   2.722  11.374  0.7909  0.0777  0.2544
    9TCq1    C9  140   1.697   2.930  11.450 -0.0508  0.3069 -0.1888
    9TCq1    O5  141   1.631   3.000  11.532  0.4342  0.2177  1.0341
    9TCq1    O6  142   1.743   2.984  11.347  0.0422 -0.0848  0.3972
    9TCq1    H1  143   1.855   2.479  11.792 -0.1668 -1.3018 -0.5829
    9TCq1    H2  144   1.602   2.767  11.634 -0.6361 -0.9488 -2.8254
    9TCq1    H3  145   1.910   2.841  11.369  0.2189  0.7035  0.1920
    9TCq1    H4  146   1.941   2.504  11.649  0.9031 -0.5784 -1.8838
   10MPD2     C  147   2.369   2.582  11.429  0.8371 -0.1688 -0.2035
   10MPD2    C1  148   2.281   2.507  11.512  0.1729 -0.8164  0.0485
   10MPD2    C2  149   2.333   2.388  11.565 -0.6617 -0.4417  0.1242
   10MPD2    C3  150   2.467   2.349  11.542  0.0901  0.3639 -0.6344
   10MPD2    C4  151   2.546   2.426  11.459 -0.6966 -0.4898  0.0008
   10MPD2    C5  152   2.498   2.545  11.419 -0.0432  0.1106 -0.0738
   10MPD2     H  153   2.275   2.330  11.636  0.0887 -0.6958  0.5339
   10MPD2    H1  154   2.647   2.397  11.432 -0.1599 -0.8988  2.4971
   10MPD2    H2  155   2.343   2.682  11.397  0.8811  0.3600  1.4030
   10MPD2    H3  156   2.576   2.603  11.370 -0.3987 -0.0419 -0.8207
   10MPD2     N  157   2.505   2.222  11.576  0.0818 -0.4724 -0.5045
   10MPD2    H5  158   2.603   2.198  11.560  0.6644  1.0623  0.8313
   10MPD2    N1  159   2.148   2.545  11.535 -0.0374 -0.0368 -0.3066
   10MPD2    H7  160   2.090   2.490  11.598  0.9458  0.2425  0.8471
   11TCq1    O1  161   3.618   1.990  14.916 -0.1242 -0.2438  0.2473
   11TCq1    C1  162   3.542   1.876  14.931  0.0723 -0.0382  0.7914
   11TCq1    O2  163   3.538   1.796  15.022 -0.2246 -0.1947 -0.1430
   11TCq1    C2  164   3.474   1.851  14.802  0.7614 -0.3477 -0.2292
   11TCq1    C3  165   3.543   1.860  14.683  0.1548 -0.7909  0.2247
   11TCq1    C4  166   3.481   1.806  14.571 -0.2666  0.3791 -1.0937
   11TCq1    C5  167   3.360   1.738  14.578 -0.6033  0.0078 -0.0409
   11TCq1    C6  168   3.299   1.712  14.700  0.6145  0.2675  0.8247
   11TCq1    C7  169   3.355   1.769  14.811 -0.2023 -0.1875 -0.4078
   11TCq1    C8  170   3.169   1.658  14.707  0.0444 -0.3382 -0.5583
   11TCq1    O4  171   3.110   1.683  14.808 -0.0985  0.0684  0.2549
   11TCq1    C9  172   3.549   1.824  14.446  0.6711 -0.2688  0.7680
   11TCq1    O5  173   3.655   1.888  14.447  0.2983 -0.2768 -0.3308
   11TCq1    O6  174   3.481   1.789  14.346 -0.0539 -0.5557 -0.0728
   11TCq1    H1  175   3.577   2.027  14.835 -0.3862  0.0486  0.5163
   11TCq1    H2  176   3.644   1.898  14.670 -0.7121  0.9431 -1.4589
   11TCq1    H3  177   3.311   1.705  14.487  0.9336  0.0571 -0.8769
   11TCq1    H4  178   3.300   1.787  14.903  0.7316  0.2170  0.0677
   12MPD2     C  179   2.901   1.572  14.619 -0.7077 -0.0071  0.0786
   12MPD2    C1  180   3.017   1.525  14.556 -0.0312 -0.3238 -0.4290
   12MPD2    C2  181   3.008   1.418  14.468  0.3095  0.2598 -0.2666
   12MPD2    C3  182   2.884   1.364  14.439 -0.3902  0.1544 -0.4522
   12MPD2    C4  183   2.771   1.429  14.490  0.0431  0.0069 -0.5724
   12MPD2    C5  184   2.781   1.535  14.573  0.7846 -0.6081  0.6237
   12MPD2     H  185   3.106   1.376  14.446  0.3382 -0.1271  0.5728
   12MPD2    H1  186   2.672   1.393  14.463 -0.2755  0.5997 -0.1819
   12MPD2    H2  187   2.912   1.662  14.679 -1.1570  0.2056 -0.1599
   12MPD2    H3  188   2.691   1.592  14.592 -0.4047 -1.7644 -1.6123
   12MPD2     N  189   2.861   1.257  14.348 -0.3906  0.0571  0.1321
   12MPD2    H5  190   2.767   1.219  14.342 -1.0710  2.2787 -3.3143
   12MPD2    N1  191   3.144   1.578  14.595  0.0551  0.1528  0.6950
   12MPD2    H7  192   3.226   1.545  14.547 -1.3364 -2.0366 -0.1872
   13TCq1    O1  193   2.889   2.679  10.840  0.0802 -0.6538  0.2837
   13TCq1    C1  194   2.866   2.568  10.761 -0.7197  0.6068  0.7684
   13TCq1    O2  195   2.755   2.544  10.714  0.0278  0.5256  0.6058
   13TCq1    C2  196   2.950   2.465  10.825  0.3258  0.2566 -0.0661
   13TCq1    C3  197   3.083   2.502  10.860 -0.2081 -0.2782  0.2879
   13TCq1    C4  198   3.156   2.400  10.916  0.6724 -0.4835 -0.7472
   13TCq1    C5  199   3.108   2.270  10.926  0.8625  0.3314  1.1372
   13TCq1    C6  200   2.977   2.248  10.908 -0.1016 -0.2624  0.1121
   13TCq1    C7  201   2.895   2.346  10.854  0.2282 -0.1097  0.0542
   13TCq1    C8  202   2.891   2.143  10.972  0.1413 -0.5318 -0.2988
   13TCq1    O4  203   2.772   2.144  10.945  0.0639  0.2690  0.2148
   13TCq1    C9  204   3.284   2.430  10.972 -0.2307 -0.4902  0.1692
   13TCq1    O5  205   3.364   2.344  11.027 -0.0782  0.2658 -0.0639
   13TCq1    O6  206   3.320   2.550  10.973 -0.4189 -0.1643  0.2189
   13TCq1    H1  207   2.958   2.676  10.910  0.8266 -1.5364 -0.4960
   13TCq1    H2  208   3.125   2.600  10.842 -2.7783  0.6557 -0.5722
   13TCq1    H3  209   3.175   2.198  10.972  0.8608  0.1200  0.8106
   13TCq1    H4  210   2.795   2.332  10.815  0.5790 -0.5415 -0.7057
   14MPD2     C  211   2.980   1.873  11.211  0.2537  0.4402  0.2143
   14MPD2    C1  212   2.900   1.955  11.136  0.5409  0.4038  0.3578
   14MPD2    C2  213   2.760   1.948  11.153 -0.1249 -0.5382 -0.2369
   14MPD2    C3  214   2.704   1.847  11.231 -0.3146 -0.4352 -0.2350
   14MPD2    C4  215   2.780   1.766  11.304 -0.3307 -0.0652 -0.8016
   14MPD2    C5  216   2.919   1.784  11.298  0.2744  0.5754  0.5693
   14MPD2     H  217   2.692   2.006  11.092  1.3997  1.0794 -0.4253
   14MPD2    H1  218   2.747   1.684  11.366  3.5174 -1.2215 -0.3073
   14MPD2    H2  219   3.087   1.876  11.197  0.2328  0.2698  0.0208
   14MPD2    H3  220   2.985   1.716  11.350  1.1856  0.1476 -1.1476
   14MPD2     N  221   2.562   1.830  11.235 -0.5972  0.0857  0.5752
   14MPD2    H5  222   2.510   1.888  11.169  0.7140  2.9110  2.0305
   14MPD2    N1  223   2.963   2.052  11.048  0.1196 -0.3586  0.7515
   14MPD2    H7  224   3.065   2.055  11.051  0.1526 -0.0006 -0.7362
   15TCq1    O1  225   4.469   0.717   2.453  0.2479  0.5045 -0.6356
   15TCq1    C1  226   4.354   0.735   2.519  1.4533  0.8637  0.4106
   15TCq1    O2  227   4.330   0.712   2.637  0.3017  0.1494 -0.8969
   15TCq1    C2  228   4.258   0.803   2.440 -0.0814  0.2219  0.0825
   15TCq1    C3  229   4.196   0.910   2.491  0.6897 -0.2690 -0.2713
   15TCq1    C4  230   4.098   0.967   2.418  0.7159 -0.4767 -0.0324
   15TCq1    C5  231   4.072   0.919   2.294  0.5653  0.2623 -0.1517
   15TCq1    C6  232   4.148   0.823   2.235 -0.1108 -0.3284 -0.3205
   15TCq1    C7  233   4.237   0.756   2.312 -0.0969 -0.2108  0.6299
   15TCq1    C8  234   4.155   0.800   2.093  0.3888 -0.5141  0.0428
   15TCq1    O4  235   4.253   0.733   2.055  0.4992  0.3396 -0.1806
   15TCq1    C9  236   4.008   1.058   2.493  0.0149  0.3918  0.3690
   15TCq1    O5  237   3.896   1.073   2.437  0.0207 -0.2163  0.9124
   15TCq1    O6  238   4.031   1.073   2.612 -0.0395  0.3899 -0.1157
   15TCq1    H1  239   4.478   0.736   2.357 -0.5997 -1.1220 -1.0345
   15TCq1    H2  240   4.215   0.950   2.590 -1.0278 -1.3566  0.4950
   15TCq1    H3  241   3.989   0.963   2.241  1.4358  0.1709 -1.5824
   15TCq1    H4  242   4.286   0.664   2.283  0.2703  1.3647 -3.6228
   16MPD2     C  243   3.892   0.881   1.845  0.3812  0.2528  0.7096
   16MPD2    C1  244   4.011   0.826   1.893 -0.7800 -0.2316  0.5557
   16MPD2    C2  245   4.087   0.743   1.812 -0.2869 -0.2157  0.2485
   16MPD2    C3  246   4.047   0.722   1.676  0.4927  0.3273 -0.6963
   16MPD2    C4  247   3.940   0.791   1.629  0.3828 -0.5501  0.1189
   16MPD2    C5  248   3.859   0.862   1.716  0.1624 -0.1085 -0.1504
   16MPD2     H  249   4.173   0.688   1.847 -1.4128 -1.2787  1.3559
   16MPD2    H1  250   3.908   0.781   1.526  0.7583 -0.4767 -0.0075
   16MPD2    H2  251   3.829   0.940   1.911 -0.3697  0.4919 -0.2288
   16MPD2    H3  252   3.767   0.905   1.678  0.6992 -0.8683 -2.3250
   16MPD2     N  253   4.119   0.633   1.597  0.1621 -0.0612  0.4314
   16MPD2    H5  254   4.208   0.596   1.628  0.0500 -1.0243 -0.3853
   16MPD2    N1  255   4.047   0.849   2.025  0.9897 -0.1968  0.7391
   16MPD2    H7  256   3.983   0.911   2.074 -1.9831 -0.3509 -2.8893
   17TCq1    O1  257   2.574   2.316  10.019  0.0370  0.4218 -0.1622
   17TCq1    C1  258   2.653   2.243  10.106  0.3108  0.0235 -0.5324
   17TCq1    O2  259   2.636   2.230  10.225 -0.1026  0.2119  0.2709
   17TCq1    C2  260   2.748   2.171  10.025 -0.4527  0.7324 -0.0196
   17TCq1    C3  261   2.828   2.245   9.949  0.4155 -0.0349 -0.1881
   17TCq1    C4  262   2.951   2.193   9.920 -0.7126  0.0854 -0.3502
   17TCq1    C5  263   2.993   2.071   9.964  0.2520  0.3109  0.9066
   17TCq1    C6  264   2.908   1.998  10.041 -0.2618  0.3650  0.4329
   17TCq1    C7  265   2.782   2.049  10.073 -0.5763  0.1376 -0.4941
   17TCq1    C8  266   2.954   1.889  10.126 -0.6516  0.1060  0.4728
   17TCq1    O4  267   2.869   1.839  10.201  0.1185  0.2730  0.3339
   17TCq1    C9  268   3.049   2.281   9.861  0.1868 -0.1390 -0.5934
   17TCq1    O5  269   3.152   2.223   9.819 -0.1755  0.1284 -0.6028
   17TCq1    O6  270   3.022   2.400   9.840 -0.4537 -0.2048 -0.5389
   17TCq1    H1  271   2.596   2.289   9.928  2.0770  2.0044 -0.1363
   17TCq1    H2  272   2.814   2.353   9.949  0.9789  0.0330 -0.8362
   17TCq1    H3  273   3.094   2.035   9.948 -0.2089 -0.7828  0.4213
   17TCq1    H4  274   2.711   2.001  10.139  1.2500  0.4816  1.7378
   18MPD2     C  275   3.123   1.755  10.337 -0.1174  0.0240  0.0965
   18MPD2    C1  276   3.176   1.813  10.222  0.3966 -0.1032  0.4393
   18MPD2    C2  277   3.314   1.807  10.210 -0.0085  0.2583 -0.0903
   18MPD2    C3  278   3.395   1.733  10.295 -0.5690 -0.0565  0.3921
   18MPD2    C4  279   3.335   1.654  10.395  0.2171  0.1383  0.1538
   18MPD2    C5  280   3.202   1.674  10.412 -0.1915 -0.3618  0.2069
   18MPD2     H  281   3.360   1.856  10.125 -0.4878  0.6430 -0.1280
   18MPD2    H1  282   3.385   1.582  10.460 -0.7546 -0.2229  0.5032
   18MPD2    H2  283   3.019   1.754  10.366 -0.5981 -0.8578 -1.6671
   18MPD2    H3  284   3.154   1.617  10.490 -0.2308 -2.0806 -1.0794
   18MPD2     N  285   3.540   1.736  10.297 -0.0848 -0.4235 -0.0099
   18MPD2    H5  286   3.587   1.680  10.367  0.2337  0.6537  0.6505
   18MPD2    N1  287   3.094   1.879  10.121 -0.2410  0.0513  0.3759
   18MPD2    H7  288   3.149   1.919  10.046  0.0467 -0.1747  0.4652
   19TMC2    C1  289   4.276   1.467  13.948  0.6357  0.1332 -0.1209
   19TMC2    C2  290   4.319   1.524  13.829  0.2833  0.4088 -0.2493
   19TMC2    C3  291   4.248   1.494  13.716  0.0668 -0.0306 -0.1849
   19TMC2    C4  292   4.167   1.385  13.959  0.1624 -0.5470 -0.2405
   19TMC2    C5  293   4.109   1.353  13.841 -0.3220  0.7102 -0.2623
   19TMC2    C6  294   4.147   1.399  13.719 -0.4051  0.9658 -0.7516
   19TMC2     C  295   4.358   1.489  14.068 -0.5937 -1.0455 -1.0623
   19TMC2     O  296   4.466   1.534  14.052 -0.1322  0.6201  0.7688
   19TMC2     H  297   4.391   1.604  13.827  1.6135 -0.8089 -1.8034
   19TMC2    H1  298   4.154   1.324  14.047  1.8587  1.2499  1.2845
   19TMC2    H2  299   4.097   1.382  13.625 -0.8465  1.0476 -0.5326
   19TMC2    C7  300   4.012   1.248  13.840  0.8038  0.2204  0.6233
   19TMC2    C8  301   4.288   1.538  13.583  0.2825 -0.6939  0.1360
   19TMC2    O1  302   4.009   1.190  13.734 -0.2735  0.2407  0.2474
   19TMC2    O2  303   4.250   1.490  13.477 -0.2284  0.1693  0.0209
   19TMC2    O5  304   4.308   1.670  13.591 -0.0945  0.2394 -0.2922
   19TMC2    H5  305   4.299   1.710  13.680  0.3245  0.0704 -0.1733
   20MPD2     C  306   4.500   1.500  14.332  0.2819 -0.0520  0.0669
   20MPD2    C1  307   4.362   1.482  14.316  0.3111 -0.1303 -0.2844
   20MPD2    C2  308   4.287   1.464  14.430 -0.6493 -0.1657  0.5312
   20MPD2    C3  309   4.347   1.467  14.556  0.0218  0.1986 -0.0778
   20MPD2    C4  310   4.483   1.486  14.565  0.4682  0.2277 -0.2727
   20MPD2    C5  311   4.564   1.502  14.453 -0.0714 -0.0401 -0.4378
   20MPD2     H  312   4.182   1.439  14.419 -0.8787 -0.4501  3.3915
   20MPD2    H1  313   4.531   1.490  14.662  0.4634 -0.0841 -0.2572
   20MPD2    H2  314   4.552   1.514  14.238  0.7879  1.2425  0.5319
   20MPD2    H3  315   4.670   1.519  14.448 -0.1389  0.5573  0.2644
   20MPD2     N  316   4.273   1.435  14.673 -0.2148 -1.0959  0.4349
   20MPD2    H5  317   4.326   1.444  14.759  1.9210  0.4587 -1.0261
   20MPD2    N1  318   4.292   1.473  14.192 -0.1531 -0.8873 -0.5136
   20MPD2    H7  319   4.192   1.456  14.190 -0.6046  1.5384  0.7868
   21MPD2     C  320   1.683   1.488  14.360  0.4415  0.1394 -0.4325
   21MPD2    C1  321   1.703   1.355  14.389 -0.3692 -1.1891 -0.1635
   21MPD2    C2  322   1.627   1.300  14.489  0.5280 -0.0400  0.3231
   21MPD2    C3  323   1.523   1.368  14.553  0.4634  0.1128 -0.2934
   21MPD2    C4  324   1.505   1.497  14.515 -0.3806 -0.0971 -0.2371
   21MPD2    C5  325   1.575   1.555  14.414  0.3807  0.3400  0.2158
   21MPD2     H  326   1.651   1.199  14.520 -2.1897 -0.5596  0.7114
   21MPD2    H1  327   1.428   1.552  14.568  0.6924  1.0743  0.1008
   21MPD2    H2  328   1.744   1.540  14.287 -0.0396  0.0870 -0.8727
   21MPD2    H3  329   1.561   1.661  14.393  1.9302  1.1139  3.0610
   21MPD2     N  330   1.442   1.319  14.654  0.5915 -0.2862  0.3061
   21MPD2    H5  331   1.372   1.388  14.680  0.9807  0.2955 -0.1660
   21MPD2    N1  332   1.809   1.275  14.344  0.4593 -0.5863 -0.2783
   21MPD2    H7  333   1.815   1.180  14.377  1.1177 -0.6069 -0.4598
   22TCq2    C1  334   1.469   1.203  14.722 -0.0957  0.7111 -0.1400
   22TCq2    O2  335   1.532   1.102  14.690  0.0492  0.6615 -0.0606
   22TCq2    C2  336   1.432   1.201  14.864  0.1255  0.3834 -0.0928
   22TCq2    C3  337   1.518   1.144  14.953 -0.2184  0.2153 -0.6294
   22TCq2    C4  338   1.501   1.182  15.087 -0.2147  0.5392  0.4504
   22TCq2    C5  339   1.416   1.284  15.123 -0.4631 -0.2315  0.5535
   22TCq2    C6  340   1.339   1.343  15.028  0.0872  1.4371 -0.3091
   22TCq2    C7  341   1.342   1.294  14.902 -0.6538  0.3322 -0.8107
   22TCq2    C8  342   1.233   1.434  15.079 -0.1468 -0.3552 -0.6475
   22TCq2    O4  343   1.226   1.441  15.202 -0.5699  0.0691 -0.1781
   22TCq2    C9  344   1.583   1.130  15.191 -1.6722  0.4133 -0.3029
   22TCq2    O5  345   1.683   1.054  15.164 -0.2455  0.0919  0.2467
   22TCq2    O6  346   1.545   1.150  15.308  0.2336 -0.0120 -0.1154
   22TCq2    H2  347   1.592   1.071  14.923  0.8414  0.5952  1.0621
   22TCq2    H3  348   1.404   1.313  15.226 -3.5914  1.4972 -0.3025
   22TCq2    H4  349   1.269   1.324  14.828 -0.8918  3.4668  0.6990
   23MPD2     C  350   2.951   2.320  15.333  0.3021  0.3029 -0.0442
   23MPD2    C1  351   3.057   2.355  15.253 -0.2070  0.5683  0.0474
   23MPD2    C2  352   3.048   2.364  15.117  0.2324 -0.0548 -0.1294
   23MPD2    C3  353   2.914   2.355  15.072  0.2230  0.1784 -0.6222
   23MPD2    C4  354   2.804   2.327  15.149 -0.4602 -0.5152  0.0296
   23MPD2    C5  355   2.823   2.317  15.283 -0.0345 -0.2525  0.2120
   23MPD2     H  356   3.133   2.379  15.052 -0.3706 -1.9165 -1.3239
   23MPD2    H1  357   2.704   2.324  15.106 -1.0301  0.0529  1.3228
   23MPD2    H2  358   2.963   2.295  15.438 -1.0759  1.0189  0.2974
   23MPD2    H3  359   2.740   2.273  15.337 -3.3298  4.8166 -0.7808
   23MPD2     N  360   2.882   2.372  14.933  0.2125 -0.4554 -0.6519
   23MPD2    H5  361   2.785   2.366  14.905 -0.5901  1.2484  1.7708
   23MPD2    N1  362   3.182   2.369  15.314 -0.0578 -0.0556  0.3033
   23MPD2    H7  363   3.264   2.358  15.255  0.8450 -0.2073  1.5848
   24TCq2    C1  364   2.975   2.400  14.837 -0.3073  0.2236  0.2817
   24TCq2    O2  365   3.093   2.425  14.851  0.0535 -0.1710  0.9754
   24TCq2    C2  366   2.913   2.380  14.703 -0.5875 -0.0183  0.2274
   24TCq2    C3  367   2.969   2.441  14.599 -0.2467  0.0973  0.1235
   24TCq2    C4  368   2.909   2.446  14.475  0.2826  0.6233  0.1879
   24TCq2    C5  369   2.789   2.389  14.451  0.4043  0.3127 -0.0996
   24TCq2    C6  370   2.735   2.325  14.554  0.3286 -0.2336  0.1316
   24TCq2    C7  371   2.792   2.322  14.683 -0.4827 -0.1532  0.0939
   24TCq2    C8  372   2.589   2.296  14.563 -0.6513  0.0890  0.2203
   24TCq2    O4  373   2.558   2.224  14.656 -0.1615  0.4475 -0.0824
   24TCq2    C9  374   2.975   2.517  14.373  0.3380  0.1945 -0.1262
   24TCq2    O5  375   2.901   2.568  14.283  0.1790  0.0674  0.0414
   24TCq2    O6  376   3.080   2.571  14.410 -0.5858  0.0996 -0.4787
   24TCq2    H2  377   3.063   2.493  14.611 -0.1253 -0.4067  1.3821
   24TCq2    H3  378   2.737   2.392  14.356 -0.0163 -1.7013  0.0618
   24TCq2    H4  379   2.742   2.283  14.771 -2.5753 -1.5834 -1.7500
   25TMC2    C1  380   1.802   0.662  11.912 -0.1440  0.0133 -0.4209
   25TMC2    C2  381   1.796   0.794  11.944 -0.0623  0.0479 -1.2709
   25TMC2    C3  382   1.698   0.829  12.037 -0.1427  0.5534 -0.7039
   25TMC2    C4  383   1.735   0.560  11.972  0.0807 -0.2288  0.1357
   25TMC2    C5  384   1.648   0.602  12.067  0.2147 -0.3857  0.0231
   25TMC2    C6  385   1.618   0.732  12.096 -0.5087 -0.4916  0.3505
   25TMC2     C  386   1.890   0.622  11.809  0.2395  0.3303 -0.2039
   25TMC2     O  387   1.962   0.712  11.767 -0.2489 -0.2515 -0.0494
   25TMC2     H  388   1.853   0.872  11.896  0.9874  1.4208  2.2139
   25TMC2    H1  389   1.731   0.454  11.951  1.7804 -0.6146  1.7722
   25TMC2    H2  390   1.544   0.765  12.167 -0.9218 -0.8363  0.0794
   25TMC2    C7  391   1.622   0.500  12.175  0.5491 -0.2719  0.1279
   25TMC2    C8  392   1.666   0.967  12.076  0.3377 -0.0855  0.1358
   25TMC2    O1  393   1.690   0.400  12.162  0.5751  0.3114  0.1482
   25TMC2    O2  394   1.653   1.003  12.196 -0.4798 -0.4647 -0.3012
   25TMC2    O5  395   1.726   1.043  11.984 -0.0094  0.0872 -0.0309
   25TMC2    H5  396   1.720   1.002  11.895 -0.9383 -0.4322  0.2679
   26MPD2     C  397   2.008   0.338  11.404 -0.4373 -0.3223 -0.3657
   26MPD2    C1  398   1.896   0.287  11.460  0.1674 -1.0877 -0.0091
   26MPD2    C2  399   1.842   0.351  11.569  0.0416  0.3627 -0.4209
   26MPD2    C3  400   1.909   0.455  11.629 -0.6386 -0.0700  0.5112
   26MPD2    C4  401   2.026   0.498  11.573  0.4500  0.5132 -0.8720
   26MPD2    C5  402   2.077   0.444  11.459 -0.1833  0.0283 -0.0235
   26MPD2     H  403   1.743   0.326  11.603  0.5501 -0.6679  0.2945
   26MPD2    H1  404   2.068   0.587  11.618  1.0230 -0.4224  0.4419
   26MPD2    H2  405   2.059   0.285  11.325 -0.3612 -2.0755  0.8509
   26MPD2    H3  406   2.179   0.457  11.427 -0.6040  2.2681 -0.4583
   26MPD2     N  407   1.849   0.512  11.746  0.1078  0.2147  0.0578
   26MPD2    H5  408   1.767   0.460  11.776  0.3286 -0.8600 -1.1816
   26MPD2    N1  409   1.844   0.167  11.411  0.0073 -0.3372  0.0254
   26MPD2    H7  410   1.895   0.129  11.333 -0.5987  0.7421 -0.8990
   27TMC2    C1  411   0.965   2.029  12.332  0.6691 -0.1576 -0.4554
   27TMC2    C2  412   0.860   2.083  12.262  0.6686  0.6245  0.6210
   27TMC2    C3  413   0.881   2.193  12.187 -0.2362  0.2875  0.2860
   27TMC2    C4  414   1.090   2.085  12.324  0.6932 -0.2484 -0.8777
   27TMC2    C5  415   1.100   2.209  12.265 -0.0994 -0.1135 -0.3388
   27TMC2    C6  416   1.000   2.257  12.182  0.4160  0.1310  0.0018
   27TMC2     C  417   0.936   1.937  12.443  0.6491 -0.2187  0.3276
   27TMC2     O  418   1.023   1.854  12.459 -1.1726  0.1827 -0.3736
   27TMC2     H  419   0.772   2.020  12.252 -1.3181  3.3872  0.7833
   27TMC2    H1  420   1.155   2.044  12.401 -0.2543  0.2626  0.1917
   27TMC2    H2  421   1.015   2.350  12.128 -3.0064  0.7804  0.1802
   27TMC2    C7  422   1.151   2.312  12.366  0.0765  0.0943  0.0117
   27TMC2    C8  423   0.773   2.240  12.103 -0.4882 -0.3900 -0.1433
   27TMC2    O1  424   1.219   2.276  12.462 -0.4438 -0.0242 -0.1703
   27TMC2    O2  425   0.780   2.321  12.013 -0.0051  0.1361  0.2541
   27TMC2    O5  426   0.657   2.210  12.168  0.1271 -0.3617  0.4316
   27TMC2    H5  427   0.660   2.183  12.262  1.6700  0.8988  0.7476
   28MPD2     C  428   0.618   1.718  12.785  0.1674  0.0265  0.1252
   28MPD2    C1  429   0.557   1.834  12.749  0.9133 -0.4377  0.5286
   28MPD2    C2  430   0.627   1.916  12.653 -0.1588  0.2377 -0.2011
   28MPD2    C3  431   0.750   1.871  12.603  0.0945  0.2449 -0.3322
   28MPD2    C4  432   0.805   1.748  12.644  0.0269 -0.4701  0.5798
   28MPD2    C5  433   0.738   1.673  12.737 -0.0934  0.1449  0.1438
   28MPD2     H  434   0.571   1.999  12.611  0.2450  1.1151  0.9884
   28MPD2    H1  435   0.900   1.711  12.608 -0.7109 -2.2766  0.4554
   28MPD2    H2  436   0.573   1.653  12.859 -1.1150  1.5454  0.6762
   28MPD2    H3  437   0.781   1.589  12.790  1.0793  1.0403  0.6124
   28MPD2     N  438   0.812   1.950  12.500  0.1043  0.3851  0.3340
   28MPD2    H5  439   0.755   2.032  12.481 -0.3640  0.0110  0.1014
   28MPD2    N1  440   0.442   1.870  12.826  0.0203  0.1666 -0.3856
   28MPD2    H7  441   0.411   1.799  12.892 -2.5030  0.6796 -1.0277
   29MPD2     C  442   0.048   4.225  14.765 -0.8792 -0.3984 -0.4136
   29MPD2    C1  443   0.144   4.207  14.663  0.1539 -0.0354 -0.2151
   29MPD2    C2  444   0.221   4.307  14.621  0.0334  0.1876 -0.4028
   29MPD2    C3  445   0.212   4.432  14.677 -0.1822  0.3168  0.8328
   29MPD2    C4  446   0.119   4.451  14.771 -0.1229 -0.3091 -0.1777
   29MPD2    C5  447   0.043   4.350  14.824  0.3736  0.1831 -0.6252
   29MPD2     H  448   0.290   4.289  14.540 -0.1899  0.9222 -0.7653
   29MPD2    H1  449   0.110   4.543  14.827  0.7614  0.8765 -1.9990
   29MPD2    H2  450   4.711   4.143  14.800  1.6710 -2.1422 -0.0075
   29MPD2    H3  451   4.699   4.377  14.904  1.0280 -0.3094  0.1087
   29MPD2     N  452   0.302   4.539  14.652  0.5026  0.2633  0.7060
   29MPD2    H5  453   0.293   4.623  14.709  0.2355  0.2707  0.6514
   29MPD2    N1  454   0.177   4.079  14.603  0.5194 -0.6099  0.7004
   29MPD2    H7  455   0.241   4.079  14.524 -0.5220  1.6594 -0.1228
   30TCq2    C1  456   0.413   4.530  14.570  0.0334 -0.6995  0.5905
   30TCq2    O2  457   0.461   4.425  14.531 -0.2720 -0.6426 -0.2162
   30TCq2    C2  458   0.486   4.654  14.567 -0.0724  0.3727  0.5865
   30TCq2    C3  459   0.431   0.040  14.626 -0.4111  0.3055 -0.4307
   30TCq2    C4  460   0.520   0.142  14.642  0.2718 -0.2599  0.1286
   30TCq2    C5  461   0.631   0.155  14.572  0.3115 -0.1044 -0.0055
   30TCq2    C6  462   0.667   0.054  14.491 -0.3408  0.3799  0.4018
   30TCq2    C7  463   0.602   4.658  14.499  0.1676 -0.6549  0.2685
   30TCq2    C8  464   0.791   0.056  14.422 -0.0608 -0.2276  0.6842
   30TCq2    O4  465   0.812   4.694  14.339 -0.2380  0.7885 -0.4024
   30TCq2    C9  466   0.475   0.255  14.724 -0.4171  1.2569 -0.0152
   30TCq2    O5  467   0.353   0.253  14.755 -0.6247 -0.1540 -0.7722
   30TCq2    O6  468   0.546   0.361  14.728  0.1104 -0.3371 -0.1268
   30TCq2    H2  469   0.333   0.042  14.672  0.2867  0.5039  1.0605
   30TCq2    H3  470   0.681   0.250  14.586  3.4106 -1.4587 -1.7709
   30TCq2    H4  471   0.643   4.573  14.445  0.0227 -0.2747 -0.4370
   31MPD2     C  472   2.506   3.472  14.686  0.9152 -0.1997 -0.5375
   31MPD2    C1  473   2.625   3.522  14.650  0.4781 -0.1977  0.1238
   31MPD2    C2  474   2.740   3.465  14.705  0.5118  0.0957 -0.0947
   31MPD2    C3  475   2.728   3.359  14.789  0.7752  0.3886 -0.3404
   31MPD2    C4  476   2.608   3.309  14.820  0.4598 -0.1900 -0.3112
   31MPD2    C5  477   2.495   3.356  14.764 -0.0840  0.8623  0.0122
   31MPD2     H  478   2.835   3.514  14.694  1.5790 -1.9757 -0.0764
   31MPD2    H1  479   2.597   3.217  14.876  0.7912 -0.1684 -0.2151
   31MPD2    H2  480   2.412   3.496  14.638  1.2982  1.0896 -0.6681
   31MPD2    H3  481   2.399   3.307  14.767 -0.3010  1.4206  2.3003
   31MPD2     N  482   2.837   3.300  14.852  0.4193  0.2431 -0.0921
   31MPD2    H5  483   2.820   3.226  14.920  0.4846  0.6308  0.3508
   31MPD2    N1  484   2.638   3.634  14.562  0.3025 -0.0210  0.7189
   31MPD2    H7  485   2.549   3.674  14.535  1.7379  2.9277  0.3881
   32TCq2    C1  486   2.969   3.321  14.832 -0.1056  0.6454 -0.1403
   32TCq2    O2  487   3.024   3.388  14.748  0.1536 -0.1921  0.1225
   32TCq2    C2  488   3.059   3.243  14.919  0.4657 -0.2675  0.4099
   32TCq2    C3  489   3.170   3.193  14.856 -0.0551 -0.7246  0.4485
   32TCq2    C4  490   3.239   3.093  14.922 -0.0007  0.4397  0.5529
   32TCq2    C5  491   3.195   3.051  15.047  0.4626 -0.5029 -0.3195
   32TCq2    C6  492   3.078   3.102  15.105  0.8567 -0.1293  0.1579
   32TCq2    C7  493   3.003   3.196  15.041  0.3377  0.6672 -0.1164
   32TCq2    C8  494   3.060   3.083  15.247  0.4158 -0.3836  0.2878
   32TCq2    O4  495   3.164   3.059  15.302 -0.2902 -0.2249  0.4696
   32TCq2    C9  496   3.366   3.053  14.872 -0.1846 -0.4893  0.2308
   32TCq2    O5  497   3.435   2.970  14.944  0.2911  0.0512 -0.2416
   32TCq2    O6  498   3.391   3.078  14.752 -0.0111  0.3107 -0.3075
   32TCq2    H2  499   3.215   3.233  14.765  0.0838 -0.5864  0.5789
   32TCq2    H3  500   3.240   2.970  15.101  2.4682  0.0534 -1.1535
   32TCq2    H4  501   2.929   3.258  15.090 -2.6354 -0.9712 -2.4649
   33MPD2     C  502   4.177   2.145   9.963 -0.4643 -0.0813  1.0284
   33MPD2    C1  503   4.055   2.089   9.942  0.1856  0.2342 -0.0213
   33MPD2    C2  504   3.983   2.121   9.833  0.2025 -0.5190 -0.6419
   33MPD2    C3  505   4.033   2.199   9.728 -0.3217  0.0521  0.2237
   33MPD2    C4  506   4.156   2.253   9.745  0.7952  0.3886  0.0777
   33MPD2    C5  507   4.221   2.222   9.860 -0.2870 -0.4773 -0.1313
   33MPD2     H  508   3.888   2.071   9.820  0.2178 -0.9836  1.0216
   33MPD2    H1  509   4.210   2.309   9.670  1.5928  0.5636  0.7863
   33MPD2    H2  510   4.244   2.116  10.043 -0.2623 -1.8239  0.2307
   33MPD2    H3  511   4.325   2.253   9.862 -0.8913  1.8157 -3.1571
   33MPD2     N  512   3.960   2.239   9.616  0.1141  0.4698 -0.5269
   33MPD2    H5  513   4.006   2.302   9.550  0.1993  0.2045 -0.7206
   33MPD2    N1  514   4.001   2.009  10.042 -0.0056  0.0312 -1.0342
   33MPD2    H7  515   3.913   1.969  10.011 -1.4382  0.3081  2.7758
   34TCq2    C1  516   3.829   2.200   9.587  0.8374 -0.2206  0.1899
   34TCq2    O2  517   3.756   2.121   9.646 -0.2842 -0.2753 -0.1734
   34TCq2    C2  518   3.764   2.263   9.475 -0.4323 -0.0683  0.4648
   34TCq2    C3  519   3.662   2.193   9.416  0.9208  0.0943  0.3464
   34TCq2    C4  520   3.598   2.249   9.309  0.2628 -0.0302 -0.2897
   34TCq2    C5  521   3.644   2.364   9.255 -0.4571 -0.4633  0.3021
   34TCq2    C6  522   3.738   2.441   9.318 -0.3697  0.0135 -0.1589
   34TCq2    C7  523   3.797   2.391   9.430 -0.5665 -0.2235  0.0516
   34TCq2    C8  524   3.792   2.565   9.255 -0.0032  0.4853 -0.0464
   34TCq2    O4  525   3.898   2.602   9.300  0.3208 -0.1103  0.3461
   34TCq2    C9  526   3.486   2.179   9.251  0.3668  0.2056 -0.1333
   34TCq2    O5  527   3.448   2.226   9.136 -0.2112  0.1013 -0.2308
   34TCq2    O6  528   3.427   2.093   9.315 -0.1912 -0.1983 -0.3861
   34TCq2    H2  529   3.632   2.092   9.441 -1.7300  1.3240  2.0300
   34TCq2    H3  530   3.596   2.395   9.163 -1.4450  0.0511  0.9870
   34TCq2    H4  531   3.857   2.451   9.498  1.4931 -0.6944 -1.3644
   35MPD2     C  532   0.520   2.540  12.268 -0.1556  0.3627 -0.1177
   35MPD2    C1  533   0.398   2.492  12.250 -0.6224  0.6883  0.3004
   35MPD2    C2  534   0.341   2.499  12.129 -0.2329 -0.8426 -0.4691
   35MPD2    C3  535   0.406   2.550  12.023 -0.1416 -0.2307  0.8120
   35MPD2    C4  536   0.533   2.591  12.044  0.1117 -0.1401  1.2356
   35MPD2    C5  537   0.589   2.590  12.163  0.1821  1.2144  0.4327
   35MPD2     H  538   0.238   2.470  12.117 -1.5021  3.8351 -0.6300
   35MPD2    H1  539   0.592   2.635  11.964 -2.0358  0.2559 -0.1313
   35MPD2    H2  540   0.566   2.529  12.366 -0.3129  1.1438  0.0423
   35MPD2    H3  541   0.692   2.623  12.172  0.9690 -0.4187 -2.5068
   35MPD2     N  542   0.326   2.553  11.907 -0.0424 -0.4541  0.0012
   35MPD2    H5  543   0.232   2.519  11.920 -0.5887  1.5398  1.2236
   35MPD2    N1  544   0.329   2.433  12.361 -0.1259  0.1929  0.2365
   35MPD2    H7  545   0.385   2.407  12.441 -0.4718 -3.4329 -0.6745
   36TCq2    C1  546   0.366   2.605  11.785  0.3586 -0.9674  0.6238
   36TCq2    O2  547   0.476   2.649  11.753  0.4792  0.3067  0.2393
   36TCq2    C2  548   0.260   2.605  11.683 -0.7120  0.0595  0.0295
   36TCq2    C3  549   0.270   2.690  11.570 -0.3717 -0.4229  0.7018
   36TCq2    C4  550   0.167   2.675  11.477  0.5367  0.5366  0.4438
   36TCq2    C5  551   0.074   2.576  11.485 -0.3690 -0.2163  0.0811
   36TCq2    C6  552   0.069   2.506  11.597  0.9049 -0.4031 -0.1062
   36TCq2    C7  553   0.147   2.528  11.706 -0.8410  0.6912 -0.5933
   36TCq2    C8  554   4.685   2.412  11.605  0.1365  0.3781 -0.1781
   36TCq2    O4  555   4.670   2.334  11.512 -0.7704  0.7761 -0.1031
   36TCq2    C9  556   0.170   2.764  11.358  0.1200  0.4299  0.3916
   36TCq2    O5  557   0.252   2.860  11.365  0.2805 -0.3377  0.4789
   36TCq2    O6  558   0.090   2.748  11.262 -0.0056  0.2156 -0.1388
   36TCq2    H2  559   0.356   2.751  11.543 -0.7799 -0.9878 -1.8738
   36TCq2    H3  560   0.002   2.553  11.408 -0.6096 -1.6656  0.7289
   36TCq2    H4  561   0.158   2.447  11.777  1.3367  2.2634  0.8733
   37TMC2    C1  562   2.352   2.848  11.735  0.1524 -0.3788  0.3728
   37TMC2    C2  563   2.390   2.893  11.616 -0.2469  0.2396 -0.4411
   37TMC2    C3  564   2.519   2.929  11.600  0.2330  0.1783 -0.6464
   37TMC2    C4  565   2.438   2.847  11.847  0.1607  0.3412  0.2897
   37TMC2    C5  566   2.565   2.895  11.827  0.6959  0.2795 -0.6641
   37TMC2    C6  567   2.608   2.942  11.699 -0.4006 -0.1902  0.3147
   37TMC2     C  568   2.209   2.827  11.753 -0.1154 -0.1096  0.5573
   37TMC2     O  569   2.142   2.888  11.668 -0.3342  0.5337 -0.1069
   37TMC2     H  570   2.323   2.854  11.541  0.9141  3.3287 -3.0637
   37TMC2    H1  571   2.411   2.820  11.948  0.0094  2.3754  0.7902
   37TMC2    H2  572   2.704   2.987  11.679  0.7761 -2.7216  0.1857
   37TMC2    C7  573   2.657   2.883  11.945 -0.4027  0.3001  0.1302
   37TMC2    C8  574   2.571   2.946  11.469 -0.2648  0.4275  0.1894
   37TMC2    O1  575   2.627   2.815  12.042  0.3734 -0.3222 -0.0710
   37TMC2    O2  576   2.689   2.943  11.447 -0.2127  0.3208  0.2419
   37TMC2    O5  577   2.471   2.956  11.378 -0.1912 -0.1996 -0.6372
   37TMC2    H5  578   2.383   2.958  11.421 -1.1596 -1.2707 -2.6106
   38MPD2     C  579   1.814   2.748  12.066  0.6121  0.2544 -0.4998
   38MPD2    C1  580   1.928   2.710  12.134 -0.1070  0.4924 -0.0702
   38MPD2    C2  581   2.049   2.732  12.064  0.0923  0.4011 -0.1685
   38MPD2    C3  582   2.058   2.786  11.939  0.4049 -0.0617  0.3645
   38MPD2    C4  583   1.940   2.837  11.879 -0.7435 -0.1495 -0.4497
   38MPD2    C5  584   1.820   2.815  11.945  0.4190  0.7658  0.2905
   38MPD2     H  585   2.136   2.682  12.105 -1.1211 -0.2203  1.6296
   38MPD2    H1  586   1.936   2.899  11.791 -2.6682  0.1695 -0.1262
   38MPD2    H2  587   1.717   2.733  12.111  0.2202  0.4326 -1.2874
   38MPD2    H3  588   1.727   2.849  11.901  0.1856 -0.9245 -0.4947
   38MPD2     N  589   2.180   2.783  11.878 -0.1003  0.1750  0.0238
   38MPD2    H5  590   2.250   2.735  11.934  0.4296  1.1797  0.2238
   38MPD2    N1  591   1.929   2.645  12.261 -0.0223 -0.1007 -0.7135
   38MPD2    H7  592   2.017   2.601  12.283 -0.4591 -1.5611 -1.8514
   39MPD2     C  593   0.288   4.500   1.273 -0.4560 -0.2537 -0.3614
   39MPD2    C1  594   0.254   4.537   1.399 -0.3464  0.0535  0.3578
   39MPD2    C2  595   0.126   4.593   1.413  1.2374  0.0118 -0.0393
   39MPD2    C3  596   0.035   4.605   1.312 -0.6252 -0.3252 -0.9581
   39MPD2    C4  597   0.070   4.553   1.189 -1.2565  0.5903  0.0565
   39MPD2    C5  598   0.201   4.511   1.168 -0.0441  0.6050 -0.0161
   39MPD2     H  599   0.102   4.649   1.502  0.0783  2.5616 -1.9428
   39MPD2    H1  600   0.009   4.571   1.102 -0.6082 -1.3721 -0.8159
   39MPD2    H2  601   0.383   4.458   1.242  1.0179  1.3549  2.0148
   39MPD2    H3  602   0.234   4.495   1.066  0.8648 -0.5723  0.4576
   39MPD2     N  603   4.623   4.640   1.326 -0.2274  0.4629 -0.0295
   39MPD2    H5  604   4.571   4.654   1.240  0.2588 -0.9566 -0.5588
   39MPD2    N1  605   0.355   4.535   1.496  0.3194 -0.3717  0.1615
   39MPD2    H7  606   0.449   4.549   1.459  0.5383  2.0561  1.5998
   40TCq2    C1  607   0.335   4.562   1.631  0.1541 -0.5068 -0.2204
   40TCq2    O2  608   0.232   4.586   1.691  0.4773 -0.0770 -0.9034
   40TCq2    C2  609   0.458   4.604   1.684  1.4733 -0.0996 -1.3683
   40TCq2    C3  610   0.581   4.572   1.633  0.0923 -0.4163  0.4418
   40TCq2    C4  611   0.691   4.638   1.663  0.3114 -0.1090  0.4551
   40TCq2    C5  612   0.685   0.019   1.750 -0.3308  0.4322 -0.5133
   40TCq2    C6  613   0.567   0.048   1.803 -0.0186 -0.1172  0.1349
   40TCq2    C7  614   0.444   4.717   1.768  0.0798 -0.0569  0.1415
   40TCq2    C8  615   0.554   0.176   1.858  0.4894  0.3695 -0.2243
   40TCq2    O4  616   0.470   0.193   1.944 -0.5007 -0.0772 -0.3413
   40TCq2    C9  617   0.815   4.596   1.615  0.1941 -0.1707  0.9596
   40TCq2    O5  618   0.918   4.667   1.647  0.2489 -0.0937  0.6403
   40TCq2    O6  619   0.826   4.484   1.554 -0.3047 -0.2409  0.0660
   40TCq2    H2  620   0.582   4.476   1.583 -2.4104 -1.6227  2.7068
   40TCq2    H3  621   0.777   0.065   1.786  0.3993 -0.4094 -1.3124
   40TCq2    H4  622   0.350   0.026   1.812 -0.3625  1.3235 -1.8514
   41TMC2    C1  623   3.836   2.941  13.513 -0.2378 -0.1667  0.3064
   41TMC2    C2  624   3.771   3.028  13.589 -0.4207  0.2791 -0.0236
   41TMC2    C3  625   3.710   3.135  13.535 -0.1191  0.2413  0.2033
   41TMC2    C4  626   3.823   2.949  13.375 -0.0235 -0.4091  0.1351
   41TMC2    C5  627   3.767   3.061  13.317  0.5685  0.2992  0.1961
   41TMC2    C6  628   3.707   3.160  13.394 -0.8203 -0.0484 -0.0255
   41TMC2     C  629   3.850   2.808  13.565  0.0412  0.0806  0.6887
   41TMC2     O  630   3.829   2.719  13.480 -0.4701 -0.0138  0.1647
   41TMC2     H  631   3.765   3.028  13.697  3.5226 -0.4701  0.2245
   41TMC2    H1  632   3.863   2.872  13.310  0.4302 -1.2400  1.3877
   41TMC2    H2  633   3.663   3.242  13.340 -2.4386 -1.4370 -0.8267
   41TMC2    C7  634   3.735   3.067  13.171 -1.0523 -0.5521  0.0186
   41TMC2    C8  635   3.630   3.218  13.622 -0.2446  0.3786 -0.5149
   41TMC2    O1  636   3.730   3.181  13.125 -0.0481  0.4830  0.0959
   41TMC2    O2  637   3.635   3.234  13.746 -0.4538 -0.5711 -0.0716
   41TMC2    O5  638   3.520   3.260  13.555  0.2083  0.0962  0.3069
   41TMC2    H5  639   3.515   3.205  13.474 -0.9165  1.0591 -0.2867
   42MPD2     C  640   3.907   2.556  13.721  0.4417 -0.4639  0.2950
   42MPD2    C1  641   3.893   2.679  13.777 -0.1456 -0.0154 -0.2999
   42MPD2    C2  642   3.905   2.692  13.918 -0.1107  0.2814 -0.6388
   42MPD2    C3  643   3.932   2.582  14.000 -0.3622 -0.3661  0.1101
   42MPD2    C4  644   3.926   2.461  13.943  0.0839 -0.2363 -0.0187
   42MPD2    C5  645   3.921   2.445  13.803 -0.2002  0.1595  0.2678
   42MPD2     H  646   3.894   2.793  13.955 -0.8346  0.0454 -0.2102
   42MPD2    H1  647   3.934   2.372  14.004 -1.4587 -1.3232 -1.3832
   42MPD2    H2  648   3.900   2.535  13.615 -0.7676  0.3945  0.2142
   42MPD2    H3  649   3.931   2.346  13.760 -1.7044 -0.2156  0.7773
   42MPD2     N  650   3.954   2.589  14.145 -0.0388 -0.0007 -0.3829
   42MPD2    H5  651   3.977   2.501  14.191  1.8676  0.5678 -0.2310
   42MPD2    N1  652   3.873   2.801  13.706  0.4209 -0.3844 -0.6450
   42MPD2    H7  653   3.867   2.885  13.762 -0.1334 -1.1475  0.4317
   43MPD2     C  654   1.097   1.154   1.113 -0.3941  0.3774 -0.9914
   43MPD2    C1  655   1.036   1.034   1.089  0.0820 -0.0359  0.1984
   43MPD2    C2  656   0.921   0.999   1.164  0.1359  0.6733 -0.1308
   43MPD2    C3  657   0.877   1.074   1.273 -0.1484  0.0206 -0.1054
   43MPD2    C4  658   0.943   1.194   1.297 -0.5884 -0.3096 -0.7644
   43MPD2    C5  659   1.058   1.225   1.224 -0.6277 -0.3816  0.0428
   43MPD2     H  660   0.881   0.900   1.147 -0.4189  1.2981 -2.3838
   43MPD2    H1  661   0.915   1.250   1.385 -0.2436  1.6285 -1.8940
   43MPD2    H2  662   1.175   1.195   1.050  0.4784  1.1817  0.6089
   43MPD2    H3  663   1.119   1.313   1.238  0.2963 -0.5657 -2.9411
   43MPD2     N  664   0.778   1.039   1.367 -0.1947  0.2139 -0.1871
   43MPD2    H5  665   0.761   1.109   1.438  0.2887 -0.9428  1.0711
   43MPD2    N1  666   1.076   0.949   0.984  0.3627 -0.2150 -0.7156
   43MPD2    H7  667   1.031   0.859   0.994  1.4535 -0.7665 -0.8262
   44TCq2    C1  668   0.360   0.721   1.641  0.2234 -0.1198  0.3069
   44TCq2    O2  669   0.371   0.611   1.591 -0.0205  0.6646  0.0898
   44TCq2    C2  670   0.410   0.844   1.568 -0.3946  0.7053 -0.1801
   44TCq2    C3  671   0.367   0.968   1.615  0.1910  0.4131 -0.3260
   44TCq2    C4  672   0.444   1.082   1.585 -0.6634  0.2882 -0.0269
   44TCq2    C5  673   0.554   1.070   1.502  0.3032 -0.0433  0.4489
   44TCq2    C6  674   0.596   0.942   1.466 -0.2871 -0.2027  0.0398
   44TCq2    C7  675   0.530   0.826   1.497 -0.0169  0.2835 -0.4045
   44TCq2    C8  676   0.703   0.927   1.376  0.1098  0.0997  0.4159
   44TCq2    O4  677   0.710   0.827   1.303  0.6525  0.3689 -0.2810
   44TCq2    C9  678   0.415   1.198   1.673 -0.0662 -0.5669 -0.0753
   44TCq2    O5  679   0.359   1.175   1.784 -0.1750  0.2814 -0.1326
   44TCq2    O6  680   0.464   1.309   1.634  0.0506 -0.6315  0.7148
   44TCq2    H2  681   0.274   0.970   1.671 -0.0988 -0.0046 -0.7968
   44TCq2    H3  682   0.606   1.162   1.475  2.2315 -1.5187 -0.8575
   44TCq2    H4  683   0.565   0.730   1.463  1.1095  0.0435  1.4414
   45TMC2    C1  684   1.909   2.911  10.027 -0.4711  0.3609 -0.8720
   45TMC2    C2  685   1.920   2.831   9.912 -0.8746  0.1260 -0.5162
   45TMC2    C3  686   1.995   2.884   9.811 -0.4414  0.2245 -0.7313
   45TMC2    C4  687   1.963   3.034  10.037  0.4045  0.5442  0.2179
   45TMC2    C5  688   2.056   3.067   9.944 -0.0529  0.8180 -0.2813
   45TMC2    C6  689   2.073   2.996   9.830 -0.2974  0.1621 -0.3325
   45TMC2     C  690   1.801   2.884  10.119  0.7002  0.0576 -0.6911
   45TMC2     O  691   1.793   2.949  10.218  0.1902  0.1637 -0.6671
   45TMC2     H  692   1.900   2.725   9.914  0.9583 -0.2223 -1.0528
   45TMC2    H1  693   1.925   3.096  10.117  1.8669  0.2244  1.1770
   45TMC2    H2  694   2.119   3.045   9.745  0.6637 -0.0317  0.0744
   45TMC2    C7  695   2.102   3.202   9.953 -0.4135  1.0889  0.4065
   45TMC2    C8  696   2.024   2.797   9.701 -0.0424 -0.1458  0.0450
   45TMC2    O1  697   2.137   3.253   9.847  0.0907 -0.6425 -0.0903
   45TMC2    O2  698   2.123   2.816   9.633  0.5067 -0.4957 -0.2421
   45TMC2    O5  699   1.908   2.749   9.658 -0.2343  0.4938  0.3845
   45TMC2    H5  700   1.836   2.766   9.723 -0.5683  0.2521  0.0738
   46MPD2     C  701   1.547   2.788  10.252 -0.7583 -0.3962 -0.3871
   46MPD2    C1  702   1.602   2.740  10.132 -0.4293  0.3263 -0.7654
   46MPD2    C2  703   1.531   2.642  10.067 -0.2699  0.0229 -0.2588
   46MPD2    C3  704   1.421   2.582  10.122  0.9695 -0.3532 -0.0168
   46MPD2    C4  705   1.380   2.617  10.246 -0.1837  0.4952  0.0791
   46MPD2    C5  706   1.444   2.724  10.313 -0.0416  0.2158 -0.2516
   46MPD2     H  707   1.564   2.596   9.975 -0.4560  2.5223 -1.5817
   46MPD2    H1  708   1.296   2.567  10.293 -0.3410  1.1837  0.5251
   46MPD2    H2  709   1.599   2.872  10.296 -0.3485 -0.1156 -1.4082
   46MPD2    H3  710   1.404   2.748  10.411 -2.2542 -1.3330 -0.7731
   46MPD2     N  711   1.343   2.489  10.036  0.3013 -0.6865  0.1700
   46MPD2    H5  712   1.393   2.476   9.948 -1.4662  1.8441 -1.1891
   46MPD2    N1  713   1.710   2.791  10.060 -0.0895  0.5800 -0.0254
   46MPD2    H7  714   1.722   2.760   9.964 -0.5586  2.4868 -0.7034
   47TMC2    C1  715   4.320   3.710   9.708  0.4617 -0.1019 -0.4984
   47TMC2    C2  716   4.357   3.844   9.681 -0.0203 -0.2958 -0.0570
   47TMC2    C3  717   4.297   3.914   9.581 -0.1928 -0.2682 -0.8876
   47TMC2    C4  718   4.226   3.650   9.624  0.3544  0.5309  0.3081
   47TMC2    C5  719   4.172   3.723   9.521  0.2093 -0.0782  0.9823
   47TMC2    C6  720   4.206   3.856   9.498  0.4729 -0.1709  1.4965
   47TMC2     C  721   4.368   3.644   9.825 -0.0111  0.4463 -0.5879
   47TMC2     O  722   4.441   3.710   9.900  0.5680  0.4709  0.5759
   47TMC2     H  723   4.421   3.898   9.749 -1.0690  1.9547 -0.8655
   47TMC2    H1  724   4.194   3.549   9.645 -0.9163  0.7132 -0.7737
   47TMC2    H2  725   4.146   3.910   9.425  0.6245 -0.9111  0.8267
   47TMC2    C7  726   4.074   3.655   9.444  0.1749 -0.2551 -0.4227
   47TMC2    C8  727   4.363   4.035   9.537 -0.1825  0.4841  0.0265
   47TMC2    O1  728   4.100   3.538   9.420 -0.1628 -0.1390 -0.2699
   47TMC2    O2  729   4.440   4.100   9.610  0.0801 -0.3890 -0.2478
   47TMC2    O5  730   4.337   4.065   9.406 -0.7201  0.3191  0.6158
   47TMC2    H5  731   4.313   3.989   9.348 -2.2046 -0.5238  2.3570
   48MPD2     C  732   4.411   3.471  10.060 -0.3509  0.0375  0.1380
   48MPD2    C1  733   4.393   3.423   9.932 -0.4832  0.2223 -0.8422
   48MPD2    C2  734   4.418   3.292   9.903 -0.3427  0.6025 -0.1171
   48MPD2    C3  735   4.471   3.209   9.998  0.4364 -0.4700 -0.0596
   48MPD2    C4  736   4.477   3.251  10.126 -0.3210 -0.6177  0.2321
   48MPD2    C5  737   4.440   3.380  10.159  0.8774  0.5890  0.1877
   48MPD2     H  738   4.403   3.242   9.808  1.1960  0.8276 -0.4811
   48MPD2    H1  739   4.514   3.188  10.206 -0.0566 -1.3117 -0.4420
   48MPD2    H2  740   4.404   3.573  10.096 -1.6113 -0.2986  0.8583
   48MPD2    H3  741   4.458   3.415  10.260  0.0409 -0.0232  0.5567
   48MPD2     N  742   4.507   3.081   9.955  0.3753 -0.4640 -0.2564
   48MPD2    H5  743   4.502   3.069   9.854  2.8400 -1.6708 -0.2349
   48MPD2    N1  744   4.341   3.510   9.825 -0.4585  0.3910  0.3376
   48MPD2    H7  745   4.299   3.471   9.741 -0.3148 -0.2808  0.5772
   49MPD2     C  746   1.141   0.153  10.385  0.6813  0.0701  0.0128
   49MPD2    C1  747   1.231   0.118  10.483 -0.2853 -1.0392 -0.0540
   49MPD2    C2  748   1.292   0.215  10.560 -0.2935  0.6000  0.4030
   49MPD2    C3  749   1.277   0.354  10.529  0.2335  0.1750  0.3062
   49MPD2    C4  750   1.195   0.382  10.425 -0.6092 -0.4610  0.3913
   49MPD2    C5  751   1.134   0.282  10.352 -0.0937  0.2807  0.3500
   49MPD2     H  752   1.358   0.183  10.639 -3.5224 -2.0833  2.0325
   49MPD2    H1  753   1.174   0.486  10.403 -0.3703 -0.5207 -0.1264
   49MPD2    H2  754   1.088   0.079  10.327 -1.2003  2.1875 -0.9648
   49MPD2    H3  755   1.063   0.302  10.273 -0.2858  0.8989  0.6799
   49MPD2     N  756   1.329   0.463  10.597 -0.3407  0.2826 -0.4569
   49MPD2    H5  757   1.304   0.555  10.563  1.7679 -0.2150 -3.3745
   49MPD2    N1  758   1.263   4.705  10.510  0.0512  0.0860 -0.1970
   49MPD2    H7  759   1.335   4.693  10.581 -1.7349 -0.6232  1.4992
   50TCq2    C1  760   1.223   4.600  10.442  0.5857 -0.2407  0.4348
   50TCq2    O2  761   1.161   4.589  10.335 -0.5524 -0.0193 -0.1726
   50TCq2    C2  762   1.296   4.480  10.469 -0.2719  0.1945 -0.1137
   50TCq2    C3  763   1.295   4.383  10.377 -0.3155  0.4508 -0.1162
   50TCq2    C4  764   1.337   4.259  10.416 -0.1384 -0.4643 -0.1009
   50TCq2    C5  765   1.377   4.227  10.541  0.0269  0.4237 -0.9336
   50TCq2    C6  766   1.369   4.329  10.628 -0.0925  0.0857  0.1802
   50TCq2    C7  767   1.339   4.463  10.600  0.8777 -0.0117 -0.1840
   50TCq2    C8  768   1.383   4.304  10.770  0.0113  0.6882 -0.4006
   50TCq2    O4  769   1.418   4.400  10.844  0.1466 -0.4274 -0.0712
   50TCq2    C9  770   1.323   4.152  10.328 -0.2144  0.3281  0.3622
   50TCq2    O5  771   1.224   4.159  10.242 -0.5109 -0.4159  0.0904
   50TCq2    O6  772   1.397   4.055  10.342 -0.6082  0.1496  0.0268
   50TCq2    H2  773   1.266   4.394  10.274  2.5276 -1.5695 -1.1478
   50TCq2    H3  774   1.409   4.127  10.567  1.5309  1.2277  0.3303
   50TCq2    H4  775   1.329   4.536  10.679 -0.0005 -0.7196  0.3559
   51MPD2     C  776   1.524   4.391   0.450  0.6140 -0.8482  0.9231
   51MPD2    C1  777   1.497   4.365   0.579  0.4737 -0.1953  0.0593
   51MPD2    C2  778   1.515   4.468   0.676 -0.7739  0.6347 -0.6001
   51MPD2    C3  779   1.585   4.584   0.640  0.1786 -0.3662 -0.2472
   51MPD2    C4  780   1.624   4.599   0.514  0.8419 -0.1440 -0.5157
   51MPD2    C5  781   1.584   4.512   0.423  0.5501  0.8243  0.0599
   51MPD2     H  782   1.483   4.451   0.779  0.6829 -1.0827 -0.4198
   51MPD2    H1  783   1.683   4.682   0.477 -0.2067  0.4697 -0.8233
   51MPD2    H2  784   1.513   4.323   0.366  1.3418  1.3254 -0.9100
   51MPD2    H3  785   1.614   4.530   0.320  1.7149 -0.0984  0.2265
   51MPD2     N  786   1.610   4.689   0.734 -0.2160 -0.5726 -0.0243
   51MPD2    H5  787   1.661   0.039   0.689  1.6985 -1.3660  0.8366
   51MPD2    N1  788   1.438   4.241   0.624  0.1529 -0.3341 -0.3446
   51MPD2    H7  789   1.420   4.240   0.724  0.4993  1.8035 -0.2675
   52TCq2    C1  790   1.560   4.709   0.856 -0.1657  0.9337 -0.1595
   52TCq2    O2  791   1.485   4.647   0.930 -0.0249  0.3157  0.3637
   52TCq2    C2  792   1.635   0.103   0.912 -0.2550 -0.9525  0.5574
   52TCq2    C3  793   1.569   0.225   0.910 -0.5565  0.5785  0.4308
   52TCq2    C4  794   1.639   0.342   0.926  0.7746  0.4518  0.0598
   52TCq2    C5  795   1.774   0.334   0.949  0.2757 -0.3068  0.2236
   52TCq2    C6  796   1.837   0.213   0.943  0.5824 -0.0992 -0.4032
   52TCq2    C7  797   1.770   0.097   0.922 -0.5960 -0.8957  0.5127
   52TCq2    C8  798   1.976   0.213   1.001  0.1783  0.1223 -0.0392
   52TCq2    O4  799   2.035   0.324   0.997  0.6478  0.0459 -0.0840
   52TCq2    C9  800   1.579   0.472   0.924  0.0159 -0.4852  0.5743
   52TCq2    O5  801   1.661   0.567   0.929 -0.1082 -0.0524  0.1985
   52TCq2    O6  802   1.458   0.481   0.955 -0.4017 -0.0263  0.0117
   52TCq2    H2  803   1.464   0.229   0.884 -1.0881  1.2528  2.7447
   52TCq2    H3  804   1.829   0.425   0.969 -0.6706  0.1167  0.8753
   52TCq2    H4  805   1.814   4.724   0.905  1.7505  0.7421 -2.9623
   53TMC2    C1  806   3.032   2.739  12.556  0.4118  0.7898  0.2425
   53TMC2    C2  807   3.127   2.673  12.624  0.5978  0.0538 -0.3435
   53TMC2    C3  808   3.092   2.588  12.719  0.1261  1.1316 -0.1580
   53TMC2    C4  809   2.893   2.729  12.579 -0.4389 -0.2408 -0.4357
   53TMC2    C5  810   2.866   2.631  12.674 -0.1528  0.5822 -0.2007
   53TMC2    C6  811   2.962   2.572  12.750 -0.4592  0.2818  0.0473
   53TMC2     C  812   3.058   2.838  12.453 -0.0460 -0.3701 -0.4446
   53TMC2     O  813   3.170   2.888  12.455 -0.2368  0.2306 -0.0505
   53TMC2     H  814   3.230   2.689  12.593  0.7309 -0.3169 -0.0856
   53TMC2    H1  815   2.820   2.789  12.527 -0.5196 -0.0787 -0.1338
   53TMC2    H2  816   2.936   2.483  12.806  0.8002 -0.7086 -0.9357
   53TMC2    C7  817   2.723   2.619  12.706  0.7657  0.1482  0.3027
   53TMC2    C8  818   3.183   2.495  12.766  0.4232  0.0934  0.7605
   53TMC2    O1  819   2.643   2.675  12.630 -0.6197  0.3604  0.1756
   53TMC2    O2  820   3.159   2.438  12.872 -0.3313  0.4154 -0.0943
   53TMC2    O5  821   3.265   2.461  12.666  0.2871 -0.3685 -0.4988
   53TMC2    H5  822   3.244   2.497  12.578 -0.7251 -1.8564 -0.8766
   54MPD2     C  823   3.032   3.045  12.233  0.6053 -0.0000 -0.0254
   54MPD2    C1  824   2.950   2.936  12.252 -0.3107  0.1904 -0.7796
   54MPD2    C2  825   2.858   2.914  12.149  0.1466  0.3198  0.8644
   54MPD2    C3  826   2.851   2.995  12.033 -0.0927  0.4934 -0.4051
   54MPD2    C4  827   2.940   3.099  12.010  0.6115 -0.8168 -0.2264
   54MPD2    C5  828   3.025   3.122  12.113  0.4713 -0.4740  0.1191
   54MPD2     H  829   2.792   2.831  12.170 -1.6897  1.5344 -0.1214
   54MPD2    H1  830   2.939   3.165  11.923 -0.0768  2.1519  2.0224
   54MPD2    H2  831   3.116   3.048  12.302 -1.2739  0.0202  2.2919
   54MPD2    H3  832   3.085   3.212  12.110  1.1378 -0.9253 -0.2767
   54MPD2     N  833   2.753   2.979  11.939  0.4413 -0.5773  0.3957
   54MPD2    H5  834   2.757   3.041  11.859  1.3186  0.0339  0.9174
   54MPD2    N1  835   2.963   2.838  12.354 -0.1359 -0.3099 -0.0667
   54MPD2    H7  836   2.896   2.762  12.358  0.4599 -0.7119  2.0802
   55MPD2     C  837   3.148   0.529   0.186  0.5207  0.3885  0.0262
   55MPD2    C1  838   3.129   0.444   0.296 -0.5173  0.1425  0.0169
   55MPD2    C2  839   3.065   0.490   0.412 -0.6435  0.5936  0.1509
   55MPD2    C3  840   3.014   0.626   0.413 -0.1678 -0.1133  0.4348
   55MPD2    C4  841   3.046   0.712   0.306 -0.8201  0.3996 -0.3225
   55MPD2    C5  842   3.109   0.663   0.196  0.4235  0.5036 -1.1518
   55MPD2     H  843   3.031   0.436   0.500 -0.9966 -2.2402 -1.7425
   55MPD2    H1  844   3.013   0.815   0.296  0.7445  1.0875  1.5529
   55MPD2    H2  845   3.181   0.499   0.087  2.6857  0.7671  0.6306
   55MPD2    H3  846   3.122   0.727   0.109 -0.4878  1.4450 -0.5968
   55MPD2     N  847   2.931   0.659   0.525 -0.3017  0.2034  0.2051
   55MPD2    H5  848   2.917   0.585   0.593  0.1367  1.5088  1.7375
   55MPD2    N1  849   3.180   0.317   0.285 -0.4989  0.9063 -0.2436
   55MPD2    H7  850   3.240   0.295   0.207  1.4538  1.5764  1.0544
   56TCq2    C1  851   3.156   0.214   0.379 -0.0670  0.6569 -0.4979
   56TCq2    O2  852   3.064   0.211   0.464 -0.4858 -0.1513  0.5159
   56TCq2    C2  853   3.211   0.088   0.329  0.0806 -0.1789  0.2763
   56TCq2    C3  854   3.293   0.090   0.216  0.1390  0.3464 -1.0530
   56TCq2    C4  855   3.322   4.695   0.161 -0.4268 -0.0420  0.4948
   56TCq2    C5  856   3.278   4.579   0.217 -0.3596 -0.2696 -0.4264
   56TCq2    C6  857   3.198   4.586   0.334  0.1755 -0.2578 -0.5094
   56TCq2    C7  858   3.176   4.704   0.396 -0.2096  0.2938  0.5830
   56TCq2    C8  859   3.166   4.460   0.399  0.1353 -0.4076  0.7955
   56TCq2    O4  860   3.223   4.360   0.361 -0.3849  0.3392  0.0154
   56TCq2    C9  861   3.393   4.689   0.028  0.0227  0.0883  0.0839
   56TCq2    O5  862   3.435   0.076  17.688  0.2058 -0.1622  0.0497
   56TCq2    O6  863   3.444   4.579   0.005 -0.1532  0.1371  0.1260
   56TCq2    H2  864   3.335   0.181   0.172  0.2460  0.9637  0.3388
   56TCq2    H3  865   3.286   4.481   0.172 -0.9104  0.5716 -2.3702
   56TCq2    H4  866   3.134   4.711   0.496 -0.6153 -1.4166  0.5453
   57TMC2    C1  867   2.557   1.283  13.709  0.2289 -0.1101 -0.4733
   57TMC2    C2  868   2.679   1.247  13.768 -0.7288 -0.0158 -0.2356
   57TMC2    C3  869   2.771   1.182  13.690  0.7074  0.5239 -0.0546
   57TMC2    C4  870   2.543   1.259  13.573 -0.0359  0.3836  0.3556
   57TMC2    C5  871   2.638   1.184  13.500  0.3329 -0.0813 -0.0023
   57TMC2    C6  872   2.752   1.141  13.562  0.9339 -0.0451 -0.1294
   57TMC2     C  873   2.452   1.354  13.780  0.5585  0.1900  0.1217
   57TMC2     O  874   2.350   1.370  13.710  0.4998  0.2155 -0.3961
   57TMC2     H  875   2.713   1.268  13.869  2.0382 -0.1487 -1.1580
   57TMC2    H1  876   2.449   1.291  13.529 -0.8459 -0.2334  1.6364
   57TMC2    H2  877   2.838   1.094  13.515  0.0132 -1.0544 -0.8046
   57TMC2    C7  878   2.638   1.210  13.357  0.0199  0.6124 -0.2269
   57TMC2    C8  879   2.885   1.112  13.749  0.7769 -0.8823  0.6163
   57TMC2    O1  880   2.549   1.280  13.311 -0.2651 -0.4431 -0.6887
   57TMC2    O2  881   2.974   1.167  13.815  0.1703  0.1122 -0.2095
   57TMC2    O5  882   2.854   0.983  13.740  0.1770  0.0805 -0.4659
   57TMC2    H5  883   2.783   0.961  13.676  1.4899 -0.4027 -1.7576
   58MPD2     C  884   2.221   1.590  14.168 -0.1161  0.2599 -0.0621
   58MPD2    C1  885   2.174   1.560  14.040 -0.1114 -0.0475  0.0445
   58MPD2    C2  886   2.252   1.482  13.954 -0.1397 -0.8856 -0.5019
   58MPD2    C3  887   2.372   1.445  13.996 -0.1175 -0.7783  0.8752
   58MPD2    C4  888   2.423   1.478  14.123  0.0411 -0.6159  0.3830
   58MPD2    C5  889   2.344   1.544  14.209 -0.1106  0.6350  0.1133
   58MPD2     H  890   2.205   1.458  13.860  0.5585 -0.4570 -0.9665
   58MPD2    H1  891   2.524   1.449  14.153  1.2586  2.8051 -0.4547
   58MPD2    H2  892   2.164   1.662  14.226 -0.1888  0.1485  0.0039
   58MPD2    H3  893   2.386   1.566  14.307 -1.5818 -4.0186  1.8013
   58MPD2     N  894   2.471   1.375  13.918 -0.0038  0.3489 -0.1920
   58MPD2    H5  895   2.559   1.347  13.962  0.5619 -0.1639 -1.6466
   58MPD2    N1  896   2.048   1.606  13.998  0.3072 -0.6238  0.2736
   58MPD2    H7  897   2.028   1.587  13.901  1.1849 -0.6505  0.0939
   59MPD2     C  898   4.584   1.528  13.269  0.7356  0.0626  0.4678
   59MPD2    C1  899   4.691   1.491  13.195  0.6865 -0.1952 -0.3333
   59MPD2    C2  900   0.097   1.503  13.247 -0.0894  0.6365 -0.3686
   59MPD2    C3  901   0.114   1.538  13.381 -0.0671  0.3333 -0.5358
   59MPD2    C4  902   0.003   1.580  13.448  0.4925 -0.7796  0.2486
   59MPD2    C5  903   4.598   1.567  13.401  0.5957  0.1803  0.0921
   59MPD2     H  904   0.174   1.471  13.178 -2.9407 -2.4208 -2.1884
   59MPD2    H1  905   0.013   1.616  13.550  0.8450  1.0473 -0.4336
   59MPD2    H2  906   4.483   1.534  13.230  1.3375  0.4850 -1.0231
   59MPD2    H3  907   4.515   1.605  13.459  1.1554 -1.6599  2.0810
   59MPD2     N  908   0.238   1.542  13.439  0.4280 -0.7143  0.1685
   59MPD2    H5  909   0.242   1.583  13.532  0.8348 -0.6976  0.1433
   59MPD2    N1  910   4.675   1.442  13.062 -0.4959  0.0783  0.2604
   59MPD2    H7  911   0.035   1.415  13.012 -0.8425  1.9167 -1.3277
   60TCq2    C1  912   4.559   1.383  13.022 -0.8435 -0.1754 -0.7285
   60TCq2    O2  913   4.464   1.345  13.083  0.6874  0.4730 -0.2878
   60TCq2    C2  914   4.571   1.334  12.888  0.8282  0.5995 -0.4577
   60TCq2    C3  915   4.508   1.217  12.871  0.2216 -0.6849  0.4300
   60TCq2    C4  916   4.542   1.150  12.757 -0.0719 -0.7046 -0.1201
   60TCq2    C5  917   4.629   1.201  12.659  0.3888  0.0422  0.3064
   60TCq2    C6  918   4.693   1.316  12.690 -0.9883 -0.5766  0.3093
   60TCq2    C7  919   4.668   1.379  12.808  0.6461 -0.9612  0.6765
   60TCq2    C8  920   0.037   1.389  12.575  0.2285  0.3400  0.4906
   60TCq2    O4  921   0.080   1.315  12.487 -0.0732 -0.7793  0.0587
   60TCq2    C9  922   4.481   1.028  12.721  0.2537 -0.2695  0.1628
   60TCq2    O5  923   4.546   0.949  12.651  0.1526  0.3725  0.0702
   60TCq2    O6  924   4.356   1.022  12.725  0.2341  0.0716  0.2229
   60TCq2    H2  925   4.428   1.180  12.933 -0.0236 -1.1363 -0.1504
   60TCq2    H3  926   4.649   1.148  12.567  2.1832  0.6088  0.3796
   60TCq2    H4  927   0.010   1.462  12.825  0.2054 -0.6124  0.6950
   61MPD2     C  928   4.533   2.792  15.822  0.0976 -0.2200  0.6506
   61MPD2    C1  929   4.500   2.910  15.762 -0.0720 -0.6787  0.2834
   61MPD2    C2  930   4.564   2.950  15.649 -0.0965  0.1233  0.2489
   61MPD2    C3  931   4.666   2.876  15.593  0.0718  0.9032  0.0410
   61MPD2    C4  932   4.695   2.752  15.643 -0.4452  0.1025 -0.1410
   61MPD2    C5  933   4.633   2.711  15.763  0.6053  0.3189  0.1642
   61MPD2     H  934   4.542   3.046  15.602  2.4227  0.5063 -0.1450
   61MPD2    H1  935   0.029   2.680  15.588  0.2453  0.3082  0.3329
   61MPD2    H2  936   4.499   2.761  15.920  0.2679 -0.3680  0.6631
   61MPD2    H3  937   4.662   2.613  15.798 -0.5671  0.0406  0.3655
   61MPD2     N  938   0.003   2.914  15.465  0.9643  0.3962  0.0049
   61MPD2    H5  939   0.049   2.833  15.423 -1.1219 -0.5509 -0.4705
   61MPD2    N1  940   4.408   3.007  15.816 -0.1124 -0.2260 -0.9209
   61MPD2    H7  941   4.394   3.095  15.767 -0.1721 -0.7661 -1.8760
   62TCq2    C1  942   4.340   3.000  15.934  0.4581 -0.4709  0.6900
   62TCq2    O2  943   4.319   2.910  16.014  0.1754 -0.0109 -0.0715
   62TCq2    C2  944   4.256   3.121  15.949  0.4514  0.1536 -0.1235
   62TCq2    C3  945   4.154   3.105  16.039  0.3447  0.2342 -0.4304
   62TCq2    C4  946   4.066   3.210  16.060  0.9678  0.2049 -0.3209
   62TCq2    C5  947   4.074   3.322  15.988 -0.1767 -0.6429 -0.7927
   62TCq2    C6  948   4.171   3.332  15.890 -0.4865  0.0141  0.0594
   62TCq2    C7  949   4.267   3.239  15.878 -0.0641  0.2017 -0.3674
   62TCq2    C8  950   4.158   3.428  15.783 -0.2955  0.7715  0.7455
   62TCq2    O4  951   4.253   3.448  15.707 -0.3523  0.2612  0.3945
   62TCq2    C9  952   3.952   3.188  16.136  0.1034 -0.9773  0.0454
   62TCq2    O5  953   3.858   3.273  16.123 -0.4565  0.3017  0.2307
   62TCq2    O6  954   3.929   3.075  16.186 -0.0269 -0.2676  0.3788
   62TCq2    H2  955   4.142   3.018  16.102 -2.6291 -0.0859 -1.4345
   62TCq2    H3  956   4.001   3.402  15.995 -0.6142 -1.3868  2.9997
   62TCq2    H4  957   4.345   3.255  15.804 -0.0490  0.5064 -0.2848
   63TMC2    C1  958   3.833   3.471  10.082 -0.7361  0.2878  0.1573
   63TMC2    C2  959   3.914   3.445  10.186 -0.0464  0.3376 -0.1227
   63TMC2    C3  960   4.030   3.514  10.197 -0.0238  0.4684  0.7332
   63TMC2    C4  961   3.875   3.546   9.972 -0.8750 -0.0958 -0.4606
   63TMC2    C5  962   3.996   3.602   9.980 -0.8357  0.7433  0.6404
   63TMC2    C6  963   4.076   3.591  10.091  0.0409  0.4995 -0.1566
   63TMC2     C  964   3.719   3.389  10.075  0.7600 -0.3842  0.4649
   63TMC2     O  965   3.646   3.431   9.987 -0.1865  0.0943  0.0943
   63TMC2     H  966   3.881   3.408  10.282  0.1530  0.3192 -0.0613
   63TMC2    H1  967   3.802   3.564   9.893 -2.2506  0.5506  0.9699
   63TMC2    H2  968   4.182   3.614  10.097  0.7529 -2.1780 -2.5412
   63TMC2    C7  969   4.012   3.714   9.889 -0.3744  0.8366  0.4055
   63TMC2    C8  970   4.140   3.457  10.279  0.0439  0.5130  0.7573
   63TMC2    O1  971   3.949   3.716   9.783 -0.0401 -0.5178 -0.3934
   63TMC2    O2  972   4.123   3.349  10.333  0.1880  0.3122  0.0238
   63TMC2    O5  973   4.219   3.556  10.334 -0.1372  0.0886  0.4557
   63TMC2    H5  974   4.204   3.646  10.299  2.1434  0.7136  1.0690
   64MPD2     C  975   3.407   2.993  10.177 -0.1407  0.1060  0.6597
   64MPD2    C1  976   3.521   2.976  10.253 -0.2530  0.2586 -0.0224
   64MPD2    C2  977   3.618   3.075  10.243  0.3528  0.7543  0.4504
   64MPD2    C3  978   3.601   3.184  10.164 -0.5429  0.0346 -0.9009
   64MPD2    C4  979   3.492   3.189  10.085 -0.2268  0.2630 -0.1368
   64MPD2    C5  980   3.388   3.100  10.095  0.5025 -0.4672  0.1439
   64MPD2     H  981   3.713   3.065  10.294 -0.1729 -0.4690  1.1925
   64MPD2    H1  982   3.475   3.276  10.023 -0.2698  1.4346  1.4895
   64MPD2    H2  983   3.326   2.921  10.180 -0.4638  0.3925 -1.6081
   64MPD2    H3  984   3.291   3.114  10.050 -0.0921  0.9742  1.8352
   64MPD2     N  985   3.707   3.279  10.163 -0.0768  0.7184 -0.0765
   64MPD2    H5  986   3.786   3.247  10.219  0.0096 -1.5742 -1.4745
   64MPD2    N1  987   3.550   2.859  10.328  0.0526 -0.7525 -0.0954
   64MPD2    H7  988   3.647   2.832  10.345  0.0981 -1.4490 -1.4743
   65MPD2     C  989   0.196   2.719  16.179 -0.4809  0.0297 -0.2829
   65MPD2    C1  990   0.203   2.682  16.049  0.2835 -0.0362 -0.4371
   65MPD2    C2  991   0.200   2.551  16.024  0.2107 -0.7124  0.1067
   65MPD2    C3  992   0.161   2.455  16.116 -0.5188 -0.5381  0.4110
   65MPD2    C4  993   0.141   2.495  16.244 -0.9786 -0.1992 -0.5706
   65MPD2    C5  994   0.156   2.627  16.276  0.4499  0.6245 -0.1607
   65MPD2     H  995   0.209   2.518  15.921  2.9163  0.1475  0.0602
   65MPD2    H1  996   0.103   2.427  16.320  3.5337 -0.8877  1.0737
   65MPD2    H2  997   0.196   2.825  16.202  1.2788 -0.0623  0.1605
   65MPD2    H3  998   0.131   2.658  16.377 -1.1289 -2.1334  0.3063
   65MPD2     N  999   0.133   2.320  16.077  0.3987  0.2020  0.1700
   65MPD2    H5 1000   0.099   2.268  16.157  0.9198  0.7166  0.7302
   65MPD2    N1 1001   0.235   2.764  15.940  0.0737 -0.6363 -0.4568
   65MPD2    H7 1002   0.247   2.717  15.851  0.9237 -1.8714  0.3033
   66TCq2    C1 1003   0.274   2.895  15.936 -0.2116  0.8215 -0.3620
   66TCq2    O2 1004   0.268   2.979  16.021 -0.1974 -0.6437  0.5770
   66TCq2    C2 1005   0.319   2.948  15.807 -0.0671  0.4333 -0.2173
   66TCq2    C3 1006   0.349   2.852  15.712 -0.4852 -0.9610 -0.3499
   66TCq2    C4 1007   0.351   2.896  15.587 -0.0960  0.8123 -0.5105
   66TCq2    C5 1008   0.323   3.024  15.547 -0.2135 -0.1695 -0.0441
   66TCq2    C6 1009   0.272   3.107  15.645  0.5070 -0.6377 -0.5299
   66TCq2    C7 1010   0.262   3.073  15.777 -0.9455 -0.1817  0.5561
   66TCq2    C8 1011   0.228   3.242  15.608 -0.3387 -0.1886 -0.3523
   66TCq2    O4 1012   0.288   3.288  15.509 -0.2019 -0.1378  0.6240
   66TCq2    C9 1013   0.381   2.797  15.485  0.6837  0.5042  0.1489
   66TCq2    O5 1014   0.388   2.838  15.369 -0.2792 -0.3198  0.0234
   66TCq2    O6 1015   0.399   2.675  15.516  0.5155 -0.1818  0.0237
   66TCq2    H2 1016   0.404   2.761  15.730  0.9638 -0.3532 -1.7295
   66TCq2    H3 1017   0.335   3.065  15.448 -1.3139  0.2310 -0.0051
   66TCq2    H4 1018   0.236   3.145  15.854  1.3047  0.6388  0.5273
   67MPD2     C 1019   0.233   1.752  14.303 -0.3525 -0.8231  0.2635
   67MPD2    C1 1020   0.158   1.848  14.368 -0.2791 -0.8326 -0.0662
   67MPD2    C2 1021   0.029   1.868  14.323  0.1244  0.5436  0.5662
   67MPD2    C3 1022   4.705   1.790  14.221 -0.6344  0.0818 -0.0747
   67MPD2    C4 1023   0.058   1.690  14.164 -0.3786 -0.0575 -0.9424
   67MPD2    C5 1024   0.190   1.670  14.203  0.4305 -0.0889 -0.3154
   67MPD2     H 1025   4.684   1.936  14.370 -2.4679 -2.1297  0.5367
   67MPD2    H1 1026   0.015   1.614  14.101 -0.5386  0.2014 -1.1449
   67MPD2    H2 1027   0.335   1.733  14.337 -0.3426 -0.3519  0.4933
   67MPD2    H3 1028   0.256   1.595  14.163  1.6358  0.5587  0.4728
   67MPD2     N 1029   4.565   1.788  14.183 -0.2274  0.1547 -0.3163
   67MPD2    H5 1030   4.524   1.740  14.103 -1.1326  0.5836 -0.1126
   67MPD2    N1 1031   0.195   1.933  14.467 -1.0293  0.2034  0.1208
   67MPD2    H7 1032   0.132   2.004  14.502  1.1794  2.0100  0.4438
   68TCq2    C1 1033   0.309   1.911  14.547  0.4728 -0.4771  0.8323
   68TCq2    O2 1034   0.409   1.839  14.521  0.3493 -0.2124 -0.0580
   68TCq2    C2 1035   0.304   1.996  14.663 -0.5930 -0.6537  0.1230
   68TCq2    C3 1036   0.226   2.119  14.663  0.5225 -1.3958  0.5063
   68TCq2    C4 1037   0.257   2.213  14.759  0.2284 -0.4648 -0.3980
   68TCq2    C5 1038   0.355   2.189  14.853  0.0651  0.2166 -0.2746
   68TCq2    C6 1039   0.430   2.081  14.840  0.0247 -0.4091  0.1099
   68TCq2    C7 1040   0.401   1.981  14.749 -0.5245 -0.3085  0.4477
   68TCq2    C8 1041   0.559   2.070  14.916 -0.2150 -0.4308 -0.4156
   68TCq2    O4 1042   0.623   1.973  14.890  0.1790  0.2185  0.1451
   68TCq2    C9 1043   0.166   2.328  14.770 -0.6310  0.2647  0.9193
   68TCq2    O5 1044   0.154   2.375  14.887 -0.3170 -0.0363  0.4929
   68TCq2    O6 1045   0.122   2.372  14.661  0.1823 -0.3951 -0.5966
   68TCq2    H2 1046   0.148   2.138  14.591 -0.6672 -0.1910  2.1246
   68TCq2    H3 1047   0.369   2.268  14.925 -1.9539 -0.0897  0.4604
   68TCq2    H4 1048   0.464   1.892  14.748  1.1019  0.8118  3.0456
   69TMC2    C1 1049   2.191   3.072  12.301  0.0133  0.2436 -0.1698
   69TMC2    C2 1050   2.056   3.066  12.293  0.0323  0.3316 -0.1339
   69TMC2    C3 1051   1.996   3.096  12.175 -0.6238 -0.2063 -0.3176
   69TMC2    C4 1052   2.263   3.103  12.185 -0.2067  0.8413  0.8084
   69TMC2    C5 1053   2.198   3.124  12.071 -0.3007  0.0299  0.1868
   69TMC2    C6 1054   2.062   3.116  12.057 -0.3714 -0.0827 -0.2152
   69TMC2     C 1055   2.255   3.047  12.429 -0.5489  1.0773  0.0541
   69TMC2     O 1056   2.190   2.982  12.507  0.2551 -0.4656  0.3240
   69TMC2     H 1057   1.995   3.042  12.379  0.6379 -1.0665 -0.0935
   69TMC2    H1 1058   2.371   3.105  12.198 -0.2225 -0.2255  1.1766
   69TMC2    H2 1059   2.007   3.115  11.964  1.0384  0.0498 -1.0565
   69TMC2    C7 1060   2.290   3.162  11.964 -1.2875  0.0434 -0.0433
   69TMC2    C8 1061   1.850   3.092  12.150  0.3490  0.4653  0.4308
   69TMC2    O1 1062   2.413   3.144  11.977 -0.1888 -0.0290  0.0121
   69TMC2    O2 1063   1.806   3.130  12.045  0.5634 -0.1256 -0.3144
   69TMC2    O5 1064   1.779   3.045  12.259 -0.3084 -0.3585  0.2211
   69TMC2    H5 1065   1.837   3.015  12.333  1.7170  1.6290 -0.5851
   70MPD2     C 1066   2.615   3.047  12.496  0.4233  0.1432  0.0338
   70MPD2    C1 1067   2.482   3.031  12.532  0.0175 -0.4850  0.6241
   70MPD2    C2 1068   2.446   3.002  12.661 -0.4553  0.2313  0.2035
   70MPD2    C3 1069   2.538   3.000  12.761 -0.2570 -0.5884 -0.5316
   70MPD2    C4 1070   2.672   3.018  12.721 -0.3138  0.3184 -0.0731
   70MPD2    C5 1071   2.710   3.040  12.594 -0.4110 -0.3072 -0.0464
   70MPD2     H 1072   2.344   2.986  12.694 -0.6069  0.6053 -0.0829
   70MPD2    H1 1073   2.745   3.011  12.800  1.7873 -0.4631 -2.0829
   70MPD2    H2 1074   2.647   3.081  12.399  2.2073 -0.8092  0.2727
   70MPD2    H3 1075   2.814   3.058  12.568 -0.9127  1.1164 -0.9992
   70MPD2     N 1076   2.513   2.980  12.901 -1.3404  0.4483 -0.1379
   70MPD2    H5 1077   2.601   2.962  12.950  0.4297  0.8755 -3.1680
   70MPD2    N1 1078   2.391   3.067  12.427 -0.4684  0.4407  0.2950
   70MPD2    H7 1079   2.431   3.099  12.340 -0.6819 -0.8906 -0.2896
   71TMC2    C1 1080   0.211   4.149   1.286  0.1081  0.3916 -0.9018
   71TMC2    C2 1081   0.337   4.166   1.293  0.0139 -0.4283  0.2425
   71TMC2    C3 1082   0.397   4.154   1.415 -0.1705  0.3201  0.1757
   71TMC2    C4 1083   0.142   4.111   1.398  0.3385  0.0425 -0.1473
   71TMC2    C5 1084   0.199   4.093   1.522  0.4616  0.0352 -0.1431
   71TMC2    C6 1085   0.331   4.116   1.531  0.0466 -0.2961  0.2562
   71TMC2     C 1086   0.145   4.176   1.164 -0.2531 -0.0854 -0.1885
   71TMC2     O 1087   0.026   4.202   1.168 -0.2227  0.0676  0.1792
   71TMC2     H 1088   0.394   4.209   1.211 -1.6186  1.8525  0.3180
   71TMC2    H1 1089   0.037   4.098   1.373  0.5255  0.9056 -1.3736
   71TMC2    H2 1090   0.383   4.115   1.627 -1.5786  0.4573  1.1359
   71TMC2    C7 1091   0.124   4.042   1.641  0.1310 -0.0701  0.6635
   71TMC2    C8 1092   0.533   4.201   1.426  0.4814 -0.6361 -0.4968
   71TMC2    O1 1093   0.174   4.055   1.755  0.2014  0.0675 -0.2224
   71TMC2    O2 1094   0.568   4.306   1.378  0.1777  0.0469  0.1312
   71TMC2    O5 1095   0.607   4.122   1.509 -0.2882  0.8755 -0.3116
   71TMC2    H5 1096   0.571   4.034   1.535  1.1646  0.7093  1.0880
   72MPD2     C 1097   0.094   4.198   0.656  1.2573  0.2873 -0.6848
   72MPD2    C1 1098   0.007   4.246   0.751 -0.4488 -0.1517 -0.2620
   72MPD2    C2 1099   0.043   4.233   0.880 -0.3167  0.0395 -0.3352
   72MPD2    C3 1100   0.163   4.168   0.912  0.3606  0.2435  0.1901
   72MPD2    C4 1101   0.255   4.132   0.815  0.5327  0.0935  0.2923
   72MPD2    C5 1102   0.221   4.151   0.684  0.4591 -0.8244  0.0365
   72MPD2     H 1103   4.712   4.284   0.958  1.1740 -0.0196  0.7800
   72MPD2    H1 1104   0.349   4.084   0.842  1.0803  1.2100  0.3452
   72MPD2    H2 1105   0.066   4.213   0.552 -1.4889 -1.5307 -0.2177
   72MPD2    H3 1106   0.284   4.123   0.601  0.1245  0.9079 -0.8093
   72MPD2     N 1107   0.214   4.161   1.044  0.0467 -0.1402 -0.2418
   72MPD2    H5 1108   0.307   4.120   1.046  0.4198  0.6488 -1.5650
   72MPD2    N1 1109   4.603   4.305   0.721 -0.3681  0.2710 -0.2377
   72MPD2    H7 1110   4.554   4.338   0.804 -0.8230 -0.2930 -0.2820
   73TMC2    C1 1111   4.709   1.238  14.311  0.0819 -0.1370 -0.3806
   73TMC2    C2 1112   0.015   1.126  14.379 -0.6511 -0.1388  0.1927
   73TMC2    C3 1113   0.142   1.102  14.413  0.1232 -0.0164 -0.2443
   73TMC2    C4 1114   0.077   1.329  14.269 -0.2429 -0.0189  0.3381
   73TMC2    C5 1115   0.206   1.303  14.303  0.0555  0.3585  0.1603
   73TMC2    C6 1116   0.245   1.195  14.383 -0.0963 -0.1254 -0.0156
   73TMC2     C 1117   4.620   1.213  14.200  0.3782  1.0274  0.1554
   73TMC2     O 1118   4.676   1.241  14.095 -0.1858 -0.0604  0.8464
   73TMC2     H 1119   4.666   1.049  14.401 -1.9911  1.5864  1.7764
   73TMC2    H1 1120   0.056   1.421  14.216  1.9586  0.8524  0.9550
   73TMC2    H2 1121   0.350   1.169  14.381 -0.6010 -2.0114 -2.4338
   73TMC2    C7 1122   0.290   1.314  14.191 -0.3814 -0.1237 -0.3530
   73TMC2    C8 1123   0.187   0.966  14.448 -0.2228 -0.3564 -0.2583
   73TMC2    O1 1124   0.407   1.337  14.211 -0.0749 -0.0549 -0.0388
   73TMC2    O2 1125   0.126   0.862  14.434 -0.2243 -0.1889  0.0290
   73TMC2    O5 1126   0.293   0.987  14.538  0.4097 -0.1444 -0.0457
   73TMC2    H5 1127   0.332   1.077  14.543  1.3217 -0.3274 -3.7647
   74MPD2     C 1128   4.217   1.024  13.956  0.0254 -0.4100 -0.0179
   74MPD2    C1 1129   4.333   1.078  13.907  0.5720 -0.5105  0.0568
   74MPD2    C2 1130   4.425   1.116  14.000  0.2053 -0.2076  0.4184
   74MPD2    C3 1131   4.399   1.103  14.133 -0.5098 -0.5647  0.8381
   74MPD2    C4 1132   4.291   1.041  14.177 -0.0053  0.0033 -0.1273
   74MPD2    C5 1133   4.207   0.994  14.090  0.0303  0.7977  0.5215
   74MPD2     H 1134   4.521   1.156  13.968 -0.7052 -0.2658 -2.3854
   74MPD2    H1 1135   4.276   1.043  14.284  1.0152 -0.3653  0.0143
   74MPD2    H2 1136   4.137   0.993  13.890 -0.3201  0.5973 -0.0815
   74MPD2    H3 1137   4.117   0.948  14.129 -0.9349  0.7783 -1.7056
   74MPD2     N 1138   4.500   1.145  14.224  0.4360  0.6050 -0.2220
   74MPD2    H5 1139   4.469   1.139  14.320  1.0179 -1.2983 -0.1543
   74MPD2    N1 1140   4.359   1.086  13.760 -0.2017 -0.2231 -0.7988
   74MPD2    H7 1141   4.296   1.040  13.696 -0.3164  1.2041 -1.7128
   75TCq2    C1 1142   4.469   1.858  14.249  0.0564  0.5258 -0.4123
   75TCq2    O2 1143   4.468   1.917  14.355  0.3683  0.5379  0.1908
   75TCq2    C2 1144   4.341   1.826  14.205  0.3022  0.6916  0.6022
   75TCq2    C3 1145   4.251   1.800  14.308  0.0856  0.3396  1.4867
   75TCq2    C4 1146   4.120   1.780  14.274  0.3924 -0.8594  0.5966
   75TCq2    C5 1147   4.071   1.789  14.141 -0.8232 -0.7323  0.1585
   75TCq2    C6 1148   4.164   1.817  14.046 -1.2886 -0.0986  0.2777
   75TCq2    C7 1149   4.297   1.846  14.074  0.3101  0.0311 -0.0027
   75TCq2    C8 1150   4.115   1.838  13.912 -0.4423  0.8542  0.3013
   75TCq2    O4 1151   4.179   1.795  13.817 -0.7732 -0.7771  0.4377
   75TCq2    C9 1152   4.026   1.755  14.383  0.8330 -0.1398  0.7288
   75TCq2    O5 1153   3.904   1.742  14.353 -0.1643 -0.0673 -0.1338
   75TCq2    O6 1154   4.059   1.801  14.496 -0.2327 -0.2882  0.4249
   75TCq2    H2 1155   4.276   1.793  14.413 -0.5202 -1.0167  1.5351
   75TCq2    H3 1156   3.965   1.770  14.128 -1.3417  1.4438  1.1880
   75TCq2    H4 1157   4.364   1.871  13.992  0.8946  0.8813  0.7340
   76MPD2     C 1158   3.401   3.207  11.911 -0.8992  0.0237 -0.3997
   76MPD2    C1 1159   3.364   3.171  11.783  0.6076  0.4636  0.3366
   76MPD2    C2 1160   3.419   3.061  11.722  0.2890 -0.4600  0.4845
   76MPD2    C3 1161   3.498   2.977  11.799 -0.5441  0.0695  0.6714
   76MPD2    C4 1162   3.533   3.013  11.932  0.0987 -0.2356  0.6631
   76MPD2    C5 1163   3.495   3.131  11.979  0.2869  0.6347 -1.3899
   76MPD2     H 1164   3.394   3.050  11.617 -0.7567  0.5716  0.6264
   76MPD2    H1 1165   3.599   2.950  11.991  1.2244  1.6859  1.4688
   76MPD2    H2 1166   3.355   3.293  11.959 -0.0310  0.5118 -0.4478
   76MPD2    H3 1167   3.508   3.160  12.083  0.2748  1.4118 -1.6084
   76MPD2     N 1168   3.566   2.860  11.745  0.5200  0.0858 -0.5979
   76MPD2    H5 1169   3.636   2.809  11.797 -0.9640 -1.5220 -0.1936
   76MPD2    N1 1170   3.263   3.237  11.707  0.7550 -0.3323 -0.5820
   76MPD2    H7 1171   3.242   3.198  11.616 -0.3795 -0.3984 -0.3023
   77TCq2    C1 1172   3.532   2.810  11.624  0.5595 -0.0675  0.3187
   77TCq2    O2 1173   3.450   2.855  11.545  0.0324 -0.3385  0.1452
   77TCq2    C2 1174   3.610   2.702  11.582 -1.0416 -0.0948  0.0474
   77TCq2    C3 1175   3.602   2.683  11.445 -0.0031 -0.7531  0.1455
   77TCq2    C4 1176   3.614   2.559  11.402  0.3321 -0.1768  1.1612
   77TCq2    C5 1177   3.645   2.464  11.494 -0.2099  0.1646 -0.2490
   77TCq2    C6 1178   3.667   2.484  11.627  0.2053 -0.5763  0.1132
   77TCq2    C7 1179   3.647   2.608  11.675  0.2895 -0.0327  0.4946
   77TCq2    C8 1180   3.715   2.373  11.704 -0.3567  0.0530  0.8746
   77TCq2    O4 1181   3.721   2.274  11.637 -0.2985 -0.2620 -0.1682
   77TCq2    C9 1182   3.569   2.530  11.268  0.4979 -0.1187  0.2027
   77TCq2    O5 1183   3.559   2.625  11.189  0.1462 -0.1984  0.1198
   77TCq2    O6 1184   3.565   2.412  11.232 -0.2816  0.7507  0.4532
   77TCq2    H2 1185   3.579   2.762  11.375 -1.9672 -1.5361 -0.1069
   77TCq2    H3 1186   3.650   2.365  11.449  0.4141 -1.0404  2.4709
   77TCq2    H4 1187   3.635   2.636  11.779 -0.2892  0.3864  0.3123
   78MPD1     C 1188   3.349   2.753   0.692 -0.2361  0.1239 -0.0247
   78MPD1    C1 1189   3.470   2.794   0.646 -0.2552  0.1308 -0.1600
   78MPD1    C2 1190   3.553   2.876   0.730 -0.0335 -0.0763 -0.5990
   78MPD1    C3 1191   3.509   2.932   0.842 -0.0144 -0.0558 -0.9828
   78MPD1    C4 1192   3.380   2.894   0.882  0.4804  0.3069 -0.0828
   78MPD1    C5 1193   3.304   2.805   0.810 -1.0104  1.1094  0.3400
   78MPD1     H 1194   3.652   2.905   0.695  0.5256 -1.0801  0.1791
   78MPD1    H1 1195   3.339   2.925   0.977 -0.5054 -0.3100 -0.3004
   78MPD1    H2 1196   3.284   2.678   0.646  0.8856 -2.3703  2.4460
   78MPD1    H3 1197   3.207   2.776   0.848 -0.2991 -2.1101 -0.3266
   78MPD1     N 1198   3.590   3.012   0.921 -0.7096  0.4562 -0.2707
   78MPD1    H5 1199   3.546   3.035   1.009  0.1658  0.9598  0.0298
   78MPD1    N1 1200   3.533   2.731   0.542 -0.1863  0.3283  0.1807
   78MPD1    H6 1201   3.466   2.712   0.468 -0.2499  0.5127  0.1926
   78MPD1    H7 1202   3.608   2.787   0.504 -0.2094 -0.4143 -0.9771
   79TCq2    C1 1203   3.715   3.066   0.901 -0.5988 -0.5454  0.2620
   79TCq2    O2 1204   3.775   3.066   0.793  0.0426 -0.1994 -0.3746
   79TCq2    C2 1205   3.767   3.143   1.016 -0.3606  0.5188  0.2168
   79TCq2    C3 1206   3.703   3.144   1.141 -0.5020  0.1337 -0.2561
   79TCq2    C4 1207   3.757   3.202   1.255  0.3009  0.0913  0.4632
   79TCq2    C5 1208   3.882   3.260   1.244  0.1963 -0.5170  0.1584
   79TCq2    C6 1209   3.941   3.266   1.119 -0.1176  0.0807 -0.4855
   79TCq2    C7 1210   3.890   3.205   1.004  0.8782  0.1370 -0.4741
   79TCq2    C8 1211   4.055   3.355   1.113  0.3049 -0.9264  0.4472
   79TCq2    O4 1212   4.117   3.364   1.215 -0.0833  0.3774 -0.5965
   79TCq2    C9 1213   3.679   3.219   1.373 -0.0929  0.2432 -0.1629
   79TCq2    O5 1214   3.557   3.190   1.360  0.1785  0.1307 -0.0118
   79TCq2    O6 1215   3.738   3.270   1.470 -0.1739 -0.6376  0.4816
   79TCq2    H2 1216   3.607   3.095   1.149 -0.2375 -0.1364  1.2455
   79TCq2    H3 1217   3.910   3.320   1.330 -0.1385  0.9040 -0.7130
   79TCq2    H4 1218   3.934   3.208   0.905  1.2462 -1.6940 -0.3670
   80MPD2     C 1219   2.598   2.161  12.753 -0.0484 -0.3737 -0.2564
   80MPD2    C1 1220   2.574   2.228  12.634  0.2692  0.5425  0.3852
   80MPD2    C2 1221   2.443   2.263  12.610 -0.9798 -0.4391 -0.1894
   80MPD2    C3 1222   2.337   2.235  12.701  0.0680 -0.6393  0.1643
   80MPD2    C4 1223   2.369   2.155  12.803  0.4245  0.1416 -0.3455
   80MPD2    C5 1224   2.496   2.114  12.839 -0.5356 -0.1159  0.4774
   80MPD2     H 1225   2.427   2.325  12.523 -0.9731  0.7351  0.6451
   80MPD2    H1 1226   2.294   2.115  12.870 -0.1658  1.2075 -0.3673
   80MPD2    H2 1227   2.695   2.133  12.792  0.2704 -0.6648 -1.2486
   80MPD2    H3 1228   2.528   2.062  12.928  0.5409  1.2635  0.8969
   80MPD2     N 1229   2.207   2.292  12.690  0.5484 -0.2262  0.3513
   80MPD2    H5 1230   2.146   2.282  12.769  0.6603  2.6623  0.7918
   80MPD2    N1 1231   2.671   2.267  12.541  0.1508 -0.0547  0.0690
   80MPD2    H7 1232   2.642   2.307  12.453  0.4534  1.5560  0.6899
   81TCq2    C1 1233   2.807   2.272  12.559 -0.4149  0.0326  0.1076
   81TCq2    O2 1234   2.878   2.265  12.658 -0.0387 -0.4205  0.0389
   81TCq2    C2 1235   2.876   2.285  12.432 -0.4072 -0.2536 -0.4937
   81TCq2    C3 1236   2.980   2.371  12.424  0.3405  0.3284  0.1905
   81TCq2    C4 1237   3.023   2.411  12.304 -0.3669 -1.0235  0.0014
   81TCq2    C5 1238   2.949   2.391  12.189 -0.1367  0.4370 -0.2666
   81TCq2    C6 1239   2.854   2.295  12.199 -0.2721 -0.0660  0.9823
   81TCq2    C7 1240   2.810   2.244  12.324  0.5554 -0.0221 -0.7197
   81TCq2    C8 1241   2.762   2.268  12.089 -0.7691  0.3233 -0.4603
   81TCq2    O4 1242   2.757   2.341  11.989 -0.2204 -0.2532 -0.0620
   81TCq2    C9 1243   3.141   2.497  12.303 -0.0048  0.2576 -0.5375
   81TCq2    O5 1244   3.188   2.522  12.188 -0.6378 -0.3678 -0.4368
   81TCq2    O6 1245   3.212   2.499  12.412 -0.2265  0.1540  0.0044
   81TCq2    H2 1246   3.024   2.411  12.515  2.0287  2.5817 -1.6330
   81TCq2    H3 1247   2.983   2.438  12.098 -1.0517  0.6021 -0.5266
   81TCq2    H4 1248   2.729   2.173  12.329  1.2444 -0.8637 -1.3330
   82MPD2     C 1249   0.871   2.230  11.008 -0.9275  0.2089 -0.0612
   82MPD2    C1 1250   0.762   2.148  11.026 -0.0919  0.1899  0.1272
   82MPD2    C2 1251   0.768   2.030  11.092  0.3410  0.2158 -0.4000
   82MPD2    C3 1252   0.891   1.995  11.150  0.0017 -0.0708  0.2460
   82MPD2    C4 1253   1.009   2.064  11.121  0.0539  0.5881  0.0851
   82MPD2    C5 1254   0.994   2.186  11.047  0.0456  0.0025 -0.1094
   82MPD2     H 1255   0.684   1.963  11.104  0.8850 -0.9724 -3.2863
   82MPD2    H1 1256   1.099   2.024  11.167 -0.4495  0.1974  0.7312
   82MPD2    H2 1257   0.877   2.319  10.947 -0.5358  1.0200  1.1618
   82MPD2    H3 1258   1.083   2.244  11.029  1.1445 -2.3978 -2.3048
   82MPD2     N 1259   0.919   1.874  11.234  0.1128  0.3509  0.2385
   82MPD2    H5 1260   1.011   1.859  11.273  0.2835  2.3170  0.6328
   82MPD2    N1 1261   0.648   2.190  10.957 -0.0485  0.2352  0.4913
   82MPD2    H7 1262   0.658   2.269  10.894 -1.4175  0.7336  0.9031
   83TCq2    C1 1263   0.827   1.772  11.255 -0.0469 -0.2122 -1.0043
   83TCq2    O2 1264   0.711   1.767  11.217  0.4270  0.5753 -0.4722
   83TCq2    C2 1265   0.887   1.655  11.325  0.4533 -0.0106  0.4090
   83TCq2    C3 1266   1.007   1.673  11.382  0.1984  0.2658 -0.5027
   83TCq2    C4 1267   1.077   1.563  11.418  0.2575  0.2142 -0.4990
   83TCq2    C5 1268   1.032   1.437  11.384 -0.1780 -0.0524  0.2512
   83TCq2    C6 1269   0.911   1.423  11.325  0.0295 -0.5600 -0.2110
   83TCq2    C7 1270   0.839   1.537  11.296  0.6415 -0.0516 -0.1513
   83TCq2    C8 1271   0.844   1.300  11.342 -0.1795 -0.2323 -0.6556
   83TCq2    O4 1272   0.875   1.230  11.438 -0.2427  0.3051 -0.5536
   83TCq2    C9 1273   1.207   1.575  11.493  0.4024  1.1305 -0.4648
   83TCq2    O5 1274   1.236   1.696  11.523 -0.3578 -0.3553  0.1465
   83TCq2    O6 1275   1.292   1.482  11.470 -0.2279  0.0999  0.6892
   83TCq2    H2 1276   1.036   1.769  11.422 -0.9277 -1.3949  4.2787
   83TCq2    H3 1277   1.091   1.353  11.419  0.5001  0.6049  0.6823
   83TCq2    H4 1278   0.738   1.530  11.256 -0.5178  1.0290  2.5683
   84TCq2    C1 1279   1.403   0.463  10.709  0.5030 -0.0913 -0.1392
   84TCq2    O2 1280   1.407   0.370  10.796  0.0868 -0.1860 -0.3140
   84TCq2    C2 1281   1.485   0.586  10.732  0.5919  0.6983  0.4396
   84TCq2    C3 1282   1.502   0.665  10.626  0.0755  0.5798  0.0718
   84TCq2    C4 1283   1.562   0.791  10.643  0.0756  0.2068  0.8087
   84TCq2    C5 1284   1.612   0.825  10.763 -0.0795 -0.1895 -0.4817
   84TCq2    C6 1285   1.596   0.737  10.870  0.0111 -0.9591 -0.4052
   84TCq2    C7 1286   1.517   0.625  10.863 -0.3765 -0.0483 -0.3369
   84TCq2    C8 1287   1.620   0.790  11.000  0.1840  0.2195 -0.0481
   84TCq2    O4 1288   1.648   0.910  11.010  0.4667  0.1699  0.3976
   84TCq2    C9 1289   1.576   0.884  10.523  0.5700 -0.7840  0.0895
   84TCq2    O5 1290   1.544   0.839  10.410  0.9281 -0.1915 -0.0528
   84TCq2    O6 1291   1.652   0.982  10.545  0.0281 -0.2526 -0.2553
   84TCq2    H2 1292   1.478   0.635  10.524 -1.6025  1.0950  0.3171
   84TCq2    H3 1293   1.657   0.923  10.768 -0.1577 -0.2105  0.4941
   84TCq2    H4 1294   1.486   0.562  10.947  0.0739  1.3005  0.8350
   85MPD2     C 1295   2.249   3.582  16.520 -0.1062  0.0747  0.2925
   85MPD2    C1 1296   2.171   3.545  16.406 -0.1370  0.3038  0.4875
   85MPD2    C2 1297   2.196   3.611  16.291  0.1761  0.2572 -0.1138
   85MPD2    C3 1298   2.307   3.696  16.284 -0.0950  0.3354 -0.4856
   85MPD2    C4 1299   2.389   3.720  16.389  0.4117  0.0201 -0.2853
   85MPD2    C5 1300   2.356   3.668  16.513  0.3477  0.4155  0.5007
   85MPD2     H 1301   2.136   3.572  16.210 -2.2800  0.0905  1.7930
   85MPD2    H1 1302   2.481   3.776  16.382  0.3307  0.2158  0.1929
   85MPD2    H2 1303   2.238   3.528  16.614 -1.0110  0.6232  0.5047
   85MPD2    H3 1304   2.416   3.706  16.594 -1.7010 -0.7369  2.5554
   85MPD2     N 1305   2.316   3.771  16.166  0.1653 -0.5109  0.2603
   85MPD2    H5 1306   2.240   3.779  16.100  1.0903  1.6543 -0.5156
   85MPD2    N1 1307   2.070   3.443  16.403  0.3317  0.1683  0.6899
   85MPD2    H7 1308   2.009   3.419  16.326  3.1032  1.1295 -1.7914
   86TCq2    C1 1309   2.432   3.831  16.123 -0.2746  0.2874  0.2600
   86TCq2    O2 1310   2.546   3.799  16.147 -0.2507  0.0176 -0.9896
   86TCq2    C2 1311   2.408   3.907  15.998 -0.2040  0.6731  0.5472
   86TCq2    C3 1312   2.288   3.972  15.992  0.7344 -0.7452 -0.3061
   86TCq2    C4 1313   2.264   4.054  15.889  0.0526 -0.3583 -0.6023
   86TCq2    C5 1314   2.363   4.079  15.787 -0.2416  0.4648 -0.0248
   86TCq2    C6 1315   2.484   4.001  15.790 -0.7761 -0.2793  0.4029
   86TCq2    C7 1316   2.499   3.916  15.896 -0.1059 -0.8807  0.0456
   86TCq2    C8 1317   2.547   3.951  15.671 -0.6198 -0.5372  0.0769
   86TCq2    O4 1318   2.631   3.864  15.672 -0.7711  0.4072 -0.0120
   86TCq2    C9 1319   2.138   4.125  15.897 -0.3082  0.6727 -0.3969
   86TCq2    O5 1320   2.119   4.201  15.804 -0.3022 -0.0970  0.5006
   86TCq2    O6 1321   2.082   4.128  16.009 -0.0881 -0.0052  0.3921
   86TCq2    H2 1322   2.210   3.971  16.067 -0.0952 -2.2284 -1.1914
   86TCq2    H3 1323   2.332   4.144  15.706 -2.3569 -0.8696 -0.2880
   86TCq2    H4 1324   2.583   3.848  15.893  0.1243 -0.7361  2.9542
   87MPD2     C 1325   4.498   2.551   2.133  0.3755 -0.8503  0.3505
   87MPD2    C1 1326   4.464   2.594   2.010  0.1860  0.3805 -0.2047
   87MPD2    C2 1327   4.364   2.692   2.008 -0.4189 -0.7680  0.3762
   87MPD2    C3 1328   4.290   2.734   2.123 -0.2728  0.2423  0.3905
   87MPD2    C4 1329   4.322   2.681   2.247 -0.9025  0.0624  0.1808
   87MPD2    C5 1330   4.438   2.603   2.248 -0.2326 -0.3205  0.0813
   87MPD2     H 1331   4.335   2.724   1.908 -1.9087 -0.1819  0.9984
   87MPD2    H1 1332   4.274   2.715   2.339  0.7997  2.0779  0.3332
   87MPD2    H2 1333   4.573   2.477   2.158 -0.3900 -1.6130  0.3753
   87MPD2    H3 1334   4.478   2.566   2.342  0.3312  1.3610  0.4993
   87MPD2     N 1335   4.182   2.822   2.113 -0.1442  0.1933  0.2802
   87MPD2    H5 1336   4.134   2.841   2.201 -0.8774  1.7502 -0.4557
   87MPD2    N1 1337   4.525   2.556   1.887  0.0932 -0.0756 -0.8245
   87MPD2    H7 1338   4.508   2.606   1.800  2.2234  1.3619 -0.4297
   88TCq2    C1 1339   4.602   2.439   1.878  0.3623 -0.0423 -0.3256
   88TCq2    O2 1340   4.598   2.346   1.954  0.4857  0.1220 -0.0224
   88TCq2    C2 1341   4.654   2.423   1.745  0.3466  0.2711 -0.7122
   88TCq2    C3 1342   4.691   2.534   1.671 -0.5456 -0.7004  0.0796
   88TCq2    C4 1343   4.716   2.517   1.538  0.3008 -0.5501  0.4236
   88TCq2    C5 1344   0.018   2.392   1.490 -0.1165 -0.7725  0.3029
   88TCq2    C6 1345   4.712   2.284   1.570  0.1454 -0.5503 -0.1230
   88TCq2    C7 1346   4.663   2.297   1.696 -0.2390 -0.2290 -0.8125
   88TCq2    C8 1347   4.721   2.145   1.518 -0.2682 -0.1462 -0.8669
   88TCq2    O4 1348   4.689   2.053   1.587 -0.0782 -0.3731 -0.6697
   88TCq2    C9 1349   0.033   2.636   1.460 -0.3654 -0.2043 -1.0567
   88TCq2    O5 1350   0.117   2.624   1.366  0.2986  0.1690  0.7275
   88TCq2    O6 1351   4.696   2.741   1.486 -0.3965 -0.8497 -1.2812
   88TCq2    H2 1352   4.696   2.635   1.710 -0.6513 -0.3972 -0.6705
   88TCq2    H3 1353   0.042   2.378   1.385 -0.6423 -1.3369  0.2569
   88TCq2    H4 1354   4.631   2.209   1.751  0.9159 -1.7020 -2.5039
   89MPD2     C 1355   0.589   0.456   1.922 -0.5427  0.3132 -0.5706
   89MPD2    C1 1356   0.632   0.395   1.802 -0.1173 -0.5541 -0.5304
   89MPD2    C2 1357   0.696   0.468   1.706  0.5648 -0.2829  0.2635
   89MPD2    C3 1358   0.710   0.604   1.724  0.0694 -0.2482  0.1268
   89MPD2    C4 1359   0.652   0.673   1.830 -0.3534  0.2159  0.3947
   89MPD2    C5 1360   0.593   0.600   1.930 -0.0024  0.5641 -0.1794
   89MPD2     H 1361   0.736   0.424   1.615 -0.1771 -0.5331  0.0599
   89MPD2    H1 1362   0.651   0.781   1.841  1.5197  0.0247  2.3927
   89MPD2    H2 1363   0.555   0.406   2.011  0.4164  1.2307  0.3081
   89MPD2    H3 1364   0.558   0.638   2.025  0.4515 -1.0324  0.6373
   89MPD2     N 1365   0.801   0.671   1.640 -0.0582 -0.3068 -0.3308
   89MPD2    H5 1366   0.852   0.627   1.564  1.1376 -2.0806  1.5042
   89MPD2    N1 1367   0.623   0.259   1.778 -0.0527  0.4384  0.7277
   89MPD2    H7 1368   0.672   0.217   1.700 -0.5113 -0.9570  1.1882
   90TCq2    C1 1369   0.864   0.792   1.669  0.0489 -0.3956 -0.3946
   90TCq2    O2 1370   0.847   0.879   1.753  0.0199  0.5754  0.1447
   90TCq2    C2 1371   0.985   0.813   1.588  0.0276  0.8339 -0.0924
   90TCq2    C3 1372   1.047   0.715   1.517 -0.3891 -0.3035 -0.3738
   90TCq2    C4 1373   1.150   0.751   1.434  0.1401 -0.1775  0.3009
   90TCq2    C5 1374   1.191   0.881   1.422 -0.7844  0.5312 -0.2801
   90TCq2    C6 1375   1.136   0.974   1.501 -1.0220  0.2437 -0.4011
   90TCq2    C7 1376   1.024   0.946   1.576  0.4998 -0.0686  0.2518
   90TCq2    C8 1377   1.204   1.092   1.524 -0.1937 -0.0887 -0.3358
   90TCq2    O4 1378   1.177   1.152   1.629  0.0518  0.1552 -0.2637
   90TCq2    C9 1379   1.234   0.640   1.373 -0.3758 -0.1673  0.2153
   90TCq2    O5 1380   1.334   0.669   1.304  0.7768  0.0653  0.2423
   90TCq2    O6 1381   1.214   0.528   1.427 -0.5416 -0.0544  1.0230
   90TCq2    H2 1382   1.016   0.611   1.524 -0.9015 -0.1924 -0.9724
   90TCq2    H3 1383   1.277   0.887   1.357 -2.4107  0.5758 -2.4401
   90TCq2    H4 1384   0.977   1.021   1.638  2.0850  0.0717  1.2943
   91TMC2    C1 1385   2.571   0.051  17.218  0.4408 -0.2811 -0.3929
   91TMC2    C2 1386   2.590   0.154  17.126 -0.6679 -0.6870  0.0327
   91TMC2    C3 1387   2.481   0.200  17.058  0.3163  0.6192  0.1263
   91TMC2    C4 1388   2.441   4.721  17.241 -0.0558  0.0033 -0.0298
   91TMC2    C5 1389   2.332   0.042  17.165  0.2568  0.3166 -0.1298
   91TMC2    C6 1390   2.354   0.136  17.072  0.3728  1.5836 -0.0738
   91TMC2     C 1391   2.679   4.680  17.234 -0.0711  0.6087  1.0197
   91TMC2     O 1392   2.674   4.588  17.315  0.6681  0.3856  0.3935
   91TMC2     H 1393   2.675   0.219  17.110  0.6405 -2.2488  0.6031
   91TMC2    H1 1394   2.428   4.637  17.309 -1.5690 -1.5510 -2.2361
   91TMC2    H2 1395   2.275   0.173  17.007  0.2136  0.1737 -0.6769
   91TMC2    C7 1396   2.232   4.671  17.139 -0.8434 -1.0185 -0.2847
   91TMC2    C8 1397   2.503   0.299  16.959  0.4137  0.1017  0.5041
   91TMC2    O1 1398   2.198   4.594  17.227 -0.3189 -0.6170 -0.3021
   91TMC2    O2 1399   2.606   0.302  16.891  0.2170 -0.6311 -0.0450
   91TMC2    O5 1400   2.402   0.393  16.964  0.1440 -0.3020 -0.4253
   91TMC2    H5 1401   2.331   0.378  17.029 -0.2173 -0.5078 -0.8633
   92MPD2     C 1402   2.926   4.511  17.184  0.2024 -0.3023 -0.5517
   92MPD2    C1 1403   2.887   4.615  17.109 -1.0574 -0.2029 -0.5626
   92MPD2    C2 1404   2.962   4.643  16.995  0.0745 -0.6260  0.5463
   92MPD2    C3 1405   3.072   4.568  16.958  0.7981  0.3640  0.0305
   92MPD2    C4 1406   3.101   4.453  17.028  0.7444  0.6272  0.4950
   92MPD2    C5 1407   3.028   4.424  17.141  0.0113  0.1493  0.3150
   92MPD2     H 1408   2.938   0.006  16.938 -0.6402 -0.5646  0.9372
   92MPD2    H1 1409   3.177   4.383  16.996 -1.9112 -1.8382 -0.4415
   92MPD2    H2 1410   2.878   4.490  17.279  0.9702  3.3330  0.6246
   92MPD2    H3 1411   3.052   4.331  17.192 -2.5335 -0.0875  1.0627
   92MPD2     N 1412   3.135   4.608  16.838  0.1137  0.0293 -0.2168
   92MPD2    H5 1413   3.098   4.685  16.783 -0.6184  1.1789  1.9041
   92MPD2    N1 1414   2.779   4.700  17.144  0.6069 -0.0114  0.1590
   92MPD2    H7 1415   2.770   0.057  17.085  2.2105 -1.8648 -2.6452
   93MPD2     C 1416   4.260   4.299  14.033  0.4792 -0.1255  0.3348
   93MPD2    C1 1417   4.280   4.436  14.053  0.5942 -0.3040  0.2386
   93MPD2    C2 1418   4.197   4.534  14.004  0.9808  0.0483  0.2759
   93MPD2    C3 1419   4.082   4.493  13.927  0.7153 -0.0733 -0.0476
   93MPD2    C4 1420   4.059   4.359  13.912 -0.1929 -0.1469  0.8709
   93MPD2    C5 1421   4.147   4.271  13.962 -0.4700 -0.4134  0.3480
   93MPD2     H 1422   4.231   4.637  14.011  0.1572  0.4515 -1.8380
   93MPD2    H1 1423   3.979   4.314  13.854 -1.2058  0.2751  1.9487
   93MPD2    H2 1424   4.325   4.218  14.064 -0.2946 -0.9225 -0.1109
   93MPD2    H3 1425   4.112   4.171  13.937 -0.7913  0.0141 -0.9098
   93MPD2     N 1426   3.994   4.591  13.875  0.6171  0.0770  0.1069
   93MPD2    H5 1427   4.032   4.685  13.870  2.1817 -0.5662 -0.1865
   93MPD2    N1 1428   4.384   4.472  14.142 -0.1249 -0.3872  0.1861
   93MPD2    H7 1429   4.380   4.568  14.177 -0.3768 -0.4504  0.3353
   94TCq2    C1 1430   4.496   4.394  14.169  0.8289  0.3861 -0.2022
   94TCq2    O2 1431   4.535   4.296  14.101 -0.4190 -0.4056 -0.0538
   94TCq2    C2 1432   4.578   4.466  14.258  0.3362  0.5093 -0.3237
   94TCq2    C3 1433   4.520   4.530  14.367  0.5182 -0.2467 -0.3290
   94TCq2    C4 1434   4.609   4.614  14.434 -0.1797 -0.6891 -0.6313
   94TCq2    C5 1435   0.019   4.603  14.418 -0.7380 -0.1764 -0.8293
   94TCq2    C6 1436   0.067   4.517  14.319 -0.2532 -0.4632  0.1034
   94TCq2    C7 1437   4.710   4.449  14.234  0.4571 -0.3752  1.0024
   94TCq2    C8 1438   0.188   4.551  14.248  0.4249 -0.6075  0.4104
   94TCq2    O4 1439   0.237   4.472  14.165 -0.2720  0.7956 -0.2943
   94TCq2    C9 1440   4.555   4.695  14.537 -0.3117 -0.7092 -0.0565
   94TCq2    O5 1441   4.629   0.047  14.599 -0.0655  0.4787  0.2375
   94TCq2    O6 1442   4.432   4.702  14.540  0.0283  0.0419 -0.0424
   94TCq2    H2 1443   4.417   4.518  14.397 -0.0531  1.8772 -1.3926
   94TCq2    H3 1444   0.089   4.659  14.478  0.1336 -2.4937  0.3272
   94TCq2    H4 1445   0.012   4.393  14.145 -3.4685 -0.1565 -0.3149
   95TMC2    C1 1446   4.188   2.021  16.705 -0.7194  0.0429 -0.2536
   95TMC2    C2 1447   4.210   2.144  16.753 -0.5428  0.4221  0.5161
   95TMC2    C3 1448   4.183   2.164  16.886 -0.0614  0.0565 -0.3155
   95TMC2    C4 1449   4.139   1.924  16.784  0.2764 -0.9926  0.6128
   95TMC2    C5 1450   4.108   1.944  16.912  0.3089  0.1831  0.0697
   95TMC2    C6 1451   4.129   2.067  16.963  1.0542 -0.3176 -0.1966
   95TMC2     C 1452   4.246   1.993  16.578  0.0849 -0.6836 -0.7925
   95TMC2     O 1453   4.315   2.079  16.528 -0.0621  0.4579 -0.1167
   95TMC2     H 1454   4.247   2.226  16.692  0.5602 -0.3221  0.1940
   95TMC2    H1 1455   4.139   1.823  16.743 -0.9414 -1.2476  1.2618
   95TMC2    H2 1456   4.100   2.096  17.063  0.6408 -2.1853  0.2265
   95TMC2    C7 1457   4.032   1.859  16.997  0.5668 -0.3975 -0.0199
   95TMC2    C8 1458   4.188   2.299  16.944  0.1040  0.9475  0.2905
   95TMC2    O1 1459   4.074   1.854  17.116 -0.2037 -0.4624 -0.4691
   95TMC2    O2 1460   4.109   2.335  17.027 -0.7160  0.0722  0.6724
   95TMC2    O5 1461   4.290   2.369  16.880 -0.0077 -0.1601 -0.0967
   95TMC2    H5 1462   4.361   2.310  16.846  0.4490  0.8982 -0.9732
   96MPD2     C 1463   4.297   1.705  16.158 -0.0037 -0.6082  0.2196
   96MPD2    C1 1464   4.348   1.834  16.179 -0.7819 -0.2747  0.2622
   96MPD2    C2 1465   4.314   1.892  16.300 -1.0117 -0.0041  0.1529
   96MPD2    C3 1466   4.235   1.832  16.393  1.1216  0.1204  0.1240
   96MPD2    C4 1467   4.199   1.698  16.374  0.3010  0.1714 -0.3336
   96MPD2    C5 1468   4.221   1.636  16.252 -0.4793 -0.1832  0.1103
   96MPD2     H 1469   4.362   1.988  16.322 -0.1822 -0.5309  0.6629
   96MPD2    H1 1470   4.148   1.650  16.456  0.4991 -1.0331 -0.9076
   96MPD2    H2 1471   4.330   1.663  16.064 -1.5482  0.6982 -0.9153
   96MPD2    H3 1472   4.187   1.534  16.237  0.2158 -0.1806 -1.4541
   96MPD2     N 1473   4.197   1.879  16.522 -0.1510  0.2003  0.1257
   96MPD2    H5 1474   4.118   1.832  16.567  0.1950  0.8065  1.3706
   96MPD2    N1 1475   4.430   1.885  16.079  0.0545 -0.3407 -0.6122
   96MPD2    H7 1476   4.469   1.816  16.017 -2.0593 -1.5118 -0.6480
   97MPD2     C 1477   1.124   3.391   0.479  0.1160 -0.1368 -0.2716
   97MPD2    C1 1478   1.128   3.531   0.486  0.4614 -0.2333  0.0820
   97MPD2    C2 1479   1.201   3.602   0.396  0.2276 -0.3657  0.1645
   97MPD2    C3 1480   1.269   3.536   0.299 -0.7453 -0.1659 -0.2084
   97MPD2    C4 1481   1.262   3.396   0.284  0.3441  0.4847  0.4802
   97MPD2    C5 1482   1.194   3.329   0.378 -0.3640 -0.1532  0.5004
   97MPD2     H 1483   1.202   3.710   0.404 -1.8025 -0.3865  0.5806
   97MPD2    H1 1484   1.313   3.343   0.203 -0.3375 -1.7641  1.5146
   97MPD2    H2 1485   1.090   3.327   0.560 -1.8216 -2.3228 -2.8176
   97MPD2    H3 1486   1.210   3.222   0.387  0.2399 -0.0265  0.9211
   97MPD2     N 1487   1.341   3.610   0.199 -0.0019  1.0094  0.2244
   97MPD2    H5 1488   1.403   3.554   0.142  0.0771  1.3845 -0.0517
   97MPD2    N1 1489   1.054   3.586   0.588 -0.3440  0.0479  0.0873
   97MPD2    H7 1490   0.995   3.528   0.647  0.4420  1.2506  2.0604
   98TCq2    C1 1491   1.350   3.748   0.194 -0.5925  0.5856  0.3805
   98TCq2    O2 1492   1.293   3.843   0.247  0.2577 -0.1733  0.0665
   98TCq2    C2 1493   1.438   3.805   0.091 -0.2207  0.2335  0.8058
   98TCq2    C3 1494   1.423   3.773  17.662 -0.0406  0.3080  0.8250
   98TCq2    C4 1495   1.454   3.868  17.569  0.4128  0.3038 -0.6700
   98TCq2    C5 1496   1.508   3.991  17.599  0.1934 -0.2289  0.7031
   98TCq2    C6 1497   1.525   4.017   0.029  0.3094  0.4098 -0.6997
   98TCq2    C7 1498   1.486   3.933   0.127  0.4997  0.0565  0.0094
   98TCq2    C8 1499   1.579   4.151   0.064 -0.7028  0.1125 -0.1782
   98TCq2    O4 1500   1.642   4.166   0.165  0.7492 -1.1700 -0.7099
   98TCq2    C9 1501   1.439   3.844  17.426 -0.6610  0.2421 -0.0178
   98TCq2    O5 1502   1.432   3.945  17.357  0.3284  0.0848 -0.4543
   98TCq2    O6 1503   1.406   3.727  17.395 -0.3245 -0.2026 -0.1525
   98TCq2    H2 1504   1.385   3.678  17.626  0.2739  0.9976 -1.3014
   98TCq2    H3 1505   1.532   4.066  17.525 -2.6813  0.0041 -0.0039
   98TCq2    H4 1506   1.508   3.955   0.231  0.9288 -1.9136  0.3388
   99MPD2     C 1507   0.232   0.505   2.112 -0.7042  0.0647 -0.0601
   99MPD2    C1 1508   0.224   0.639   2.113 -0.0498  0.0241  0.1847
   99MPD2    C2 1509   0.247   0.721   2.000  0.3379  0.6007  0.1091
   99MPD2    C3 1510   0.275   0.665   1.880 -0.5344 -0.1589 -0.3679
   99MPD2    C4 1511   0.270   0.527   1.872 -0.2756 -0.1790 -0.4822
   99MPD2    C5 1512   0.254   0.449   1.990 -0.7386 -0.0343 -0.9149
   99MPD2     H 1513   0.257   0.828   2.014 -0.3383  0.8804 -1.5574
   99MPD2    H1 1514   0.301   0.472   1.785 -3.6065 -2.2213 -0.3846
   99MPD2    H2 1515   0.206   0.448   2.201  0.8855  0.4962  0.6874
   99MPD2    H3 1516   0.253   0.342   1.975 -0.1865  0.0228 -1.3501
   99MPD2     N 1517   0.315   0.752   1.773 -0.3402 -0.3806  0.5352
   99MPD2    H5 1518   0.322   0.848   1.807 -0.2325 -0.2525  0.1581
   99MPD2    N1 1519   0.184   0.708   2.233 -0.0693  0.6147 -0.0754
   99MPD2    H7 1520   0.156   0.806   2.232  2.4371  1.3218 -0.1981
  100TCq2    C1 1521   0.169   0.654   2.361 -0.1094 -0.7245  0.1728
  100TCq2    O2 1522   0.219   0.547   2.402 -0.3433 -0.1066 -0.3827
  100TCq2    C2 1523   0.124   0.754   2.456  0.1044 -0.0741 -0.2731
  100TCq2    C3 1524   0.184   0.748   2.572  0.4658 -0.2176  0.7496
  100TCq2    C4 1525   0.158   0.849   2.664 -0.1041 -0.1438  0.2104
  100TCq2    C5 1526   0.072   0.951   2.643  0.3938 -0.2542  0.0499
  100TCq2    C6 1527   0.014   0.956   2.519  0.0313 -0.3273 -0.0285
  100TCq2    C7 1528   0.040   0.861   2.422  0.4932  0.1222 -0.7345
  100TCq2    C8 1529   4.631   1.044   2.494 -0.3304 -0.0900 -0.2488
  100TCq2    O4 1530   4.591   1.115   2.587  0.6081  0.5804 -0.2873
  100TCq2    C9 1531   0.216   0.842   2.795 -0.7796 -0.3104 -0.8269
  100TCq2    O5 1532   0.301   0.749   2.810 -0.3660  0.4476 -0.4642
  100TCq2    O6 1533   0.221   0.941   2.870 -0.8369 -0.1156  0.2217
  100TCq2    H2 1534   0.261   0.677   2.598  2.1550  0.9971 -0.9512
  100TCq2    H3 1535   0.041   1.032   2.708  1.1260  0.1810 -0.1421
  100TCq2    H4 1536   4.711   0.854   2.328  2.1415 -1.0094 -1.5899
  101MPD2     C 1537   1.199   1.839  13.257  0.2703  0.0048  0.2973
  101MPD2    C1 1538   1.095   1.918  13.309 -0.9014 -0.0665  0.2087
  101MPD2    C2 1539   0.998   1.848  13.380 -1.1537  0.9119 -0.3700
  101MPD2    C3 1540   0.989   1.713  13.382  0.1724 -0.3718  0.0885
  101MPD2    C4 1541   1.085   1.636  13.316  0.3044 -0.2770  0.0651
  101MPD2    C5 1542   1.188   1.702  13.255  0.3928 -0.2125  0.7443
  101MPD2     H 1543   0.924   1.905  13.435  0.1194  0.3377  1.9708
  101MPD2    H1 1544   1.085   1.527  13.319 -2.8823 -0.2163  3.2324
  101MPD2    H2 1545   1.284   1.888  13.211  1.0146 -0.8260  0.7891
  101MPD2    H3 1546   1.261   1.646  13.198 -0.3272 -2.3098  1.8545
  101MPD2     N 1547   0.876   1.654  13.446  0.1231  0.2916 -0.5889
  101MPD2    H5 1548   0.811   1.711  13.499 -0.1299 -2.2238  1.8247
  101MPD2    N1 1549   1.094   2.061  13.290 -0.3201 -0.0405  0.0167
  101MPD2    H7 1550   1.170   2.109  13.243 -2.2356  0.8435 -2.1838
  102TCq2    C1 1551   1.136   2.430  12.962 -0.1979  0.6131  0.0281
  102TCq2    O2 1552   1.252   2.402  12.998 -0.2768 -0.1492 -0.2135
  102TCq2    C2 1553   1.028   2.380  13.041 -0.8471 -0.0540  0.6936
  102TCq2    C3 1554   0.916   2.455  13.056  0.0254 -0.2900  0.8438
  102TCq2    C4 1555   0.828   2.424  13.164 -0.2584  0.0302  0.4840
  102TCq2    C5 1556   0.874   2.337  13.261  0.5504 -0.5777  0.1012
  102TCq2    C6 1557   0.984   2.256  13.240  0.1608 -0.5906 -0.4131
  102TCq2    C7 1558   1.064   2.280  13.127  0.0746 -0.0500  0.2990
  102TCq2    C8 1559   0.983   2.136  13.314 -0.5156 -0.4174  0.5721
  102TCq2    O4 1560   0.872   2.116  13.362  0.1456 -0.2191 -0.1685
  102TCq2    C9 1561   0.701   2.492  13.182 -0.0356  0.1139 -0.4568
  102TCq2    O5 1562   0.675   2.597  13.118  0.0126 -0.3557 -0.0657
  102TCq2    O6 1563   0.637   2.473  13.289 -0.3924 -0.1604 -0.2767
  102TCq2    H2 1564   0.883   2.530  12.985 -1.5516 -0.2739  1.6068
  102TCq2    H3 1565   0.814   2.325  13.351 -0.5373 -2.0969 -0.8105
  102TCq2    H4 1566   1.143   2.215  13.091 -0.7215  0.9040 -3.1759
  103TMC2    C1 1567   3.961   2.396  12.481  0.7064 -0.6134  0.6633
  103TMC2    C2 1568   4.011   2.279  12.533 -0.3382  0.8380 -0.2379
  103TMC2    C3 1569   4.057   2.285  12.663  0.8353 -0.5867  0.3578
  103TMC2    C4 1570   3.951   2.509  12.558 -1.0691  0.3293 -0.2484
  103TMC2    C5 1571   3.991   2.508  12.690 -0.0534  0.2369  0.2856
  103TMC2    C6 1572   4.047   2.398  12.741  0.3016 -0.3834  0.7230
  103TMC2     C 1573   3.920   2.414  12.343  0.4254  0.1620 -0.4600
  103TMC2     O 1574   3.871   2.514  12.297  0.3670 -0.1573  0.3573
  103TMC2     H 1575   4.011   2.183  12.482  0.6566 -0.3397  1.9483
  103TMC2    H1 1576   3.914   2.600  12.512 -0.9023  1.5174  1.9760
  103TMC2    H2 1577   4.067   2.390  12.848  2.5587  0.4158  0.3391
  103TMC2    C7 1578   3.986   2.625  12.777 -0.2335 -0.0905 -0.8655
  103TMC2    C8 1579   4.158   2.186  12.716  0.0978  0.2582  0.0343
  103TMC2    O1 1580   4.036   2.619  12.887 -0.3924 -0.3167 -0.2405
  103TMC2    O2 1581   4.182   2.186  12.836  0.1520 -0.0146 -0.3522
  103TMC2    O5 1582   4.208   2.108  12.625 -0.7239  0.1380 -0.3434
  103TMC2    H5 1583   4.175   2.144  12.540  1.3473 -0.0344 -1.2318
  104MPD2     C 1584   3.934   2.138  12.111  0.3090 -0.4405 -0.2337
  104MPD2    C1 1585   3.899   2.265  12.151  0.3579 -0.5804 -0.8733
  104MPD2    C2 1586   3.840   2.349  12.063  0.7337  0.3080  0.1939
  104MPD2    C3 1587   3.808   2.305  11.932 -0.1090  0.4402 -0.7648
  104MPD2    C4 1588   3.843   2.177  11.893  0.1433 -0.5386 -0.9831
  104MPD2    C5 1589   3.915   2.095  11.984 -0.0636  0.0323 -0.1596
  104MPD2     H 1590   3.830   2.453  12.091  0.9979  0.7275 -1.2289
  104MPD2    H1 1591   3.836   2.131  11.796 -0.7604 -2.6690  0.0954
  104MPD2    H2 1592   3.976   2.072  12.186  1.3579  1.3746  0.7831
  104MPD2    H3 1593   3.954   2.000  11.949 -2.7182 -0.5354 -1.5753
  104MPD2     N 1594   3.743   2.396  11.837  0.1620  0.0810 -0.0194
  104MPD2    H5 1595   3.710   2.486  11.871  1.0948 -0.1139  1.4356
  104MPD2    N1 1596   3.951   2.302  12.276  0.3453  0.4279  0.5038
  104MPD2    H7 1597   4.013   2.244  12.330  0.7745 -0.3016 -0.7777
  105MPD2     C 1598   0.542   1.642   0.016  0.1496 -0.3418  0.0963
  105MPD2    C1 1599   0.484   1.767   0.004  0.2511  0.0912  0.2110
  105MPD2    C2 1600   0.407   1.811   0.106 -0.0663  0.6128 -0.5405
  105MPD2    C3 1601   0.380   1.736   0.219  0.0176 -0.7714 -0.7784
  105MPD2    C4 1602   0.437   1.609   0.221  0.2366 -0.3715 -0.1411
  105MPD2    C5 1603   0.522   1.566   0.129  0.0392  0.2623  0.0876
  105MPD2     H 1604   0.368   1.913   0.106 -0.5344  0.4362  1.5215
  105MPD2    H1 1605   0.421   1.536   0.299  2.6171  0.2515  0.9248
  105MPD2    H2 1606   0.578   1.600  17.624 -0.7757  0.6459 -0.7061
  105MPD2    H3 1607   0.548   1.461   0.121 -1.3735  0.0703 -1.9954
  105MPD2     N 1608   0.300   1.793   0.322  0.3252 -0.7933 -0.3802
  105MPD2    H5 1609   0.277   1.892   0.314 -3.5364 -1.8499 -2.2924
  105MPD2    N1 1610   0.493   1.841  17.584 -0.4787 -0.3724  0.0119
  105MPD2    H7 1611   0.434   1.923  17.570  1.5991  1.1286  0.0914
  106TCq2    C1 1612   0.261   1.722   0.429 -0.5801 -0.9579  0.3047
  106TCq2    O2 1613   0.268   1.605   0.462  0.0933  0.1561 -0.3283
  106TCq2    C2 1614   0.208   1.805   0.529  0.7759 -0.3886 -0.0661
  106TCq2    C3 1615   0.139   1.923   0.488 -0.5334 -0.3206  0.2745
  106TCq2    C4 1616   0.089   2.012   0.580 -0.2326  0.7683  0.1197
  106TCq2    C5 1617   0.089   1.977   0.715  0.1642 -0.4586  0.2835
  106TCq2    C6 1618   0.145   1.854   0.750 -0.8907 -0.0791  0.5212
  106TCq2    C7 1619   0.205   1.774   0.659  0.5518 -0.5153  0.4361
  106TCq2    C8 1620   0.165   1.814   0.887  0.2080 -0.4743 -0.0390
  106TCq2    O4 1621   0.234   1.718   0.916 -0.1484 -0.1341  0.1980
  106TCq2    C9 1622   0.045   2.138   0.530 -0.2169 -0.2050  0.1760
  106TCq2    O5 1623   0.090   2.170   0.414  0.3277  0.2490  0.1443
  106TCq2    O6 1624   4.717   2.217   0.608  0.0632  0.6962  0.1562
  106TCq2    H2 1625   0.128   1.953   0.384  3.2953 -2.1523 -0.6288
  106TCq2    H3 1626   0.038   2.042   0.786  0.2899  1.0227 -0.9770
  106TCq2    H4 1627   0.257   1.680   0.680  0.0576 -0.5528  1.5119
  107TMC2    C1 1628   1.516   1.381  11.745 -0.8471 -0.7261 -0.6733
  107TMC2    C2 1629   1.545   1.464  11.639 -0.2043  0.2568 -0.2359
  107TMC2    C3 1630   1.601   1.400  11.533  0.3533  0.2846 -0.5753
  107TMC2    C4 1631   1.543   1.246  11.742 -0.7287  0.6293  0.6307
  107TMC2    C5 1632   1.604   1.191  11.633  0.3401  0.1683  0.2447
  107TMC2    C6 1633   1.651   1.270  11.532  0.0968  0.3640  0.1739
  107TMC2     C 1634   1.446   1.433  11.863 -0.3845  0.2605  0.1132
  107TMC2     O 1635   1.425   1.366  11.962  0.0258  0.0496 -0.3061
  107TMC2     H 1636   1.537   1.572  11.636  0.6533  0.3146 -0.4591
  107TMC2    H1 1637   1.527   1.166  11.812  0.1505  2.3356  2.8040
  107TMC2    H2 1638   1.716   1.232  11.454  0.6148 -1.8305  1.6822
  107TMC2    C7 1639   1.638   1.051  11.623  0.4935  0.5026 -0.1908
  107TMC2    C8 1640   1.647   1.497  11.436 -0.1967 -0.3438 -0.1219
  107TMC2    O1 1641   1.658   0.986  11.726  0.2672 -0.4072  0.4716
  107TMC2    O2 1642   1.745   1.490  11.363  0.8667  0.3858  0.4947
  107TMC2    O5 1643   1.529   1.545  11.391 -0.4126  0.7700  0.1119
  107TMC2    H5 1644   1.449   1.510  11.434 -1.2192  2.8468  0.2916
  108MPD2     C 1645   1.286   1.758  11.878  0.8257 -0.0325 -0.8904
  108MPD2    C1 1646   1.327   1.639  11.933 -0.0291  0.6413 -0.8102
  108MPD2    C2 1647   1.267   1.602  12.047  0.5909 -0.0118  0.2749
  108MPD2    C3 1648   1.175   1.682  12.110  0.5646 -0.1360 -0.9010
  108MPD2    C4 1649   1.156   1.811  12.066 -1.0607  0.2685  0.4695
  108MPD2    C5 1650   1.208   1.848  11.946  0.6082  0.3383 -0.2237
  108MPD2     H 1651   1.311   1.515  12.094 -0.6921 -1.0978 -0.5295
  108MPD2    H1 1652   1.094   1.874  12.130  1.8856  1.2791  2.3386
  108MPD2    H2 1653   1.339   1.793  11.790 -1.0628  1.8015 -1.2748
  108MPD2    H3 1654   1.189   1.944  11.901  0.2444  0.0338 -0.7257
  108MPD2     N 1655   1.101   1.641  12.224 -0.8805 -0.2927  0.7706
  108MPD2    H5 1656   1.037   1.711  12.257  0.9542  2.4140 -1.3741
  108MPD2    N1 1657   1.409   1.563  11.852  0.1714  0.4183  0.2631
  108MPD2    H7 1658   1.446   1.623  11.779 -0.7074  1.5991  0.7894
  109MPD2     C 1659   4.724   3.535   1.782 -1.1613 -0.0840 -0.1768
  109MPD2    C1 1660   0.098   3.604   1.711 -0.4423 -0.1925  0.1501
  109MPD2    C2 1661   0.224   3.610   1.769 -0.4736 -0.9664  0.5450
  109MPD2    C3 1662   0.250   3.543   1.888  0.4233  0.5981  0.3749
  109MPD2    C4 1663   0.148   3.465   1.949  0.7051 -0.8906  0.6838
  109MPD2    C5 1664   0.022   3.477   1.899  0.2963  1.0417 -0.3921
  109MPD2     H 1665   0.306   3.654   1.713 -0.7492  2.2217  2.6453
  109MPD2    H1 1666   0.157   3.409   2.041  0.5790  1.6340  2.2411
  109MPD2    H2 1667   4.621   3.538   1.750 -1.8173  1.5264  2.1523
  109MPD2    H3 1668   4.661   3.433   1.948 -2.2641  4.0534 -2.2076
  109MPD2     N 1669   0.388   3.529   1.933  0.2245  0.8452  0.3152
  109MPD2    H5 1670   0.403   3.463   2.008 -0.6844 -0.4502 -0.6529
  109MPD2    N1 1671   0.076   3.645   1.576  0.0115  0.6450 -0.0002
  109MPD2    H7 1672   4.710   3.613   1.543  1.2168 -1.7523 -0.9769
  110TCq2    C1 1673   0.495   3.603   1.887 -0.2849  0.1962  0.2681
  110TCq2    O2 1674   0.494   3.702   1.813  0.3343  0.2521 -0.0585
  110TCq2    C2 1675   0.614   3.527   1.892 -0.2985  0.1245 -0.3929
  110TCq2    C3 1676   0.619   3.413   1.964  0.0227  0.0634 -0.4511
  110TCq2    C4 1677   0.695   3.307   1.916  0.2068  0.0904 -0.5840
  110TCq2    C5 1678   0.763   3.320   1.801 -0.0247 -0.0914 -0.2545
  110TCq2    C6 1679   0.772   3.448   1.744  0.0848  0.8543 -0.0081
  110TCq2    C7 1680   0.701   3.554   1.789  0.5228  0.0143  0.2316
  110TCq2    C8 1681   0.803   3.450   1.597  0.7233  0.3827  0.2943
  110TCq2    O4 1682   0.760   3.552   1.545  0.3377  0.0904 -0.4236
  110TCq2    C9 1683   0.677   3.180   1.978  0.7823  0.0241  0.6441
  110TCq2    O5 1684   0.741   3.085   1.931  0.5059 -0.0942  0.2015
  110TCq2    O6 1685   0.622   3.189   2.089 -0.4767  0.2959 -0.4013
  110TCq2    H2 1686   0.562   3.401   2.056 -0.9980 -2.0171 -1.3566
  110TCq2    H3 1687   0.805   3.229   1.759 -2.4149 -1.2185 -0.1995
  110TCq2    H4 1688   0.696   3.648   1.734  0.6068  1.2352  2.2814
  111TMC2    C1 1689   1.639   3.512  12.019 -0.2859  0.3454 -0.0599
  111TMC2    C2 1690   1.713   3.620  11.984 -1.2796  0.3118  0.3676
  111TMC2    C3 1691   1.805   3.664  12.075  0.3822 -0.1628 -0.1299
  111TMC2    C4 1692   1.654   3.447  12.138  0.3789  0.3435 -0.5468
  111TMC2    C5 1693   1.754   3.488  12.220  0.0822 -0.0568  0.5661
  111TMC2    C6 1694   1.823   3.598  12.191 -0.0746 -1.1091  0.6775
  111TMC2     C 1695   1.540   3.464  11.920 -0.2903 -0.5680 -0.1755
  111TMC2     O 1696   1.562   3.500  11.805  0.5391 -0.6472 -0.0098
  111TMC2     H 1697   1.703   3.669  11.888  0.9472 -3.2599 -1.6919
  111TMC2    H1 1698   1.612   3.348  12.157 -0.4979  0.5735 -1.2609
  111TMC2    H2 1699   1.915   3.620  12.245 -0.5336  0.9403  0.5846
  111TMC2    C7 1700   1.779   3.398  12.334 -0.0975  0.0161  0.2734
  111TMC2    C8 1701   1.902   3.758  12.031 -0.2213 -0.8480  0.9371
  111TMC2    O1 1702   1.691   3.319  12.370  0.5241 -0.2525 -0.4637
  111TMC2    O2 1703   1.949   3.835  12.113  0.3771  0.1301  0.8118
  111TMC2    O5 1704   1.918   3.763  11.902  0.4328 -0.0720  0.5639
  111TMC2    H5 1705   1.887   3.683  11.855 -1.5103  1.0376 -0.0255
  112MPD2     C 1706   1.153   3.160  11.755  0.4755  0.0972  0.0707
  112MPD2    C1 1707   1.252   3.236  11.692  0.0935 -0.1193  0.1917
  112MPD2    C2 1708   1.343   3.320  11.762 -0.0338 -0.1360 -0.2583
  112MPD2    C3 1709   1.352   3.308  11.896 -0.3808  0.2173  0.1228
  112MPD2    C4 1710   1.258   3.226  11.966  0.2546  0.2715  0.3009
  112MPD2    C5 1711   1.159   3.161  11.898 -0.5057 -0.0103 -0.2796
  112MPD2     H 1712   1.418   3.372  11.703  1.2370 -0.9379  0.6510
  112MPD2    H1 1713   1.264   3.218  12.074  0.9547  1.5804  0.3675
  112MPD2    H2 1714   1.089   3.093  11.699  0.6339 -1.0427  1.2694
  112MPD2    H3 1715   1.075   3.113  11.947 -2.3362  1.1802 -2.2879
  112MPD2     N 1716   1.445   3.376  11.973  0.5153  0.2864 -0.0805
  112MPD2    H5 1717   1.448   3.355  12.072 -0.8361 -0.3784 -0.1817
  112MPD2    N1 1718   1.245   3.267  11.555  0.0623  0.0928  0.2586
  112MPD2    H7 1719   1.314   3.334  11.521  0.7835 -1.3691 -1.1585
  113MPD2     C 1720   4.333   1.218   0.902  0.8062  0.2313  0.5288
  113MPD2    C1 1721   4.306   1.200   1.040  0.4949 -0.2836 -0.4944
  113MPD2    C2 1722   4.180   1.237   1.085  0.8263 -0.6212  0.2505
  113MPD2    C3 1723   4.084   1.299   1.001 -0.1722  0.5172 -0.2478
  113MPD2    C4 1724   4.115   1.312   0.869 -0.7257  0.1935 -0.3830
  113MPD2    C5 1725   4.241   1.287   0.824 -0.0681  0.4023  0.0667
  113MPD2     H 1726   4.161   1.207   1.188 -0.9544 -2.6251 -0.6522
  113MPD2    H1 1727   4.040   1.364   0.811 -1.5171  0.7182  1.0851
  113MPD2    H2 1728   4.429   1.183   0.864  0.1640 -0.6550 -0.3075
  113MPD2    H3 1729   4.260   1.308   0.720 -0.1313 -1.7263 -0.3666
  113MPD2     N 1730   3.964   1.348   1.055 -0.4723  0.2679  0.1923
  113MPD2    H5 1731   3.917   1.415   0.995 -1.0408  0.6682  1.0834
  113MPD2    N1 1732   4.403   1.144   1.129 -0.1698  0.2514 -0.1207
  113MPD2    H7 1733   4.363   1.139   1.222 -0.8726 -0.7446 -0.4729
  114TCq2    C1 1734   3.906   1.300   1.169  0.9865  0.5717 -0.1852
  114TCq2    O2 1735   3.940   1.210   1.240 -0.3863  0.5164 -0.1418
  114TCq2    C2 1736   3.781   1.362   1.206 -0.0662 -0.5391  0.1336
  114TCq2    C3 1737   3.719   1.447   1.118 -0.0921  0.6952  0.1582
  114TCq2    C4 1738   3.608   1.513   1.159 -0.2897  0.0852 -0.3568
  114TCq2    C5 1739   3.556   1.492   1.285  0.5723 -0.3109 -0.5831
  114TCq2    C6 1740   3.611   1.394   1.361 -0.0525  0.0412  0.0429
  114TCq2    C7 1741   3.727   1.330   1.324  0.3324  0.4394  0.2313
  114TCq2    C8 1742   3.562   1.388   1.499  0.2645  0.6269 -0.2011
  114TCq2    O4 1743   3.491   1.480   1.536 -0.5375 -0.2465 -0.0064
  114TCq2    C9 1744   3.540   1.594   1.057  0.6368  0.1650  0.1123
  114TCq2    O5 1745   3.447   1.670   1.098 -0.1654  0.0307 -0.5032
  114TCq2    O6 1746   3.582   1.589   0.934  0.3222 -0.3581  0.0261
  114TCq2    H2 1747   3.752   1.465   1.016  0.4008  0.4485  0.2737
  114TCq2    H3 1748   3.472   1.548   1.323  2.1343  1.5221  0.2115
  114TCq2    H4 1749   3.793   1.284   1.396 -0.6353  1.6054  1.8761
  115TMC2    C1 1750   0.133   4.336  17.461  0.2165  0.1639  0.8250
  115TMC2    C2 1751   0.054   4.330  17.348 -0.0964 -0.2112  0.2289
  115TMC2    C3 1752   0.045   4.441  17.267 -0.3051 -0.2024  0.2029
  115TMC2    C4 1753   0.179   4.466  17.504 -0.6927  0.0530 -0.3190
  115TMC2    C5 1754   0.176   4.569  17.415  0.5918 -0.6347  0.2592
  115TMC2    C6 1755   0.106   4.561  17.295  1.1295 -0.6383  0.1855
  115TMC2     C 1756   0.103   4.225  17.550  0.2550  0.8473 -0.7139
  115TMC2     O 1757   0.039   4.131  17.511  0.4274 -0.2948  0.0638
  115TMC2     H 1758   0.016   4.236  17.309 -2.3169  1.2870 -1.1754
  115TMC2    H1 1759   0.244   4.484  17.589  1.5309  1.6967 -2.3758
  115TMC2    H2 1760   0.087   4.651  17.238 -2.3602 -1.4335  0.1379
  115TMC2    C7 1761   0.236   4.697  17.451  0.7922 -0.3488 -0.0816
  115TMC2    C8 1762   4.703   4.429  17.142 -0.4443  0.8378  0.3861
  115TMC2    O1 1763   0.275   4.717  17.565 -0.0201 -0.0169  0.5401
  115TMC2    O2 1764   4.636   4.333  17.099 -0.1645  0.6033  0.1930
  115TMC2    O5 1765   0.062   4.490  17.047 -0.1101  0.0289  0.4644
  115TMC2    H5 1766   0.148   4.514  17.088 -0.2279  1.6277 -0.2301
  116MPD2     C 1767   0.131   4.013   0.309 -1.2916 -0.0663 -0.4454
  116MPD2    C1 1768   0.045   3.988   0.208  0.0627 -0.1965  0.0128
  116MPD2    C2 1769   0.045   4.064   0.099 -0.1554 -0.3277 -0.3925
  116MPD2    C3 1770   0.127   4.175   0.093  1.0740  0.1650 -0.0442
  116MPD2    C4 1771   0.207   4.210   0.197  0.1476 -0.7724  0.9058
  116MPD2    C5 1772   0.216   4.127   0.308  0.0809 -0.5159  0.9074
  116MPD2     H 1773   4.710   4.041   0.012 -0.8612 -1.7464  0.4659
  116MPD2    H1 1774   0.270   4.298   0.199  0.1139 -0.6557 -2.9019
  116MPD2    H2 1775   0.126   3.949   0.396 -2.9447 -0.3358 -0.7351
  116MPD2    H3 1776   0.277   4.147   0.395 -0.4152 -0.8824  1.3354
  116MPD2     N 1777   0.140   4.257  17.680  0.4393 -0.5052  0.5199
  116MPD2    H5 1778   0.201   4.339  17.679  0.4411 -0.4834  2.2125
  116MPD2    N1 1779   4.698   3.870   0.218 -0.3080 -0.0357  0.2106
  116MPD2    H7 1780   4.698   3.808   0.298  1.2205  0.0727  0.2997
  117TMC2    C1 1781   3.588   0.485  13.655  0.3999 -0.3463  0.6161
  117TMC2    C2 1782   3.620   0.454  13.529  0.4450  0.7911  1.2924
  117TMC2    C3 1783   3.710   0.527  13.462  0.4325 -0.3601  0.3264
  117TMC2    C4 1784   3.642   0.596  13.716 -0.2388  0.2065  0.3455
  117TMC2    C5 1785   3.729   0.670  13.641 -0.4777  0.4103 -0.0787
  117TMC2    C6 1786   3.769   0.637  13.515 -0.7534  0.2415 -0.3082
  117TMC2     C 1787   3.459   0.436  13.700 -0.6951  0.3842 -0.0038
  117TMC2     O 1788   3.433   0.324  13.655 -0.1335  0.8396 -0.6172
  117TMC2     H 1789   3.569   0.372  13.479 -0.2999  1.5265  0.8640
  117TMC2    H1 1790   3.621   0.610  13.821 -0.3333 -3.0434  0.7581
  117TMC2    H2 1791   3.823   0.699  13.444  1.5190 -2.0057 -0.5352
  117TMC2    C7 1792   3.778   0.790  13.699 -0.6755  0.7396  0.2530
  117TMC2    C8 1793   3.754   0.494  13.331 -0.2041  0.6169  0.1761
  117TMC2    O1 1794   3.891   0.827  13.671 -0.1175 -0.4069 -0.3090
  117TMC2    O2 1795   3.845   0.562  13.277  0.3170  0.2162  0.9883
  117TMC2    O5 1796   3.756   0.358  13.333  0.5188  0.1639  0.6776
  117TMC2    H5 1797   3.702   0.316  13.404 -0.7276 -0.6924 -0.7729
  118MPD2     C 1798   3.620   0.986  13.954 -0.4443 -0.0147 -0.2640
  118MPD2    C1 1799   3.723   0.946  13.884  0.1096  0.4754 -0.7838
  118MPD2    C2 1800   3.841   1.015  13.888  0.3248 -0.2512 -0.1033
  118MPD2    C3 1801   3.842   1.130  13.973 -0.2659 -0.4730  0.3679
  118MPD2    C4 1802   3.736   1.167  14.054  0.2360  0.3420  0.3926
  118MPD2    C5 1803   3.622   1.097  14.036  0.1985  0.8323  0.2688
  118MPD2     H 1804   3.917   0.984  13.816  0.4731  0.6721 -0.3478
  118MPD2    H1 1805   3.743   1.253  14.120  0.3645 -1.9502  3.3863
  118MPD2    H2 1806   3.517   0.953  13.945 -0.1246 -0.5847 -1.7600
  118MPD2    H3 1807   3.534   1.127  14.091  1.0835  0.4528  1.9166
  118MPD2     N 1808   3.942   1.228  13.959 -0.1008 -0.9603  0.7126
  118MPD2    H5 1809   3.945   1.305  14.025  1.9546 -1.2479  0.9435
  118MPD2    N1 1810   3.693   0.840  13.794 -0.1076 -0.2119 -0.6461
  118MPD2    H7 1811   3.594   0.816  13.792 -0.1466 -0.2099  1.1069
  119MPD2     C 1812   1.956   1.919  13.400  0.2837 -0.2025 -0.3050
  119MPD2    C1 1813   1.853   1.841  13.459  0.1248  0.5064 -0.7311
  119MPD2    C2 1814   1.774   1.767  13.371 -1.1723  0.2306  0.1865
  119MPD2    C3 1815   1.801   1.760  13.231  0.2749  0.5137  0.0067
  119MPD2    C4 1816   1.908   1.830  13.183  0.6178  0.1529 -0.0331
  119MPD2    C5 1817   1.975   1.916  13.262  0.2666 -0.2035  0.0576
  119MPD2     H 1818   1.700   1.708  13.424  1.2767 -0.5156  2.7666
  119MPD2    H1 1819   1.945   1.825  13.081 -0.8513 -3.0277 -0.4251
  119MPD2    H2 1820   2.024   1.971  13.467  0.1537 -0.4290  0.0004
  119MPD2    H3 1821   2.056   1.970  13.214 -1.0300  3.0344  1.5584
  119MPD2     N 1822   1.736   1.677  13.140  0.1162  0.4849 -0.5038
  119MPD2    H5 1823   1.779   1.653  13.052  0.0509  0.4391 -0.5229
  119MPD2    N1 1824   1.849   1.827  13.595 -0.2994 -0.0591 -0.7302
  119MPD2    H7 1825   1.929   1.851  13.652  1.3185 -2.1679 -2.1267
  120TCq2    C1 1826   1.619   1.623  13.158  0.7476 -0.8594 -0.7003
  120TCq2    O2 1827   1.536   1.647  13.247  0.2148  0.7216  0.2805
  120TCq2    C2 1828   1.595   1.494  13.098 -1.1466 -0.3360  0.2316
  120TCq2    C3 1829   1.709   1.433  13.041 -0.2142  0.4909 -0.2374
  120TCq2    C4 1830   1.720   1.297  13.028 -0.2818  0.4114 -0.4639
  120TCq2    C5 1831   1.623   1.215  13.076 -0.2216 -0.1944 -0.1492
  120TCq2    C6 1832   1.521   1.279  13.147 -0.7007 -0.0198 -0.6848
  120TCq2    C7 1833   1.504   1.415  13.152  0.8792 -0.6973 -0.3273
  120TCq2    C8 1834   1.438   1.194  13.241 -0.4889 -0.2915 -0.4082
  120TCq2    O4 1835   1.449   1.073  13.220  0.0557 -0.3188  0.9570
  120TCq2    C9 1836   1.829   1.238  12.961  0.1112 -0.1680 -0.3487
  120TCq2    O5 1837   1.911   1.315  12.903 -0.0620 -0.6100 -0.2314
  120TCq2    O6 1838   1.831   1.111  12.959 -0.4632  0.2540 -0.2039
  120TCq2    H2 1839   1.790   1.489  12.996  1.1058 -1.0748  0.2096
  120TCq2    H3 1840   1.628   1.107  13.070 -0.1275 -0.1067 -1.5103
  120TCq2    H4 1841   1.415   1.456  13.200 -0.0469 -1.0140 -1.7993
  121TMC2    C1 1842   3.050   3.660  14.265 -0.9615 -0.3189 -0.4887
  121TMC2    C2 1843   3.081   3.525  14.269  0.3611 -0.1897  0.8450
  121TMC2    C3 1844   3.000   3.430  14.202  0.1016  0.2019  0.5385
  121TMC2    C4 1845   2.952   3.697  14.174 -0.6279  0.1273  0.3572
  121TMC2    C5 1846   2.875   3.601  14.107  0.1486  0.4462  0.2447
  121TMC2    C6 1847   2.897   3.467  14.128 -1.1080 -0.5602 -0.3632
  121TMC2     C 1848   3.164   3.749  14.286 -0.1166 -0.5068  0.1837
  121TMC2     O 1849   3.240   3.753  14.377  0.0079 -0.1356  0.3163
  121TMC2     H 1850   3.181   3.502  14.304 -0.6782 -2.3820  2.3750
  121TMC2    H1 1851   2.927   3.800  14.149 -0.7530  0.3444  1.3760
  121TMC2    H2 1852   2.850   3.380  14.084  1.2290 -2.5123  1.0039
  121TMC2    C7 1853   2.791   3.637  13.996 -0.6049 -0.3589 -0.0272
  121TMC2    C8 1854   3.018   3.291  14.229  0.2000 -0.0971  0.8782
  121TMC2    O1 1855   2.798   3.749  13.953  0.0738  0.0857 -0.3462
  121TMC2    O2 1856   2.952   3.210  14.166  0.0766  0.5538  0.1685
  121TMC2    O5 1857   3.071   3.272  14.349  0.4513 -0.0776  0.0646
  121TMC2    H5 1858   3.113   3.351  14.390  1.6022  0.1339 -1.5202
  122MPD2     C 1859   3.315   4.007  14.288  0.4557  0.7103 -0.2837
  122MPD2    C1 1860   3.262   3.947  14.173  0.0526 -1.2911 -0.3995
  122MPD2    C2 1861   3.294   3.991  14.048 -0.1143 -0.0340  0.0121
  122MPD2    C3 1862   3.382   4.094  14.031 -0.5419  0.4231 -0.6294
  122MPD2    C4 1863   3.449   4.136  14.146  0.2358 -0.0612 -0.4758
  122MPD2    C5 1864   3.409   4.099  14.269  0.1605  0.0695  0.0844
  122MPD2     H 1865   3.244   3.942  13.966  0.5658 -0.0653 -0.3789
  122MPD2    H1 1866   3.523   4.215  14.135  0.1717 -0.0306 -0.6743
  122MPD2    H2 1867   3.286   3.978  14.388  2.5418 -1.4412 -0.2829
  122MPD2    H3 1868   3.460   4.135  14.357 -0.4485 -0.0947  0.5030
  122MPD2     N 1869   3.397   4.161  13.912  0.5124  0.3101  0.4930
  122MPD2    H5 1870   3.460   4.240  13.918  1.6246 -0.4648 -1.1014
  122MPD2    N1 1871   3.170   3.840  14.177 -0.5553 -0.3327  0.5597
  122MPD2    H7 1872   3.125   3.813  14.091  1.2632 -0.0231 -0.4895
  123MPD2     C 1873   1.483   1.552   9.079  0.0422 -0.0350  0.8699
  123MPD2    C1 1874   1.432   1.579   9.205 -0.1642  0.5302  0.6039
  123MPD2    C2 1875   1.320   1.513   9.244 -0.1235  0.2831  0.0859
  123MPD2    C3 1876   1.271   1.408   9.169  0.3874  0.1317  0.4948
  123MPD2    C4 1877   1.317   1.382   9.040  0.4584 -0.0916  1.2317
  123MPD2    C5 1878   1.430   1.449   8.993 -0.2620  0.0130 -0.2053
  123MPD2     H 1879   1.274   1.527   9.341 -1.2263  1.1015 -0.5540
  123MPD2    H1 1880   1.280   1.306   8.972  0.9265 -0.8094  1.7682
  123MPD2    H2 1881   1.568   1.605   9.037  0.7351 -1.0486  0.9995
  123MPD2    H3 1882   1.467   1.423   8.895  0.1890  1.2278 -0.3617
  123MPD2     N 1883   1.162   1.338   9.226 -0.3436 -0.1680  0.3070
  123MPD2    H5 1884   1.134   1.377   9.315 -0.0667  0.1996  0.2318
  123MPD2    N1 1885   1.494   1.674   9.289  0.3135  0.1434  0.0199
  123MPD2    H7 1886   1.568   1.726   9.243 -0.5371  2.0829  0.8621
  124TCq2    C1 1887   1.103   1.229   9.169  0.1645 -0.5664  0.3443
  124TCq2    O2 1888   1.122   1.174   9.062  1.0832  0.0536 -0.1055
  124TCq2    C2 1889   1.021   1.151   9.265  0.2504  0.2121  0.4894
  124TCq2    C3 1890   0.943   1.054   9.210 -0.0196  0.0522 -0.0208
  124TCq2    C4 1891   0.862   0.984   9.302  0.8111  0.1772 -0.3680
  124TCq2    C5 1892   0.866   1.003   9.432 -0.0781  0.0628  0.2171
  124TCq2    C6 1893   0.951   1.101   9.473 -0.6497 -0.2166 -0.1648
  124TCq2    C7 1894   1.034   1.181   9.394 -0.3920  0.0874  0.4556
  124TCq2    C8 1895   0.961   1.117   9.620  0.2397  0.5336 -0.1507
  124TCq2    O4 1896   1.068   1.155   9.662  0.1817  0.1573  0.6205
  124TCq2    C9 1897   0.779   0.876   9.256  0.3248 -0.8769 -0.3012
  124TCq2    O5 1898   0.697   0.820   9.337 -0.1717 -0.6128  0.4871
  124TCq2    O6 1899   0.785   0.852   9.132 -0.5368  0.7039 -0.1902
  124TCq2    H2 1900   0.936   1.044   9.102  0.9983 -3.6759  0.2596
  124TCq2    H3 1901   0.808   0.943   9.502  1.2991  0.0049  1.2970
  124TCq2    H4 1902   1.092   1.264   9.433 -2.2810  1.5562  0.1870
  125TMC2    C1 1903   3.628   2.949   9.359  0.0562 -0.8078  0.9148
  125TMC2    C2 1904   3.507   2.891   9.319 -0.0038 -0.5890 -0.3838
  125TMC2    C3 1905   3.420   2.963   9.255  0.6297  0.4589 -0.2497
  125TMC2    C4 1906   3.654   3.076   9.327 -0.0136  0.4743  0.9660
  125TMC2    C5 1907   3.567   3.148   9.256 -0.1780 -0.3048  0.0977
  125TMC2    C6 1908   3.446   3.095   9.226 -0.3161  0.7870  0.1428
  125TMC2     C 1909   3.721   2.872   9.445 -0.2382  0.2087 -0.0448
  125TMC2     O 1910   3.835   2.914   9.449 -0.2535 -0.3264  0.0530
  125TMC2     H 1911   3.476   2.787   9.322 -2.1404  0.0587  0.4143
  125TMC2    H1 1912   3.751   3.116   9.354  1.4879 -2.0861 -0.6409
  125TMC2    H2 1913   3.377   3.148   9.161  0.1553  0.5313 -0.5647
  125TMC2    C7 1914   3.589   3.284   9.202  0.2971  0.1247 -0.4145
  125TMC2    C8 1915   3.300   2.900   9.201  0.5809  0.7586 -0.4389
  125TMC2    O1 1916   3.516   3.312   9.110 -0.2615 -0.3407 -0.3727
  125TMC2    O2 1917   3.304   2.796   9.139  0.5423  0.5923 -0.2514
  125TMC2    O5 1918   3.207   2.998   9.184  0.5269 -0.7372 -0.3869
  125TMC2    H5 1919   3.221   3.083   9.232 -2.3258 -1.2493  1.3245
  126MPD1     C 1920   3.830   2.504   9.780  0.5587  0.4121 -0.0619
  126MPD1    C1 1921   3.700   2.495   9.751  0.6646 -0.0348 -0.0489
  126MPD1    C2 1922   3.653   2.589   9.668  0.0504  0.8591 -1.1262
  126MPD1    C3 1923   3.731   2.686   9.607  0.6155  0.4303 -0.1802
  126MPD1    C4 1924   3.859   2.692   9.645  0.1203  0.1473 -0.4991
  126MPD1    C5 1925   3.910   2.604   9.732 -0.1884  0.1528  0.1981
  126MPD1     H 1926   3.545   2.599   9.656 -0.2110  0.1619  0.5293
  126MPD1    H1 1927   3.925   2.768   9.605 -0.7914 -0.1751 -2.6388
  126MPD1    H2 1928   3.882   2.426   9.835 -0.7716 -0.5426 -0.1580
  126MPD1    H3 1929   4.017   2.599   9.749 -0.3500 -1.3769  0.7578
  126MPD1     N 1930   3.668   2.767   9.513 -0.5770  0.6693 -0.1988
  126MPD1    H5 1931   3.569   2.745   9.501 -0.6127  1.3409 -1.1211
  126MPD1    N1 1932   3.620   2.386   9.787 -1.2509 -0.1775 -0.4495
  126MPD1    H6 1933   3.520   2.401   9.778 -1.6328 -1.2230  2.3105
  126MPD1    H7 1934   3.642   2.347   9.878 -0.1612  1.6148  0.0688
  127MPD2     C 1935   0.107   2.858   9.187  0.0211 -0.3255 -0.6878
  127MPD2    C1 1936   4.708   2.904   9.220 -0.5408 -0.1399 -0.0856
  127MPD2    C2 1937   4.673   2.908   9.354  0.2498  0.0503 -0.1297
  127MPD2    C3 1938   0.026   2.846   9.448  0.3435  0.2940  1.0960
  127MPD2    C4 1939   0.156   2.801   9.408 -0.2142 -0.2897  0.6218
  127MPD2    C5 1940   0.202   2.805   9.277 -0.9965  0.0729  0.6327
  127MPD2     H 1941   4.573   2.939   9.382  0.4498 -1.3890  2.1142
  127MPD2    H1 1942   0.228   2.757   9.475  1.0578 -3.9220 -3.1034
  127MPD2    H2 1943   0.141   2.864   9.084  0.3072  2.5870 -0.4237
  127MPD2    H3 1944   0.303   2.779   9.249 -1.7740 -2.5388  0.2176
  127MPD2     N 1945   4.702   2.835   9.581  0.8243 -0.3003 -0.3177
  127MPD2    H5 1946   4.619   2.888   9.604  0.7452 -1.0037  1.0140
  127MPD2    N1 1947   4.623   2.955   9.123 -0.4248 -0.3970  0.4348
  127MPD2    H7 1948   4.654   2.965   9.027  0.5276 -1.0665  0.6786
  128TCq2    C1 1949   4.491   2.974   9.144  0.9041 -0.8276 -0.3825
  128TCq2    O2 1950   4.407   2.946   9.231  0.3367 -0.1748 -0.1458
  128TCq2    C2 1951   4.425   3.055   9.043  0.0446  0.8836  0.2643
  128TCq2    C3 1952   4.488   3.128   8.944  0.0755 -0.0393 -0.0540
  128TCq2    C4 1953   4.407   3.199   8.856  0.4283 -0.7489 -0.6514
  128TCq2    C5 1954   4.272   3.193   8.865  0.3056  0.2200 -0.4758
  128TCq2    C6 1955   4.212   3.118   8.959  0.1922  0.6288  0.0299
  128TCq2    C7 1956   4.288   3.045   9.044 -0.8886 -0.5012 -0.6478
  128TCq2    C8 1957   4.069   3.082   8.941 -0.5667  0.3121  0.1395
  128TCq2    O4 1958   4.014   3.135   8.846 -0.4573  0.4582 -0.5909
  128TCq2    C9 1959   4.464   3.267   8.744 -0.0398  0.3373  0.2042
  128TCq2    O5 1960   4.576   3.223   8.711  0.5248  0.3089 -0.2344
  128TCq2    O6 1961   4.393   3.360   8.693  0.1481 -0.5954  0.3315
  128TCq2    H2 1962   4.596   3.128   8.933 -0.0172  0.3787 -0.9797
  128TCq2    H3 1963   4.213   3.249   8.794  0.0032 -1.8929 -1.8890
  128TCq2    H4 1964   4.234   2.973   9.103 -0.9083  0.1361  0.1141
  129MPD2     C 1965   1.165   3.768   1.401  0.2170  0.4507  0.8400
  129MPD2    C1 1966   1.260   3.679   1.355  0.1734  0.0141  0.0162
  129MPD2    C2 1967   1.297   3.688   1.223 -0.4325 -0.2104  0.0257
  129MPD2    C3 1968   1.238   3.784   1.140  0.7797  0.1757 -0.4687
  129MPD2    C4 1969   1.139   3.867   1.183  0.0207  0.1010  0.4416
  129MPD2    C5 1970   1.101   3.861   1.313  0.0080  0.8567 -0.0666
  129MPD2     H 1971   1.381   3.631   1.185 -0.7887 -0.0790 -0.9594
  129MPD2    H1 1972   1.089   3.943   1.124 -0.8397 -2.4412 -2.1135
  129MPD2    H2 1973   1.133   3.772   1.504  3.2380 -0.6979  1.8323
  129MPD2    H3 1974   1.017   3.918   1.353 -0.7323  0.4201 -1.0067
  129MPD2     N 1975   1.284   3.791   1.001  0.1168  0.5546 -0.1700
  129MPD2    H5 1976   1.366   3.737   0.976 -1.6642 -1.1483 -2.3357
  129MPD2    N1 1977   1.314   3.571   1.424 -0.2750  0.8116 -1.0320
  129MPD2    H7 1978   1.377   3.510   1.372  0.5928  1.5149 -0.8076
  130TCq2    C1 1979   1.276   3.532   1.552  0.0272 -0.5925  0.7082
  130TCq2    O2 1980   1.206   3.592   1.631  0.5932 -0.2838  0.1038
  130TCq2    C2 1981   1.330   3.403   1.583  0.3654  0.3303  0.4536
  130TCq2    C3 1982   1.428   3.346   1.504 -0.1711  0.2836  0.1743
  130TCq2    C4 1983   1.425   3.206   1.485 -0.3428  0.3510 -0.1707
  130TCq2    C5 1984   1.340   3.122   1.559  0.1816 -0.1862 -0.2347
  130TCq2    C6 1985   1.256   3.186   1.645  0.0391  0.2821  0.3717
  130TCq2    C7 1986   1.249   3.324   1.662 -0.3105 -0.5692 -0.0487
  130TCq2    C8 1987   1.144   3.114   1.701  0.2075  0.2685  0.4109
  130TCq2    O4 1988   1.047   3.175   1.745  0.1969 -0.0452  0.3942
  130TCq2    C9 1989   1.507   3.144   1.386  0.5978 -0.0854  0.7954
  130TCq2    O5 1990   1.479   3.024   1.364 -0.2385  0.4157 -0.1137
  130TCq2    O6 1991   1.599   3.205   1.332  0.5725 -0.0332 -0.1194
  130TCq2    H2 1992   1.505   3.406   1.458 -1.8814  0.3824 -2.5336
  130TCq2    H3 1993   1.333   3.015   1.543  0.5805 -0.3095  0.4243
  130TCq2    H4 1994   1.178   3.365   1.733  0.2575 -1.6891  1.1749
  131MPD2     C 1995   1.569   2.305  10.207  0.3821  0.0645  0.5595
  131MPD2    C1 1996   1.678   2.327  10.121 -0.6095 -0.2991  0.7085
  131MPD2    C2 1997   1.679   2.248  10.013  0.1735 -0.1706  0.0196
  131MPD2    C3 1998   1.584   2.151   9.977  0.3589  0.2454 -0.7178
  131MPD2    C4 1999   1.481   2.129  10.069 -0.0744 -0.1777 -0.5606
  131MPD2    C5 2000   1.479   2.203  10.185  0.3809  1.1180  0.7865
  131MPD2     H 2001   1.757   2.255   9.938  0.2495 -3.7754 -0.2456
  131MPD2    H1 2002   1.390   2.077  10.042  0.6470 -1.4134 -0.5919
  131MPD2    H2 2003   1.570   2.359  10.300  1.5113 -0.6415  0.9564
  131MPD2    H3 2004   1.392   2.207  10.249  0.1465  0.8927  0.4810
  131MPD2     N 2005   1.600   2.092   9.850 -0.4352 -0.0325  0.5424
  131MPD2    H5 2006   1.666   2.145   9.793 -1.3000  1.6442  1.0862
  131MPD2    N1 2007   1.784   2.414  10.155 -0.1049  0.4270  0.1990
  131MPD2    H7 2008   1.779   2.439  10.253  0.2147  0.8188  0.1175
  132TCq2    C1 2009   2.286   2.720  10.029  0.1749 -0.1521  0.3746
  132TCq2    O2 2010   2.293   2.672   9.917 -0.7224 -0.8478  0.0245
  132TCq2    C2 2011   2.188   2.661  10.125  0.0966  0.7490 -0.0059
  132TCq2    C3 2012   2.154   2.717  10.245 -0.3006  0.0501  0.2822
  132TCq2    C4 2013   2.042   2.678  10.315  0.1062 -0.3654 -0.4330
  132TCq2    C5 2014   1.952   2.589  10.263 -0.1167  0.9241  0.0094
  132TCq2    C6 2015   1.994   2.525  10.146  0.2264 -0.1322  0.3240
  132TCq2    C7 2016   2.103   2.562  10.079 -0.5081  0.1919  0.4714
  132TCq2    C8 2017   1.893   2.445  10.078 -0.4060 -0.1195 -0.5931
  132TCq2    O4 2018   1.909   2.427   9.957 -0.1557 -0.8209 -0.3977
  132TCq2    C9 2019   2.011   2.743  10.436 -0.8422  0.0752  0.7258
  132TCq2    O5 2020   1.920   2.690  10.511 -0.7525  0.0143 -0.1760
  132TCq2    O6 2021   2.069   2.855  10.455 -0.1585 -0.3702  0.5014
  132TCq2    H2 2022   2.221   2.789  10.291  0.5570 -1.2725  1.1106
  132TCq2    H3 2023   1.862   2.569  10.321  1.1981 -0.2499  1.6321
  132TCq2    H4 2024   2.127   2.519   9.982 -1.7196 -1.7022  1.0080
  133MPD2     C 2025   1.388   2.024   9.185  0.3609  0.1904  0.4190
  133MPD2    C1 2026   1.472   2.102   9.261  0.4895 -0.6593 -0.0087
  133MPD2    C2 2027   1.429   2.141   9.383 -0.2851 -0.1765  0.1238
  133MPD2    C3 2028   1.304   2.101   9.424 -0.0417  0.3702  0.3244
  133MPD2    C4 2029   1.216   2.026   9.346 -0.6470  0.6004  0.3186
  133MPD2    C5 2030   1.264   1.978   9.224  0.2746 -0.2648 -0.1102
  133MPD2     H 2031   1.491   2.212   9.437 -0.8896 -0.7253  1.5290
  133MPD2    H1 2032   1.113   2.005   9.374 -0.6658  1.4024  0.8515
  133MPD2    H2 2033   1.429   1.993   9.090 -1.5906 -0.4449 -0.2105
  133MPD2    H3 2034   1.196   1.925   9.158 -1.9116  0.1030  1.9012
  133MPD2     N 2035   1.247   2.151   9.543  0.1498 -0.2246  0.3547
  133MPD2    H5 2036   1.146   2.145   9.531  0.2662 -0.3355 -0.6204
  133MPD2    N1 2037   1.598   2.138   9.218  0.2788  0.1593 -0.1836
  133MPD2    H7 2038   1.618   2.109   9.123  3.0285 -1.0768  0.7549
  134TCq2    C1 2039   1.695   2.211   9.278  0.2203  0.6193 -0.4100
  134TCq2    O2 2040   1.710   2.237   9.395 -0.3643 -0.4831 -0.0384
  134TCq2    C2 2041   1.807   2.239   9.191  0.4137  0.4659  0.0155
  134TCq2    C3 2042   1.800   2.189   9.059  0.1432 -0.2766 -0.0569
  134TCq2    C4 2043   1.907   2.203   8.982  0.2632  0.9370  0.7997
  134TCq2    C5 2044   2.022   2.263   9.030  0.2563 -0.6458 -0.0698
  134TCq2    C6 2045   2.030   2.290   9.166  0.0709 -0.0797 -0.5580
  134TCq2    C7 2046   1.923   2.285   9.249 -0.1021  0.3251 -0.5475
  134TCq2    C8 2047   2.155   2.348   9.226  0.5739  0.3224 -0.1977
  134TCq2    O4 2048   2.136   2.403   9.334 -0.0556  0.0986  0.6436
  134TCq2    C9 2049   1.899   2.162   8.843  0.2754  0.3156  0.2158
  134TCq2    O5 2050   1.978   2.217   8.758  0.0170 -0.5080 -0.5317
  134TCq2    O6 2051   1.791   2.109   8.811  0.3576 -0.0942 -0.3695
  134TCq2    H2 2052   1.716   2.135   9.018  0.1936 -0.2385 -0.2088
  134TCq2    H3 2053   2.099   2.273   8.954  0.1411  2.4614  0.2252
  134TCq2    H4 2054   1.935   2.297   9.356  0.0809 -1.6267 -0.3474
  135MPD2     C 2055   3.939   4.598   9.153  0.3906  0.7789 -0.0472
  135MPD2    C1 2056   3.845   4.517   9.111  0.9084 -0.3494 -0.2967
  135MPD2    C2 2057   3.866   4.381   9.107 -0.3098  0.3600 -0.0651
  135MPD2    C3 2058   3.991   4.320   9.122 -0.1182  0.3223  0.0692
  135MPD2    C4 2059   4.092   4.415   9.155  0.2061 -0.8234  0.0698
  135MPD2    C5 2060   4.062   4.547   9.163 -0.0978 -0.2091  0.3948
  135MPD2     H 2061   3.777   4.327   9.076  1.0870 -1.5495 -0.7434
  135MPD2    H1 2062   4.194   4.390   9.179  0.1831  0.8083  1.8506
  135MPD2    H2 2063   3.923   4.702   9.180 -1.0387  1.2403 -2.6511
  135MPD2    H3 2064   4.140   4.614   9.195 -0.3560  1.2498 -2.0809
  135MPD2     N 2065   4.027   4.186   9.105 -0.5302  0.3860  0.9298
  135MPD2    H5 2066   4.126   4.166   9.113 -0.1894  2.8153  2.7898
  135MPD2    N1 2067   3.713   4.563   9.087 -0.4630  0.2546 -0.0898
  135MPD2    H7 2068   3.645   4.487   9.080 -1.4324  1.3599 -2.4889
  136TCq2    C1 2069   3.679   4.686   9.046  0.1441  0.1329 -0.5602
  136TCq2    O2 2070   3.744   0.056   9.011 -0.5906 -0.0307 -0.6277
  136TCq2    C2 2071   3.549   4.672   8.990 -0.3487 -0.6141 -0.0688
  136TCq2    C3 2072   3.534   4.715   8.859  0.4251 -0.2548  0.1979
  136TCq2    C4 2073   3.416   4.684   8.795  0.0970 -0.2838  0.6712
  136TCq2    C5 2074   3.311   4.605   8.853  0.0731 -0.3637  0.1099
  136TCq2    C6 2075   3.344   4.550   8.984  0.5350  0.0519  0.4957
  136TCq2    C7 2076   3.463   4.584   9.044 -0.0832  0.7298 -0.5783
  136TCq2    C8 2077   3.233   4.497   9.061  0.0376 -0.2006 -0.3977
  136TCq2    O4 2078   3.125   4.524   9.006  0.3792  0.2971 -0.7975
  136TCq2    C9 2079   3.383   0.017   8.666 -0.5184 -0.0939 -0.1678
  136TCq2    O5 2080   3.428   0.131   8.646  0.2928 -0.2159  0.1187
  136TCq2    O6 2081   3.303   4.675   8.595 -0.2004 -1.0082  0.0962
  136TCq2    H2 2082   3.619   0.026   8.804 -1.1647  0.8149 -1.5568
  136TCq2    H3 2083   3.225   4.586   8.790  0.3278  0.0396 -0.3561
  136TCq2    H4 2084   3.470   4.559   9.149  0.9374 -1.4827 -1.1750
  137MPD2     C 2085   2.421   3.199   9.037  0.0198 -0.0242 -0.5384
  137MPD2    C1 2086   2.455   3.327   9.046 -0.8497  0.1328  0.3548
  137MPD2    C2 2087   2.586   3.360   9.008 -1.5468  0.3540  0.6882
  137MPD2    C3 2088   2.684   3.261   9.002 -0.0381 -0.3112 -0.8839
  137MPD2    C4 2089   2.649   3.132   9.016 -0.6112 -0.4199  0.3428
  137MPD2    C5 2090   2.513   3.102   9.021  0.1032 -0.1297 -0.0945
  137MPD2     H 2091   2.615   3.464   9.004  0.0886 -0.1566 -0.2790
  137MPD2    H1 2092   2.720   3.051   9.010 -1.0503 -0.7520 -0.3208
  137MPD2    H2 2093   2.322   3.166   9.066 -0.0907 -1.5834 -2.7018
  137MPD2    H3 2094   2.482   3.000   9.039  2.2183 -0.7300  0.0370
  137MPD2     N 2095   2.820   3.296   8.993 -0.1101  0.2256 -0.1185
  137MPD2    H5 2096   2.881   3.216   9.005  0.4032  0.8439  1.3040
  137MPD2    N1 2097   2.363   3.426   9.078 -0.6360  0.9566  0.1487
  137MPD2    H7 2098   2.265   3.401   9.084 -0.4399  0.2170  0.2192
  138TCq2    C1 2099   2.390   3.559   9.091  0.2101 -0.0195 -0.9148
  138TCq2    O2 2100   2.495   3.615   9.130 -0.8002  0.4394 -0.1465
  138TCq2    C2 2101   2.278   3.645   9.073 -1.0665  0.5462  0.1286
  138TCq2    C3 2102   2.162   3.583   9.036 -0.1892 -0.1076 -0.0105
  138TCq2    C4 2103   2.045   3.656   9.055  0.1224 -1.2634  0.4674
  138TCq2    C5 2104   2.053   3.780   9.115 -0.1124 -0.1647  0.3482
  138TCq2    C6 2105   2.174   3.835   9.157 -0.1385 -0.0634 -0.1660
  138TCq2    C7 2106   2.290   3.764   9.139 -0.2551 -0.8173 -0.2859
  138TCq2    C8 2107   2.176   3.939   9.256 -0.0820 -0.3140 -0.5479
  138TCq2    O4 2108   2.100   4.035   9.235  0.1906  0.0805  0.6179
  138TCq2    C9 2109   1.921   3.605   9.016 -0.8219  0.0148  0.4452
  138TCq2    O5 2110   1.921   3.485   8.990 -0.6410 -0.2195  0.1984
  138TCq2    O6 2111   1.813   3.671   9.048 -0.4825  0.1418  0.2910
  138TCq2    H2 2112   2.161   3.503   8.963  0.5793  1.3407 -1.5972
  138TCq2    H3 2113   1.963   3.837   9.135 -0.8382  0.0131 -3.2595
  138TCq2    H4 2114   2.379   3.827   9.142 -1.2841  0.7843 -2.9772
  139TMC2    C1 2115   3.197   1.219  13.148 -0.9239  0.2983 -0.3688
  139TMC2    C2 2116   3.187   1.273  13.014 -0.2390 -0.3671 -0.4787
  139TMC2    C3 2117   3.120   1.384  12.993 -0.1376 -0.6735 -0.9439
  139TMC2    C4 2118   3.131   1.276  13.255 -0.9345  0.2060  0.1615
  139TMC2    C5 2119   3.053   1.387  13.219  0.4025  0.2476  0.3551
  139TMC2    C6 2120   3.048   1.443  13.095  0.4320 -0.3389 -0.2119
  139TMC2     C 2121   3.313   1.135  13.169 -0.0153  0.1101  0.5016
  139TMC2     O 2122   3.359   1.069  13.073 -0.2211 -0.5173 -0.3769
  139TMC2     H 2123   3.254   1.238  12.936  0.5145  0.9509 -0.4339
  139TMC2    H1 2124   3.133   1.237  13.356  0.7556  1.2576  0.5435
  139TMC2    H2 2125   2.976   1.518  13.065 -0.3685 -1.8090 -1.9567
  139TMC2    C7 2126   2.981   1.464  13.319 -0.1966  0.1973  0.4371
  139TMC2    C8 2127   3.142   1.459  12.872  0.1328 -0.5153  0.4268
  139TMC2    O1 2128   2.885   1.536  13.282 -0.3571 -0.4062  0.2984
  139TMC2    O2 2129   3.085   1.429  12.768 -0.2161 -0.3134 -0.5585
  139TMC2    O5 2130   3.272   1.487  12.883 -0.4525  0.1512  0.0212
  139TMC2    H5 2131   3.284   1.503  12.979  1.1295 -1.8844  0.1594
  140MPD2     C 2132   3.515   1.118  13.482 -0.3985  0.1393  0.0262
  140MPD2    C1 2133   3.483   1.105  13.351  0.0866 -0.9244 -0.9467
  140MPD2    C2 2134   3.579   1.042  13.274 -0.2616 -0.6818 -1.2710
  140MPD2    C3 2135   3.703   1.005  13.328  0.3772 -0.1693  0.4046
  140MPD2    C4 2136   3.731   1.027  13.461  0.3582  0.5052 -0.1056
  140MPD2    C5 2137   3.633   1.079  13.539  0.5433  0.0690  0.3169
  140MPD2     H 2138   3.555   1.028  13.169 -1.7629 -0.8212 -0.9001
  140MPD2    H1 2139   3.822   0.993  13.510  1.4025 -2.8250 -4.3272
  140MPD2    H2 2140   3.435   1.161  13.541  0.3526 -1.8360  2.4851
  140MPD2    H3 2141   3.664   1.108  13.639 -0.4726 -0.9027  0.8998
  140MPD2     N 2142   3.794   0.954  13.241 -0.3504 -0.2396  0.1173
  140MPD2    H5 2143   3.766   0.944  13.144  1.7616 -0.8930 -0.4287
  140MPD2    N1 2144   3.359   1.152  13.301 -0.1777  0.6892  0.3252
  140MPD2    H7 2145   3.307   1.222  13.354 -1.1243  1.6664 -1.9101
  141TCq2    C1 2146   3.953   2.708  14.221  0.2658 -0.0007 -0.4176
  141TCq2    O2 2147   3.946   2.823  14.179 -0.3255 -0.6318 -0.1121
  141TCq2    C2 2148   3.966   2.680  14.366 -0.1201 -0.8508 -0.0005
  141TCq2    C3 2149   3.963   2.550  14.419  0.2532 -0.8612 -0.1528
  141TCq2    C4 2150   3.998   2.542  14.554  0.3992  0.9107 -0.2169
  141TCq2    C5 2151   4.044   2.649  14.628 -0.3928 -0.6465  0.3643
  141TCq2    C6 2152   4.041   2.773  14.568  0.0364 -0.0762 -0.0075
  141TCq2    C7 2153   3.997   2.793  14.441  0.3461 -0.2831 -0.2260
  141TCq2    C8 2154   4.042   2.884  14.657  0.1101 -0.3257 -0.9862
  141TCq2    O4 2155   3.955   2.970  14.659 -0.4598  0.7328  0.1047
  141TCq2    C9 2156   3.966   2.417  14.625 -0.1567  0.2026 -0.4808
  141TCq2    O5 2157   3.986   2.414  14.749 -0.1684  0.7441  0.0461
  141TCq2    O6 2158   3.928   2.323  14.555 -0.4213  0.3532  0.3238
  141TCq2    H2 2159   3.920   2.462  14.373  1.9280 -1.3943 -0.6992
  141TCq2    H3 2160   4.051   2.642  14.736 -2.4992  1.0243  0.6247
  141TCq2    H4 2161   3.986   2.893  14.401  1.6333 -0.0526 -0.0086
  142MPD2     C 2162   1.235   0.813  11.032  0.7677  0.0453  0.0540
  142MPD2    C1 2163   1.185   0.753  10.914  0.1277  0.4358 -0.0155
  142MPD2    C2 2164   1.186   0.829  10.795  0.4333 -0.2725 -0.1350
  142MPD2    C3 2165   1.257   0.947  10.797 -0.3834 -0.0908 -0.0286
  142MPD2    C4 2166   1.310   0.996  10.909 -0.1955  0.2279 -0.3892
  142MPD2    C5 2167   1.303   0.937  11.034 -0.4723 -0.2958  0.2520
  142MPD2     H 2168   1.150   0.786  10.703 -2.7525 -1.1422  1.5295
  142MPD2    H1 2169   1.358   1.093  10.896  0.9479 -0.5669 -2.1575
  142MPD2    H2 2170   1.240   0.757  11.125 -0.6314 -0.0131  0.0891
  142MPD2    H3 2171   1.349   0.979  11.123 -2.1753  1.1373  0.4498
  142MPD2     N 2172   1.256   1.038  10.686 -0.5976 -0.4280  0.0639
  142MPD2    H5 2173   1.295   1.131  10.696  0.0776 -0.6279 -0.6937
  142MPD2    N1 2174   1.122   0.629  10.923  0.2395  0.1644 -0.4199
  142MPD2    H7 2175   1.120   0.592  11.017 -0.3006  0.6538 -0.2364
  143TCq2    C1 2176   1.193   1.020  10.568 -0.0893 -0.1983 -0.2553
  143TCq2    O2 2177   1.117   0.935  10.525  0.0197 -0.5066 -0.4137
  143TCq2    C2 2178   1.208   1.133  10.469  0.2669  0.7069 -0.3528
  143TCq2    C3 2179   1.299   1.235  10.491 -0.4777  0.6510 -0.0749
  143TCq2    C4 2180   1.336   1.312  10.387 -0.0448 -0.1477 -0.8324
  143TCq2    C5 2181   1.272   1.312  10.268 -0.3322 -0.2824  0.3082
  143TCq2    C6 2182   1.172   1.225  10.259  0.0411 -0.5502  0.4329
  143TCq2    C7 2183   1.132   1.133  10.355  0.1949  0.4531  0.3176
  143TCq2    C8 2184   1.106   1.219  10.132  0.2653 -0.4035 -0.0437
  143TCq2    O4 2185   1.176   1.210  10.034 -0.1002  0.7388 -0.0492
  143TCq2    C9 2186   1.433   1.422  10.412  0.0453 -0.2854 -0.4391
  143TCq2    O5 2187   1.422   1.529  10.346 -0.0992  0.0421 -0.5432
  143TCq2    O6 2188   1.508   1.406  10.510 -0.6079 -0.2825  0.0556
  143TCq2    H2 2189   1.374   1.238  10.570 -1.7043 -0.5703  1.1395
  143TCq2    H3 2190   1.296   1.387  10.193  0.8554 -1.2766 -0.2956
  143TCq2    H4 2191   1.060   1.056  10.332  0.4990  0.1551  0.3629
  144MPD2     C 2192   3.975   1.091   0.579 -0.3375  0.7225  0.4941
  144MPD2    C1 2193   3.984   1.012   0.692 -0.3420 -0.4566 -0.4559
  144MPD2    C2 2194   4.101   0.981   0.744 -0.5059  0.5253 -0.0984
  144MPD2    C3 2195   4.218   1.015   0.670 -0.5981  0.2218 -0.2225
  144MPD2    C4 2196   4.211   1.093   0.561 -0.4115 -0.7678 -0.3560
  144MPD2    C5 2197   4.092   1.133   0.522  0.8366 -0.8215  0.3094
  144MPD2     H 2198   4.115   0.915   0.829 -4.0354  0.0525  0.1249
  144MPD2    H1 2199   4.292   1.123   0.496  1.0376  0.0707  1.8243
  144MPD2    H2 2200   3.882   1.110   0.527  0.6661  1.6182 -0.9526
  144MPD2    H3 2201   4.091   1.185   0.427 -1.8592 -0.5972  0.4689
  144MPD2     N 2202   4.343   0.966   0.702 -0.3405  0.2307 -0.0844
  144MPD2    H5 2203   4.407   1.002   0.632 -1.2326  0.3478 -0.8365
  144MPD2    N1 2204   3.869   0.947   0.744  0.0076 -0.2469 -0.3588
  144MPD2    H7 2205   3.877   0.896   0.832  2.3908 -0.8382 -0.9155
  145TCq2    C1 2206   4.380   0.878   0.794 -0.3558 -0.1257 -0.5055
  145TCq2    O2 2207   4.311   0.809   0.875 -0.2725  0.5361 -0.3304
  145TCq2    C2 2208   4.523   0.860   0.798 -0.0344 -0.2865 -0.6876
  145TCq2    C3 2209   4.620   0.949   0.759  0.8238 -0.3495  0.3655
  145TCq2    C4 2210   0.023   0.913   0.780 -0.3243  0.3935  0.0013
  145TCq2    C5 2211   0.059   0.792   0.830  0.4683  0.8336 -0.2755
  145TCq2    C6 2212   4.685   0.699   0.857  0.0390  0.0088  0.9996
  145TCq2    C7 2213   4.552   0.733   0.848 -0.1724 -0.5787 -0.1056
  145TCq2    C8 2214   4.709   0.633   0.986  0.8776  0.1289 -0.2619
  145TCq2    O4 2215   0.098   0.595   1.004  0.0121 -0.0845  0.0990
  145TCq2    C9 2216   0.131   1.010   0.768 -0.0484  0.2758 -0.3252
  145TCq2    O5 2217   0.250   0.976   0.794  0.2465  0.4200  0.5179
  145TCq2    O6 2218   0.094   1.129   0.728  0.4140 -0.0251  0.4206
  145TCq2    H2 2219   4.604   1.054   0.736  0.0372 -0.5138  0.1338
  145TCq2    H3 2220   0.161   0.760   0.849  0.1449 -0.9842 -1.5772
  145TCq2    H4 2221   4.469   0.665   0.862 -0.4940 -0.1942 -0.1660
  146TMC2    C1 2222   0.512   3.088  12.156 -0.8791 -0.4815  0.5025
  146TMC2    C2 2223   0.456   3.057  12.032  0.8284 -0.3829  0.2416
  146TMC2    C3 2224   0.360   2.955  12.035 -0.3887  0.5530  0.3050
  146TMC2    C4 2225   0.478   3.028  12.273 -0.8233  0.0384  0.9293
  146TMC2    C5 2226   0.392   2.932  12.268 -1.0420  0.5617  0.9419
  146TMC2    C6 2227   0.329   2.892  12.158  0.1383  0.8769  0.3465
  146TMC2     C 2228   0.619   3.184  12.145  0.1885  0.0602  0.7269
  146TMC2     O 2229   0.636   3.246  12.040  0.5003  0.2122  0.1937
  146TMC2     H 2230   0.489   3.108  11.942  2.7350 -2.1188 -0.0399
  146TMC2    H1 2231   0.509   3.073  12.366  0.8678  0.6738  0.0639
  146TMC2    H2 2232   0.254   2.813  12.163 -2.0482  2.8676 -0.7995
  146TMC2    C7 2233   0.368   2.852  12.385  0.3963  0.0098  0.5795
  146TMC2    C8 2234   0.269   2.941  11.930 -0.3316  0.4566  0.0263
  146TMC2    O1 2235   0.260   2.797  12.381 -0.3150  0.3226 -0.2538
  146TMC2    O2 2236   0.168   2.871  11.934  0.0729 -0.3612 -0.0265
  146TMC2    O5 2237   0.310   3.037  11.838 -0.3442  0.1784  0.2895
  146TMC2    H5 2238   0.265   3.040  11.751 -0.1802 -0.7446  0.1740
  147MPD2     C 2239   0.476   2.672  12.848  0.1806  0.2156  0.3110
  147MPD2    C1 2240   0.582   2.745  12.807  0.4410 -0.3306  0.4047
  147MPD2    C2 2241   0.574   2.798  12.676 -0.0458 -0.4591  0.2666
  147MPD2    C3 2242   0.470   2.769  12.594 -0.1919 -0.3991  0.1935
  147MPD2    C4 2243   0.378   2.673  12.632  0.2679 -0.2157  0.3756
  147MPD2    C5 2244   0.377   2.635  12.762 -0.1625 -0.1479  0.2572
  147MPD2     H 2245   0.647   2.869  12.640  1.5983 -1.4696  1.6551
  147MPD2    H1 2246   0.308   2.635  12.558  1.5910  1.0313 -1.5291
  147MPD2    H2 2247   0.467   2.631  12.949  0.0322  0.2654  0.3182
  147MPD2    H3 2248   0.304   2.561  12.792  0.7539 -1.2473 -0.2296
  147MPD2     N 2249   0.471   2.842  12.473 -0.0925 -0.4438  0.2859
  147MPD2    H5 2250   0.562   2.883  12.456 -0.4002 -0.5054 -1.6092
  147MPD2    N1 2251   0.692   2.766  12.893 -0.2216 -0.3879 -0.3099
  147MPD2    H7 2252   0.692   2.717  12.982 -0.4026  1.0002  0.4610
  148MPD2     C 2253   1.965   2.013   9.983 -0.7267  0.0294 -0.1302
  148MPD2    C1 2254   1.896   1.911  10.045 -0.1686  0.1487  0.6509
  148MPD2    C2 2255   1.854   1.922  10.175 -0.4038 -0.0924 -0.5671
  148MPD2    C3 2256   1.881   2.036  10.248 -1.3006  0.1701  0.3429
  148MPD2    C4 2257   1.958   2.137  10.185 -0.1199 -0.0983 -0.4676
  148MPD2    C5 2258   1.996   2.117  10.058  0.8023 -0.8898 -0.4065
  148MPD2     H 2259   1.807   1.835  10.222 -1.2331 -0.1221 -1.4462
  148MPD2    H1 2260   1.986   2.227  10.238  1.0242 -2.3484  2.7269
  148MPD2    H2 2261   1.997   2.005   9.880 -1.4409 -1.7084 -0.2298
  148MPD2    H3 2262   2.054   2.196  10.012 -0.0854 -0.7757 -1.3000
  148MPD2     N 2263   1.837   2.052  10.383 -0.5162  0.1756  0.4329
  148MPD2    H5 2264   1.872   2.128  10.441  1.6896 -0.9026  0.4934
  148MPD2    N1 2265   1.849   1.800   9.977 -0.3217 -0.0290 -0.6459
  148MPD2    H7 2266   1.775   1.748  10.023  0.9874 -0.9895  0.3736
  149TCq2    C1 2267   1.899   1.750   9.863  0.3899  0.4822  0.8589
  149TCq2    O2 2268   1.995   1.784   9.796 -0.0615  0.2099  0.2747
  149TCq2    C2 2269   1.805   1.647   9.806  0.7595  0.2930 -0.7650
  149TCq2    C3 2270   1.848   1.569   9.699  0.2063  0.4932 -0.6646
  149TCq2    C4 2271   1.760   1.482   9.643  0.6173 -0.2757  0.2273
  149TCq2    C5 2272   1.624   1.492   9.667 -0.7144 -0.8864  0.5896
  149TCq2    C6 2273   1.590   1.572   9.772  0.0806  0.2714  0.7559
  149TCq2    C7 2274   1.675   1.650   9.848  0.3274 -0.1175  0.0640
  149TCq2    C8 2275   1.467   1.548   9.837  0.2230 -0.0196  0.4769
  149TCq2    O4 2276   1.469   1.550   9.957 -0.6490  0.9057 -0.3929
  149TCq2    C9 2277   1.812   1.406   9.529 -0.4010 -0.4504 -0.3701
  149TCq2    O5 2278   1.732   1.370   9.441  0.1735 -0.1331 -0.4027
  149TCq2    O6 2279   1.936   1.402   9.516  0.0345  0.0927  0.3053
  149TCq2    H2 2280   1.952   1.571   9.669  0.3192  1.8406 -0.1538
  149TCq2    H3 2281   1.553   1.428   9.616 -1.6891  0.7681 -0.1381
  149TCq2    H4 2282   1.633   1.725   9.914 -2.6012 -1.6916 -0.0156
  150MPD2     C 2283   3.047   1.617  11.858 -0.3837  0.5887 -0.0824
  150MPD2    C1 2284   3.009   1.751  11.821 -0.4522  0.1549 -0.6105
  150MPD2    C2 2285   3.109   1.852  11.808 -0.1760 -0.8867 -0.6292
  150MPD2    C3 2286   3.232   1.827  11.833  0.0742 -0.6515  0.4362
  150MPD2    C4 2287   3.268   1.695  11.870 -0.4749 -0.4480 -0.2968
  150MPD2    C5 2288   3.177   1.593  11.880 -0.1414 -0.1681 -0.2521
  150MPD2     H 2289   3.086   1.957  11.795  0.4576 -0.6965 -0.2040
  150MPD2    H1 2290   3.373   1.669  11.876 -0.0578  1.1201 -0.6567
  150MPD2    H2 2291   2.974   1.538  11.854 -0.6740  0.8717 -0.3533
  150MPD2    H3 2292   3.212   1.493  11.904  0.5289 -0.4020 -2.2563
  150MPD2     N 2293   3.317   1.935  11.838  0.2521  0.9435  0.4790
  150MPD2    H5 2294   3.277   2.026  11.816 -0.8616  0.5429  0.8741
  150MPD2    N1 2295   2.869   1.766  11.793  0.2077 -0.0829 -0.1505
  150MPD2    H7 2296   2.805   1.691  11.818 -2.3863  2.7357  1.7338
  151TCq2    C1 2297   3.447   1.943  11.880 -0.2829  0.2256 -0.0302
  151TCq2    O2 2298   3.522   1.857  11.916  0.4523  0.4171  0.1193
  151TCq2    C2 2299   3.481   2.080  11.896 -0.4315  0.5664 -0.8490
  151TCq2    C3 2300   3.414   2.171  11.819 -0.6865 -0.8638  0.2451
  151TCq2    C4 2301   3.405   2.299  11.873 -0.0725 -0.0454 -0.2390
  151TCq2    C5 2302   3.446   2.325  12.003  0.2626  0.0689 -0.1032
  151TCq2    C6 2303   3.514   2.227  12.073  0.2641 -0.7263 -0.1755
  151TCq2    C7 2304   3.535   2.103  12.023 -0.0409  0.6778 -0.7901
  151TCq2    C8 2305   3.517   2.238  12.217 -0.5633  0.5426 -0.4137
  151TCq2    O4 2306   3.445   2.323  12.271 -0.1476 -0.6394  0.7785
  151TCq2    C9 2307   3.351   2.398  11.791 -0.9375  0.2033 -0.0726
  151TCq2    O5 2308   3.309   2.365  11.673  0.2858  0.5476 -0.3441
  151TCq2    O6 2309   3.353   2.520  11.831 -0.0958  0.4575 -0.7056
  151TCq2    H2 2310   3.380   2.160  11.717  0.2174  0.3136 -0.1850
  151TCq2    H3 2311   3.441   2.424  12.045  0.4489 -0.1837  0.5163
  151TCq2    H4 2312   3.568   2.014  12.076  0.0315  0.8247 -0.5883
  152MPD2     C 2313   2.833   1.419  12.521 -0.5053  0.0241 -0.0277
  152MPD2    C1 2314   2.817   1.486  12.404 -0.0854 -0.4021  1.0013
  152MPD2    C2 2315   2.695   1.535  12.370  0.4073 -0.4761 -0.3341
  152MPD2    C3 2316   2.584   1.497  12.442  0.2160  0.3637  0.0550
  152MPD2    C4 2317   2.592   1.433  12.565  0.0872  0.4106 -0.0381
  152MPD2    C5 2318   2.719   1.394  12.600  0.5831 -0.9899 -0.0364
  152MPD2     H 2319   2.682   1.599  12.284 -1.6113  2.5736  2.2220
  152MPD2    H1 2320   2.505   1.411  12.626 -0.7188 -2.8363 -2.2929
  152MPD2    H2 2321   2.927   1.381  12.559  0.2663 -1.1202 -3.1228
  152MPD2    H3 2322   2.719   1.340  12.694 -1.1633 -1.2389 -0.1608
  152MPD2     N 2323   2.466   1.534  12.391  0.0572 -0.5049  0.1916
  152MPD2    H5 2324   2.459   1.591  12.307 -0.2547  0.4630  0.8673
  152MPD2    N1 2325   2.937   1.522  12.334  0.6155  0.0618 -0.1574
  152MPD2    H7 2326   3.019   1.480  12.377  0.0156  1.3729  2.2754
  153TCq2    C1 2327   2.948   1.623  12.247  1.1536  0.0163 -1.1251
  153TCq2    O2 2328   2.863   1.705  12.214 -0.4402  0.1306  0.1186
  153TCq2    C2 2329   3.082   1.661  12.218  0.4176 -0.3328  0.2217
  153TCq2    C3 2330   3.183   1.570  12.210  0.4045 -1.1194  0.6809
  153TCq2    C4 2331   3.305   1.612  12.242 -0.0239  0.1974  0.5035
  153TCq2    C5 2332   3.340   1.744  12.277  0.0705  0.1429 -0.4882
  153TCq2    C6 2333   3.230   1.830  12.278  0.0543  0.1134  0.3058
  153TCq2    C7 2334   3.106   1.790  12.240 -0.2328 -1.0954  0.0165
  153TCq2    C8 2335   3.226   1.929  12.389 -0.2576  0.2719  1.0362
  153TCq2    O4 2336   3.136   2.012  12.386 -0.0036  0.1835  0.1653
  153TCq2    C9 2337   3.415   1.514  12.233  0.7045  0.1226  0.5442
  153TCq2    O5 2338   3.375   1.396  12.251  0.2468 -0.2605 -0.6149
  153TCq2    O6 2339   3.539   1.556  12.232 -0.5474 -0.0479 -0.8114
  153TCq2    H2 2340   3.161   1.466  12.185 -0.1759 -1.3272  2.0506
  153TCq2    H3 2341   3.442   1.774  12.299  0.0166 -0.8415  1.0621
  153TCq2    H4 2342   3.024   1.861  12.244  0.1981 -0.6539  1.0057
  154MPD2     C 2343   4.134   2.062   0.847  0.3809 -0.3814 -0.4830
  154MPD2    C1 2344   4.183   1.939   0.889 -0.6931 -0.1971  0.1034
  154MPD2    C2 2345   4.156   1.905   1.016  0.2753 -0.5326  0.5664
  154MPD2    C3 2346   4.090   1.991   1.102 -0.2945  0.8733  0.6891
  154MPD2    C4 2347   4.060   2.121   1.066 -0.3027 -0.0274 -0.1093
  154MPD2    C5 2348   4.080   2.151   0.930 -0.3828  0.2130  0.0067
  154MPD2     H 2349   4.184   1.806   1.051  1.5775  0.3518  2.0304
  154MPD2    H1 2350   4.022   2.197   1.134 -2.8374  0.4447 -2.0309
  154MPD2    H2 2351   4.165   2.099   0.750  0.4082  1.8185  0.3609
  154MPD2    H3 2352   4.058   2.252   0.898 -1.0498  0.4340  1.1479
  154MPD2     N 2353   4.091   1.956   1.235 -1.1844 -0.0195 -0.2581
  154MPD2    H5 2354   4.112   1.858   1.255  0.0143  0.0728 -1.0857
  154MPD2    N1 2355   4.255   1.868   0.789  0.1688  0.3626 -0.3128
  154MPD2    H7 2356   4.268   1.905   0.695 -0.0071 -1.4556 -1.0613
  155TCq2    C1 2357   4.302   1.737   0.800 -0.2184 -0.5126  0.3135
  155TCq2    O2 2358   4.296   1.661   0.890 -0.6403  0.1316  0.0205
  155TCq2    C2 2359   4.403   1.702   0.702 -0.4443 -0.0768  0.5648
  155TCq2    C3 2360   4.462   1.575   0.712  0.3886  0.0650 -0.4745
  155TCq2    C4 2361   4.559   1.541   0.621 -0.7318 -0.3186  0.0677
  155TCq2    C5 2362   4.588   1.625   0.522 -0.5728 -0.1195  0.0758
  155TCq2    C6 2363   4.532   1.748   0.505  0.6401  0.8485 -0.1477
  155TCq2    C7 2364   4.432   1.787   0.594  0.3765 -0.0311  0.8235
  155TCq2    C8 2365   4.549   1.824   0.386  0.6483  0.4018  0.2323
  155TCq2    O4 2366   4.511   1.942   0.386 -0.2861  0.5106  0.2176
  155TCq2    C9 2367   4.613   1.410   0.626  0.2189 -0.0068  0.0686
  155TCq2    O5 2368   4.661   1.376   0.516  0.4359  0.3031  0.1131
  155TCq2    O6 2369   4.607   1.339   0.729  0.1043  0.1135 -0.2835
  155TCq2    H2 2370   4.428   1.509   0.790  1.0977 -1.4495 -1.4557
  155TCq2    H3 2371   4.679   1.606   0.467 -1.1877 -1.4787 -0.4780
  155TCq2    H4 2372   4.392   1.887   0.579  0.2797 -0.0860  0.7112
  156MPD2     C 2373   2.912   3.649  11.627 -0.2650  0.0172  0.3245
  156MPD2    C1 2374   3.010   3.696  11.542 -0.1190 -0.3102  0.0297
  156MPD2    C2 2375   3.129   3.739  11.604  0.5235 -0.9182 -0.8591
  156MPD2    C3 2376   3.160   3.717  11.739  0.8169  0.2044 -0.4571
  156MPD2    C4 2377   3.053   3.668  11.814 -0.1660 -0.8508 -0.2257
  156MPD2    C5 2378   2.929   3.638  11.763 -0.5609 -0.2892 -0.0692
  156MPD2     H 2379   3.207   3.792  11.549  0.5459  1.8396  1.8143
  156MPD2    H1 2380   3.062   3.662  11.921 -0.6757 -1.1180 -0.1960
  156MPD2    H2 2381   2.814   3.636  11.582  0.8090  2.3526 -2.6982
  156MPD2    H3 2382   2.848   3.609  11.830  1.8186 -0.7391  2.6208
  156MPD2     N 2383   3.294   3.736  11.781 -0.0650 -0.5660 -0.1856
  156MPD2    H5 2384   3.347   3.781  11.707 -0.7691 -3.0945 -2.2046
  156MPD2    N1 2385   2.986   3.690  11.402 -0.2992  0.6680 -0.7392
  156MPD2    H7 2386   2.898   3.650  11.370 -0.8430  0.7944  0.5850
  157TCq2    C1 2387   3.073   3.743  11.308  1.2332  0.3098 -0.2478
  157TCq2    O2 2388   3.156   3.833  11.326  1.2190  1.1878  0.3768
  157TCq2    C2 2389   3.007   3.750  11.177  0.3415  0.3338 -1.0252
  157TCq2    C3 2390   2.908   3.658  11.142 -0.4564  0.3352 -0.5860
  157TCq2    C4 2391   2.818   3.691  11.038 -0.0640 -0.4292 -0.2095
  157TCq2    C5 2392   2.839   3.805  10.964 -0.1531  0.5708  0.3313
  157TCq2    C6 2393   2.942   3.894  10.999 -0.1676  0.3762  0.5841
  157TCq2    C7 2394   3.016   3.869  11.113  0.0384 -0.3848  0.4550
  157TCq2    C8 2395   2.915   4.035  11.004  0.6148 -0.4756  0.2219
  157TCq2    O4 2396   3.005   4.117  11.013 -0.3705 -0.5931  0.1233
  157TCq2    C9 2397   2.702   3.601  11.015 -0.5081 -0.3372 -1.0862
  157TCq2    O5 2398   2.696   3.495  11.085  0.0472 -0.3264  0.0110
  157TCq2    O6 2399   2.608   3.642  10.934 -0.4129 -0.7889  0.1408
  157TCq2    H2 2400   2.882   3.570  11.199  0.3060 -0.8188 -2.0101
  157TCq2    H3 2401   2.779   3.806  10.873  2.1529  1.1894 -1.1979
  157TCq2    H4 2402   3.105   3.927  11.135  0.3634 -0.4878 -0.5941
  158TMC2    C1 2403   3.090   2.694  13.764  0.0309 -0.0749  0.3974
  158TMC2    C2 2404   3.138   2.815  13.724 -0.5334  0.0719 -0.2774
  158TMC2    C3 2405   3.041   2.912  13.708  0.3638 -0.1147  1.2753
  158TMC2    C4 2406   2.956   2.669  13.791 -0.0559 -0.3896  0.3259
  158TMC2    C5 2407   2.865   2.765  13.761  0.5048  0.5953 -0.0469
  158TMC2    C6 2408   2.905   2.887  13.714  0.4772 -0.1037 -0.0135
  158TMC2     C 2409   3.187   2.612  13.820 -0.5941  0.5073  0.0777
  158TMC2     O 2410   3.305   2.629  13.790  0.5379 -0.1377 -0.7272
  158TMC2     H 2411   3.239   2.843  13.695  0.1441  0.7931  2.8069
  158TMC2    H1 2412   2.917   2.568  13.802 -0.8177 -0.2406 -0.9902
  158TMC2    H2 2413   2.827   2.960  13.696  0.5658 -1.0213 -4.0312
  158TMC2    C7 2414   2.747   2.715  13.697 -0.0303  0.0707  0.4510
  158TMC2    C8 2415   3.099   3.037  13.654  0.4362  0.5545  0.6204
  158TMC2    O1 2416   2.717   2.788  13.604  0.3251  0.3934 -0.5857
  158TMC2    O2 2417   3.213   3.074  13.685  0.2183  0.2186 -0.1006
  158TMC2    O5 2418   3.049   3.057  13.530 -0.0922 -0.4798  0.2766
  158TMC2    H5 2419   2.985   2.994  13.490 -0.6644  0.2950 -0.0303
  159MPD2     C 2420   3.370   2.272  14.165 -0.3856  0.3121  0.9395
  159MPD2    C1 2421   3.232   2.290  14.178  0.4618 -0.1985  0.4687
  159MPD2    C2 2422   3.156   2.373  14.099  0.2292  0.6103  0.2585
  159MPD2    C3 2423   3.218   2.431  13.991 -0.4712 -0.6777 -0.1991
  159MPD2    C4 2424   3.354   2.416  13.976  0.0279  0.1452  0.1025
  159MPD2    C5 2425   3.424   2.335  14.056 -0.1188  0.1154  0.3536
  159MPD2     H 2426   3.056   2.409  14.122 -0.4440  0.5106 -2.4701
  159MPD2    H1 2427   3.411   2.468  13.900 -0.2900  0.8584  0.3606
  159MPD2    H2 2428   3.429   2.214  14.235  0.0036  1.1230  1.2784
  159MPD2    H3 2429   3.530   2.327  14.035 -0.5021 -0.5617 -1.3777
  159MPD2     N 2430   3.141   2.519  13.913  0.2809  0.6236 -0.3485
  159MPD2    H5 2431   3.042   2.533  13.929 -0.1929 -0.7308 -2.0700
  159MPD2    N1 2432   3.161   2.213  14.279  0.0331 -0.4316  0.7517
  159MPD2    H7 2433   3.212   2.140  14.327 -1.4099 -0.8156  1.7230
  160TMC2    C1 2434   2.769   2.199   1.416  0.5717 -0.0747  0.3629
  160TMC2    C2 2435   2.680   2.288   1.466  0.4112  0.1665 -0.3140
  160TMC2    C3 2436   2.709   2.422   1.449 -0.3609 -0.0808  0.0025
  160TMC2    C4 2437   2.882   2.229   1.349  0.7130 -0.0390  0.0096
  160TMC2    C5 2438   2.905   2.363   1.340  0.6041 -0.7987  0.0100
  160TMC2    C6 2439   2.822   2.460   1.385 -0.2028 -0.0289 -0.3132
  160TMC2     C 2440   2.746   2.054   1.413  0.7128  0.1476  0.3395
  160TMC2     O 2441   2.837   1.978   1.371  0.5815 -0.6169  0.1238
  160TMC2     H 2442   2.607   2.261   1.541 -0.7167  0.3738 -1.3450
  160TMC2    H1 2443   2.948   2.152   1.311  1.3852 -0.0007  1.1114
  160TMC2    H2 2444   2.829   2.566   1.365  1.1507 -0.1683 -0.5689
  160TMC2    C7 2445   3.005   2.413   1.252 -0.1071  0.4693  0.7129
  160TMC2    C8 2446   2.647   2.519   1.538  0.4059  0.6750 -0.5890
  160TMC2    O1 2447   2.992   2.532   1.211  0.8669  0.4007  0.2636
  160TMC2    O2 2448   2.637   2.638   1.514 -0.0178 -0.2192  0.1741
  160TMC2    O5 2449   2.648   2.466   1.661  0.0477 -0.3312 -0.4802
  160TMC2    H5 2450   2.678   2.375   1.678 -0.7740 -0.6530 -0.7563
  161MPD2     C 2451   2.615   1.794   1.456 -1.0616 -0.2095 -0.2227
  161MPD2    C1 2452   2.541   1.908   1.451  0.2406 -0.0549  0.3208
  161MPD2    C2 2453   2.403   1.908   1.458 -0.0319 -0.0648 -0.6110
  161MPD2    C3 2454   2.331   1.793   1.468 -0.1424  0.0360 -0.2282
  161MPD2    C4 2455   2.411   1.674   1.479  0.1996 -0.0246  1.0139
  161MPD2    C5 2456   2.547   1.675   1.474  0.1642  0.2857  0.4058
  161MPD2     H 2457   2.357   2.006   1.457 -2.0919 -0.9907  1.3669
  161MPD2    H1 2458   2.357   1.582   1.502 -1.3530  0.6364  0.0179
  161MPD2    H2 2459   2.723   1.800   1.462 -1.3946  4.2447  1.7545
  161MPD2    H3 2460   2.613   1.591   1.493  0.9446  0.4975 -1.3264
  161MPD2     N 2461   2.196   1.793   1.462  0.6122  0.1972  0.2916
  161MPD2    H5 2462   2.164   1.697   1.470  1.9985 -0.2097  0.9239
  161MPD2    N1 2463   2.608   2.028   1.433 -0.2793 -0.1015 -0.0517
  161MPD2    H7 2464   2.552   2.113   1.432  2.5341  1.8337  5.0613
  162TMC2    C1 2465   0.205   3.164   0.826  0.5626  0.2184  0.3629
  162TMC2    C2 2466   0.113   3.064   0.853  0.0507 -0.0925 -0.4604
  162TMC2    C3 2467   0.042   3.067   0.972 -0.1901 -0.1403  0.7376
  162TMC2    C4 2468   0.232   3.260   0.918  0.2469 -0.1919 -0.1731
  162TMC2    C5 2469   0.156   3.259   1.031 -0.4042  0.1501  0.2656
  162TMC2    C6 2470   0.059   3.169   1.064  0.1462 -0.0517  0.3053
  162TMC2     C 2471   0.297   3.136   0.721  0.1011 -0.1439  0.1533
  162TMC2     O 2472   0.316   3.018   0.699  0.6745  0.3136  0.2081
  162TMC2     H 2473   0.092   2.990   0.776 -2.3699 -0.0345  0.1212
  162TMC2    H1 2474   0.319   3.324   0.905  0.8280 -0.9680 -0.0646
  162TMC2    H2 2475   0.018   3.179   1.164  0.0867 -2.6455  0.5306
  162TMC2    C7 2476   0.221   3.317   1.148 -0.1324 -0.1496 -0.3981
  162TMC2    C8 2477   4.685   2.955   1.006 -0.0741  0.5062 -0.1099
  162TMC2    O1 2478   0.246   3.434   1.140  0.5104  0.0159  0.4902
  162TMC2    O2 2479   4.690   2.855   0.940 -0.1420 -0.0629  0.0277
  162TMC2    O5 2480   4.584   3.005   1.076 -0.4500  0.0673 -0.2622
  162TMC2    H5 2481   4.573   3.097   1.108  2.3838  1.0903 -2.2327
  163MPD2     C 2482   0.641   3.282   0.363 -0.4323 -0.2772  0.3464
  163MPD2    C1 2483   0.600   3.156   0.404  0.5928 -1.0058 -0.0099
  163MPD2    C2 2484   0.507   3.146   0.502 -0.1876 -0.1553  0.9612
  163MPD2    C3 2485   0.442   3.260   0.558 -0.5151 -0.6274 -0.3897
  163MPD2    C4 2486   0.501   3.378   0.536 -0.0606 -0.0786 -0.8984
  163MPD2    C5 2487   0.592   3.389   0.427 -0.8617 -0.5904  0.2231
  163MPD2     H 2488   0.459   3.049   0.511 -0.7163 -0.0110 -0.4022
  163MPD2    H1 2489   0.472   3.471   0.584 -1.4583 -0.9368 -0.0788
  163MPD2    H2 2490   0.711   3.295   0.281  0.4799  0.0520  1.1901
  163MPD2    H3 2491   0.633   3.485   0.400 -3.0024  0.5573  1.0579
  163MPD2     N 2492   0.344   3.254   0.657 -0.6004 -0.2587 -0.1804
  163MPD2    H5 2493   0.316   3.344   0.695 -0.4132 -0.1419 -0.3194
  163MPD2    N1 2494   0.664   3.040   0.336  0.4873 -0.3047  0.3466
  163MPD2    H7 2495   0.732   3.071   0.267 -1.0358  0.8672 -0.6142
  164TCq2    C1 2496   1.730   2.305  11.037 -0.0672  0.3791  0.1659
  164TCq2    O2 2497   1.677   2.241  11.123  0.2635 -1.0329  0.2207
  164TCq2    C2 2498   1.714   2.457  11.043 -0.3455  0.7776  0.3322
  164TCq2    C3 2499   1.810   2.529  10.966 -0.0897  0.2702 -0.2239
  164TCq2    C4 2500   1.829   2.662  10.994  0.0911  0.2712  0.1506
  164TCq2    C5 2501   1.748   2.719  11.092 -0.3418 -0.2401  0.5201
  164TCq2    C6 2502   1.653   2.649  11.164 -0.5604  0.1869 -0.3318
  164TCq2    C7 2503   1.634   2.516  11.139  0.2209  0.2546 -0.5699
  164TCq2    C8 2504   1.545   2.728  11.218  0.4299  0.1597  0.1430
  164TCq2    O4 2505   1.522   2.833  11.164 -0.6344 -0.7254 -0.4374
  164TCq2    C9 2506   1.907   2.748  10.906  0.6979  0.3543  0.3636
  164TCq2    O5 2507   1.965   2.692  10.807 -0.1216  0.0118  0.0820
  164TCq2    O6 2508   1.896   2.873  10.918 -0.5617  0.2063  0.2628
  164TCq2    H2 2509   1.876   2.480  10.895 -0.0142 -1.2478  0.8750
  164TCq2    H3 2510   1.757   2.825  11.112  2.8209 -0.2459 -0.9424
  164TCq2    H4 2511   1.561   2.457  11.192  1.3475  0.9528  1.7539
  165MPD2     C 2512   2.138   4.676   1.208 -0.6051 -0.0798 -0.1538
  165MPD2    C1 2513   2.114   0.075   1.151 -1.1809  0.3553  0.5102
  165MPD2    C2 2514   2.200   0.177   1.188 -0.0036 -0.4412 -0.2071
  165MPD2    C3 2515   2.302   0.163   1.283  0.7904  0.1647  0.2329
  165MPD2    C4 2516   2.321   0.045   1.343  0.3036  0.2180 -0.1487
  165MPD2    C5 2517   2.231   4.674   1.309 -1.2587  0.4754  0.2093
  165MPD2     H 2518   2.184   0.278   1.153 -0.5846 -0.5473 -0.2521
  165MPD2    H1 2519   2.389   0.018   1.423  1.7092 -0.9150 -1.7417
  165MPD2    H2 2520   2.076   4.588   1.192 -1.4979  1.0405 -2.8260
  165MPD2    H3 2521   2.231   4.585   1.372 -1.7447 -0.6764 -1.4195
  165MPD2     N 2522   2.374   0.271   1.332  0.0335 -0.4211 -0.0357
  165MPD2    H5 2523   2.436   0.263   1.412  1.9567  3.7380 -1.1276
  165MPD2    N1 2524   2.003   0.096   1.065  0.1356 -0.2075 -0.1806
  165MPD2    H7 2525   1.942   0.017   1.049 -0.4999  0.3594 -0.5738
  166TCq2    C1 2526   2.378   0.402   1.278  0.3662 -0.6536 -0.2485
  166TCq2    O2 2527   2.319   0.451   1.184 -0.4559 -0.1641 -0.3783
  166TCq2    C2 2528   2.471   0.489   1.348 -0.3600 -0.2876 -0.3103
  166TCq2    C3 2529   2.438   0.619   1.336  0.5080 -1.0775  0.6180
  166TCq2    C4 2530   2.533   0.716   1.371 -1.1888 -0.0747  0.4082
  166TCq2    C5 2531   2.659   0.682   1.415  0.4649  0.0433  0.9740
  166TCq2    C6 2532   2.691   0.550   1.426  0.2653  0.1108 -0.5219
  166TCq2    C7 2533   2.600   0.455   1.391 -0.1460  0.1982  0.5735
  166TCq2    C8 2534   2.812   0.520   1.518  0.5434 -0.1482  0.7809
  166TCq2    O4 2535   2.898   0.603   1.536  0.2042  0.1942  0.5462
  166TCq2    C9 2536   2.498   0.855   1.352  0.1741 -0.3950 -0.0481
  166TCq2    O5 2537   2.377   0.886   1.361  0.1806  0.1430 -0.8597
  166TCq2    O6 2538   2.590   0.939   1.384  0.2915 -0.1527 -0.8394
  166TCq2    H2 2539   2.340   0.645   1.296  0.4477 -0.3669  1.2024
  166TCq2    H3 2540   2.724   0.757   1.457  0.7461 -0.3348  1.2180
  166TCq2    H4 2541   2.628   0.351   1.394 -0.7942  0.0259  0.5734
  167TMC2    C1 2542   0.718   2.121  12.918 -0.3483  0.6036 -1.0508
  167TMC2    C2 2543   0.623   2.118  13.018 -0.2196  0.0390 -0.1414
  167TMC2    C3 2544   0.633   2.011  13.110 -0.3360 -0.9139 -0.4127
  167TMC2    C4 2545   0.818   2.023  12.910  0.4390 -0.0499 -0.2845
  167TMC2    C5 2546   0.828   1.925  13.006 -0.2061  0.5459 -0.3924
  167TMC2    C6 2547   0.735   1.919  13.105  0.2083  0.7770  0.4714
  167TMC2     C 2548   0.721   2.246  12.845 -0.3376 -0.5729 -0.1252
  167TMC2     O 2549   0.627   2.323  12.864 -0.5041 -0.2439  0.2176
  167TMC2     H 2550   0.546   2.194  13.015  1.2544  1.5602  0.3432
  167TMC2    H1 2551   0.882   2.017  12.823  0.3996 -0.2972 -0.2955
  167TMC2    H2 2552   0.743   1.837  13.174  1.2517 -0.4486 -1.1046
  167TMC2    C7 2553   0.925   1.820  13.002  0.4674 -0.0230  0.4530
  167TMC2    C8 2554   0.519   1.971  13.193 -0.2516 -0.2602 -0.0178
  167TMC2    O1 2555   0.900   1.725  13.074 -0.5350 -0.4830  0.2439
  167TMC2    O2 2556   0.505   1.851  13.210 -0.1991  0.3133 -0.0063
  167TMC2    O5 2557   0.421   2.055  13.167  0.1198 -0.2792  0.1906
  167TMC2    H5 2558   0.447   2.149  13.179  0.7419 -0.0789 -2.7395
  168MPD2     C 2559   0.765   2.479  12.642 -0.2542  0.2178 -0.2309
  168MPD2    C1 2560   0.844   2.364  12.660  0.1996  0.5543 -0.5939
  168MPD2    C2 2561   0.943   2.341  12.564  0.0453  0.5183 -0.7388
  168MPD2    C3 2562   0.969   2.432  12.463 -0.3527 -0.1975  0.3284
  168MPD2    C4 2563   0.887   2.539  12.446  0.5806 -0.4895  0.2100
  168MPD2    C5 2564   0.788   2.565  12.538 -0.0946 -0.0974 -0.4692
  168MPD2     H 2565   1.011   2.260  12.586 -2.2259 -0.9543  0.8977
  168MPD2    H1 2566   0.899   2.609  12.364  0.8971 -0.3393  0.3856
  168MPD2    H2 2567   0.683   2.509  12.707 -0.2508 -1.8005  0.7295
  168MPD2    H3 2568   0.731   2.656  12.529 -1.0674 -0.4265  2.1459
  168MPD2     N 2569   1.062   2.416  12.361  0.3341 -0.2027  0.9508
  168MPD2    H5 2570   1.049   2.468  12.275  1.3200 -1.8184 -0.1922
  168MPD2    N1 2571   0.823   2.254  12.750 -0.2116 -0.2920 -0.2830
  168MPD2    H7 2572   0.879   2.172  12.730 -1.0127 -0.9405  0.1313
  169MPD1     C 2573   4.136   2.763   8.798 -0.7150 -0.8179  0.6734
  169MPD1    C1 2574   4.086   2.695   8.904  0.6583 -0.3265  0.1314
  169MPD1    C2 2575   4.177   2.651   8.997  0.1554  0.4312 -1.0373
  169MPD1    C3 2576   4.313   2.684   8.984  0.4004  0.3415 -0.1341
  169MPD1    C4 2577   4.360   2.762   8.881 -0.9569 -0.0330 -0.1079
  169MPD1    C5 2578   4.262   2.804   8.795  0.6512  0.9031 -0.0730
  169MPD1     H 2579   4.140   2.585   9.075  1.1279  0.9659 -0.1266
  169MPD1    H1 2580   4.462   2.798   8.879 -0.5384 -1.1740  0.7187
  169MPD1    H2 2581   4.064   2.794   8.723  0.0464 -0.7192 -0.0136
  169MPD1    H3 2582   4.297   2.870   8.716  1.3026 -0.0987 -0.6361
  169MPD1     N 2583   4.396   2.622   9.078 -0.2678  0.3018 -0.0842
  169MPD1    H5 2584   4.348   2.573   9.154  0.1049  0.2741  0.1318
  169MPD1    N1 2585   3.958   2.628   8.892 -0.1808  0.0900  0.2568
  169MPD1    H6 2586   3.923   2.611   8.986  0.6682 -0.9719  0.3803
  169MPD1    H7 2587   3.896   2.678   8.829  2.0062  1.1626 -1.0431
  170MPD1     C 2588   2.251   4.147  12.810  0.3265  0.7594 -0.7056
  170MPD1    C1 2589   2.138   4.206  12.804  1.4035 -0.4854 -1.0772
  170MPD1    C2 2590   2.115   4.301  12.900 -0.2367 -0.1219  0.0940
  170MPD1    C3 2591   2.187   4.301  13.017 -0.9321  0.0912  0.0211
  170MPD1    C4 2592   2.302   4.221  13.026 -0.1207  0.3425 -0.2363
  170MPD1    C5 2593   2.339   4.149  12.918 -0.0620  0.8918  0.3042
  170MPD1     H 2594   2.026   4.363  12.893 -0.6489 -0.4797  2.1603
  170MPD1    H1 2595   2.357   4.211  13.119 -0.3348 -0.8996 -0.2476
  170MPD1    H2 2596   2.274   4.068  12.739 -3.6160 -1.1467  0.1031
  170MPD1    H3 2597   2.427   4.086  12.924  0.1793  1.0341 -1.5366
  170MPD1     N 2598   2.154   4.387  13.123  0.0397  0.2985  0.0403
  170MPD1    H5 2599   2.066   4.436  13.113  0.1756  0.5614  0.1328
  170MPD1    N1 2600   2.066   4.203  12.684 -0.2225  0.2884 -0.5431
  170MPD1    H6 2601   1.969   4.234  12.691 -0.0100  0.0878  3.0488
  170MPD1    H7 2602   2.065   4.109  12.646  1.2808  0.2817 -0.5815
  171MPD1     C 2603   0.520   1.106  15.611 -0.3773 -0.5986 -0.1823
  171MPD1    C1 2604   0.410   1.028  15.574 -0.5244 -0.9254 -0.3332
  171MPD1    C2 2605   0.404   0.895  15.614  0.2495  0.6932 -0.0432
  171MPD1    C3 2606   0.493   0.842  15.709  0.4064  0.1451 -0.5030
  171MPD1    C4 2607   0.585   0.928  15.756 -0.2082  0.1663 -0.3020
  171MPD1    C5 2608   0.603   1.058  15.710 -0.1007 -0.1906  0.2529
  171MPD1     H 2609   0.325   0.828  15.584  0.2389 -0.1902  1.9197
  171MPD1    H1 2610   0.658   0.892  15.828 -2.1514 -1.2713  0.9510
  171MPD1    H2 2611   0.539   1.205  15.573  0.3505 -0.0687  1.5946
  171MPD1    H3 2612   0.679   1.117  15.758 -2.4902  1.6318  1.7912
  171MPD1     N 2613   0.488   0.711  15.765 -0.7260  0.1968 -0.0585
  171MPD1    H5 2614   0.548   0.672  15.837  3.0271  1.3595 -2.6125
  171MPD1    N1 2615   0.305   1.077  15.491 -0.0155 -0.0075 -0.4271
  171MPD1    H6 2616   0.329   1.172  15.463  0.7443  0.0258  0.2943
  171MPD1    H7 2617   0.292   1.020  15.409  0.9770 -1.4597  0.4283
  172MPD1     C 2618   4.472   4.335   0.140 -0.0839 -0.3129  0.4264
  172MPD1    C1 2619   4.358   4.410   0.124  0.5144 -0.3217 -0.1310
  172MPD1    C2 2620   4.345   4.535   0.191  0.8494 -0.1847 -0.0094
  172MPD1    C3 2621   4.440   4.573   0.282  0.8819 -0.1891  0.2296
  172MPD1    C4 2622   4.548   4.491   0.305 -0.4161  0.4387 -0.5128
  172MPD1    C5 2623   4.563   4.379   0.232 -0.8074  0.3597  0.7693
  172MPD1     H 2624   4.266   4.608   0.177 -1.6760 -2.9404 -0.1646
  172MPD1    H1 2625   4.631   4.518   0.369 -0.3623 -0.5297 -0.1770
  172MPD1    H2 2626   4.499   4.244   0.087  1.3057 -0.8936  2.1395
  172MPD1    H3 2627   4.657   4.324   0.239 -0.4897  0.5765 -1.9372
  172MPD1     N 2628   4.446   4.695   0.353 -0.4617  0.1700 -0.5627
  172MPD1    H5 2629   4.529   4.701   0.410 -1.5687  2.9721  0.7879
  172MPD1    N1 2630   4.276   4.385   0.016  0.3859 -0.3074 -0.5172
  172MPD1    H6 2631   4.274   4.288  17.687 -1.7900 -0.5863  0.5112
  172MPD1    H7 2632   4.183   4.424   0.028  0.7267 -0.0720  1.3740
  173MPD1     C 2633   1.278   4.482  13.745 -0.1436 -0.3621  0.6849
  173MPD1    C1 2634   1.340   4.597  13.778 -0.5661  0.4210 -0.4185
  173MPD1    C2 2635   1.333   4.625  13.915 -0.3336  0.0046 -0.0143
  173MPD1    C3 2636   1.249   4.555  14.001 -0.1186 -0.1293  0.0526
  173MPD1    C4 2637   1.191   4.439  13.953 -0.4813  0.1890 -0.1382
  173MPD1    C5 2638   1.206   4.404  13.825  0.9334 -0.1581  0.6735
  173MPD1     H 2639   1.377   4.717  13.950 -0.4227  0.1654 -0.3200
  173MPD1    H1 2640   1.146   4.365  14.019 -2.2139  0.2293 -1.2767
  173MPD1    H2 2641   1.302   4.443  13.647 -0.3150 -2.4247  1.4548
  173MPD1    H3 2642   1.158   4.314  13.787  2.6478  0.0060 -1.8967
  173MPD1     N 2643   1.243   4.600  14.134  0.0725 -0.0562  0.3024
  173MPD1    H5 2644   1.317   4.657  14.173  1.0489 -1.0874 -0.0626
  173MPD1    N1 2645   1.406   4.670  13.683  0.0771 -0.6034  0.2337
  173MPD1    H6 2646   1.355   4.664  13.595 -1.3379 -1.1518  1.0876
  173MPD1    H7 2647   1.415   0.045  13.704 -2.8195 -0.2239 -0.2298
  174MPD1     C 2648   2.006   4.579  14.462  0.2547 -0.2679  0.0831
  174MPD1    C1 2649   1.930   4.515  14.547  0.3347  0.2753 -0.0094
  174MPD1    C2 2650   1.793   4.543  14.551 -0.7540  0.3979  0.0979
  174MPD1    C3 2651   1.734   4.633  14.468  0.1912 -0.6961 -0.0336
  174MPD1    C4 2652   1.819   4.696  14.371  0.2015  0.5507 -0.2638
  174MPD1    C5 2653   1.956   4.678  14.378  0.4298  0.9971 -0.1850
  174MPD1     H 2654   1.732   4.489  14.622 -1.4607  1.8151  0.5441
  174MPD1    H1 2655   1.776   0.048  14.310 -1.2519  0.0853  0.1834
  174MPD1    H2 2656   2.110   4.550  14.455  0.6531  0.6329  2.2682
  174MPD1    H3 2657   2.027   4.724  14.311 -1.2061  0.9089 -1.9635
  174MPD1     N 2658   1.594   4.648  14.473 -0.1591 -0.1478  0.0100
  174MPD1    H5 2659   1.551   4.711  14.406  0.3489 -0.3228 -0.4808
  174MPD1    N1 2660   1.978   4.415  14.635  0.5252  0.3769 -0.5314
  174MPD1    H6 2661   2.073   4.437  14.664 -0.4106 -0.1251  2.8609
  174MPD1    H7 2662   1.925   4.417  14.722  0.1177 -1.9038 -0.7237
  175MPD1     C 2663   4.395   1.228  15.558 -0.5828  0.2213  0.2961
  175MPD1    C1 2664   4.260   1.206  15.543 -0.5611  0.0531  0.0963
  175MPD1    C2 2665   4.196   1.120  15.625 -0.5114  0.6041  0.2805
  175MPD1    C3 2666   4.263   1.045  15.722 -0.6426  0.4292  0.2873
  175MPD1    C4 2667   4.396   1.057  15.728 -0.5439  1.4629 -0.0307
  175MPD1    C5 2668   4.464   1.144  15.645 -0.1938  0.7808 -0.2676
  175MPD1     H 2669   4.089   1.106  15.612 -0.3020 -1.1514  0.3487
  175MPD1    H1 2670   4.460   1.018  15.806 -0.5047  3.0335  0.7309
  175MPD1    H2 2671   4.447   1.307  15.505 -1.7645  0.6457 -0.2324
  175MPD1    H3 2672   4.568   1.171  15.658 -0.3563  0.5819  1.3634
  175MPD1     N 2673   4.209   0.963  15.829  0.3619 -0.3004  0.2213
  175MPD1    H5 2674   4.279   0.923  15.891  0.8943  1.3509  0.7113
  175MPD1    N1 2675   4.179   1.290  15.463  0.3462  0.2013 -0.0013
  175MPD1    H6 2676   4.104   1.241  15.414  2.2990 -2.3202 -0.5123
  175MPD1    H7 2677   4.241   1.336  15.397  1.4263 -0.0892  0.8120
  176MPD1     C 2678   0.597   2.343  16.686  0.2326 -0.1669  0.2313
  176MPD1    C1 2679   0.676   2.280  16.777  1.0758 -0.4831 -0.4028
  176MPD1    C2 2680   0.743   2.362  16.877  0.1987  0.7646 -0.3468
  176MPD1    C3 2681   0.713   2.497  16.885  0.4509  0.2962  0.5211
  176MPD1    C4 2682   0.631   2.558  16.796  0.1482 -0.4631  0.2697
  176MPD1    C5 2683   0.576   2.479  16.700 -0.1952  0.0265  0.0785
  176MPD1     H 2684   0.801   2.304  16.948  2.0896  1.2709 -1.4731
  176MPD1    H1 2685   0.603   2.663  16.807  0.2404 -0.5036  0.8915
  176MPD1    H2 2686   0.552   2.287  16.605 -1.1489  2.5962 -0.8931
  176MPD1    H3 2687   0.504   2.526  16.634 -1.0042 -0.2862  0.7256
  176MPD1     N 2688   0.759   2.562  17.003 -0.5899  0.1739 -0.0238
  176MPD1    H5 2689   0.794   2.505  17.079  0.2589 -0.1227 -0.6418
  176MPD1    N1 2690   0.706   2.144  16.761  0.5103  0.7939 -0.2568
  176MPD1    H6 2691   0.637   2.093  16.707  0.6207  0.6636 -0.2747
  176MPD1    H7 2692   0.723   2.094  16.848  0.0653  1.1960  0.0640
  177MPD1     C 2693   4.540   1.990   9.957  0.0714 -0.0515  0.6227
  177MPD1    C1 2694   4.568   2.047   9.838  0.1300 -0.6295 -0.4419
  177MPD1    C2 2695   4.581   2.182   9.835 -0.4770  0.0854 -0.1053
  177MPD1    C3 2696   4.566   2.257   9.946  0.2827 -0.4919  0.6079
  177MPD1    C4 2697   4.545   2.202  10.069 -0.1378 -0.2499  0.4883
  177MPD1    C5 2698   4.524   2.065  10.076 -0.2751  0.4552  0.1468
  177MPD1     H 2699   4.609   2.232   9.743  0.0451  1.0500  0.5861
  177MPD1    H1 2700   4.509   2.266  10.149 -0.7738 -0.9101  0.7363
  177MPD1    H2 2701   4.531   1.883   9.971  1.0063  0.1434  2.7624
  177MPD1    H3 2702   4.475   2.014  10.157 -0.3026  0.9180  0.4197
  177MPD1     N 2703   4.568   2.396   9.925  0.3831  0.4270  0.4595
  177MPD1    H5 2704   4.568   2.429   9.829  0.4167  0.5725  0.5095
  177MPD1    N1 2705   4.605   1.966   9.726 -0.5984 -0.2535 -0.0688
  177MPD1    H6 2706   4.558   1.877   9.711  0.8838 -0.7938 -1.5662
  177MPD1    H7 2707   4.591   2.022   9.642  0.6547 -0.0697 -0.1556
  178MPD1     C 2708   1.797   3.812   0.158 -0.1897  0.1639 -0.1242
  178MPD1    C1 2709   1.754   3.688   0.107  0.6359 -0.2647 -0.9660
  178MPD1    C2 2710   1.779   3.658  17.672  0.1125  0.1525 -0.2775
  178MPD1    C3 2711   1.814   3.758  17.588  0.9281 -0.0904 -0.0197
  178MPD1    C4 2712   1.841   3.885  17.634 -0.3602 -0.1176  0.2368
  178MPD1    C5 2713   1.828   3.909   0.067  0.4161  0.0140  0.2070
  178MPD1     H 2714   1.759   3.554  17.650  0.5436  0.7065 -3.2794
  178MPD1    H1 2715   1.853   3.966  17.563 -0.5027 -0.0088  0.3370
  178MPD1    H2 2716   1.797   3.842   0.262  0.4792  2.0126 -0.6602
  178MPD1    H3 2717   1.845   4.010   0.102  1.1001  0.2240 -0.7131
  178MPD1     N 2718   1.831   3.743  17.449  0.5005 -0.1866  0.5207
  178MPD1    H5 2719   1.867   3.822  17.398 -2.1172  1.0918  0.6650
  178MPD1    N1 2720   1.713   3.589   0.193 -0.3942 -0.1921 -0.3268
  178MPD1    H6 2721   1.652   3.640   0.257 -0.1262  1.1687 -1.1695
  178MPD1    H7 2722   1.652   3.524   0.143 -3.0016  1.8499  0.1916
  179MPD1     C 2723   1.455   2.339  16.127 -0.4984 -0.4521  0.2856
  179MPD1    C1 2724   1.340   2.300  16.066 -0.9058 -0.0210 -0.2838
  179MPD1    C2 2725   1.303   2.168  16.078 -1.4203  0.0476 -0.2606
  179MPD1    C3 2726   1.367   2.078  16.163  0.5575 -0.3511 -0.1443
  179MPD1    C4 2727   1.469   2.122  16.240 -0.1636 -0.0182 -0.5923
  179MPD1    C5 2728   1.512   2.248  16.217  0.1468 -0.4673 -0.3361
  179MPD1     H 2729   1.218   2.134  16.020 -0.5073  1.2943 -2.3245
  179MPD1    H1 2730   1.514   2.069  16.323 -1.7147 -0.3810  0.0105
  179MPD1    H2 2731   1.506   2.434  16.118 -1.1692 -0.0038  1.1714
  179MPD1    H3 2732   1.593   2.279  16.283 -1.6658  1.3149  1.0538
  179MPD1     N 2733   1.336   1.940  16.171 -0.7888  0.2450  0.1664
  179MPD1    H5 2734   1.386   1.895  16.246 -1.1696 -0.8954 -0.2659
  179MPD1    N1 2735   1.291   2.386  15.968  0.3895 -0.5458  0.4930
  179MPD1    H6 2736   1.194   2.370  15.944  0.3160  0.6729 -0.0308
  179MPD1    H7 2737   1.299   2.486  15.986 -0.9389 -0.5645  1.1765
  180MPD1     C 2738   1.864   3.521  15.125 -0.2118  0.4250 -0.0147
  180MPD1    C1 2739   1.883   3.549  14.995  0.6171 -0.2132  0.4504
  180MPD1    C2 2740   1.783   3.517  14.902  0.3103 -0.5195  0.1231
  180MPD1    C3 2741   1.661   3.461  14.945 -0.3307 -0.1448 -0.1624
  180MPD1    C4 2742   1.644   3.442  15.083  0.2554 -0.7324  0.3364
  180MPD1    C5 2743   1.742   3.479  15.171  1.2692 -0.0660  0.6702
  180MPD1     H 2744   1.797   3.546  14.798 -0.9793  0.1459  0.1276
  180MPD1    H1 2745   1.547   3.415  15.124 -0.5565  2.7853  0.7190
  180MPD1    H2 2746   1.938   3.537  15.202  0.9837 -1.1004 -0.8620
  180MPD1    H3 2747   1.731   3.460  15.277  1.5258 -0.6141  0.6002
  180MPD1     N 2748   1.571   3.431  14.842 -0.1136 -0.3247  0.1156
  180MPD1    H5 2749   1.605   3.447  14.747  0.1462  0.2700  0.3072
  180MPD1    N1 2750   2.007   3.602  14.950 -0.3418  0.1636 -0.4127
  180MPD1    H6 2751   2.058   3.525  14.908 -0.9812 -0.8643  0.6992
  180MPD1    H7 2752   2.055   3.646  15.028 -1.2102  1.2611 -0.4920
  181MPD1     C 2753   3.573   0.991   9.381 -0.1462 -0.1803 -0.6817
  181MPD1    C1 2754   3.587   0.882   9.463  0.2268  0.3699 -0.7110
  181MPD1    C2 2755   3.662   0.905   9.579 -0.4087  0.0052 -0.5670
  181MPD1    C3 2756   3.746   1.014   9.595 -0.1032  0.0153 -0.4690
  181MPD1    C4 2757   3.743   1.106   9.490 -0.8245  0.2926 -0.1649
  181MPD1    C5 2758   3.650   1.098   9.386 -0.3569 -0.8424  0.8237
  181MPD1     H 2759   3.668   0.821   9.647  0.4162 -0.3880 -1.1297
  181MPD1    H1 2760   3.802   1.197   9.484  0.8021 -0.7953 -0.7425
  181MPD1    H2 2761   3.524   0.978   9.285 -0.7206  2.3031 -0.7143
  181MPD1    H3 2762   3.647   1.171   9.306  1.3669 -0.8678  0.7217
  181MPD1     N 2763   3.821   1.034   9.712  0.2646  0.4593  0.3319
  181MPD1    H5 2764   3.832   0.952   9.771 -1.0344  1.1876  1.5762
  181MPD1    N1 2765   3.513   0.772   9.438 -0.1576  0.7002 -0.7406
  181MPD1    H6 2766   3.519   0.743   9.341 -0.8801 -1.7313 -0.0569
  181MPD1    H7 2767   3.558   0.696   9.489 -1.0259 -1.1690 -2.7546
  182MPD1     C 2768   4.115   4.042   1.677  0.1468  0.6031 -0.1801
  182MPD1    C1 2769   4.055   3.964   1.777  0.0832  0.0189 -0.1002
  182MPD1    C2 2770   3.932   3.901   1.746  0.1299  0.0543  0.8288
  182MPD1    C3 2771   3.867   3.912   1.624  0.0583  0.2350  1.0699
  182MPD1    C4 2772   3.930   3.995   1.534 -0.1848  0.2760  0.4875
  182MPD1    C5 2773   4.046   4.058   1.559  0.5902  0.1619  0.5671
  182MPD1     H 2774   3.876   3.847   1.822  0.5643 -0.9460  0.4424
  182MPD1    H1 2775   3.892   4.001   1.433  3.2864 -1.1941 -0.9138
  182MPD1    H2 2776   4.204   4.101   1.699 -0.1507  1.8672 -2.4175
  182MPD1    H3 2777   4.098   4.109   1.479  0.6832 -1.0791 -0.1675
  182MPD1     N 2778   3.742   3.864   1.586 -0.1026 -0.2084 -0.4470
  182MPD1    H5 2779   3.702   3.883   1.495 -0.3496  0.9913 -0.0817
  182MPD1    N1 2780   4.116   3.951   1.903  0.4470 -0.5651  0.1275
  182MPD1    H6 2781   4.115   3.858   1.946 -1.1454 -0.1376  1.0102
  182MPD1    H7 2782   4.213   3.980   1.914  1.0243 -0.8922 -4.2366
  183MPD1     C 2783   0.684   0.200   9.059  0.8463 -0.5054  0.9716
  183MPD1    C1 2784   0.599   0.101   9.107  0.2503  0.5897  0.3225
  183MPD1    C2 2785   0.499   0.140   9.189 -0.6713 -0.1950 -0.0224
  183MPD1    C3 2786   0.496   0.268   9.241 -0.2412  0.6931  0.3144
  183MPD1    C4 2787   0.592   0.366   9.204 -0.6244 -0.7593 -0.2734
  183MPD1    C5 2788   0.677   0.327   9.108  0.3176 -0.6307  0.0696
  183MPD1     H 2789   0.421   0.070   9.217 -1.5516  0.9629  0.4326
  183MPD1    H1 2790   0.598   0.466   9.246 -2.7395  0.0647 -1.9015
  183MPD1    H2 2791   0.758   0.167   8.986  1.0117  1.7252  0.1428
  183MPD1    H3 2792   0.749   0.402   9.076 -1.8997  0.7901 -1.5306
  183MPD1     N 2793   0.397   0.290   9.339  0.1294  0.2541  0.6861
  183MPD1    H5 2794   0.333   0.215   9.363  0.7022 -0.0949  1.1283
  183MPD1    N1 2795   0.601   4.700   9.046 -0.1686 -0.3967 -0.8337
  183MPD1    H6 2796   0.609   4.628   9.118  1.2882  1.8209  1.2318
  183MPD1    H7 2797   0.688   4.689   8.994  1.4093 -0.4208  1.8296
  184MPD1     C 2798   3.194   2.236  10.232 -0.5868 -0.2145 -0.2597
  184MPD1    C1 2799   3.323   2.245  10.194 -0.2414  0.0287  0.2706
  184MPD1    C2 2800   3.364   2.359  10.124  0.7533  0.2290  0.0586
  184MPD1    C3 2801   3.283   2.468  10.098  0.1004  0.3349  0.7049
  184MPD1    C4 2802   3.154   2.459  10.136  0.3467 -0.0418  0.2347
  184MPD1    C5 2803   3.110   2.338  10.196 -0.4334 -0.4092  0.3086
  184MPD1     H 2804   3.467   2.353  10.091  1.1781  2.4090  0.9962
  184MPD1    H1 2805   3.081   2.533  10.105  0.4954 -0.3372 -0.8181
  184MPD1    H2 2806   3.149   2.146  10.273  0.5888 -0.1677  1.1283
  184MPD1    H3 2807   3.009   2.342  10.234 -0.7034  0.2183 -0.4579
  184MPD1     N 2808   3.321   2.581  10.030  0.0772 -0.0113 -0.9373
  184MPD1    H5 2809   3.252   2.655  10.027 -0.3418 -0.2666  2.3877
  184MPD1    N1 2810   3.405   2.130  10.202 -0.1128 -0.1387  0.5499
  184MPD1    H6 2811   3.504   2.137  10.180 -0.4797 -3.2793 -2.0437
  184MPD1    H7 2812   3.396   2.083  10.292 -1.5463  1.0991  1.0513
  185MPD1     C 2813   2.875   3.266   9.705  0.1221  0.3592 -0.2054
  185MPD1    C1 2814   2.973   3.248   9.608  0.0886 -0.6170 -0.9533
  185MPD1    C2 2815   3.072   3.155   9.638 -0.3695 -0.4593  0.1019
  185MPD1    C3 2816   3.079   3.087   9.761 -0.2015  0.3291 -0.4527
  185MPD1    C4 2817   2.999   3.129   9.862 -0.1312  0.1813 -0.3058
  185MPD1    C5 2818   2.892   3.206   9.830  0.2170  0.0407  0.3674
  185MPD1     H 2819   3.148   3.145   9.561 -2.0836  1.0686 -1.7888
  185MPD1    H1 2820   3.007   3.080   9.958  1.8388  1.5412  0.2165
  185MPD1    H2 2821   2.785   3.320   9.679 -1.2951 -0.8912  2.1006
  185MPD1    H3 2822   2.818   3.226   9.906  0.4962  3.0138 -0.1481
  185MPD1     N 2823   3.184   2.997   9.790  0.7411  0.7817 -0.0717
  185MPD1    H5 2824   3.178   2.960   9.884  0.5843 -1.3325 -0.9329
  185MPD1    N1 2825   2.963   3.315   9.483  0.7842  0.1706 -0.1925
  185MPD1    H6 2826   2.927   3.410   9.483  0.9403  0.2278 -0.8446
  185MPD1    H7 2827   3.054   3.313   9.438  1.1075 -0.1316  0.4739
  186MPD1     C 2828   2.121   1.458  16.305  0.1752 -0.0907 -0.3548
  186MPD1    C1 2829   1.998   1.482  16.259 -0.2535 -0.8474 -0.3779
  186MPD1    C2 2830   1.970   1.613  16.235 -0.1965 -0.0899 -0.1349
  186MPD1    C3 2831   2.056   1.719  16.251 -0.1367  0.1044 -0.5082
  186MPD1    C4 2832   2.184   1.691  16.294  0.4806 -0.7742 -0.1725
  186MPD1    C5 2833   2.217   1.554  16.310 -0.2244 -0.3887 -0.6346
  186MPD1     H 2834   1.867   1.641  16.218 -0.0088 -0.0331 -1.1430
  186MPD1    H1 2835   2.266   1.758  16.313 -0.1803 -0.2582  0.8455
  186MPD1    H2 2836   2.159   1.359  16.326  1.9660  0.7836  0.5371
  186MPD1    H3 2837   2.318   1.534  16.345 -0.3229  0.0900 -0.0783
  186MPD1     N 2838   2.010   1.851  16.237 -0.2589 -0.2261  0.5728
  186MPD1    H5 2839   1.912   1.860  16.211  0.6058  2.5035 -1.6405
  186MPD1    N1 2840   1.898   1.378  16.249 -0.5148 -0.2243 -0.2781
  186MPD1    H6 2841   1.828   1.408  16.181 -0.6354  0.6299  0.2173
  186MPD1    H7 2842   1.924   1.281  16.234  1.7326  0.3388  0.0630
  187MPD1     C 2843   0.330   4.553   0.429  0.0374  0.3109  0.0408
  187MPD1    C1 2844   0.453   4.607   0.428 -0.6036  0.2239 -0.1295
  187MPD1    C2 2845   0.516   4.642   0.310 -0.6052  0.2282 -0.5156
  187MPD1    C3 2846   0.443   4.628   0.189  0.9420 -0.0962 -0.3598
  187MPD1    C4 2847   0.313   4.583   0.195  0.8938 -0.1600  0.3462
  187MPD1    C5 2848   0.259   4.538   0.306  0.3876  0.0005  0.2921
  187MPD1     H 2849   0.615   4.686   0.312 -0.6321  0.2193  1.2276
  187MPD1    H1 2850   0.251   4.564   0.108  0.7781 -0.0482  0.4042
  187MPD1    H2 2851   0.275   4.541   0.522  2.2400  0.6135  1.3999
  187MPD1    H3 2852   0.156   4.502   0.308  0.8803 -1.4785 -0.7821
  187MPD1     N 2853   0.490   4.666   0.060 -0.1288  0.6927  0.1304
  187MPD1    H5 2854   0.431   4.654  17.680  1.6109  1.2040 -1.2121
  187MPD1    N1 2855   0.508   4.641   0.554 -0.1542 -0.1265  0.0601
  187MPD1    H6 2856   0.491   4.565   0.620 -0.6341  0.5633  0.7335
  187MPD1    H7 2857   0.606   4.660   0.536 -0.6601  0.9064 -1.6624
  188MPD1     C 2858   0.424   3.884   9.023 -0.6511 -0.4247 -0.7637
  188MPD1    C1 2859   0.547   3.925   9.080 -0.3028  0.1004 -0.5368
  188MPD1    C2 2860   0.588   3.858   9.202 -0.2773  0.0315 -0.2680
  188MPD1    C3 2861   0.524   3.735   9.233 -0.1204 -0.2905 -0.3300
  188MPD1    C4 2862   0.424   3.684   9.156 -0.0558  0.3866 -0.2561
  188MPD1    C5 2863   0.378   3.758   9.056 -0.2327 -0.4903  0.9177
  188MPD1     H 2864   0.666   3.903   9.261 -0.4031 -0.3218  0.1641
  188MPD1    H1 2865   0.393   3.581   9.152  0.9871  0.1240 -1.3812
  188MPD1    H2 2866   0.368   3.950   8.958 -0.6118 -2.7913 -3.1921
  188MPD1    H3 2867   0.295   3.719   8.998  2.1321 -1.0475 -2.0931
  188MPD1     N 2868   0.570   3.652   9.331 -0.3836 -0.1225  0.0663
  188MPD1    H5 2869   0.525   3.563   9.350  0.3081 -0.4843  0.0044
  188MPD1    N1 2870   0.589   4.056   9.056 -0.3779 -0.5794  0.2339
  188MPD1    H6 2871   0.688   4.070   9.073 -0.6452  2.0057 -0.4087
  188MPD1    H7 2872   0.583   4.080   8.957  0.3393  0.9833  0.5785
  189MPD1     C 2873   2.538   4.310   0.693  0.0043  0.7136  0.4407
  189MPD1    C1 2874   2.445   4.249   0.621 -0.2572  0.1028 -0.2555
  189MPD1    C2 2875   2.339   4.329   0.576 -0.3167 -0.0647 -0.4600
  189MPD1    C3 2876   2.352   4.465   0.570  0.3623  0.0173 -0.0058
  189MPD1    C4 2877   2.471   4.526   0.613 -0.5668  0.0093 -0.9878
  189MPD1    C5 2878   2.556   4.445   0.686  0.3311 -0.2662 -0.2701
  189MPD1     H 2879   2.242   4.290   0.548  0.0006 -1.1849  0.0102
  189MPD1    H1 2880   2.495   4.631   0.604  0.2263 -0.1583 -0.8439
  189MPD1    H2 2881   2.611   4.251   0.748  0.3785  1.6234  0.9180
  189MPD1    H3 2882   2.644   4.491   0.729 -0.2795  0.2989  0.3696
  189MPD1     N 2883   2.255   4.538   0.492 -0.2041  0.1556  0.1613
  189MPD1    H5 2884   2.169   4.491   0.467 -0.6276  2.4025 -2.6081
  189MPD1    N1 2885   2.425   4.107   0.627  1.0011  0.1619  0.0109
  189MPD1    H6 2886   2.509   4.050   0.638  1.1328  0.6110  1.2992
  189MPD1    H7 2887   2.377   4.079   0.541  0.2138  1.9296 -0.1272
  190MPD1     C 2888   0.962   3.302  15.817  0.4709  0.1195 -0.3695
  190MPD1    C1 2889   1.012   3.355  15.933  0.5321 -0.5496 -0.1258
  190MPD1    C2 2890   1.148   3.369  15.940 -0.4278 -0.4074  0.4645
  190MPD1    C3 2891   1.232   3.331  15.844 -0.5248  0.1283 -0.2933
  190MPD1    C4 2892   1.184   3.288  15.730  0.2858  0.3669 -0.6783
  190MPD1    C5 2893   1.044   3.273  15.711  0.0088  0.1245 -0.4525
  190MPD1     H 2894   1.196   3.401  16.032 -0.4885  1.7904 -0.2693
  190MPD1    H1 2895   1.251   3.256  15.651 -1.4217 -1.7258 -1.3000
  190MPD1    H2 2896   0.855   3.290  15.803  0.7346 -2.3374 -0.1778
  190MPD1    H3 2897   1.008   3.244  15.613  2.5011  0.7584 -1.5683
  190MPD1     N 2898   1.371   3.348  15.869 -0.3502 -0.3956 -0.7451
  190MPD1    H5 2899   1.389   3.373  15.965  0.0655  1.3770 -1.2795
  190MPD1    N1 2900   0.940   3.370  16.047 -0.1974 -0.3913  0.0217
  190MPD1    H6 2901   0.978   3.444  16.106  0.0049 -0.0654 -0.5178
  190MPD1    H7 2902   0.840   3.380  16.029 -0.5117 -2.0543  0.8849
  191MPD1     C 2903   0.929   4.717  13.156 -0.3326 -0.1677 -0.7692
  191MPD1    C1 2904   0.978   0.052  13.043 -0.5091  0.2395 -0.7102
  191MPD1    C2 2905   0.900   0.151  12.991  0.0219 -0.8334 -0.4197
  191MPD1    C3 2906   0.795   0.208  13.058  0.1794 -0.0801 -1.1324
  191MPD1    C4 2907   0.758   0.151  13.174 -0.4747  0.1099  0.0735
  191MPD1    C5 2908   0.823   0.043  13.226  0.0944  0.1790  0.2451
  191MPD1     H 2909   0.924   0.190  12.893 -0.5931  0.1132 -0.1872
  191MPD1    H1 2910   0.688   0.199  13.241 -2.1502 -1.8297 -0.2771
  191MPD1    H2 2911   0.974   4.631  13.204 -1.2385  0.0908  0.5415
  191MPD1    H3 2912   0.786   0.000  13.319 -0.4085  1.9827  0.8763
  191MPD1     N 2913   0.723   0.302  12.989 -0.0483  0.2946  0.1283
  191MPD1    H5 2914   0.756   0.322  12.896 -0.7373  1.8365  0.2208
  191MPD1    N1 2915   1.078   4.717  12.969 -0.2837  0.0211 -0.2170
  191MPD1    H6 2916   1.151   4.679  13.029  0.5415  0.2405 -1.0788
  191MPD1    H7 2917   1.124   0.069  12.921  0.7265 -0.4620 -0.0394
  192MPD1     C 2918   4.633   0.998  13.040 -0.1184  0.8747 -0.1926
  192MPD1    C1 2919   4.625   0.861  13.030 -0.4075  0.1829 -0.6868
  192MPD1    C2 2920   0.007   0.794  12.971  0.1843  0.5941  0.2554
  192MPD1    C3 2921   0.129   0.861  12.956 -0.7685 -0.2180 -0.3661
  192MPD1    C4 2922   0.135   0.994  12.978  0.4259  0.4578  0.0692
  192MPD1    C5 2923   0.023   1.069  13.015  0.4177 -0.0396  0.4446
  192MPD1     H 2924   0.006   0.686  12.959 -0.7068  0.8178 -1.7127
  192MPD1    H1 2925   0.223   1.052  12.952  1.4472  1.2193  5.2535
  192MPD1    H2 2926   4.553   1.060  13.078 -0.1846  1.0641 -0.6343
  192MPD1    H3 2927   0.030   1.176  13.025  0.1226 -0.0370  0.6201
  192MPD1     N 2928   0.248   0.798  12.918  0.1085  0.6432  0.8290
  192MPD1    H5 2929   0.331   0.854  12.933  0.6639 -0.4315  1.7733
  192MPD1    N1 2930   4.502   0.791  13.041  0.2219  0.0371  0.0685
  192MPD1    H6 2931   4.445   0.841  13.110  0.6022  0.4710  0.0711
  192MPD1    H7 2932   4.524   0.700  13.079 -0.7731 -0.2208  0.0358
  193MPD1     C 2933   0.245   0.454  17.126  0.4938 -0.0668 -0.0316
  193MPD1    C1 2934   0.306   0.506  17.012  0.5715  0.4684 -0.1862
  193MPD1    C2 2935   0.433   0.561  17.016 -0.1853 -0.7791  0.3364
  193MPD1    C3 2936   0.486   0.591  17.137  0.2246  0.4597  0.2102
  193MPD1    C4 2937   0.419   0.550  17.248 -0.0914  0.2255 -0.2418
  193MPD1    C5 2938   0.306   0.477  17.241 -0.1212  0.1840 -0.6123
  193MPD1     H 2939   0.492   0.585  16.929 -0.0453 -1.3399  0.2757
  193MPD1    H1 2940   0.467   0.567  17.344  2.9522 -0.0142 -1.7036
  193MPD1    H2 2941   0.150   0.403  17.134  0.7218 -0.2565  1.3426
  193MPD1    H3 2942   0.259   0.449  17.335  0.8378 -0.9875 -0.4852
  193MPD1     N 2943   0.608   0.659  17.160 -0.8087  0.4369  0.5739
  193MPD1    H5 2944   0.626   0.695  17.254 -0.4458  0.6400  0.4303
  193MPD1    N1 2945   0.246   0.480  16.886 -0.4246 -0.4540 -0.7201
  193MPD1    H6 2946   0.269   0.546  16.812  0.1343  0.2709  0.0998
  193MPD1    H7 2947   0.145   0.466  16.894 -0.2347 -1.2174  0.4022
  194MPD1     C 2948   2.866   2.847  17.580 -0.5913  0.6221  0.6389
  194MPD1    C1 2949   2.817   2.725  17.542 -0.4355  0.4406  0.0752
  194MPD1    C2 2950   2.865   2.662  17.429 -0.1086  0.3502 -0.8859
  194MPD1    C3 2951   2.953   2.731  17.346 -0.1386 -1.0623  0.2376
  194MPD1    C4 2952   2.994   2.856  17.386 -0.1334  0.2221 -0.1012
  194MPD1    C5 2953   2.955   2.917  17.504  0.2022 -0.5914 -0.6578
  194MPD1     H 2954   2.829   2.564  17.400 -0.7471  0.5005 -0.6171
  194MPD1    H1 2955   3.066   2.912  17.327  1.6274 -1.6775  0.2278
  194MPD1    H2 2956   2.828   2.888  17.673 -3.1812  2.4167 -1.2157
  194MPD1    H3 2957   2.985   3.017  17.535  2.4297 -1.3780 -0.2989
  194MPD1     N 2958   3.004   2.678  17.222 -0.1137  0.1463 -1.1577
  194MPD1    H5 2959   3.066   2.729  17.161  0.1506 -0.5471 -1.4680
  194MPD1    N1 2960   2.734   2.659  17.633  0.1512  0.0947  0.1037
  194MPD1    H6 2961   2.666   2.719  17.678 -3.1047 -3.5682  0.0107
  194MPD1    H7 2962   2.687   2.583  17.583 -0.3402 -0.1221  0.9019
  195MPD1     C 2963   0.408   3.975   0.059 -0.1968  0.3392 -0.1817
  195MPD1    C1 2964   0.436   3.951   0.192  0.3428  0.1714 -0.2938
  195MPD1    C2 2965   0.400   3.823   0.233 -0.2405  0.2003 -0.8507
  195MPD1    C3 2966   0.331   3.734   0.154  0.3587  0.4482 -0.3215
  195MPD1    C4 2967   0.296   3.767   0.029 -0.0171 -0.3582  0.0646
  195MPD1    C5 2968   0.330   3.892  17.690 -1.0496 -0.7558  0.3071
  195MPD1     H 2969   0.421   3.790   0.334 -0.7467 -0.2500 -0.8957
  195MPD1    H1 2970   0.248   3.696  17.665 -2.3969  0.9626  0.3740
  195MPD1    H2 2971   0.436   4.068   0.011  0.6950 -0.2562 -0.8041
  195MPD1    H3 2972   0.306   3.926  17.590 -2.1588 -0.0189  0.8293
  195MPD1     N 2973   0.301   3.599   0.188 -0.0086  0.3536  0.5773
  195MPD1    H5 2974   0.261   3.535   0.119  0.0518  0.0217  0.8486
  195MPD1    N1 2975   0.523   4.037   0.261  0.1347  0.2077 -1.1091
  195MPD1    H6 2976   0.521   4.035   0.362  0.9364  0.6868 -1.0865
  195MPD1    H7 2977   0.502   4.134   0.235 -0.2600  0.6460  0.8937
  196MPD1     C 2978   3.901   4.506  17.670  0.1386 -0.4702  0.3816
  196MPD1    C1 2979   3.872   4.390   0.029 -0.3454 -0.1993  0.0791
  196MPD1    C2 2980   3.921   4.370   0.160 -0.5721 -0.0319  0.5088
  196MPD1    C3 2981   3.987   4.477   0.219 -0.1181 -0.3362 -0.2551
  196MPD1    C4 2982   3.995   4.599   0.158 -0.8122  1.3002  0.5232
  196MPD1    C5 2983   3.948   4.612   0.033  0.3015  0.6529 -0.3325
  196MPD1     H 2984   3.916   4.272   0.205 -1.5067  0.0683  0.6413
  196MPD1    H1 2985   4.051   4.685   0.194  3.0157 -0.0146 -2.2435
  196MPD1    H2 2986   3.883   4.523  17.564 -1.9082  2.7121  1.2383
  196MPD1    H3 2987   3.964   4.705  17.681  0.3268 -0.1633 -1.7473
  196MPD1     N 2988   4.050   4.470   0.347 -0.0294  0.0286 -0.2368
  196MPD1    H5 2989   4.070   4.562   0.385  0.2167 -0.0652 -0.1364
  196MPD1    N1 2990   3.823   4.276  17.662 -0.7227  0.7737 -0.5065
  196MPD1    H6 2991   3.769   4.218   0.024  0.6551 -0.4306 -0.4195
  196MPD1    H7 2992   3.768   4.301  17.580 -0.7928 -2.2197 -1.4062
  197MPD1     C 2993   3.813   1.054   0.273 -0.2579  0.7226  0.7809
  197MPD1    C1 2994   3.732   1.155   0.228 -0.0569  0.4546 -1.3255
  197MPD1    C2 2995   3.785   1.262   0.152 -0.5229 -0.1788  0.5486
  197MPD1    C3 2996   3.910   1.245   0.097 -0.7140  0.6769  0.1279
  197MPD1    C4 2997   3.977   1.128   0.125 -0.2595  0.0584 -0.2861
  197MPD1    C5 2998   3.938   1.039   0.222 -0.1456 -0.1094 -0.5288
  197MPD1     H 2999   3.727   1.350   0.128  0.7952  1.0809  1.9271
  197MPD1    H1 3000   4.078   1.120   0.086 -0.4084  1.9881 -1.0541
  197MPD1    H2 3001   3.771   0.977   0.337 -0.1593 -0.5171 -0.6308
  197MPD1    H3 3002   3.991   0.950   0.253  1.3708  0.2143 -2.2206
  197MPD1     N 3003   3.971   1.347   0.013  0.7106 -0.1676 -0.3036
  197MPD1    H5 3004   4.058   1.328  17.665  0.4493 -1.4705 -0.2469
  197MPD1    N1 3005   3.600   1.158   0.289 -0.3833  0.1360  0.0843
  197MPD1    H6 3006   3.541   1.211   0.225 -0.5246 -0.2060 -0.0704
  197MPD1    H7 3007   3.557   1.070   0.315  3.4565 -1.3391  1.5344
  198MPD1     C 3008   1.564   4.027  15.731 -0.2631 -0.4694 -0.8821
  198MPD1    C1 3009   1.702   4.025  15.710 -0.4190 -0.3517 -0.0961
  198MPD1    C2 3010   1.780   4.095  15.809 -0.5749  0.5236  1.4953
  198MPD1    C3 3011   1.728   4.152  15.925  1.1704 -0.0762 -0.1848
  198MPD1    C4 3012   1.592   4.145  15.937 -0.4230  0.5046  0.0023
  198MPD1    C5 3013   1.517   4.077  15.847 -0.0173  0.3605  0.8834
  198MPD1     H 3014   1.887   4.095  15.787 -0.7480 -3.3908  0.5897
  198MPD1    H1 3015   1.542   4.183  16.026 -0.6808 -1.5430  0.7180
  198MPD1    H2 3016   1.496   3.982  15.659  0.7691 -1.5226 -1.2144
  198MPD1    H3 3017   1.410   4.070  15.866  0.0219 -1.5120  0.4681
  198MPD1     N 3018   1.815   4.215  16.013  0.5232  0.3404  0.1972
  198MPD1    H5 3019   1.915   4.199  16.006  0.1657 -1.2517 -1.2278
  198MPD1    N1 3020   1.758   3.999  15.583  0.4522  0.3329  0.0301
  198MPD1    H6 3021   1.714   3.916  15.543  0.6302  0.5825 -0.6669
  198MPD1    H7 3022   1.859   3.993  15.595  0.5225 -0.1807 -0.7788
  199MPD1     C 3023   4.175   0.810   9.575  0.4117 -0.0245  0.1663
  199MPD1    C1 3024   4.283   0.890   9.617 -0.0389  0.5073 -0.1663
  199MPD1    C2 3025   4.278   1.028   9.593 -0.3311  0.1010  0.1895
  199MPD1    C3 3026   4.190   1.085   9.499  0.4515  0.5512  0.2542
  199MPD1    C4 3027   4.093   0.998   9.458 -0.0365  0.5654  0.4825
  199MPD1    C5 3028   4.084   0.860   9.493  0.4068 -0.2349  0.6835
  199MPD1     H 3029   4.345   1.094   9.646  2.1651 -1.3421 -1.1540
  199MPD1    H1 3030   4.007   1.040   9.407 -0.4961  1.4144  1.9470
  199MPD1    H2 3031   4.160   0.707   9.606  1.5437 -0.7641 -1.7382
  199MPD1    H3 3032   4.000   0.802   9.456  0.8721  0.5128 -1.5486
  199MPD1     N 3033   4.199   1.225   9.464 -0.6961  0.1104 -0.0512
  199MPD1    H5 3034   4.160   1.245   9.373  1.8050  0.2709 -1.0765
  199MPD1    N1 3035   4.363   0.840   9.718  0.3285 -0.0615  0.2682
  199MPD1    H6 3036   4.389   0.744   9.696 -2.0911 -0.3301 -1.3581
  199MPD1    H7 3037   4.447   0.895   9.735 -0.3241  0.3101  2.2743
  200MPD1     C 3038   1.847   0.642  15.515 -1.0423 -0.4296 -0.3887
  200MPD1    C1 3039   1.835   0.634  15.376  0.7967 -0.4219  0.1234
  200MPD1    C2 3040   1.944   0.665  15.294 -0.4190  0.0361  0.2018
  200MPD1    C3 3041   2.076   0.677  15.353 -0.8078 -0.0452 -0.1677
  200MPD1    C4 3042   2.085   0.683  15.495 -1.0034  0.0453  0.2942
  200MPD1    C5 3043   1.975   0.660  15.568  0.0403 -1.0578 -0.1542
  200MPD1     H 3044   1.932   0.676  15.186  0.7980  0.0400  0.0635
  200MPD1    H1 3045   2.178   0.700  15.547 -0.4741 -0.2770 -0.5514
  200MPD1    H2 3046   1.769   0.622  15.587  0.4440  0.5361  1.4975
  200MPD1    H3 3047   1.987   0.660  15.676 -1.4194 -0.2011  0.0090
  200MPD1     N 3048   2.182   0.690  15.266  0.2403  0.0787 -0.8499
  200MPD1    H5 3049   2.155   0.691  15.168  1.5431 -0.7881 -1.2280
  200MPD1    N1 3050   1.706   0.631  15.320 -0.0942  0.2361 -0.3474
  200MPD1    H6 3051   1.706   0.574  15.236  0.8268  0.4860 -0.5119
  200MPD1    H7 3052   1.640   0.592  15.387  1.5599 -1.0772  0.5197
  201MPD1     C 3053   4.585   0.187  13.412 -0.1802 -0.2228 -0.0147
  201MPD1    C1 3054   4.627   0.113  13.518  0.5918  0.1285 -0.1399
  201MPD1    C2 3055   4.648   4.700  13.502 -0.0376 -0.0128  0.6190
  201MPD1    C3 3056   4.657   4.651  13.371 -0.5611 -1.4925  0.4912
  201MPD1    C4 3057   4.619   0.004  13.263 -0.2262  0.0718  0.4550
  201MPD1    C5 3058   4.587   0.136  13.288 -0.3042  0.0292  0.2059
  201MPD1     H 3059   4.661   4.638  13.589  0.3028  1.3286  1.5232
  201MPD1    H1 3060   4.618   4.705  13.158 -1.9614 -0.7907  0.6549
  201MPD1    H2 3061   4.554   0.291  13.407  1.4939  0.3609  2.0395
  201MPD1    H3 3062   4.577   0.207  13.207  0.2189  0.0250  0.1414
  201MPD1     N 3063   4.695   4.515  13.376 -0.0829 -0.5143 -0.2554
  201MPD1    H5 3064   4.706   4.466  13.464 -2.3759  0.7215  0.7064
  201MPD1    N1 3065   4.623   0.169  13.646  0.0728  0.0125  1.1608
  201MPD1    H6 3066   4.693   0.132  13.710 -0.0201 -0.7366  0.8369
  201MPD1    H7 3067   4.639   0.269  13.642  1.5197 -0.2477  0.6000
  202MPD1     C 3068   4.387   4.209   8.912 -0.2112 -0.3097  0.4138
  202MPD1    C1 3069   4.428   4.077   8.904 -0.4589 -0.7376 -0.0227
  202MPD1    C2 3070   4.536   4.053   8.994 -0.0202 -0.3837 -0.2430
  202MPD1    C3 3071   4.561   4.124   9.100 -0.1476 -0.7402 -0.1349
  202MPD1    C4 3072   4.500   4.244   9.120 -0.5499  0.2012 -0.4351
  202MPD1    C5 3073   4.418   4.286   9.020 -0.9556  0.1496 -0.0008
  202MPD1     H 3074   4.582   3.956   8.982  1.3280  0.0543  1.4610
  202MPD1    H1 3075   4.527   4.307   9.204  0.6276  0.9307 -1.3620
  202MPD1    H2 3076   4.322   4.260   8.840  1.0244 -0.0495 -0.5151
  202MPD1    H3 3077   4.373   4.385   9.016 -3.8642 -1.0850  1.4343
  202MPD1     N 3078   4.661   4.090   9.197  0.2088  0.0817 -0.2413
  202MPD1    H5 3079   4.649   4.132   9.289  0.3209  0.1710 -0.2660
  202MPD1    N1 3080   4.430   4.011   8.783  0.0988  0.0664  0.6281
  202MPD1    H6 3081   4.448   3.913   8.804 -0.0102 -0.7188 -2.9697
  202MPD1    H7 3082   4.342   4.012   8.732 -0.5653  1.8655  1.7837
  203MPD1     C 3083   3.448   0.738  13.059  0.5274 -0.2093 -0.4076
  203MPD1    C1 3084   3.402   0.612  13.081 -1.4327  0.4731  0.1878
  203MPD1    C2 3085   3.483   0.505  13.047 -0.3441  0.5828 -0.1998
  203MPD1    C3 3086   3.604   0.524  12.984  0.3586  0.4107  0.1463
  203MPD1    C4 3087   3.647   0.654  12.949  0.8484 -0.5014 -0.2298
  203MPD1    C5 3088   3.572   0.761  13.000  0.5077 -0.6820 -0.1065
  203MPD1     H 3089   3.450   0.402  13.047  0.1541  0.4286 -3.1638
  203MPD1    H1 3090   3.745   0.671  12.905 -0.0364  0.7871 -1.6638
  203MPD1    H2 3091   3.385   0.823  13.085 -1.4568 -1.0473 -2.4688
  203MPD1    H3 3092   3.607   0.861  12.976 -0.4844  0.0622  1.5324
  203MPD1     N 3093   3.691   0.415  12.964  0.1314  0.0804 -0.0021
  203MPD1    H5 3094   3.659   0.334  13.016  1.4446  0.5430  1.5372
  203MPD1    N1 3095   3.268   0.583  13.111 -0.0643 -0.0806  0.2019
  203MPD1    H6 3096   3.222   0.659  13.160 -1.8188 -0.8380 -0.2727
  203MPD1    H7 3097   3.261   0.501  13.171  0.7566  0.0793  0.5078
  204MPD1     C 3098   3.051   1.353   0.092  0.0291  0.2325 -0.8838
  204MPD1    C1 3099   3.138   1.322  17.688 -0.0342  0.2773  0.4111
  204MPD1    C2 3100   3.118   1.188  17.641  0.3860 -0.7008 -0.5318
  204MPD1    C3 3101   3.012   1.110  17.680  0.5540 -1.0985  0.2086
  204MPD1    C4 3102   2.927   1.152   0.081  0.2272 -0.9629  0.1445
  204MPD1    C5 3103   2.943   1.276   0.125  0.2592  0.2829  0.2280
  204MPD1     H 3104   3.175   1.140  17.563  0.2871 -0.6013 -0.6643
  204MPD1    H1 3105   2.843   1.101   0.127 -0.8877 -0.4345 -1.3105
  204MPD1    H2 3106   3.055   1.451   0.137  1.5593 -0.3278  0.1925
  204MPD1    H3 3107   2.877   1.314   0.202  0.1862 -2.4602  1.5364
  204MPD1     N 3108   3.001   0.982  17.625  0.6931  0.2367 -0.1895
  204MPD1    H5 3109   3.061   0.957  17.547  2.9603 -1.9978  2.2778
  204MPD1    N1 3110   3.248   1.400  17.647 -0.2832 -0.3752  0.3943
  204MPD1    H6 3111   3.241   1.501  17.654  1.3335 -0.2198 -0.2587
  204MPD1    H7 3112   3.294   1.377  17.560 -2.0148  0.9925 -0.8931
  205MPD1     C 3113   3.811   0.100  16.751 -0.0706  0.2290 -0.2018
  205MPD1    C1 3114   3.695   0.171  16.789  0.1115 -0.4425  0.0264
  205MPD1    C2 3115   3.609   0.112  16.887 -0.7841 -0.3599 -0.7081
  205MPD1    C3 3116   3.622   4.712  16.931 -0.0446 -0.7033  0.1527
  205MPD1    C4 3117   3.727   4.634  16.879 -0.2562  0.7539 -0.4047
  205MPD1    C5 3118   3.819   4.699  16.793 -0.0126  0.5722 -0.0082
  205MPD1     H 3119   3.539   0.189  16.919 -2.3962 -2.1797  0.1513
  205MPD1    H1 3120   3.745   4.531  16.908 -0.8644  1.0729  1.0997
  205MPD1    H2 3121   3.893   0.136  16.690  1.3268 -1.7231  0.5443
  205MPD1    H3 3122   3.899   4.634  16.759 -0.3019 -0.3274  1.0513
  205MPD1     N 3123   3.543   4.650  17.028  0.7118  0.8197 -0.2510
  205MPD1    H5 3124   3.585   4.569  17.073 -1.1768 -0.0022  0.0337
  205MPD1    N1 3125   3.689   0.302  16.743 -0.1065  0.7834 -0.3680
  205MPD1    H6 3126   3.755   0.333  16.672  0.1677  0.6059 -0.1917
  205MPD1    H7 3127   3.593   0.328  16.720  0.2359  0.5883 -2.0296
  206MPD1     C 3128   3.352   2.866  16.779  0.6275 -0.2940  0.2883
  206MPD1    C1 3129   3.261   2.954  16.731  0.4056  0.0399 -0.9877
  206MPD1    C2 3130   3.215   2.931  16.600  0.0071  0.2122 -0.5826
  206MPD1    C3 3131   3.271   2.828  16.528  0.2733 -0.0946 -0.4304
  206MPD1    C4 3132   3.373   2.749  16.581 -0.2432 -0.1274 -0.8411
  206MPD1    C5 3133   3.416   2.765  16.705 -0.2830 -0.1543 -0.0602
  206MPD1     H 3134   3.127   2.986  16.570 -0.0439  1.1377  1.2483
  206MPD1    H1 3135   3.426   2.669  16.531  1.0001  0.4251 -0.3981
  206MPD1    H2 3136   3.376   2.866  16.885  0.6757 -2.3759  0.2795
  206MPD1    H3 3137   3.489   2.696  16.745 -1.4016 -1.0374  0.4480
  206MPD1     N 3138   3.231   2.797  16.401  0.1732  0.3061  0.0717
  206MPD1    H5 3139   3.278   2.716  16.362 -1.4593 -0.8259  0.4744
  206MPD1    N1 3140   3.200   3.052  16.812 -0.0772 -0.1065  0.4243
  206MPD1    H6 3141   3.147   3.121  16.760  2.4423  0.4497 -1.4126
  206MPD1    H7 3142   3.268   3.083  16.882  1.0120 -0.4697 -0.4742
  207MPD1     C 3143   0.622   4.646  10.385 -0.6855  0.4784  0.0578
  207MPD1    C1 3144   0.653   4.589  10.507  0.1966 -0.3402  0.0306
  207MPD1    C2 3145   0.745   4.652  10.590  0.4986 -0.8468  0.0926
  207MPD1    C3 3146   0.821   0.039  10.541  0.2600 -0.0306 -0.6165
  207MPD1    C4 3147   0.788   0.083  10.415 -0.1529  0.0286 -0.7572
  207MPD1    C5 3148   0.688   0.029  10.342  0.6303 -0.1892  0.7524
  207MPD1     H 3149   0.755   4.627  10.695 -2.6888 -0.0498  0.5989
  207MPD1    H1 3150   0.846   0.162  10.368 -1.9270  3.0440  2.1145
  207MPD1    H2 3151   0.528   4.615  10.341 -1.2033  3.4811 -0.9456
  207MPD1    H3 3152   0.644   0.079  10.256  0.1968 -1.9458 -0.0480
  207MPD1     N 3153   0.906   0.118  10.623  0.0397 -0.4140  0.6495
  207MPD1    H5 3154   0.941   0.207  10.589 -2.8401  0.6950  0.5615
  207MPD1    N1 3155   0.569   4.484  10.557  0.3883 -0.5030  0.5271
  207MPD1    H6 3156   0.608   4.445  10.643  0.2326 -1.5809  0.1039
  207MPD1    H7 3157   0.533   4.415  10.491  0.2884 -0.4729  0.5499
  208MPD1     C 3158   3.090   0.091   0.895  0.2071  0.9025 -0.5784
  208MPD1    C1 3159   3.100   4.702   0.970 -0.8000  0.1136 -0.3115
  208MPD1    C2 3160   3.185   4.603   0.927 -0.2294 -0.2755  0.1814
  208MPD1    C3 3161   3.254   4.612   0.807  0.3446 -0.2108  0.3919
  208MPD1    C4 3162   3.264   0.012   0.747 -0.1292 -0.1932  0.2025
  208MPD1    C5 3163   3.179   0.110   0.793  0.1835 -0.2831 -0.0200
  208MPD1     H 3164   3.187   4.515   0.990  0.3581 -0.0241  0.5161
  208MPD1    H1 3165   3.324   0.031   0.659  0.9941 -2.8260  0.3884
  208MPD1    H2 3166   3.017   0.167   0.922  0.1446  0.4315  0.5594
  208MPD1    H3 3167   3.180   0.204   0.739 -0.9109 -1.0056 -1.3030
  208MPD1     N 3168   3.311   4.493   0.763  0.7238  0.0558  0.6334
  208MPD1    H5 3169   3.293   4.407   0.814  2.4359  0.3900  1.8086
  208MPD1    N1 3170   2.996   4.681   1.061 -0.2825  0.1441  0.2611
  208MPD1    H6 3171   2.956   0.038   1.105  1.7873  0.8019  0.9176
  208MPD1    H7 3172   3.025   4.614   1.133  0.2950 -0.9368 -0.9706
  209MPD1     C 3173   1.353   4.515  12.535  0.5212  0.1135  0.3306
  209MPD1    C1 3174   1.271   4.633  12.546  0.1425  0.2719  0.7855
  209MPD1    C2 3175   1.288   0.002  12.446  0.2205  0.5455  0.1608
  209MPD1    C3 3176   1.363   4.702  12.331  0.2296  0.4960  0.0180
  209MPD1    C4 3177   1.451   4.589  12.324 -0.2228 -0.5801 -0.2327
  209MPD1    C5 3178   1.430   4.489  12.419  0.3354 -0.0314 -0.1473
  209MPD1     H 3179   1.228   0.092  12.439  0.6802  0.8385  0.0128
  209MPD1    H1 3180   1.517   4.582  12.238  1.0410 -0.5303  0.7298
  209MPD1    H2 3181   1.344   4.440  12.612 -0.4487 -0.4728 -0.3589
  209MPD1    H3 3182   1.488   4.398  12.411 -0.0718 -0.4142  1.3342
  209MPD1     N 3183   1.358   0.073  12.227 -0.2425 -0.2483  0.5255
  209MPD1    H5 3184   1.314   0.163  12.240  0.2462 -0.1401  1.3740
  209MPD1    N1 3185   1.186   4.649  12.661  0.3012 -0.2124 -0.3032
  209MPD1    H6 3186   1.088   4.672  12.650 -0.0704 -1.4121  0.6034
  209MPD1    H7 3187   1.176   4.571  12.725 -0.8266 -0.5838 -0.9333
  210MPD1     C 3188   1.312   0.999  11.920  0.0865 -0.1428  0.2209
  210MPD1    C1 3189   1.288   0.925  12.032 -0.1867 -0.0643 -1.0008
  210MPD1    C2 3190   1.275   0.788  12.023  0.8737 -0.2505 -0.8923
  210MPD1    C3 3191   1.316   0.721  11.908 -0.0242  0.3885  0.2818
  210MPD1    C4 3192   1.368   0.796  11.809  0.7519 -0.4323 -0.0058
  210MPD1    C5 3193   1.364   0.935  11.812  0.9043 -0.9252 -0.9500
  210MPD1     H 3194   1.231   0.739  12.109  0.8919 -1.2520 -1.4452
  210MPD1    H1 3195   1.411   0.757  11.717 -0.9120 -0.3044 -0.8529
  210MPD1    H2 3196   1.287   1.103  11.906  0.9488  0.1587  0.9078
  210MPD1    H3 3197   1.387   0.990  11.722  1.4011  0.9948  0.3499
  210MPD1     N 3198   1.306   0.580  11.898 -0.0070  0.2508 -0.1755
  210MPD1    H5 3199   1.346   0.536  11.816  0.9630  1.2373 -0.2432
  210MPD1    N1 3200   1.241   0.995  12.149 -0.7866 -0.9532  0.1673
  210MPD1    H6 3201   1.301   1.069  12.184  1.6903 -4.0453  2.4642
  210MPD1    H7 3202   1.158   1.050  12.127  1.3463  1.6278 -1.4239
  211MPD1     C 3203   4.105   4.580  16.380  0.6261  0.0996  0.2846
  211MPD1    C1 3204   4.052   4.705  16.353  0.7475  0.9328  0.3734
  211MPD1    C2 3205   3.913   4.722  16.370 -0.1112  0.3280  0.4553
  211MPD1    C3 3206   3.838   4.617  16.413 -0.2273 -0.4185  0.2725
  211MPD1    C4 3207   3.894   4.496  16.436  0.1426  0.5441 -0.8100
  211MPD1    C5 3208   4.027   4.476  16.423 -0.7406  0.0743 -0.6252
  211MPD1     H 3209   3.869   0.091  16.338 -1.6321 -0.9028 -1.0002
  211MPD1    H1 3210   3.841   4.406  16.466 -1.6543  1.9007  0.0823
  211MPD1    H2 3211   4.211   4.562  16.364  0.5211  0.6057 -1.0472
  211MPD1    H3 3212   4.073   4.380  16.443 -1.0098  0.6390  2.6948
  211MPD1     N 3213   3.703   4.646  16.436  0.0911 -0.0770  0.7779
  211MPD1    H5 3214   3.679   0.019  16.425  0.8132  0.1165  0.9248
  211MPD1    N1 3215   4.146   0.083  16.323 -0.1623  0.5834 -0.0447
  211MPD1    H6 3216   4.108   0.146  16.253  0.7622 -0.3622 -1.4071
  211MPD1    H7 3217   4.224   0.040  16.272 -0.3987  0.9725 -0.7297
  212MPD1     C 3218   2.918   3.404  16.884  0.2877 -0.6717  0.7561
  212MPD1    C1 3219   2.886   3.303  16.803 -0.3943  0.2415 -0.8499
  212MPD1    C2 3220   2.796   3.209  16.838  0.1458 -0.5517 -0.4166
  212MPD1    C3 3221   2.721   3.222  16.953  0.3077 -0.0498  0.3449
  212MPD1    C4 3222   2.754   3.329  17.036  0.1275  0.5347  0.4198
  212MPD1    C5 3223   2.848   3.423  17.000 -0.3704 -0.3066  0.0449
  212MPD1     H 3224   2.780   3.132  16.765 -0.7271  0.4290 -1.2609
  212MPD1    H1 3225   2.690   3.331  17.123 -2.5473  1.8111 -1.6063
  212MPD1    H2 3226   2.993   3.477  16.858 -1.1573  0.8459  0.8066
  212MPD1    H3 3227   2.878   3.508  17.060 -0.1423 -1.0428  0.9726
  212MPD1     N 3228   2.612   3.134  16.995  0.1275  0.2409  0.1307
  212MPD1    H5 3229   2.554   3.176  17.068 -1.5445 -0.1875 -0.9548
  212MPD1    N1 3230   2.971   3.276  16.693 -0.1014 -0.3959  0.9326
  212MPD1    H6 3231   2.927   3.227  16.616 -0.4556  0.8502  0.3434
  212MPD1    H7 3232   3.026   3.356  16.663 -0.1330 -0.3071  1.1085
  213MPD1     C 3233   0.708   3.782  15.933 -0.3487  0.4025  0.0745
  213MPD1    C1 3234   0.667   3.650  15.916  1.2842 -0.0364 -0.3191
  213MPD1    C2 3235   0.688   3.603  15.785  0.1832  0.5326  0.3681
  213MPD1    C3 3236   0.714   3.693  15.682  0.1194 -0.2190 -0.6009
  213MPD1    C4 3237   0.739   3.830  15.706  0.3249  0.0906 -0.3670
  213MPD1    C5 3238   0.736   3.869  15.830 -0.2675 -0.3534 -0.3687
  213MPD1     H 3239   0.683   3.495  15.770 -0.0384  0.6198 -0.2093
  213MPD1    H1 3240   0.762   3.912  15.639  0.1351  2.6383  2.6919
  213MPD1    H2 3241   0.712   3.817  16.036 -0.6725  1.5468 -0.3072
  213MPD1    H3 3242   0.759   3.971  15.858 -2.2611 -0.0934  0.3678
  213MPD1     N 3243   0.712   3.640  15.552 -1.1563 -0.4563 -0.4761
  213MPD1    H5 3244   0.713   3.538  15.548  2.5679 -0.4172 -0.6479
  213MPD1    N1 3245   0.667   3.563  16.024  0.3807 -0.6214  0.6834
  213MPD1    H6 3246   0.632   3.612  16.107  1.0305  1.4572 -0.2790
  213MPD1    H7 3247   0.609   3.481  16.009 -1.4686  1.1127 -1.4759
  214MPD1     C 3248   0.449   2.920  14.912 -0.1690 -0.2765 -0.2826
  214MPD1    C1 3249   0.430   2.941  15.047  0.0853  0.6924 -0.3520
  214MPD1    C2 3250   0.494   3.062  15.096 -0.4088 -0.6433  0.2012
  214MPD1    C3 3251   0.561   3.148  15.015 -0.4681  0.2104  0.2548
  214MPD1    C4 3252   0.579   3.113  14.887  0.4201 -0.2972  0.0444
  214MPD1    C5 3253   0.528   2.999  14.834 -0.5624 -0.1970  0.3382
  214MPD1     H 3254   0.466   3.083  15.199 -1.5328  0.3575 -0.3015
  214MPD1    H1 3255   0.643   3.166  14.817  1.1647  0.4545  1.3113
  214MPD1    H2 3256   0.393   2.837  14.871  1.4802  0.0511 -3.2022
  214MPD1    H3 3257   0.548   2.984  14.729  0.5580 -0.5301  0.5865
  214MPD1     N 3258   0.618   3.273  15.053 -0.4407  0.9414 -0.0476
  214MPD1    H5 3259   0.677   3.319  14.985 -0.5756 -2.2746 -2.3367
  214MPD1    N1 3260   0.324   2.878  15.116 -0.4807 -0.1318 -0.2768
  214MPD1    H6 3261   0.291   2.794  15.070  1.1775 -1.2725  0.6199
  214MPD1    H7 3262   0.334   2.868  15.217  0.3303  1.8721 -0.1518
  215MPD1     C 3263   1.052   4.158  10.651  0.0088 -1.0861  0.2548
  215MPD1    C1 3264   1.027   4.284  10.609  1.1226 -0.4294  0.1896
  215MPD1    C2 3265   1.000   4.376  10.706  0.0575  0.1203  0.8210
  215MPD1    C3 3266   1.020   4.345  10.843  0.0193  0.0803 -0.4393
  215MPD1    C4 3267   1.059   4.223  10.885 -0.0054  0.1804 -0.3792
  215MPD1    C5 3268   1.070   4.131  10.785  0.1882  0.0150 -0.1561
  215MPD1     H 3269   0.977   4.479  10.679 -0.9313 -0.5791 -1.0231
  215MPD1    H1 3270   1.082   4.201  10.989 -1.6053  0.5076  0.0421
  215MPD1    H2 3271   1.064   4.072  10.586 -2.1237 -1.6289  0.5866
  215MPD1    H3 3272   1.101   4.031  10.813 -2.1153 -0.7083 -0.2073
  215MPD1     N 3273   0.992   4.442  10.944 -0.2368 -0.1444  0.8298
  215MPD1    H5 3274   0.968   4.535  10.909 -0.7757 -1.2128 -1.6230
  215MPD1    N1 3275   1.004   4.301  10.468  0.1400  0.0065  0.5703
  215MPD1    H6 3276   1.053   4.242  10.401 -1.9580 -0.2142 -0.7418
  215MPD1    H7 3277   1.011   4.401  10.452  2.4820 -0.0758  1.0782
  216MPD1     C 3278   2.621   2.039  17.010 -0.7814  0.1256  0.4306
  216MPD1    C1 3279   2.740   2.049  17.078 -0.5522 -0.3562 -0.0510
  216MPD1    C2 3280   2.821   1.936  17.080 -0.2162  0.0393 -0.8872
  216MPD1    C3 3281   2.781   1.819  17.021  0.3058  0.0645  0.2264
  216MPD1    C4 3282   2.665   1.820  16.941  0.1663 -0.4518 -0.5157
  216MPD1    C5 3283   2.583   1.930  16.939  0.1102 -0.4211  0.3552
  216MPD1     H 3284   2.907   1.940  17.146 -0.6244 -0.9075 -0.3204
  216MPD1    H1 3285   2.635   1.734  16.883  0.9532 -0.5528 -0.7689
  216MPD1    H2 3286   2.557   2.125  16.997  1.0574  1.5852  0.9764
  216MPD1    H3 3287   2.492   1.933  16.881 -0.4138 -0.6753  1.1642
  216MPD1     N 3288   2.853   1.703  17.041  0.6439 -0.1192  0.7152
  216MPD1    H5 3289   2.937   1.717  17.097  0.6675  0.3735  0.5557
  216MPD1    N1 3290   2.775   2.165  17.148 -0.1782 -0.0535  0.8173
  216MPD1    H6 3291   2.726   2.237  17.096 -1.0741 -0.4683  1.0872
  216MPD1    H7 3292   2.876   2.177  17.151  0.1533 -2.0528 -3.6492
  217MPD1     C 3293   3.466   3.426   8.675 -0.2337 -0.2933  0.7223
  217MPD1    C1 3294   3.544   3.381   8.777  0.5562  0.3136  0.2064
  217MPD1    C2 3295   3.644   3.462   8.828 -0.6608  0.7797  0.3606
  217MPD1    C3 3296   3.649   3.595   8.788  0.2244 -0.8933 -0.5234
  217MPD1    C4 3297   3.571   3.642   8.689  0.2864 -0.4893  0.1459
  217MPD1    C5 3298   3.488   3.550   8.627 -0.2638 -0.1965 -0.2559
  217MPD1     H 3299   3.703   3.422   8.909  0.7766 -1.0706 -1.6112
  217MPD1    H1 3300   3.574   3.738   8.639  2.4773 -1.1110 -0.9671
  217MPD1    H2 3301   3.391   3.369   8.621 -0.0457  1.0938 -1.0079
  217MPD1    H3 3302   3.429   3.593   8.546  0.6042  1.2513 -0.1294
  217MPD1     N 3303   3.742   3.681   8.849 -0.3550  0.6544  0.2700
  217MPD1    H5 3304   3.750   3.776   8.814 -0.9355  0.8244  0.5931
  217MPD1    N1 3305   3.513   3.260   8.837  0.6434  0.3862 -0.1673
  217MPD1    H6 3306   3.513   3.264   8.939  0.6573 -1.4822 -0.0884
  217MPD1    H7 3307   3.427   3.214   8.809  0.5468 -0.3270  1.2993
  218MPD1     C 3308   0.328   0.090  13.566 -0.0391 -0.2436  0.6696
  218MPD1    C1 3309   0.448   0.049  13.565  0.3526  0.1197 -0.4938
  218MPD1    C2 3310   0.495   4.724  13.444 -0.3009  0.2337 -0.2291
  218MPD1    C3 3311   0.426   0.002  13.324  0.0454  0.3154  0.0936
  218MPD1    C4 3312   0.297   0.049  13.330  0.0911  0.0166  0.2906
  218MPD1    C5 3313   0.246   0.090  13.451  0.0402  0.3807  0.3095
  218MPD1     H 3314   0.596   4.684  13.438  0.7895  3.2138 -1.6449
  218MPD1    H1 3315   0.234   0.042  13.242  1.5339  0.0899 -0.7393
  218MPD1    H2 3316   0.280   0.123  13.658 -0.9860  1.7539 -0.5284
  218MPD1    H3 3317   0.139   0.108  13.449 -0.1286 -0.7798 -1.4887
  218MPD1     N 3318   0.489   4.683  13.207 -0.2521 -0.5462  0.1294
  218MPD1    H5 3319   0.582   4.645  13.218 -0.2790 -0.3939  0.8354
  218MPD1    N1 3320   0.521   0.020  13.682 -0.3834  0.3800  0.0298
  218MPD1    H6 3321   0.621   0.036  13.667 -0.3101  0.1042  0.2139
  218MPD1    H7 3322   0.491   0.079  13.760  0.5122  3.5030 -1.9621
  219MPD1     C 3323   0.682   4.718  12.155  0.1022  0.2259 -0.1563
  219MPD1    C1 3324   0.676   0.115  12.224 -0.2653 -0.6395 -0.3459
  219MPD1    C2 3325   0.670   0.109  12.361  0.3256  0.5356  0.0680
  219MPD1    C3 3326   0.668   4.709  12.424  0.3335 -0.5382  0.2013
  219MPD1    C4 3327   0.666   4.591  12.348  0.2871  0.2923  0.2072
  219MPD1    C5 3328   0.674   4.599  12.210 -0.3164 -0.2923 -0.5919
  219MPD1     H 3329   0.658   0.206  12.409  1.6170  0.5937  0.2967
  219MPD1    H1 3330   0.663   4.496  12.400  1.2013 -0.5454 -1.2655
  219MPD1    H2 3331   0.684   0.001  12.046  3.3385  1.2858 -0.0048
  219MPD1    H3 3332   0.676   4.516  12.141 -0.9653  0.7629 -1.8877
  219MPD1     N 3333   0.665   4.698  12.569 -0.8693  0.3071  0.0248
  219MPD1    H5 3334   0.669   4.603  12.603  1.1069  0.6794  0.8086
  219MPD1    N1 3335   0.667   0.244  12.163 -0.2298 -0.2552 -0.7578
  219MPD1    H6 3336   0.695   0.324  12.219 -2.8598 -0.0558  0.2777
  219MPD1    H7 3337   0.717   0.248  12.074 -0.3454 -0.0717 -0.8131
  220MPD1     C 3338   0.527   4.620   9.525  0.1008 -0.1955  0.5648
  220MPD1    C1 3339   0.478   4.524   9.619 -0.3470  0.9800 -0.2877
  220MPD1    C2 3340   0.441   4.566   9.742 -0.3321 -0.3843 -0.5632
  220MPD1    C3 3341   0.463   4.696   9.784 -0.1813 -0.2711  0.0772
  220MPD1    C4 3342   0.495   0.062   9.688 -0.0593  0.0403  1.1134
  220MPD1    C5 3343   0.542   0.022   9.563  0.4627  0.0927  0.3355
  220MPD1     H 3344   0.397   4.500   9.816 -0.5796 -0.5816 -0.8907
  220MPD1    H1 3345   0.514   0.164   9.717 -0.6265  0.5243 -0.2231
  220MPD1    H2 3346   0.545   4.587   9.424  2.5039 -1.6342  1.4649
  220MPD1    H3 3347   0.583   0.088   9.488  1.3204 -1.6981 -0.7514
  220MPD1     N 3348   0.406   4.723   9.910 -0.0875  0.8853  1.2167
  220MPD1    H5 3349   0.368   4.643   9.959  0.8221 -1.2048 -1.4823
  220MPD1    N1 3350   0.470   4.386   9.584  0.7979 -0.4117 -0.1411
  220MPD1    H6 3351   0.398   4.338   9.638 -0.3695  1.4720  0.0036
  220MPD1    H7 3352   0.445   4.372   9.487  0.3658  1.4967 -0.3053
  221MPD1     C 3353   2.929   4.646  15.876  0.0667  0.6655  0.3341
  221MPD1    C1 3354   2.912   4.563  15.767 -0.3762 -0.4881  0.1359
  221MPD1    C2 3355   2.920   4.429  15.787  0.0019  0.2439  0.4725
  221MPD1    C3 3356   2.914   4.373  15.918 -0.0415 -0.1462  0.1067
  221MPD1    C4 3357   2.914   4.461  16.021  0.0350  0.2905 -0.2377
  221MPD1    C5 3358   2.923   4.599  16.007 -0.2975  0.5831  0.3887
  221MPD1     H 3359   2.923   4.364  15.701 -0.1231  1.5646 -0.5317
  221MPD1    H1 3360   2.911   4.421  16.122 -1.4749 -2.1689 -1.2703
  221MPD1    H2 3361   2.935   0.028  15.866  3.3334  0.8570  4.1300
  221MPD1    H3 3362   2.927   4.665  16.093  0.2129 -1.2090  1.7382
  221MPD1     N 3363   2.924   4.231  15.941 -1.1127 -0.0460  0.0305
  221MPD1    H5 3364   2.933   4.203  16.038 -2.2902  0.4439  0.2731
  221MPD1    N1 3365   2.919   4.621  15.638 -0.8082 -0.0648  0.2993
  221MPD1    H6 3366   2.849   4.695  15.631 -0.5125  0.3049  1.2558
  221MPD1    H7 3367   2.910   4.555  15.561  1.4557 -0.4032  0.3449
  222MPD1     C 3368   2.926   2.585  16.647 -0.0897  0.0835  0.0192
  222MPD1    C1 3369   2.846   2.478  16.668  0.9497  0.1191 -0.0606
  222MPD1    C2 3370   2.775   2.477  16.789  0.2273  0.2781 -0.5424
  222MPD1    C3 3371   2.780   2.586  16.879  1.1274 -0.4395 -0.1301
  222MPD1    C4 3372   2.866   2.686  16.853 -0.2815 -0.6250 -0.4409
  222MPD1    C5 3373   2.939   2.683  16.739 -0.0456  0.1910  0.2473
  222MPD1     H 3374   2.708   2.393  16.806 -0.0383  0.3946 -1.0167
  222MPD1    H1 3375   2.883   2.775  16.913  0.4544 -0.2936 -1.1395
  222MPD1    H2 3376   2.992   2.600  16.562 -1.6835  2.3697 -0.7875
  222MPD1    H3 3377   3.009   2.763  16.715  2.1400 -1.7848  0.0801
  222MPD1     N 3378   2.701   2.589  16.997  0.3240 -0.8614 -0.0782
  222MPD1    H5 3379   2.708   2.669  17.060  1.6949 -0.4586 -0.7651
  222MPD1    N1 3380   2.836   2.378  16.569  0.2527 -0.5590  0.2247
  222MPD1    H6 3381   2.844   2.411  16.473 -1.0451 -1.8072 -0.3303
  222MPD1    H7 3382   2.740   2.343  16.578  0.3887 -1.1546 -0.5908
  223MPD1     C 3383   2.328   1.801  17.513  0.6609  0.0494 -0.6079
  223MPD1    C1 3384   2.373   1.814  17.385 -0.3005 -0.0067  0.2835
  223MPD1    C2 3385   2.410   1.946  17.355 -0.5944  0.1761 -0.4657
  223MPD1    C3 3386   2.406   2.052  17.444  0.2417  0.3565 -0.1957
  223MPD1    C4 3387   2.345   2.028  17.566 -0.0006 -0.1940  0.1251
  223MPD1    C5 3388   2.312   1.902  17.602  0.0846  0.0999  0.5318
  223MPD1     H 3389   2.441   1.972  17.255 -0.1012 -0.1056 -0.3847
  223MPD1    H1 3390   2.336   2.101  17.646  2.0108  0.3498 -0.1365
  223MPD1    H2 3391   2.316   1.706  17.564  2.2958 -0.8185 -1.8888
  223MPD1    H3 3392   2.281   1.879   0.002 -1.6041 -0.8027 -0.1839
  223MPD1     N 3393   2.451   2.177  17.400 -0.2306  0.3752 -0.1280
  223MPD1    H5 3394   2.523   2.182  17.329  0.1395 -0.6166  0.1763
  223MPD1    N1 3395   2.388   1.702  17.303  0.2934 -0.0885 -0.1214
  223MPD1    H6 3396   2.308   1.641  17.317 -0.4622  0.7694 -0.7143
  223MPD1    H7 3397   2.380   1.732  17.206  0.3126  0.5675  0.0806
  224MPD1     C 3398   0.192   0.441   9.059  0.1234 -0.1885  0.7274
  224MPD1    C1 3399   0.154   0.308   9.053  0.4090 -0.2192  0.3019
  224MPD1    C2 3400   0.059   0.265   9.144  0.1470 -0.4371 -0.7246
  224MPD1    C3 3401   0.018   0.346   9.252  0.0643 -0.0038  0.1115
  224MPD1    C4 3402   0.067   0.472   9.253 -0.5629  1.3272 -0.3932
  224MPD1    C5 3403   0.150   0.517   9.160  0.6225 -0.3781  0.3135
  224MPD1     H 3404   0.023   0.163   9.132  0.6370 -0.7179  0.2308
  224MPD1    H1 3405   0.041   0.548   9.325  0.3036 -0.0578  1.3770
  224MPD1    H2 3406   0.254   0.489   8.984 -2.1107  2.2827  0.4604
  224MPD1    H3 3407   0.185   0.618   9.144  1.1372 -0.1793  2.6939
  224MPD1     N 3408   4.656   0.300   9.358  0.2925 -0.2932 -0.3295
  224MPD1    H5 3409   4.618   0.372   9.419 -0.5240 -0.2678 -0.8671
  224MPD1    N1 3410   0.182   0.235   8.939  0.1270  0.2236  0.0618
  224MPD1    H6 3411   0.183   0.134   8.943 -0.5727  0.2012 -0.2499
  224MPD1    H7 3412   0.270   0.256   8.891  0.6344 -1.6225  0.1943
  225MPD1     C 3413   0.570   1.317  12.809  0.4853 -0.2663 -0.1461
  225MPD1    C1 3414   0.582   1.185  12.778 -0.3410  0.0286  0.2737
  225MPD1    C2 3415   0.489   1.121  12.696  0.3170 -0.1599 -0.6108
  225MPD1    C3 3416   0.391   1.201  12.628  0.2282  0.3723  0.8218
  225MPD1    C4 3417   0.382   1.335  12.659 -0.3719 -0.6094  0.1778
  225MPD1    C5 3418   0.485   1.394  12.732  0.3493  0.4215  0.0541
  225MPD1     H 3419   0.495   1.013  12.693  2.9065  0.0771 -3.1504
  225MPD1    H1 3420   0.302   1.391  12.612 -2.0050 -1.7889  1.5477
  225MPD1    H2 3421   0.641   1.369  12.871 -2.1150  2.9801  0.0669
  225MPD1    H3 3422   0.472   1.500  12.747  3.1124  0.6671  0.7121
  225MPD1     N 3423   0.298   1.139  12.544  0.4900 -0.7217 -0.1020
  225MPD1    H5 3424   0.231   1.199  12.496  0.5052  1.1091  2.1609
  225MPD1    N1 3425   0.677   1.107  12.850  0.0811 -0.1144  0.1151
  225MPD1    H6 3426   0.701   1.022  12.801  1.4303 -0.4101  1.2800
  225MPD1    H7 3427   0.762   1.160  12.868  1.0472 -1.3803 -0.7553
  226MPD1     C 3428   3.978   1.768   9.659 -0.9525 -0.2408  0.0028
  226MPD1    C1 3429   3.977   1.636   9.700 -0.0127  0.0262 -0.5394
  226MPD1    C2 3430   4.093   1.579   9.738 -0.1208 -0.7064  0.1173
  226MPD1    C3 3431   4.216   1.645   9.723 -0.0757  0.4506  0.1019
  226MPD1    C4 3432   4.212   1.771   9.667  0.6525 -0.7146  0.4802
  226MPD1    C5 3433   4.093   1.829   9.634 -0.6664 -0.4522 -0.4009
  226MPD1     H 3434   4.096   1.476   9.771  0.4031 -0.6293  0.3120
  226MPD1    H1 3435   4.304   1.826   9.647 -1.2762  2.0180 -0.8368
  226MPD1    H2 3436   3.886   1.825   9.646  0.9264  2.6334 -0.7414
  226MPD1    H3 3437   4.095   1.935   9.613 -2.0959 -0.3175  0.1209
  226MPD1     N 3438   4.329   1.575   9.766 -0.2341 -0.1623  0.8249
  226MPD1    H5 3439   4.311   1.486   9.810  0.0573 -0.3819  0.4930
  226MPD1    N1 3440   3.855   1.571   9.727  0.1913  0.0341 -0.3543
  226MPD1    H6 3441   3.773   1.607   9.679 -0.3473 -0.7742 -0.0461
  226MPD1    H7 3442   3.859   1.470   9.713  1.5748  0.0367  0.0462
  227MPD1     C 3443   0.651   1.378   9.610  0.1012  0.1937 -0.3421
  227MPD1    C1 3444   0.567   1.278   9.582 -0.2059  0.1747 -0.1052
  227MPD1    C2 3445   0.445   1.272   9.644  0.6479 -0.8772  0.5164
  227MPD1    C3 3446   0.400   1.375   9.724 -0.4717 -0.3275 -0.2130
  227MPD1    C4 3447   0.493   1.478   9.741 -0.9020 -0.0208 -0.2499
  227MPD1    C5 3448   0.614   1.474   9.693 -0.1840  0.5371  0.2236
  227MPD1     H 3449   0.385   1.189   9.610  0.5796 -0.2943 -0.7798
  227MPD1    H1 3450   0.470   1.567   9.799 -0.1360  0.1373 -0.1919
  227MPD1    H2 3451   0.747   1.373   9.561  1.7929  1.4000  2.8081
  227MPD1    H3 3452   0.688   1.549   9.718  2.5600 -1.4465 -1.8583
  227MPD1     N 3453   0.267   1.376   9.767  0.1104 -0.2341  0.1463
  227MPD1    H5 3454   0.219   1.289   9.749 -0.7644  0.4133 -0.6811
  227MPD1    N1 3455   0.605   1.170   9.494  0.2116 -0.7721 -0.2811
  227MPD1    H6 3456   0.521   1.134   9.448 -0.8319 -1.8551  2.4735
  227MPD1    H7 3457   0.668   1.204   9.422  1.2639 -1.1965  0.4395
  228MPD1     C 3458   1.613   3.119  12.703 -0.1124  0.3625 -0.4655
  228MPD1    C1 3459   1.504   3.094  12.630 -0.0024 -1.0268 -0.3292
  228MPD1    C2 3460   1.397   3.025  12.686  0.7906 -0.0962  0.2720
  228MPD1    C3 3461   1.396   2.984  12.815 -0.4385  0.3322 -1.0165
  228MPD1    C4 3462   1.518   2.995  12.882  1.1855 -0.3251  0.3945
  228MPD1    C5 3463   1.621   3.067  12.828 -0.3227 -0.6735 -0.0009
  228MPD1     H 3464   1.311   2.996  12.627  2.2426 -1.4797 -1.1669
  228MPD1    H1 3465   1.531   2.955  12.982  0.4168 -0.3976  0.4640
  228MPD1    H2 3466   1.680   3.194  12.665  0.6191  0.0931  0.2947
  228MPD1    H3 3467   1.708   3.075  12.892 -1.0154 -0.7629  0.9599
  228MPD1     N 3468   1.281   2.915  12.859  0.0054 -0.3889 -0.2884
  228MPD1    H5 3469   1.206   2.905  12.791 -1.2676  0.7254  0.9578
  228MPD1    N1 3470   1.488   3.153  12.507 -0.1465  0.6858  0.2361
  228MPD1    H6 3471   1.574   3.176  12.459  0.4234 -1.9202 -0.0187
  228MPD1    H7 3472   1.434   3.088  12.449 -3.4223  2.9520  0.7317
  229MPD1     C 3473   1.051   2.259  14.195  0.1267  0.1944  0.2758
  229MPD1    C1 3474   0.994   2.317  14.306 -0.7475 -0.0092 -0.2445
  229MPD1    C2 3475   1.022   2.271  14.436  0.3641  0.0630  0.0434
  229MPD1    C3 3476   1.116   2.176  14.449  0.2530  0.6309  0.3000
  229MPD1    C4 3477   1.172   2.117  14.339  0.4260 -0.1500 -0.2575
  229MPD1    C5 3478   1.142   2.156  14.213  0.3712 -0.2582 -0.2680
  229MPD1     H 3479   0.962   2.303  14.521 -2.1191  1.5595 -2.2737
  229MPD1    H1 3480   1.247   2.040  14.350  1.0361  0.6388  1.1748
  229MPD1    H2 3481   1.039   2.280  14.089  0.3087 -1.8665 -0.1475
  229MPD1    H3 3482   1.198   2.114  14.130 -0.8634  1.0157 -1.7402
  229MPD1     N 3483   1.165   2.139  14.575  0.2480  0.1786 -0.1532
  229MPD1    H5 3484   1.250   2.085  14.579 -0.4214 -0.8441  0.3617
  229MPD1    N1 3485   0.897   2.411  14.280 -0.3688 -0.4367 -0.6073
  229MPD1    H6 3486   0.931   2.465  14.200  2.4941  0.0050  0.9010
  229MPD1    H7 3487   0.873   2.481  14.351  1.4426 -1.2862  0.8398
  230MPD1     C 3488   1.186   2.132  15.668  0.0756  0.1317 -1.0261
  230MPD1    C1 3489   1.209   2.002  15.623  0.9235  0.5612  0.0175
  230MPD1    C2 3490   1.215   1.978  15.490  0.0620 -0.2671 -0.0914
  230MPD1    C3 3491   1.205   2.085  15.399 -1.0668  0.3090  0.5049
  230MPD1    C4 3492   1.195   2.214  15.447  0.5620 -0.3977 -0.0283
  230MPD1    C5 3493   1.179   2.234  15.575  0.0232 -0.3109  0.4649
  230MPD1     H 3494   1.247   1.881  15.454 -1.6113 -0.5151 -0.9221
  230MPD1    H1 3495   1.192   2.299  15.380  0.4268  2.7038  3.9378
  230MPD1    H2 3496   1.179   2.154  15.774 -1.3660  0.5133 -1.2002
  230MPD1    H3 3497   1.166   2.337  15.607  0.6817 -0.0204 -0.1916
  230MPD1     N 3498   1.208   2.048  15.265 -0.1483  0.4760 -0.4909
  230MPD1    H5 3499   1.225   1.952  15.239 -3.1854  0.6270 -2.9372
  230MPD1    N1 3500   1.210   1.885  15.703  0.1976  0.3692 -0.5120
  230MPD1    H6 3501   1.219   1.907  15.802 -1.2913 -0.7677 -0.1329
  230MPD1    H7 3502   1.280   1.814  15.680 -0.5076 -0.0041 -1.4786
  231MPD1     C 3503   4.437   3.731  15.242 -0.6301  0.5423  0.5104
  231MPD1    C1 3504   4.557   3.669  15.249  0.1751  0.3050  0.1655
  231MPD1    C2 3505   4.679   3.737  15.210  0.4556  0.5421  0.4622
  231MPD1    C3 3506   4.672   3.865  15.152  0.0094  0.5712  1.2645
  231MPD1    C4 3507   4.545   3.914  15.137 -0.6465  0.7593 -0.2424
  231MPD1    C5 3508   4.436   3.844  15.172  0.0519  0.0940  0.3125
  231MPD1     H 3509   0.047   3.684  15.229 -0.1095 -1.1175 -1.4155
  231MPD1    H1 3510   4.527   4.009  15.088 -0.3683  0.4518 -0.9365
  231MPD1    H2 3511   4.343   3.684  15.270 -0.6984  0.0861 -0.4785
  231MPD1    H3 3512   4.338   3.884  15.149 -0.7021 -0.6495  2.2433
  231MPD1     N 3513   0.062   3.931  15.121 -0.5154  0.3387  0.0883
  231MPD1    H5 3514   0.151   3.884  15.137  0.7023  1.3033 -3.5940
  231MPD1    N1 3515   4.553   3.544  15.308  0.0574  0.0012 -0.1821
  231MPD1    H6 3516   4.626   3.528  15.377  0.8834 -0.3966 -1.1483
  231MPD1    H7 3517   4.466   3.518  15.353  1.4898  0.0988  2.6300
  232MPD1     C 3518   1.958   2.430   0.389 -0.3805  0.3436  0.3007
  232MPD1    C1 3519   1.845   2.448   0.320 -0.0439  0.2161 -0.7038
  232MPD1    C2 3520   1.777   2.339   0.283 -0.3931  0.4750 -0.7436
  232MPD1    C3 3521   1.806   2.214   0.330  0.5231  0.4291  0.3804
  232MPD1    C4 3522   1.915   2.199   0.416  0.4395 -0.2127  0.2199
  232MPD1    C5 3523   1.990   2.308   0.442 -0.4245 -0.5608 -0.0121
  232MPD1     H 3524   1.694   2.357   0.216 -0.3247  1.9507 -0.4439
  232MPD1    H1 3525   1.940   2.104   0.463 -0.4385 -0.4333  0.2474
  232MPD1    H2 3526   2.036   2.503   0.406 -0.8245  1.3653 -2.1434
  232MPD1    H3 3527   2.081   2.291   0.498  0.2996 -0.7747 -1.2777
  232MPD1     N 3528   1.722   2.102   0.290 -0.6555 -0.5752  0.2631
  232MPD1    H5 3529   1.646   2.124   0.226 -1.3104 -1.8604  0.6007
  232MPD1    N1 3530   1.823   2.576   0.267 -0.3177 -0.3524 -0.1731
  232MPD1    H6 3531   1.847   2.654   0.329  0.5093 -1.6802  1.1729
  232MPD1    H7 3532   1.725   2.597   0.250 -0.1284  0.9678  0.3495
  233MPD1     C 3533   3.439   2.177   2.392 -0.1180 -0.0334  0.2524
  233MPD1    C1 3534   3.367   2.221   2.285 -0.1117 -0.2531 -0.0667
  233MPD1    C2 3535   3.360   2.358   2.264 -0.4289  1.1952 -0.2540
  233MPD1    C3 3536   3.420   2.455   2.346  0.1043 -0.3374  0.8290
  233MPD1    C4 3537   3.479   2.409   2.461  0.3396 -0.8700  0.1083
  233MPD1    C5 3538   3.490   2.269   2.482 -0.9140 -0.1039 -0.1894
  233MPD1     H 3539   3.324   2.392   2.167  1.0451  3.5529  0.0198
  233MPD1    H1 3540   3.521   2.481   2.531  0.0612  0.7782 -1.4060
  233MPD1    H2 3541   3.453   2.070   2.407  2.3437  0.2730  0.0828
  233MPD1    H3 3542   3.562   2.235   2.555 -1.2530  0.2727  0.3130
  233MPD1     N 3543   3.432   2.598   2.316  0.3032 -0.4141 -0.8235
  233MPD1    H5 3544   3.497   2.657   2.368 -1.5720 -0.2340  1.3215
  233MPD1    N1 3545   3.309   2.128   2.189 -0.5682  0.1397 -0.1091
  233MPD1    H6 3546   3.222   2.158   2.145 -0.3312  0.3653 -0.4211
  233MPD1    H7 3547   3.304   2.037   2.233  2.3148 -0.6854 -1.5487
  234MPD1     C 3548   0.290   3.340  10.357  1.0988 -0.1968  0.3091
  234MPD1    C1 3549   0.316   3.478  10.355 -0.2232  0.5566  0.5564
  234MPD1    C2 3550   0.274   3.553  10.249  0.8530  1.0482  0.3285
  234MPD1    C3 3551   0.193   3.499  10.149 -0.4161  0.3825 -0.7336
  234MPD1    C4 3552   0.162   3.365  10.156 -0.8080  0.4679 -0.0449
  234MPD1    C5 3553   0.221   3.288  10.252 -0.8389  0.1097  0.8186
  234MPD1     H 3554   0.302   3.658  10.255  1.3991  0.8549  1.0425
  234MPD1    H1 3555   0.104   3.314  10.080  2.6289 -2.5720 -0.6377
  234MPD1    H2 3556   0.310   3.280  10.445 -1.3848 -0.4486  0.7271
  234MPD1    H3 3557   0.201   3.182  10.247 -0.5918  0.1309 -0.6741
  234MPD1     N 3558   0.142   3.590  10.049  0.5609  0.0192  0.3724
  234MPD1    H5 3559   0.177   3.684  10.061  1.0007 -0.1578  0.5060
  234MPD1    N1 3560   0.379   3.537  10.470 -0.2660  0.1989 -0.2880
  234MPD1    H6 3561   0.438   3.475  10.525 -2.8419 -0.1083  2.1460
  234MPD1    H7 3562   0.426   3.627  10.462  1.2024 -0.4231  1.2812
  235MPD1     C 3563   2.253   1.958   9.100 -0.2687  0.5431  0.3299
  235MPD1    C1 3564   2.137   1.911   9.042  0.1823  0.4770 -0.3158
  235MPD1    C2 3565   2.018   1.915   9.113  0.6603 -0.4577  0.4187
  235MPD1    C3 3566   2.021   1.949   9.251  0.1308  0.2595 -0.7730
  235MPD1    C4 3567   2.147   1.978   9.308  0.6500  0.3120  0.2577
  235MPD1    C5 3568   2.266   1.980   9.236 -0.1592  0.5308 -0.2687
  235MPD1     H 3569   1.927   1.905   9.055 -0.6160 -0.1980  2.3955
  235MPD1    H1 3570   2.153   2.006   9.412 -1.3467  1.6400  0.0096
  235MPD1    H2 3571   2.341   1.961   9.036 -1.1231 -3.3751 -1.0244
  235MPD1    H3 3572   2.352   2.029   9.280 -0.0052  1.1541 -1.2911
  235MPD1     N 3573   1.898   1.936   9.325 -0.0754  0.0653  0.0896
  235MPD1    H5 3574   1.823   1.891   9.273  0.0913  2.4078 -2.1913
  235MPD1    N1 3575   2.132   1.896   8.897  0.4345 -0.0422 -0.0426
  235MPD1    H6 3576   2.051   1.842   8.869  1.2772 -0.8388 -0.9491
  235MPD1    H7 3577   2.221   1.868   8.857 -0.1235  0.7578 -1.8154
  236MPD1     C 3578   1.538   2.914  10.734 -0.5128 -0.8090 -0.3376
  236MPD1    C1 3579   1.623   2.856  10.640 -0.4654  0.4293  0.3795
  236MPD1    C2 3580   1.616   2.720  10.625  0.2922  0.8727  0.6784
  236MPD1    C3 3581   1.556   2.635  10.713  0.1144 -0.6805 -0.3785
  236MPD1    C4 3582   1.490   2.696  10.816  0.3380 -0.0029 -0.2031
  236MPD1    C5 3583   1.473   2.830  10.825  0.2168  0.2028  0.4297
  236MPD1     H 3584   1.683   2.680  10.549 -0.2635 -2.4405  1.9524
  236MPD1    H1 3585   1.437   2.640  10.892 -2.0597  0.9772 -1.1468
  236MPD1    H2 3586   1.530   3.021  10.747 -1.7027 -0.5859 -2.8688
  236MPD1    H3 3587   1.412   2.880  10.899 -2.7903  0.6423 -2.3979
  236MPD1     N 3588   1.555   2.496  10.703 -0.1906  0.3143  0.1071
  236MPD1    H5 3589   1.517   2.438  10.777  1.7352 -0.8091  0.2358
  236MPD1    N1 3590   1.712   2.936  10.566 -0.1206  0.4196 -0.0600
  236MPD1    H6 3591   1.698   3.034  10.592 -3.2823  0.6185 -2.4342
  236MPD1    H7 3592   1.696   2.943  10.466  0.5474  3.8843  0.0825
  237MPD1     C 3593   4.572   0.519  15.192 -0.4127 -0.4726 -0.6937
  237MPD1    C1 3594   4.502   0.544  15.078 -0.7989  0.1276 -0.3766
  237MPD1    C2 3595   4.368   0.512  15.072  0.0815 -0.1556 -0.0409
  237MPD1    C3 3596   4.309   0.457  15.186  0.2773 -0.5457 -0.4048
  237MPD1    C4 3597   4.377   0.443  15.298 -0.4897  0.0310  0.1482
  237MPD1    C5 3598   4.516   0.474  15.306  0.1213 -0.3380  0.3938
  237MPD1     H 3599   4.308   0.532  14.984  2.1354 -0.5521 -1.5453
  237MPD1    H1 3600   4.339   0.398  15.389  0.2953  0.5331  0.7243
  237MPD1    H2 3601   4.680   0.525  15.184 -0.6995  2.2321 -2.3878
  237MPD1    H3 3602   4.575   0.452  15.394 -1.9940 -2.9879  1.1318
  237MPD1     N 3603   4.176   0.415  15.196  0.1784 -0.5749 -0.4543
  237MPD1    H5 3604   4.148   0.368  15.281  2.1231 -2.7900 -1.0204
  237MPD1    N1 3605   4.579   0.584  14.966  0.9501  0.1114 -0.3268
  237MPD1    H6 3606   4.660   0.637  14.998 -0.6633  3.1815 -1.3157
  237MPD1    H7 3607   4.520   0.642  14.907  1.2876  0.4685 -0.3098
  238MPD1     C 3608   1.862   4.042  13.976 -0.3876  0.1260 -0.9213
  238MPD1    C1 3609   1.837   4.063  14.110  0.1754 -0.7634  0.3273
  238MPD1    C2 3610   1.755   3.969  14.165  0.0830 -0.5454  0.2504
  238MPD1    C3 3611   1.701   3.859  14.097 -0.3486  0.9917  0.0145
  238MPD1    C4 3612   1.739   3.838  13.966 -0.1769 -0.8462 -0.3326
  238MPD1    C5 3613   1.821   3.926  13.909 -0.6918  0.2765 -0.3948
  238MPD1     H 3614   1.715   4.010  14.258  0.7349  1.8581 -0.5234
  238MPD1    H1 3615   1.702   3.758  13.903 -0.9191  1.2796 -2.5646
  238MPD1    H2 3616   1.926   4.115  13.927 -3.0513  2.6460 -0.7122
  238MPD1    H3 3617   1.859   3.912  13.808 -1.4181 -1.9592 -0.3454
  238MPD1     N 3618   1.603   3.774  14.145  0.0547  0.5198  0.7573
  238MPD1    H5 3619   1.552   3.718  14.078  0.1877 -1.5158  2.3715
  238MPD1    N1 3620   1.863   4.191  14.166  0.4181  0.6802  0.5458
  238MPD1    H6 3621   1.868   4.192  14.268  0.6414  1.6154  0.5230
  238MPD1    H7 3622   1.942   4.230  14.115  2.3044 -0.9455  2.2138
  239MPD1     C 3623   1.998   4.674  15.541  0.3763 -0.3991  0.5934
  239MPD1    C1 3624   2.122   4.719  15.495  0.2929 -0.0156 -0.7931
  239MPD1    C2 3625   2.143   0.007  15.352  0.1070  0.4875  0.4733
  239MPD1    C3 3626   2.041   4.699  15.264  0.1350 -0.0240  0.1827
  239MPD1    C4 3627   1.932   4.636  15.314 -0.3656  0.7146  0.5840
  239MPD1    C5 3628   1.919   4.619  15.448  1.0841 -0.6448 -0.1005
  239MPD1     H 3629   2.241   0.050  15.331  0.1615 -0.9456 -2.0959
  239MPD1    H1 3630   1.856   4.586  15.256 -0.2728  1.3023 -0.0417
  239MPD1    H2 3631   1.973   4.642  15.641 -2.4661 -2.8067 -0.9230
  239MPD1    H3 3632   1.837   4.564  15.494 -1.2748  1.2844 -1.9994
  239MPD1     N 3633   2.056   4.721  15.125  0.0587  0.2346 -0.1505
  239MPD1    H5 3634   1.984   4.677  15.069 -0.2972  0.2151  0.3331
  239MPD1    N1 3635   2.228   0.025  15.582  0.5456 -0.3391  0.3420
  239MPD1    H6 3636   2.196   0.058  15.673  1.4869 -0.1540  0.6033
  239MPD1    H7 3637   2.294   4.672  15.591  0.0188 -0.7627  0.5780
  240MPD1     C 3638   0.445   3.985  12.993 -0.4820  0.3038 -0.5482
  240MPD1    C1 3639   0.528   4.091  13.035 -0.5800  0.0830  0.8312
  240MPD1    C2 3640   0.569   4.095  13.173 -0.1884  0.2358 -0.5224
  240MPD1    C3 3641   0.553   3.978  13.255  0.1105  0.4056  0.3445
  240MPD1    C4 3642   0.485   3.869  13.204  0.7731  0.4144 -0.3434
  240MPD1    C5 3643   0.425   3.878  13.076  0.0328  0.2738 -0.3459
  240MPD1     H 3644   0.612   4.184  13.218 -0.4239 -0.3185  0.8022
  240MPD1    H1 3645   0.478   3.778  13.261  0.7259  0.0395 -0.9527
  240MPD1    H2 3646   0.399   3.983  12.895  0.1535  2.4496 -0.8984
  240MPD1    H3 3647   0.383   3.785  13.039 -1.9093  0.0577  2.3725
  240MPD1     N 3648   0.616   3.979  13.388 -0.0954 -0.4002  0.2588
  240MPD1    H5 3649   0.674   4.062  13.392 -0.7577  0.1626 -1.7349
  240MPD1    N1 3650   0.538   4.193  12.945  0.3946 -0.5935  0.2611
  240MPD1    H6 3651   0.521   4.159  12.851 -1.0918  0.5372  0.1306
  240MPD1    H7 3652   0.624   4.247  12.951  0.4564 -0.6261 -0.3941
  241MPD1     C 3653   1.414   4.246  13.280  0.2042 -0.0837  0.2902
  241MPD1    C1 3654   1.421   4.249  13.415 -0.9021 -0.4420  0.4479
  241MPD1    C2 3655   1.313   4.193  13.480  0.7292  0.4008  0.6856
  241MPD1    C3 3656   1.212   4.121  13.413  0.3369 -0.0714 -0.1927
  241MPD1    C4 3657   1.229   4.101  13.279  0.2405  0.2728 -0.1674
  241MPD1    C5 3658   1.325   4.172  13.206 -0.0683  0.2377 -0.2871
  241MPD1     H 3659   1.302   4.204  13.588 -0.8393  2.1276  0.3652
  241MPD1    H1 3660   1.151   4.052  13.221  0.6118  1.8809 -2.0338
  241MPD1    H2 3661   1.484   4.307  13.223 -2.4459  1.0317 -1.7807
  241MPD1    H3 3662   1.328   4.157  13.098  3.0605 -1.7672  0.0833
  241MPD1     N 3663   1.103   4.055  13.478  0.1161  0.0185  0.4919
  241MPD1    H5 3664   1.050   3.992  13.420 -0.8137 -1.6791  3.1571
  241MPD1    N1 3665   1.506   4.332  13.483 -0.9234 -0.8154  0.8930
  241MPD1    H6 3666   1.587   4.369  13.433 -0.1412 -1.5821  1.6049
  241MPD1    H7 3667   1.529   4.301  13.577  2.2593  0.3259  0.4968
  242MPD1     C 3668   1.239   2.949  15.895  0.5142 -0.3275 -0.6578
  242MPD1    C1 3669   1.114   2.928  15.847 -0.1205 -0.4810  0.0290
  242MPD1    C2 3670   1.109   2.903  15.711  0.3320 -0.1728  0.8396
  242MPD1    C3 3671   1.219   2.921  15.632  0.1540 -0.0413  0.3126
  242MPD1    C4 3672   1.333   2.971  15.679  0.5951  0.0580 -0.1390
  242MPD1    C5 3673   1.342   2.981  15.814  0.5207  0.1916  0.3350
  242MPD1     H 3674   1.016   2.866  15.670 -0.1163  0.8006  0.9972
  242MPD1    H1 3675   1.421   2.987  15.619  1.1434 -1.7493  0.1843
  242MPD1    H2 3676   1.255   2.968  16.001  0.2273  1.8556 -1.0067
  242MPD1    H3 3677   1.434   3.010  15.863  0.6680 -0.4697  0.4516
  242MPD1     N 3678   1.222   2.891  15.497 -0.0848  0.7470  0.0202
  242MPD1    H5 3679   1.304   2.887  15.437 -0.4386  1.1009 -0.4872
  242MPD1    N1 3680   1.012   2.896  15.933  0.3235  0.5478 -0.2819
  242MPD1    H6 3681   1.008   2.955  16.015 -0.7407 -0.9119  0.7289
  242MPD1    H7 3682   0.918   2.903  15.893  0.5482 -0.0873 -0.9269
  243MPD1     C 3683   1.913   1.221   0.336 -0.1403  0.2427  0.2319
  243MPD1    C1 3684   2.040   1.205   0.384 -0.6524 -0.4498  0.1036
  243MPD1    C2 3685   2.136   1.147   0.296 -0.3137  0.2492  0.1935
  243MPD1    C3 3686   2.102   1.127   0.161  0.0072 -0.3748 -0.1166
  243MPD1    C4 3687   1.977   1.158   0.114  0.5403 -0.8374  0.4481
  243MPD1    C5 3688   1.882   1.208   0.198 -0.3920 -0.2267 -0.0558
  243MPD1     H 3689   2.232   1.115   0.336  0.3821  2.1714  0.0237
  243MPD1    H1 3690   1.952   1.141   0.010 -0.8654  1.3971  0.4239
  243MPD1    H2 3691   1.827   1.249   0.396 -0.8047 -0.2229 -0.5056
  243MPD1    H3 3692   1.782   1.230   0.163 -1.0809 -0.0183  2.0273
  243MPD1     N 3693   2.193   1.044   0.090  0.4661 -0.1671 -0.5239
  243MPD1    H5 3694   2.280   1.024   0.137 -0.0226 -1.2673 -0.0873
  243MPD1    N1 3695   2.064   1.199   0.521 -0.1679 -0.2344  0.2583
  243MPD1    H6 3696   2.157   1.232   0.546 -0.1209  0.8242 -1.3299
  243MPD1    H7 3697   1.989   1.250   0.567 -2.0636 -1.0029 -1.9714
  244MPD1     C 3698   2.583   0.344   0.319 -0.0623  0.2056 -0.0427
  244MPD1    C1 3699   2.628   0.466   0.365  0.0702  0.4986  0.9406
  244MPD1    C2 3700   2.612   0.577   0.282  0.4965 -0.2005  0.0082
  244MPD1    C3 3701   2.567   0.559   0.147 -0.5479  0.0513 -0.1556
  244MPD1    C4 3702   2.544   0.430   0.097  0.3094  0.2620  1.2679
  244MPD1    C5 3703   2.553   0.326   0.186 -0.7592  0.3935 -0.2864
  244MPD1     H 3704   2.642   0.673   0.324 -0.8584 -0.9983  2.7438
  244MPD1    H1 3705   2.512   0.419  17.695  0.8510  2.0372  0.9122
  244MPD1    H2 3706   2.578   0.259   0.385  1.7090 -0.4131 -0.7239
  244MPD1    H3 3707   2.515   0.228   0.157 -0.7061  0.2037  0.2862
  244MPD1     N 3708   2.547   0.674   0.073 -0.6493 -0.1717  0.6930
  244MPD1    H5 3709   2.556   0.761   0.125  2.0510 -0.6085  0.9873
  244MPD1    N1 3710   2.670   0.478   0.494  0.0604 -0.8922 -0.8633
  244MPD1    H6 3711   2.684   0.383   0.528  1.8996 -0.6621 -0.9940
  244MPD1    H7 3712   2.745   0.546   0.502 -0.6907 -0.4658  2.7351
  245MPD1     C 3713   4.650   1.902  13.286  0.8089 -0.2539 -1.3556
  245MPD1    C1 3714   0.053   1.960  13.287 -0.0465  0.4556 -0.3204
  245MPD1    C2 3715   0.070   2.080  13.345  0.1655  0.0961 -0.3734
  245MPD1    C3 3716   4.685   2.145  13.407 -0.7496 -0.1227  0.0369
  245MPD1    C4 3717   4.563   2.080  13.420  0.4402 -0.2597  0.7408
  245MPD1    C5 3718   4.547   1.962  13.354  0.9390 -0.9017  0.0156
  245MPD1     H 3719   0.170   2.123  13.344  0.2635 -0.1224  0.0419
  245MPD1    H1 3720   4.480   2.116  13.479  0.9931  1.2471  0.6051
  245MPD1    H2 3721   4.620   1.802  13.256 -0.9902  0.3040 -1.4139
  245MPD1    H3 3722   4.453   1.910  13.365  0.7357 -0.9540 -2.0137
  245MPD1     N 3723   4.696   2.267  13.471  0.6918 -0.1670  0.3724
  245MPD1    H5 3724   0.063   2.308  13.468 -0.8712  3.4560  1.7617
  245MPD1    N1 3725   0.161   1.878  13.249  0.0502 -0.4274  0.2292
  245MPD1    H6 3726   0.251   1.923  13.238 -0.6457  0.7493 -0.5829
  245MPD1    H7 3727   0.150   1.798  13.186 -2.0386  0.7543 -0.9066
  246MPD1     C 3728   2.662   2.429   9.271 -0.7681  0.5724 -0.2464
  246MPD1    C1 3729   2.635   2.360   9.149 -0.0861  0.0624  0.2513
  246MPD1    C2 3730   2.506   2.323   9.117  0.0634  0.2595 -0.5961
  246MPD1    C3 3731   2.403   2.357   9.197 -0.5780 -0.3457 -1.6759
  246MPD1    C4 3732   2.427   2.456   9.294  0.3292 -0.7699  0.1067
  246MPD1    C5 3733   2.556   2.480   9.336 -0.2426 -0.4171 -0.3237
  246MPD1     H 3734   2.484   2.264   9.028 -0.0670 -1.1853  0.3870
  246MPD1    H1 3735   2.348   2.495   9.359 -2.6615 -1.1941 -3.2996
  246MPD1    H2 3736   2.765   2.452   9.298  0.6538 -2.5400 -3.0428
  246MPD1    H3 3737   2.575   2.547   9.419  0.1906 -0.9089 -0.0268
  246MPD1     N 3738   2.273   2.318   9.161 -0.6413  0.6577  0.1713
  246MPD1    H5 3739   2.267   2.245   9.090 -1.7190  0.4836  0.4458
  246MPD1    N1 3740   2.745   2.302   9.078  0.0432  0.3141  0.7107
  246MPD1    H6 3741   2.732   2.304   8.977 -0.0341  1.3179  0.7448
  246MPD1    H7 3742   2.832   2.354   9.086  0.3666 -0.1670  0.3455
  247MPD1     C 3743   3.708   1.476  17.064 -0.0602  0.0203 -0.1217
  247MPD1    C1 3744   3.782   1.541  17.154  0.5214  0.2498 -0.6857
  247MPD1    C2 3745   3.874   1.632  17.100  0.3273 -0.0482 -0.3342
  247MPD1    C3 3746   3.869   1.679  16.967 -0.0275  1.0233 -0.0509
  247MPD1    C4 3747   3.787   1.617  16.879 -0.2589 -0.2594  0.2460
  247MPD1    C5 3748   3.716   1.509  16.926 -0.5507  0.2431  0.5641
  247MPD1     H 3749   3.940   1.690  17.163  1.2366 -0.2240 -1.1359
  247MPD1    H1 3750   3.789   1.647  16.775 -1.1954  3.5825  1.3328
  247MPD1    H2 3751   3.633   1.402  17.093  0.2540 -0.4286 -0.4618
  247MPD1    H3 3752   3.656   1.457  16.853  0.8969  0.9676 -1.1223
  247MPD1     N 3753   3.943   1.789  16.918  0.6947  0.3190 -0.5711
  247MPD1    H5 3754   3.948   1.796  16.817  1.9515  0.5996 -0.5016
  247MPD1    N1 3755   3.788   1.511  17.288 -0.3734 -0.1785  0.1887
  247MPD1    H6 3756   3.702   1.462  17.311  0.4614 -2.0126 -0.5676
  247MPD1    H7 3757   3.810   1.589  17.350  1.4713 -0.8944  0.4539
  248MPD1     C 3758   0.113   1.902  17.666  0.0948 -0.1801  0.7123
  248MPD1    C1 3759   0.095   1.765  17.681  0.3826 -0.7768 -0.1209
  248MPD1    C2 3760   0.023   1.719   0.086  0.1018 -0.7278  0.3602
  248MPD1    C3 3761   4.693   1.804   0.177  0.5695 -0.7058 -0.1030
  248MPD1    C4 3762   4.704   1.940   0.152  0.8783 -0.3874 -0.7966
  248MPD1    C5 3763   0.059   1.988   0.055 -0.0153  0.2745 -0.0920
  248MPD1     H 3764   0.007   1.613   0.101 -0.4587 -0.4614  1.5665
  248MPD1    H1 3765   4.651   2.006   0.220  1.0436  0.4077 -1.4344
  248MPD1    H2 3766   0.160   1.945  17.578 -2.8175 -0.9064 -1.1836
  248MPD1    H3 3767   0.067   2.095   0.038 -0.0392  0.3459  0.3361
  248MPD1     N 3768   4.626   1.755   0.295 -0.4315  0.6999  0.0104
  248MPD1    H5 3769   4.654   1.661   0.321  1.2373  0.7600 -1.6359
  248MPD1    N1 3770   0.119   1.682  17.579 -0.2933 -0.2958 -0.2778
  248MPD1    H6 3771   0.133   1.586  17.608 -2.2170 -0.4066  0.2989
  248MPD1    H7 3772   0.193   1.715  17.517  1.3722 -0.1327  1.8010
  249MPD1     C 3773   1.411   3.962  11.159  0.6362 -0.0312  0.4796
  249MPD1    C1 3774   1.425   3.893  11.033 -0.7240 -0.6654 -0.3256
  249MPD1    C2 3775   1.407   3.969  10.919 -0.0830 -0.2941 -0.2400
  249MPD1    C3 3776   1.399   4.107  10.928  0.9091  0.5555  0.3197
  249MPD1    C4 3777   1.396   4.173  11.047 -0.2022  0.0971  0.3603
  249MPD1    C5 3778   1.407   4.097  11.160  0.3753 -0.2064  0.1794
  249MPD1     H 3779   1.392   3.918  10.824  0.9966 -0.5628 -0.2704
  249MPD1    H1 3780   1.405   4.281  11.053  2.4135 -0.0669 -0.8776
  249MPD1    H2 3781   1.438   3.904  11.246  2.4782 -0.1967 -0.1987
  249MPD1    H3 3782   1.419   4.151  11.253 -1.8140 -0.6348  0.7078
  249MPD1     N 3783   1.386   4.173  10.801 -0.3164 -0.2106 -0.2022
  249MPD1    H5 3784   1.384   4.108  10.723  2.7181 -0.5660  0.0084
  249MPD1    N1 3785   1.417   3.753  11.038  0.4189 -0.1335 -0.2651
  249MPD1    H6 3786   1.453   3.698  10.960 -1.9369 -1.3560 -0.4996
  249MPD1    H7 3787   1.470   3.718  11.117  0.9245 -0.3591 -0.7093
  250MPD2     C 3788   3.140   0.228  12.985 -0.2328  0.3715 -0.2525
  250MPD2    C1 3789   3.171   0.291  12.863 -0.3330  0.0867 -0.2458
  250MPD2    C2 3790   3.163   0.214  12.749 -0.0136  0.2464 -0.1438
  250MPD2    C3 3791   3.120   0.079  12.749 -0.3464  0.0607  0.0336
  250MPD2    C4 3792   3.098   0.016  12.867 -0.5402  0.2143  0.2157
  250MPD2    C5 3793   3.105   0.091  12.983 -0.4224 -0.5423  0.7701
  250MPD2     H 3794   3.175   0.254  12.649  1.6401 -1.1994 -0.5325
  250MPD2    H1 3795   3.079   4.635  12.870  0.7199 -0.0115  0.1436
  250MPD2    H2 3796   3.136   0.286  13.076 -0.9224  1.0799 -0.7289
  250MPD2    H3 3797   3.074   0.055  13.080 -2.7505 -2.4095 -0.6703
  250MPD2     N 3798   3.090   0.005  12.634  0.2099 -0.1291 -0.0559
  250MPD2    H5 3799   3.083   4.629  12.646  0.4386 -0.1020  0.3063
  250MPD2    N1 3800   3.202   0.426  12.860  0.2371 -0.1018  0.3451
  250MPD2    H7 3801   3.221   0.462  12.953  0.3418 -1.0320  0.6833
  251TMC3    C1 3802   3.235   0.635  12.767  0.2664  0.0307 -0.2193
  251TMC3    C2 3803   3.135   0.690  12.851  0.1293  0.0767  0.3130
  251TMC3    C3 3804   3.135   0.827  12.870  0.0538 -0.3227 -0.8405
  251TMC3    C4 3805   3.316   0.717  12.688 -0.4401  0.1588 -0.0517
  251TMC3    C5 3806   3.307   0.851  12.708  0.9017  0.1624  0.3264
  251TMC3    C6 3807   3.227   0.906  12.805 -0.5298  0.5093  0.5354
  251TMC3     C 3808   3.240   0.492  12.745  0.1367  0.0313 -0.2737
  251TMC3     O 3809   3.269   0.460  12.630  0.5387  0.3962  0.3601
  251TMC3     H 3810   3.060   0.625  12.896  0.1422 -0.7347 -0.8685
  251TMC3    H1 3811   3.382   0.675  12.613  2.2109  1.2046  1.6827
  251TMC3    H2 3812   3.223   1.014  12.813 -0.9255  0.4709  0.8401
  251TMC3    C7 3813   3.423   0.922  12.649  0.2184  0.1123  0.8175
  251TMC3    C8 3814   3.026   0.884  12.935  0.4269  0.1252  0.7978
  251TMC3    O1 3815   3.513   0.848  12.607 -0.2303 -0.0669  0.7286
  251TMC3    O2 3816   2.978   0.816  13.024  0.0879 -0.1476  0.3580
  252TMC3    C1 3817   4.590   2.570   9.218  0.0079 -0.3097 -0.2459
  252TMC3    C2 3818   4.507   2.574   9.330 -0.6685 -0.5420 -0.1070
  252TMC3    C3 3819   4.536   2.495   9.437 -0.8535 -0.1253  0.0960
  252TMC3    C4 3820   4.700   2.490   9.221 -0.1414 -0.5401 -0.3548
  252TMC3    C5 3821   4.718   2.407   9.327 -0.0527 -1.4991  0.0365
  252TMC3    C6 3822   4.636   2.401   9.435 -0.2888 -0.1166 -0.0262
  252TMC3     C 3823   4.536   2.605   9.085  0.6554 -0.2015  0.2727
  252TMC3     O 3824   4.611   2.634   8.992  0.7216  0.9236 -0.1128
  252TMC3     H 3825   4.417   2.633   9.321 -1.2452 -1.0283  2.3852
  252TMC3    H1 3826   0.042   2.475   9.137 -1.1264  0.2563 -1.2727
  252TMC3    H2 3827   4.649   2.336   9.521  1.9561 -0.6950 -0.8125
  252TMC3    C7 3828   0.052   2.281   9.292  0.3370  0.2451 -0.6548
  252TMC3    C8 3829   4.479   2.515   9.566  0.4592 -0.8882  0.5503
  252TMC3    O1 3830   0.146   2.274   9.214 -0.0179  0.4038 -0.0493
  252TMC3    O2 3831   4.518   2.445   9.660  0.3031  0.0753 -0.0047
  253MPD2     C 3832   4.477   0.819  15.474  0.1016  0.9974  0.3199
  253MPD2    C1 3833   4.378   0.741  15.535  0.3373 -0.0168  0.0101
  253MPD2    C2 3834   4.409   0.691  15.666 -0.0818  0.1034  0.2883
  253MPD2    C3 3835   4.533   0.706  15.725 -0.9664 -0.2135  0.3370
  253MPD2    C4 3836   4.635   0.772  15.658  0.4444  0.2582 -0.1324
  253MPD2    C5 3837   4.600   0.834  15.539  0.5656  0.1004 -0.5289
  253MPD2     H 3838   4.330   0.631  15.709 -0.5299 -0.1208 -0.8591
  253MPD2    H1 3839   0.006   0.784  15.709  0.5518 -0.2556 -0.2158
  253MPD2    H2 3840   4.464   0.857  15.374  0.1030  1.7275  0.5943
  253MPD2    H3 3841   4.677   0.897  15.496  1.4803  0.0896  1.1100
  253MPD2     N 3842   4.547   0.651  15.850  0.4459  0.2027 -0.0498
  253MPD2    H5 3843   4.642   0.634  15.881 -0.0469  0.6454  1.7054
  253MPD2    N1 3844   4.243   0.728  15.495 -0.4217  0.1421  0.4487
  253MPD2    H7 3845   4.184   0.678  15.560  0.4243 -1.2895  0.1149
  254TMC3    C1 3846   4.474   0.561  16.051  0.1956  0.3348  0.7844
  254TMC3    C2 3847   4.356   0.515  16.103  0.6823  0.2140  0.4146
  254TMC3    C3 3848   4.332   0.533  16.240  0.7058  0.5406 -0.4878
  254TMC3    C4 3849   4.564   0.635  16.137  0.2598  0.3803  0.6241
  254TMC3    C5 3850   4.532   0.652  16.271 -0.4018  0.4104  0.3723
  254TMC3    C6 3851   4.415   0.601  16.328  0.0844  0.6391  1.0466
  254TMC3     C 3852   4.441   0.620  15.927  0.0563 -0.1392 -0.8304
  254TMC3     O 3853   4.328   0.665  15.920 -0.6760 -0.5817 -0.4224
  254TMC3     H 3854   4.290   0.448  16.050 -1.1465  0.5859  2.1920
  254TMC3    H1 3855   4.654   0.679  16.096  0.2930 -1.8862 -1.7102
  254TMC3    H2 3856   4.390   0.613  16.433 -2.1242  0.5492  0.5360
  254TMC3    C7 3857   4.624   0.713  16.362  0.2520 -0.7206 -0.2714
  254TMC3    C8 3858   4.197   0.523  16.287 -0.8231 -0.1455 -0.1900
  254TMC3    O1 3859   4.685   0.806  16.310  0.3701 -0.2706 -0.2258
  254TMC3    O2 3860   4.180   0.544  16.403  0.0817 -0.4218 -0.9509
  255MPD2     C 3861   3.428   3.459   9.730 -0.2121 -0.7879  0.4257
  255MPD2    C1 3862   3.380   3.577   9.674  0.4212  0.4760 -0.3932
  255MPD2    C2 3863   3.328   3.572   9.543 -0.1370  0.0465  0.3842
  255MPD2    C3 3864   3.319   3.455   9.477  0.2781  0.4136  0.6484
  255MPD2    C4 3865   3.357   3.334   9.533 -0.0725  0.1329  0.2844
  255MPD2    C5 3866   3.414   3.337   9.658 -0.0493  0.1727  0.5650
  255MPD2     H 3867   3.298   3.659   9.486 -2.4147 -0.4847  0.7460
  255MPD2    H1 3868   3.341   3.239   9.483  1.7244 -0.2722  0.4819
  255MPD2    H2 3869   3.468   3.449   9.830  2.1576 -0.3184 -0.4730
  255MPD2    H3 3870   3.452   3.246   9.703  0.9724  0.2645 -0.0963
  255MPD2     N 3871   3.262   3.462   9.346 -0.0387  0.5733  0.0815
  255MPD2    H5 3872   3.239   3.558   9.322 -0.0438  0.3831 -0.6992
  255MPD2    N1 3873   3.373   3.695   9.751 -0.2045  0.5198  0.6465
  255MPD2    H7 3874   3.390   3.681   9.850 -1.1219  0.8589  0.8494
  256TMC3    C1 3875   3.319   3.921   9.805  0.1898 -0.5989 -0.2585
  256TMC3    C2 3876   3.318   4.052   9.762  0.0960  0.7039  0.2815
  256TMC3    C3 3877   3.233   4.144   9.822 -0.5373  0.1555  0.3666
  256TMC3    C4 3878   3.269   3.888   9.927 -0.3692 -0.0425 -0.6267
  256TMC3    C5 3879   3.209   3.982   9.999 -0.9711 -0.6766 -0.3069
  256TMC3    C6 3880   3.175   4.103   9.938  0.0352  0.6194 -0.1851
  256TMC3     C 3881   3.359   3.822   9.706  0.4583  0.3003  0.2476
  256TMC3     O 3882   3.361   3.871   9.597  0.0046  0.0245 -0.9297
  256TMC3     H 3883   3.359   4.078   9.665  0.4346 -1.0025 -0.0280
  256TMC3    H1 3884   3.291   3.789   9.963 -1.4356 -0.1571 -0.2964
  256TMC3    H2 3885   3.130   4.191   9.983  0.9543  1.4354 -0.8388
  256TMC3    C7 3886   3.122   3.939  10.110 -0.8360 -0.9730  0.2961
  256TMC3    C8 3887   3.146   4.225   9.732 -0.3237 -0.3400  0.4278
  256TMC3    O1 3888   3.083   3.818  10.112 -0.1754 -0.0263 -0.1369
  256TMC3    O2 3889   3.027   4.230   9.768 -0.1961  1.0794  0.0930
  257MPD2     C 3890   1.593   0.341  13.240 -0.5196  0.4390  0.3495
  257MPD2    C1 3891   1.657   0.293  13.133 -0.0085 -0.3243  0.0062
  257MPD2    C2 3892   1.740   0.186  13.144  0.1681  0.1935  0.1363
  257MPD2    C3 3893   1.743   0.117  13.268  0.3722  0.4436  0.6295
  257MPD2    C4 3894   1.666   0.162  13.372  0.9105  0.3044  0.0308
  257MPD2    C5 3895   1.592   0.274  13.359  0.4444  0.5030  0.1463
  257MPD2     H 3896   1.804   0.146  13.066 -0.9878 -0.9347 -0.2335
  257MPD2    H1 3897   1.666   0.118  13.471 -1.4196 -1.1875 -0.6349
  257MPD2    H2 3898   1.530   0.429  13.231 -1.8914 -0.4861  0.8043
  257MPD2    H3 3899   1.534   0.309  13.444  2.1906  2.9141  0.3380
  257MPD2     N 3900   1.816   4.721  13.272  0.3887  0.5012 -0.5797
  257MPD2    H5 3901   1.888   4.712  13.202  0.7780 -1.5485  0.0828
  257MPD2    N1 3902   1.656   0.377  13.020 -0.3440  0.2089 -0.2547
  257MPD2    H7 3903   1.592   0.456  13.027  1.6871  1.7634  0.6638
  258TMC3    C1 3904   1.932   4.564  13.400 -0.3022 -0.3348 -0.6661
  258TMC3    C2 3905   2.017   4.532  13.296 -0.1024  0.1748 -0.2414
  258TMC3    C3 3906   2.145   4.491  13.333 -0.3801  0.1216 -0.6828
  258TMC3    C4 3907   1.977   4.579  13.529 -0.7088  0.2229 -1.1760
  258TMC3    C5 3908   2.104   4.546  13.561 -0.0969  0.5350 -0.3035
  258TMC3    C6 3909   2.190   4.496  13.462  0.2202  0.4689 -0.2904
  258TMC3     C 3910   1.803   4.624  13.367 -0.3603 -0.3003  0.0441
  258TMC3     O 3911   1.726   4.624  13.464  0.4568  0.0376 -0.7341
  258TMC3     H 3912   1.972   4.498  13.203 -2.2602  1.6077  0.2782
  258TMC3    H1 3913   1.898   4.583  13.604 -0.8270 -0.7363 -1.2492
  258TMC3    H2 3914   2.296   4.480  13.479  0.1982  0.9274  0.2761
  258TMC3    C7 3915   2.123   4.525  13.705 -0.0349 -0.7444  0.0640
  258TMC3    C8 3916   2.223   4.415  13.236  0.3040 -0.6929 -0.3460
  258TMC3    O1 3917   2.052   4.600  13.770 -0.1552  0.5770 -0.1845
  258TMC3    O2 3918   2.335   4.371  13.270 -0.0410  0.0959  0.2198
  259MPD2     C 3919   0.277   2.348   0.927  0.0559  0.7380 -0.2867
  259MPD2    C1 3920   0.372   2.244   0.931  0.1538 -0.3790 -0.4214
  259MPD2    C2 3921   0.448   2.218   0.819  0.0356  0.0346  0.3788
  259MPD2    C3 3922   0.424   2.278   0.699 -0.5420  0.6381 -0.4824
  259MPD2    C4 3923   0.323   2.376   0.695  0.3175 -0.1741  0.3157
  259MPD2    C5 3924   0.252   2.414   0.810 -0.3103 -0.3626  0.6617
  259MPD2     H 3925   0.534   2.151   0.817 -0.1985 -0.2745  0.6406
  259MPD2    H1 3926   0.293   2.425   0.603  1.3164  0.4285  0.3032
  259MPD2    H2 3927   0.217   2.377   1.012  0.7017 -0.3474  0.5355
  259MPD2    H3 3928   0.166   2.480   0.806 -2.3550 -3.0864 -0.2171
  259MPD2     N 3929   0.501   2.230   0.591 -0.0131  0.6550  0.0476
  259MPD2    H5 3930   0.547   2.142   0.614 -0.5657 -0.8882 -4.7993
  259MPD2    N1 3931   0.396   2.183   1.055 -0.0639  0.5865 -0.5849
  259MPD2    H7 3932   0.365   2.237   1.136 -0.2094 -1.1678  0.5157
  260TMC3    C1 3933   0.564   2.185   0.376 -0.4612  0.1959 -0.4129
  260TMC3    C2 3934   0.587   2.238   0.250  0.4143 -0.1930 -0.1502
  260TMC3    C3 3935   0.641   2.150   0.157 -0.5600 -0.4177 -0.6964
  260TMC3    C4 3936   0.579   2.052   0.411  0.2907  0.4868  0.0521
  260TMC3    C5 3937   0.641   1.970   0.313 -0.6826 -0.4219 -0.0041
  260TMC3    C6 3938   0.665   2.017   0.191 -0.3205 -0.0965  0.0087
  260TMC3     C 3939   0.496   2.275   0.459 -0.4238  0.1539  0.0386
  260TMC3     O 3940   0.454   2.385   0.422  0.1964 -0.0887 -0.4639
  260TMC3     H 3941   0.564   2.341   0.225 -3.9800 -0.5177  2.5320
  260TMC3    H1 3942   0.554   2.002   0.504  2.0831  1.0131  0.8092
  260TMC3    H2 3943   0.693   1.949   0.111  2.2326  0.4360  0.4266
  260TMC3    C7 3944   0.673   1.826   0.342  0.2420  0.0481 -0.2547
  260TMC3    C8 3945   0.737   2.205   0.063 -0.6737  0.2249 -0.3476
  260TMC3    O1 3946   0.760   1.780   0.267 -0.2418  0.0551 -0.1803
  260TMC3    O2 3947   0.715   2.319   0.021 -0.4210 -0.3274 -0.7510
  261MPD2     C 3948   2.682   0.071  11.914  0.1030  0.1414 -0.3450
  261MPD2    C1 3949   2.783   0.128  11.985  0.1518  0.8027 -0.2942
  261MPD2    C2 3950   2.802   0.265  11.977 -0.0026  0.6664 -0.1194
  261MPD2    C3 3951   2.711   0.346  11.903  0.5646  0.0657 -0.6935
  261MPD2    C4 3952   2.607   0.288  11.834  0.0339 -0.0370 -0.8017
  261MPD2    C5 3953   2.596   0.152  11.844 -0.2596 -0.3584  0.4040
  261MPD2     H 3954   2.885   0.320  12.021 -1.7126  1.9376  1.5119
  261MPD2    H1 3955   2.536   0.352  11.783  0.3390  0.9939  0.0678
  261MPD2    H2 3956   2.663   4.689  11.907  0.1575 -0.0483  2.3088
  261MPD2    H3 3957   2.511   0.106  11.793 -0.9174  0.6995  0.5484
  261MPD2     N 3958   2.740   0.489  11.902  0.3259  0.5812 -0.2838
  261MPD2    H5 3959   2.830   0.522  11.935  0.3822 -1.7303  1.8955
  261MPD2    N1 3960   2.868   0.055  12.072  0.5468 -0.0287 -0.2787
  261MPD2    H7 3961   2.926   0.115  12.129 -0.7235 -0.2967  1.2948
  262TMC3    C1 3962   2.725   0.706  11.819  0.4292 -0.1071 -0.1170
  262TMC3    C2 3963   2.651   0.822  11.824  0.4775 -0.7675  0.2536
  262TMC3    C3 3964   2.709   0.938  11.791 -0.3479  0.2305 -0.2019
  262TMC3    C4 3965   2.858   0.708  11.777  0.4601  0.4219  0.2815
  262TMC3    C5 3966   2.909   0.829  11.738 -0.6890  0.0835 -0.7012
  262TMC3    C6 3967   2.841   0.947  11.757  0.0366  0.1062 -0.7080
  262TMC3     C 3968   2.660   0.579  11.842 -0.7818  0.7987  0.0108
  262TMC3     O 3969   2.544   0.573  11.796 -0.1569  0.4901  0.3256
  262TMC3     H 3970   2.544   0.806  11.831  0.2641 -0.1303 -1.4371
  262TMC3    H1 3971   2.913   0.616  11.762 -0.2555 -0.1448  1.1017
  262TMC3    H2 3972   2.880   1.034  11.706  1.7727  1.2146  2.4884
  262TMC3    C7 3973   3.046   0.818  11.681 -0.9404 -0.0522  0.6170
  262TMC3    C8 3974   2.637   1.062  11.775  0.1950 -0.8343  0.1685
  262TMC3    O1 3975   3.078   0.706  11.634  0.4873  0.2191  0.3195
  262TMC3    O2 3976   2.689   1.132  11.689 -0.0252 -0.3764  0.2836
  263MPD2     C 3977   3.563   4.702  11.806 -0.0844 -0.0425 -0.7748
  263MPD2    C1 3978   3.659   4.644  11.721  0.6522  0.6175  0.9084
  263MPD2    C2 3979   3.675   4.696  11.593 -0.0375 -0.1324 -0.1192
  263MPD2    C3 3980   3.590   0.069  11.549 -0.1121 -0.5558 -0.2358
  263MPD2    C4 3981   3.489   0.116  11.632 -0.5114  0.0493  1.0243
  263MPD2    C5 3982   3.473   0.062  11.762  0.4398  0.1582  0.0067
  263MPD2     H 3983   3.757   4.666  11.529 -1.3591  0.0741 -1.9078
  263MPD2    H1 3984   3.415   0.190  11.601  0.1233 -0.1829 -1.0721
  263MPD2    H2 3985   3.556   4.659  11.905 -3.3209  1.3420 -0.4062
  263MPD2    H3 3986   3.391   0.085  11.830  0.5251 -0.3140  0.2626
  263MPD2     N 3987   3.598   0.100  11.411  0.5179 -0.3288  0.1616
  263MPD2    H5 3988   3.661   0.048  11.350  0.4066 -0.9573  0.5814
  263MPD2    N1 3989   3.746   4.551  11.776 -0.0841 -0.5421 -0.7206
  263MPD2    H7 3990   3.716   4.530  11.871 -0.1679 -1.9541 -1.0608
  264TMC3    C1 3991   3.591   0.235  11.218  0.4126 -0.3111  0.2745
  264TMC3    C2 3992   3.585   0.363  11.178 -0.1184  0.5097 -0.1942
  264TMC3    C3 3993   3.620   0.381  11.051 -0.0692 -0.0840  0.9674
  264TMC3    C4 3994   3.627   0.124  11.150 -0.1008 -0.2737 -0.1429
  264TMC3    C5 3995   3.665   0.150  11.025 -0.1406  0.1246  0.3214
  264TMC3    C6 3996   3.653   0.274  10.965  0.1701  0.0460  0.6407
  264TMC3     C 3997   3.540   0.208  11.357  0.3099 -1.2673  0.2357
  264TMC3     O 3998   3.467   0.296  11.405 -0.2638 -0.1934  1.1428
  264TMC3     H 3999   3.582   0.443  11.251  0.0088 -0.2161  0.6091
  264TMC3    H1 4000   3.639   0.018  11.170  0.7195  0.1457  1.5891
  264TMC3    H2 4001   3.695   0.279  10.866  0.4198  0.1990  0.7517
  264TMC3    C7 4002   3.697   0.045  10.932  0.4812  0.1231 -0.2988
  264TMC3    C8 4003   3.672   0.510  11.001 -0.1393  0.6492 -0.6310
  264TMC3    O1 4004   3.776   0.071  10.843  0.8104 -0.0372  0.0676
  264TMC3    O2 4005   3.740   0.502  10.900  0.1684 -0.1079 -0.3724
  265MPD2     C 4006   0.410   4.637  15.495  0.0601  0.1147 -0.0893
  265MPD2    C1 4007   0.484   0.028  15.488 -0.7627 -0.1423  0.9277
  265MPD2    C2 4008   0.596   0.028  15.401  0.6853 -0.1469  0.0093
  265MPD2    C3 4009   0.628   4.633  15.336 -0.1246  0.2058  0.4167
  265MPD2    C4 4010   0.543   4.528  15.334 -0.6033 -0.4030  0.2218
  265MPD2    C5 4011   0.436   4.530  15.418 -0.2963  0.1997  0.6260
  265MPD2     H 4012   0.654   0.119  15.393  0.7588 -0.1540  0.4699
  265MPD2    H1 4013   0.563   4.436  15.281  1.2153 -0.6109  1.2482
  265MPD2    H2 4014   0.327   4.636  15.564  0.3681 -1.0522  0.2658
  265MPD2    H3 4015   0.367   4.448  15.432 -0.4382  0.1242 -0.5043
  265MPD2     N 4016   0.735   4.615  15.246  0.0974  0.0739  0.0078
  265MPD2    H5 4017   0.738   4.522  15.206  1.2344 -0.6994  1.8814
  265MPD2    N1 4018   0.450   0.135  15.572  0.6734  0.1038  0.3642
  265MPD2    H7 4019   0.471   0.233  15.552 -1.0404  0.1730 -1.0938
  266TMC3    C1 4020   0.399   0.246  15.775 -0.2751 -0.4198  0.0461
  266TMC3    C2 4021   0.416   0.250  15.915  0.6147 -0.1822 -0.2648
  266TMC3    C3 4022   0.446   0.366  15.985 -0.1168 -0.5226 -0.1905
  266TMC3    C4 4023   0.395   0.366  15.716 -0.0621  0.2809 -0.4415
  266TMC3    C5 4024   0.408   0.488  15.789 -0.3984 -0.3356 -0.4537
  266TMC3    C6 4025   0.433   0.487  15.925  0.3305  0.0723  0.3344
  266TMC3     C 4026   0.386   0.122  15.693  0.7807  0.2859  0.7325
  266TMC3     O 4027   0.376   0.018  15.760 -0.2666  0.2520  0.3012
  266TMC3     H 4028   0.446   0.159  15.965  1.2755 -1.6525 -3.3253
  266TMC3    H1 4029   0.403   0.382  15.609  0.6171 -1.6166 -0.6624
  266TMC3    H2 4030   0.448   0.580  15.980  1.4195 -1.4131  2.5407
  266TMC3    C7 4031   0.405   0.613  15.714 -0.5796  0.1972 -0.0384
  266TMC3    C8 4032   0.549   0.355  16.094  0.3138 -0.0387  0.5679
  266TMC3    O1 4033   0.347   0.607  15.603  0.0697  0.1278 -0.2999
  266TMC3    O2 4034   0.605   0.243  16.106 -0.4053  0.1134 -0.8035
  267MPD2     C 4035   3.625   1.345  17.531 -0.2423  0.2881  0.0309
  267MPD2    C1 4036   3.568   1.468  17.499 -0.0685  0.0898 -0.5007
  267MPD2    C2 4037   3.457   1.469  17.414 -0.0726  0.6172  0.0687
  267MPD2    C3 4038   3.409   1.353  17.364  0.7014  0.2896 -0.2114
  267MPD2    C4 4039   3.457   1.228  17.403  0.1218 -0.0198  0.4126
  267MPD2    C5 4040   3.558   1.230  17.499 -0.4902  0.1152  0.1433
  267MPD2     H 4041   3.423   1.563  17.373  0.0190 -0.0553 -1.5309
  267MPD2    H1 4042   3.405   1.136  17.382  1.8260 -0.9123  0.0890
  267MPD2    H2 4043   3.702   1.340  17.607  2.0603 -0.1872 -2.3652
  267MPD2    H3 4044   3.586   1.138  17.548 -2.3178 -1.1866 -1.2308
  267MPD2     N 4045   3.305   1.347  17.268  0.0965 -0.0004 -0.5345
  267MPD2    H5 4046   3.274   1.256  17.234  0.2311 -0.7783  1.4566
  267MPD2    N1 4047   3.610   1.581  17.564 -0.3547 -0.8912 -0.0601
  267MPD2    H7 4048   3.684   1.577  17.634  0.7052  1.3560 -1.0165
  268TMC3    C1 4049   3.620   1.811  17.620 -0.5138  0.0644  0.0246
  268TMC3    C2 4050   3.631   1.934  17.570  0.0599 -0.1684 -0.2495
  268TMC3    C3 4051   3.653   2.040  17.650 -0.4748  0.2391  0.0758
  268TMC3    C4 4052   3.652   1.781   0.048 -0.1383 -0.1821  0.7139
  268TMC3    C5 4053   3.684   1.893   0.124 -0.2438 -0.0913 -0.3542
  268TMC3    C6 4054   3.692   2.019   0.075 -0.4305  0.2397  0.6649
  268TMC3     C 4055   3.564   1.707  17.536 -1.2576 -0.1120 -0.4631
  268TMC3     O 4056   3.506   1.756  17.442 -0.5568  0.4870 -0.8241
  268TMC3     H 4057   3.607   1.954  17.466  0.1794 -2.2229 -0.6702
  268TMC3    H1 4058   3.612   1.686   0.082 -0.5681  0.3240  1.6335
  268TMC3    H2 4059   3.731   2.101   0.134  1.2918 -0.2146  0.1575
  268TMC3    C7 4060   3.717   1.870   0.265 -0.3883 -0.2799  0.7758
  268TMC3    C8 4061   3.680   2.173  17.600  0.3922  0.1103 -0.7240
  268TMC3    O1 4062   3.696   1.956   0.348  0.1922  0.1929  0.2024
  268TMC3    O2 4063   3.722   2.257  17.675 -0.1475 -0.9273 -0.4214
  269MPD2     C 4064   3.384   0.679  16.039  0.1310 -0.4392 -1.1176
  269MPD2    C1 4065   3.253   0.714  16.064  0.4862  0.4815 -0.2961
  269MPD2    C2 4066   3.220   0.852  16.048 -0.5037 -0.1880 -0.4744
  269MPD2    C3 4067   3.312   0.938  15.999  0.1807  0.2407 -0.0488
  269MPD2    C4 4068   3.443   0.900  15.978  0.1497  0.3636  0.2137
  269MPD2    C5 4069   3.481   0.767  15.999  0.0295 -0.1612 -0.2551
  269MPD2     H 4070   3.120   0.894  16.056 -1.1921 -2.1382  1.0561
  269MPD2    H1 4071   3.522   0.969  15.951  0.3671  0.5647  1.3233
  269MPD2    H2 4072   3.413   0.577  16.064  1.8791 -0.2628 -2.4896
  269MPD2    H3 4073   3.582   0.730  15.989  0.2583 -0.6039  3.7996
  269MPD2     N 4074   3.263   1.067  15.976  0.2329 -0.7478 -0.3267
  269MPD2    H5 4075   3.165   1.088  15.995  0.9963  2.4671 -0.0068
  269MPD2    N1 4076   3.155   0.617  16.096 -0.7894  0.5425  0.0445
  269MPD2    H7 4077   3.184   0.529  16.136 -1.2034  0.1399 -0.5549
  270TMC3    C1 4078   2.955   0.511  16.115  0.0647  0.0442  1.1025
  270TMC3    C2 4079   2.875   0.463  16.016  0.4468  0.1185  0.0119
  270TMC3    C3 4080   2.811   0.351  16.048  0.5995 -1.0202 -0.1307
  270TMC3    C4 4081   2.975   0.455  16.242  0.0965 -0.6623  0.1246
  270TMC3    C5 4082   2.903   0.343  16.268 -0.1145  0.3993 -0.3244
  270TMC3    C6 4083   2.824   0.291  16.173  0.2551 -0.3883 -0.0846
  270TMC3     C 4084   3.020   0.631  16.077 -0.6486  0.2845 -0.4607
  270TMC3     O 4085   2.964   0.710  16.002  0.5215 -0.0141  0.2282
  270TMC3     H 4086   2.869   0.506  15.917 -0.4454  2.6928  1.1968
  270TMC3    H1 4087   3.041   0.498  16.316  0.9052  0.9437 -1.5090
  270TMC3    H2 4088   2.786   0.191  16.190 -2.3473  0.9129  1.8430
  270TMC3    C7 4089   2.986   0.251  16.341 -0.2648  0.0071 -0.4739
  270TMC3    C8 4090   2.742   0.287  15.941 -0.1535  0.5800  0.0592
  270TMC3    O1 4091   3.108   0.255  16.332  0.0121 -0.3598 -0.6877
  270TMC3    O2 4092   2.638   0.223  15.971 -0.7644 -0.2344 -0.4006
  271MPD2     C 4093   2.530   0.677  14.293  0.7451  0.3755  0.8491
  271MPD2    C1 4094   2.468   0.554  14.292  0.5216 -0.1666 -0.1422
  271MPD2    C2 4095   2.346   0.541  14.230 -0.2301 -0.1206  0.5492
  271MPD2    C3 4096   2.292   0.645  14.153  0.1871  0.0802  0.5216
  271MPD2    C4 4097   2.345   0.769  14.167 -0.3537  0.7323  0.6995
  271MPD2    C5 4098   2.466   0.776  14.232 -0.0298 -0.2436  0.2642
  271MPD2     H 4099   2.294   0.446  14.238 -0.1783 -0.1477  0.5669
  271MPD2    H1 4100   2.303   0.863  14.133 -1.4857 -0.5209 -1.3928
  271MPD2    H2 4101   2.615   0.706  14.353  0.1319  1.4101  1.2196
  271MPD2    H3 4102   2.497   0.878  14.252 -1.4414 -0.2157  2.2933
  271MPD2     N 4103   2.168   0.640  14.085  0.2112  0.6857  0.1621
  271MPD2    H5 4104   2.134   0.728  14.049 -0.0042  0.3531 -0.4393
  271MPD2    N1 4105   2.509   0.457  14.380  0.3467  0.1852  0.0108
  271MPD2    H7 4106   2.439   0.392  14.413 -0.0297 -0.4351 -2.0239
  272TMC3    C1 4107   2.667   0.359  14.524 -0.5034  0.8451 -0.7028
  272TMC3    C2 4108   2.791   0.306  14.523 -0.1567  0.1347 -0.5882
  272TMC3    C3 4109   2.832   0.229  14.628  0.0759  0.0985 -1.1040
  272TMC3    C4 4110   2.578   0.352  14.632  0.2413  0.4233  0.3338
  272TMC3    C5 4111   2.624   0.280  14.733 -0.1636 -0.0236 -0.5869
  272TMC3    C6 4112   2.749   0.215  14.735  0.4816  0.0998  0.4473
  272TMC3     C 4113   2.639   0.444  14.412  0.7021  0.3846  0.9984
  272TMC3     O 4114   2.734   0.490  14.345  0.0282 -0.4031  0.6039
  272TMC3     H 4115   2.869   0.328  14.452 -0.5673  0.5550 -0.9141
  272TMC3    H1 4116   2.496   0.422  14.641 -2.0467 -2.0912 -0.7377
  272TMC3    H2 4117   2.762   0.141  14.814 -0.7726 -0.0678  0.5051
  272TMC3    C7 4118   2.545   0.289  14.855  0.4598 -0.1544 -0.2280
  272TMC3    C8 4119   2.964   0.167  14.628 -1.0674 -0.1916  0.6994
  272TMC3    O1 4120   2.426   0.312  14.833  0.2235 -0.1362 -0.6415
  272TMC3    O2 4121   3.028   0.169  14.526  0.0329 -0.4690 -0.2929
  273MPD2     C 4122   4.294   3.139  12.026  0.3305 -0.3900 -0.4997
  273MPD2    C1 4123   4.356   3.258  12.013 -0.4525  0.2869  0.9166
  273MPD2    C2 4124   4.374   3.314  11.893 -0.2332 -0.5336 -0.3950
  273MPD2    C3 4125   4.314   3.258  11.779 -0.1525  0.0165  0.1737
  273MPD2    C4 4126   4.235   3.147  11.797  0.1403  0.8913 -0.5353
  273MPD2    C5 4127   4.234   3.082  11.917  0.0944  0.8627  0.2331
  273MPD2     H 4128   4.430   3.407  11.892 -1.7919  0.4222  0.8002
  273MPD2    H1 4129   4.194   3.095  11.711 -1.0450 -0.0194  0.5870
  273MPD2    H2 4130   4.279   3.088  12.121 -0.1448 -3.0013 -1.9947
  273MPD2    H3 4131   4.175   2.992  11.926  3.9546 -1.5026  2.1247
  273MPD2     N 4132   4.322   3.334  11.659 -0.5071 -0.1429 -0.6498
  273MPD2    H5 4133   4.393   3.406  11.671 -0.7651 -0.0576  0.4443
  273MPD2    N1 4134   4.398   3.318  12.136 -0.0601 -0.3819 -0.1854
  273MPD2    H7 4135   4.355   3.278  12.219  0.2849 -0.1750  0.1002
  274TMC3    C1 4136   4.298   3.419  11.439  0.2798  0.4427  0.5787
  274TMC3    C2 4137   4.231   3.427  11.325 -0.2559 -0.0763  0.5883
  274TMC3    C3 4138   4.263   3.521  11.232 -0.4261  0.2244  0.1069
  274TMC3    C4 4139   4.396   3.516  11.474  0.2893 -0.2526 -0.1941
  274TMC3    C5 4140   4.416   3.609  11.384 -0.0466  0.2115  0.8108
  274TMC3    C6 4141   4.365   3.612  11.256 -0.4934 -0.1125 -0.0233
  274TMC3     C 4142   4.248   3.322  11.541 -1.1363  0.0648  0.2262
  274TMC3     O 4143   4.137   3.277  11.523 -0.5276  0.0820 -0.1159
  274TMC3     H 4144   4.156   3.350  11.310  0.4049 -1.2108  3.0996
  274TMC3    H1 4145   4.448   3.520  11.569  0.0913 -1.9789 -0.0158
  274TMC3    H2 4146   4.358   3.709  11.207  0.3458  0.3771  0.8263
  274TMC3    C7 4147   4.478   3.731  11.426 -0.2346  0.6408  0.0652
  274TMC3    C8 4148   4.177   3.528  11.115  0.2559 -0.0356 -0.4824
  274TMC3    O1 4149   4.533   3.781  11.334  0.2254 -0.7176 -0.4315
  274TMC3    O2 4150   4.072   3.472  11.129  0.3682 -0.5909  0.3967
  275MPD2     C 4151   3.820   1.593  14.712  0.2598  0.5229  0.1918
  275MPD2    C1 4152   3.750   1.601  14.834  0.0027  0.0843  0.1233
  275MPD2    C2 4153   3.630   1.524  14.847 -0.3722  0.2146 -0.9054
  275MPD2    C3 4154   3.586   1.445  14.738  0.3035  0.3644  0.0354
  275MPD2    C4 4155   3.649   1.444  14.620 -0.3346 -0.4431 -0.1225
  275MPD2    C5 4156   3.762   1.515  14.611  0.0491 -0.6585  0.5070
  275MPD2     H 4157   3.571   1.532  14.938 -0.9236 -0.0796 -1.2377
  275MPD2    H1 4158   3.611   1.393  14.533  2.3283 -1.7678 -0.5355
  275MPD2    H2 4159   3.912   1.644  14.686 -0.6930  1.8028 -0.6721
  275MPD2    H3 4160   3.813   1.519  14.515  0.3832  2.9177  0.8492
  275MPD2     N 4161   3.463   1.374  14.740 -0.2846  0.4061 -0.0530
  275MPD2    H5 4162   3.436   1.337  14.649 -0.5417 -1.2330  0.6851
  275MPD2    N1 4163   3.800   1.675  14.944  0.1439  0.1068  0.0064
  275MPD2    H7 4164   3.745   1.678  15.029 -0.3913  0.1143 -0.3412
  276TMC3    C1 4165   3.930   1.810  15.088 -0.1051 -0.0810 -0.4514
  276TMC3    C2 4166   3.855   1.763  15.187 -0.3075  0.2897 -0.0797
  276TMC3    C3 4167   3.870   1.830  15.307  0.0338 -0.8746 -0.3523
  276TMC3    C4 4168   4.028   1.912  15.095 -0.3017  0.4176  0.3084
  276TMC3    C5 4169   4.028   1.976  15.217  0.2922  0.6215 -0.2648
  276TMC3    C6 4170   3.945   1.944  15.321 -0.4952 -0.1706  0.1471
  276TMC3     C 4171   3.902   1.758  14.954 -0.0456  0.2690  0.2823
  276TMC3     O 4172   3.982   1.799  14.872  0.4960  0.6884  0.4166
  276TMC3     H 4173   3.804   1.668  15.181 -0.7878  0.4482  1.3973
  276TMC3    H1 4174   4.075   1.958  15.010 -0.0538 -0.9633 -0.3039
  276TMC3    H2 4175   3.950   1.991  15.419  0.0636  0.6934 -0.2982
  276TMC3    C7 4176   4.157   2.018  15.272  0.0399  0.0253 -0.1339
  276TMC3    C8 4177   3.839   1.760  15.438 -0.5389  0.3111  0.2115
  276TMC3    O1 4178   4.159   2.088  15.371  0.0226  0.1430 -0.3496
  276TMC3    O2 4179   3.811   1.830  15.537 -0.0382 -0.6957  0.2925
  277MPD2     C 4180   1.190   0.287  13.261 -0.0525  0.7631 -0.5211
  277MPD2    C1 4181   1.075   0.323  13.310 -0.4954 -0.4982  0.6868
  277MPD2    C2 4182   1.015   0.252  13.413 -0.0929  0.2811  0.1861
  277MPD2    C3 4183   1.069   0.131  13.449 -0.0224 -0.3487  0.3058
  277MPD2    C4 4184   1.174   0.081  13.379 -0.1454 -0.4581  0.2629
  277MPD2    C5 4185   1.239   0.164  13.291  0.0508  0.0167 -0.1376
  277MPD2     H 4186   0.925   0.285  13.463 -0.4135 -1.7274  0.9162
  277MPD2    H1 4187   1.213   4.706  13.397  1.4526  0.3216  1.1437
  277MPD2    H2 4188   1.232   0.333  13.172  1.1155  1.6798  0.4974
  277MPD2    H3 4189   1.325   0.131  13.235 -0.1445  1.4615 -1.2988
  277MPD2     N 4190   1.000   0.055  13.543 -0.3186  0.6578  0.0867
  277MPD2    H5 4191   0.923   0.101  13.590  0.5436  0.9474  1.2200
  277MPD2    N1 4192   1.012   0.434  13.257  0.4167  0.4830  0.4463
  277MPD2    H7 4193   1.051   0.466  13.169 -0.8632 -0.6999 -0.5512
  278TMC3    C1 4194   0.944   4.594  13.681  0.5107  0.3160 -0.5542
  278TMC3    C2 4195   0.917   4.457  13.680  0.0265  0.9990  0.5885
  278TMC3    C3 4196   0.827   4.406  13.767  0.0446  0.0162 -0.2473
  278TMC3    C4 4197   0.903   4.667  13.787 -0.4780 -0.3431  0.1940
  278TMC3    C5 4198   0.817   4.614  13.880 -0.0017 -0.2234 -0.5522
  278TMC3    C6 4199   0.779   4.481  13.869 -0.9710 -0.0561  0.2534
  278TMC3     C 4200   1.024   4.649  13.576  0.1257  0.1274  0.6403
  278TMC3     O 4201   1.076   4.566  13.505 -0.2967 -0.1640  0.1731
  278TMC3     H 4202   0.949   4.398  13.596 -2.7998  0.4529 -0.1185
  278TMC3    H1 4203   0.926   0.048  13.794 -1.4279 -0.1080 -0.2758
  278TMC3    H2 4204   0.699   4.441  13.930 -0.5877 -1.3217 -0.0798
  278TMC3    C7 4205   0.760   4.708  13.976  0.0144  0.1627 -0.0904
  278TMC3    C8 4206   0.732   4.311  13.711 -0.4039 -0.4986 -0.6224
  278TMC3    O1 4207   0.830   0.080  14.000  0.3900  0.2037  0.1677
  278TMC3    O2 4208   0.741   4.305  13.590  0.4075 -0.1350  0.3927
  279MPD2     C 4209   4.720   4.663   0.851  0.5590 -0.5537 -0.1282
  279MPD2    C1 4210   4.716   0.071   0.812 -0.6474 -0.0628 -0.2239
  279MPD2    C2 4211   0.105   0.131   0.758  0.8609 -0.1583 -0.4324
  279MPD2    C3 4212   0.209   0.054   0.716  0.7555  0.9204 -0.0695
  279MPD2    C4 4213   0.216   4.651   0.764 -0.2546 -0.1847 -0.3972
  279MPD2    C5 4214   0.115   4.595   0.831 -0.2539 -0.6458 -0.4158
  279MPD2     H 4215   0.106   0.235   0.726 -0.7359 -0.2423 -0.7684
  279MPD2    H1 4216   0.301   4.588   0.739 -0.0988  0.1175 -0.6374
  279MPD2    H2 4217   4.635   4.620   0.903 -0.4736 -0.5126 -1.7471
  279MPD2    H3 4218   0.118   4.490   0.856 -1.4064 -0.9741 -1.6523
  279MPD2     N 4219   0.304   0.091   0.613 -0.1522  0.1071 -0.0409
  279MPD2    H5 4220   0.376   0.024   0.590 -0.1551 -0.6374  2.0554
  279MPD2    N1 4221   4.590   0.129   0.819 -0.5053 -0.1993 -0.1320
  279MPD2    H7 4222   4.509   0.068   0.816 -0.1027 -0.7459  0.1355
  280TMC3    C1 4223   4.456   0.270   0.662 -0.1586 -0.3483 -0.8285
  280TMC3    C2 4224   4.454   0.167   0.561 -0.1689 -0.1986  0.3966
  280TMC3    C3 4225   4.392   0.189   0.439  0.5828  0.3998 -0.4817
  280TMC3    C4 4226   4.409   0.395   0.633  0.2681  0.5738 -0.2130
  280TMC3    C5 4227   4.356   0.418   0.507  0.0895 -0.6649  0.1697
  280TMC3    C6 4228   4.337   0.310   0.415  0.2235  0.8403 -0.7189
  280TMC3     C 4229   4.568   0.255   0.763 -1.0041 -0.6388  0.0748
  280TMC3     O 4230   4.642   0.351   0.780 -0.1057 -0.4017  0.1611
  280TMC3     H 4231   4.503   0.071   0.578 -0.9468 -0.5695  0.5347
  280TMC3    H1 4232   4.429   0.476   0.703  0.8309 -0.4655  0.8423
  280TMC3    H2 4233   4.272   0.322   0.329 -0.7949  3.5809  0.4188
  280TMC3    C7 4234   4.343   0.555   0.470 -0.5623  0.0391  0.2475
  280TMC3    C8 4235   4.354   0.080   0.350 -0.3086 -0.1351  0.5148
  280TMC3    O1 4236   4.414   0.636   0.519 -0.0964 -0.0804 -0.0857
  280TMC3    O2 4237   4.268   0.099   0.266 -0.3560 -0.1038  0.3866
  281TMC3    C1 4238   3.996   0.897  13.162  0.3328  0.1884 -0.6422
  281TMC3    C2 4239   3.976   0.973  13.049  0.1393  0.2112  0.2126
  281TMC3    C3 4240   4.017   0.912  12.933 -0.3212  0.2484 -0.3630
  281TMC3    C4 4241   4.048   0.772  13.168 -0.0775 -1.1392  0.3779
  281TMC3    C5 4242   4.066   0.706  13.049 -0.2219 -0.2261 -0.1048
  281TMC3    C6 4243   4.062   0.780  12.931  0.8639 -0.3226  0.5542
  281TMC3     C 4244   3.920   0.918  13.278  0.5450 -0.3178  0.3741
  281TMC3     O 4245   3.965   0.888  13.388 -1.1155  0.7474 -0.3998
  281TMC3     H 4246   3.939   1.075  13.054 -1.5188 -0.4598  1.5537
  281TMC3    H1 4247   4.070   0.726  13.264 -0.3565 -2.0623  0.0060
  281TMC3    H2 4248   4.085   0.732  12.837 -4.1316 -1.8211  0.0880
  281TMC3    C7 4249   4.126   0.577  13.049  0.0645  0.1374 -0.7108
  281TMC3    C8 4250   3.929   0.943  12.826 -0.3818 -0.2029  1.1282
  281TMC3    O1 4251   4.190   0.541  12.948 -0.5170  0.6781  0.2350
  281TMC3    O2 4252   3.858   0.853  12.788 -0.4064  0.0312 -0.0791
  282MPD2     C 4253   0.823   2.105  15.354  0.1465  0.6148 -0.7406
  282MPD2    C1 4254   0.724   2.201  15.368  0.2679  0.4363  0.0535
  282MPD2    C2 4255   0.635   2.223  15.258  0.3343  0.1634 -0.4453
  282MPD2    C3 4256   0.653   2.150  15.136 -0.3596 -0.7292  0.3259
  282MPD2    C4 4257   0.768   2.071  15.128  0.6010  0.5275  0.2130
  282MPD2    C5 4258   0.844   2.039  15.236 -0.2468  0.2562  1.3191
  282MPD2     H 4259   0.552   2.292  15.270  0.3785  0.0767  0.3370
  282MPD2    H1 4260   0.798   2.014  15.041 -0.2798  1.9514 -1.0363
  282MPD2    H2 4261   0.887   2.084  15.439 -0.2661 -0.7953 -0.7797
  282MPD2    H3 4262   0.920   1.964  15.215  0.4417  1.9501 -2.3004
  282MPD2     N 4263   0.562   2.162  15.023  0.3957 -0.4032  0.1282
  282MPD2    H5 4264   0.475   2.215  15.032  1.4718  1.0833  1.6738
  282MPD2    N1 4265   0.698   2.251  15.498 -0.6484  0.0314  0.1697
  282MPD2    H7 4266   0.621   2.316  15.510 -0.8668  0.2049 -2.0953
  283TMC3    C1 4267   0.678   2.270  15.727  0.0245 -0.5076 -0.0862
  283TMC3    C2 4268   0.658   2.407  15.727 -0.1530  0.4827  0.5043
  283TMC3    C3 4269   0.608   2.459  15.849  0.0493 -0.0961  0.2511
  283TMC3    C4 4270   0.643   2.189  15.832 -0.2453  0.2739 -0.2582
  283TMC3    C5 4271   0.575   2.245  15.935  0.6178 -0.1744 -0.2420
  283TMC3    C6 4272   0.558   2.377  15.949 -0.2130 -0.4052  0.1753
  283TMC3     C 4273   0.740   2.206  15.616 -0.8582 -0.0034  0.6447
  283TMC3     O 4274   0.831   2.124  15.641  0.2388  0.4654 -0.1826
  283TMC3     H 4275   0.693   2.468  15.645 -1.1391 -0.1130 -0.3637
  283TMC3    H1 4276   0.669   2.083  15.837 -0.4100  0.2243 -0.4636
  283TMC3    H2 4277   0.512   2.411  16.041 -0.3731 -0.3702  0.0814
  283TMC3    C7 4278   0.498   2.168  16.035 -0.1994 -0.8941  0.4670
  283TMC3    C8 4279   0.614   2.601  15.877  0.6285 -0.2225 -0.6113
  283TMC3    O1 4280   0.480   2.214  16.147 -0.6154  0.2244  0.3809
  283TMC3    O2 4281   0.583   2.650  15.989  0.2743 -0.1215  0.2765
  284MPD2     C 4282   3.700   1.584  11.748  1.0874  0.0278  0.2607
  284MPD2    C1 4283   3.787   1.545  11.651  0.2833  0.0353  0.1442
  284MPD2    C2 4284   3.781   1.413  11.607  0.7566 -0.6145 -0.2469
  284MPD2    C3 4285   3.704   1.322  11.668  0.6259 -0.4135 -0.2819
  284MPD2    C4 4286   3.627   1.358  11.767  0.4035  0.1434 -0.2066
  284MPD2    C5 4287   3.624   1.487  11.810 -0.4313  0.5016  0.0958
  284MPD2     H 4288   3.849   1.377  11.530 -0.2729 -2.4949 -0.2746
  284MPD2    H1 4289   3.574   1.285  11.827 -0.9782  0.7882 -0.6414
  284MPD2    H2 4290   3.698   1.685  11.786  0.3901  0.2748 -0.4347
  284MPD2    H3 4291   3.568   1.520  11.896  0.0139  0.3294  0.4542
  284MPD2     N 4292   3.702   1.180  11.633  0.2757 -0.5761 -0.9351
  284MPD2    H5 4293   3.645   1.120  11.691  1.0638 -1.2940 -0.8936
  284MPD2    N1 4294   3.897   1.620  11.602 -0.0126 -0.6047 -0.1889
  284MPD2    H7 4295   3.971   1.588  11.540 -0.5791 -0.9401 -0.6906
  285TMC3    C1 4296   4.011   1.799  11.517 -0.4369 -0.5323  0.1428
  285TMC3    C2 4297   4.076   1.712  11.432 -0.1501  0.2323 -0.2075
  285TMC3    C3 4298   4.198   1.741  11.384 -0.2445  0.7875  0.2184
  285TMC3    C4 4299   4.080   1.914  11.558  0.0350 -0.4668 -0.3082
  285TMC3    C5 4300   4.207   1.939  11.504  0.3918 -0.4474  0.3222
  285TMC3    C6 4301   4.268   1.854  11.412  0.7278  0.1669  0.0353
  285TMC3     C 4302   3.905   1.755  11.612 -0.0492  0.4948  0.2013
  285TMC3     O 4303   3.846   1.844  11.675 -0.5082  0.2405  0.0873
  285TMC3     H 4304   4.019   1.627  11.395  1.9588 -0.2344 -2.3615
  285TMC3    H1 4305   4.020   1.988  11.610  0.5023  0.2262 -0.7389
  285TMC3    H2 4306   4.350   1.893  11.352  0.3508 -1.2518 -1.4047
  285TMC3    C7 4307   4.304   2.036  11.558  0.8437 -0.0754 -0.5872
  285TMC3    C8 4308   4.252   1.633  11.305 -0.1668  0.3112  0.2650
  285TMC3    O1 4309   4.404   2.056  11.490 -0.0687  0.2325 -0.3382
  285TMC3    O2 4310   4.178   1.557  11.247 -0.8252  0.0002  0.1134
  286MPD2     C 4311   4.095   0.464   1.974 -0.6940  0.1863 -0.1274
  286MPD2    C1 4312   4.001   0.408   1.896  0.8601 -0.8482  0.3209
  286MPD2    C2 4313   4.034   0.313   1.804 -0.3447  0.1795  0.5761
  286MPD2    C3 4314   4.170   0.279   1.784  0.3192 -0.2779 -0.1556
  286MPD2    C4 4315   4.264   0.336   1.869  0.1782 -0.7155  0.4097
  286MPD2    C5 4316   4.225   0.424   1.958  0.1336 -0.4067  0.1389
  286MPD2     H 4317   3.958   0.285   1.732 -0.3306  2.3809 -0.2806
  286MPD2    H1 4318   4.369   0.310   1.861 -0.2017 -2.3748  0.7420
  286MPD2    H2 4319   4.075   0.537   2.052 -1.5599  0.2722 -0.4201
  286MPD2    H3 4320   4.299   0.477   2.016 -0.6304  0.2447  0.5219
  286MPD2     N 4321   4.224   0.205   1.673 -0.3467 -0.2994 -0.4374
  286MPD2    H5 4322   4.324   0.193   1.680 -0.2538  0.8151  0.1593
  286MPD2    N1 4323   3.870   0.447   1.892 -0.1088 -0.2644  0.1200
  286MPD2    H7 4324   3.823   0.422   1.806 -3.2005  1.9448  1.1750
  287TMC3    C1 4325   4.231   0.070   1.476 -0.5343 -0.3406  0.7732
  287TMC3    C2 4326   4.164   0.004   1.379 -0.0399 -0.6611  0.1257
  287TMC3    C3 4327   4.234   4.628   1.306  0.2356  0.5468  0.3752
  287TMC3    C4 4328   4.364   0.048   1.506  0.5639 -0.5063  0.1737
  287TMC3    C5 4329   4.421   4.682   1.427  0.5650  0.0057  0.1654
  287TMC3    C6 4330   4.366   4.605   1.327  0.2431  0.1829 -0.2811
  287TMC3     C 4331   4.149   0.153   1.568  0.1525 -0.2521  0.4069
  287TMC3     O 4332   4.031   0.176   1.540  0.3992 -0.0469  0.0296
  287TMC3     H 4333   4.057   0.016   1.363  0.5585  3.3932 -0.7053
  287TMC3    H1 4334   4.424   0.108   1.573 -0.5964 -0.9809  1.6633
  287TMC3    H2 4335   4.411   4.511   1.297  0.9004  0.5708 -0.5036
  287TMC3    C7 4336   4.559   4.665   1.443  0.2714  0.0048  1.1691
  287TMC3    C8 4337   4.184   4.563   1.182  0.3951 -0.4510  0.5018
  287TMC3    O1 4338   4.609   4.696   1.548  0.3696  1.0811  0.4849
  287TMC3    O2 4339   4.254   4.472   1.130  0.5898 -0.1267 -0.1478
  288TMC3    C1 4340   1.374   4.616  14.512  0.9835 -0.2699  0.1971
  288TMC3    C2 4341   1.281   4.620  14.616 -0.0407 -0.4376  0.0474
  288TMC3    C3 4342   1.151   4.610  14.571  0.3149 -0.5326 -0.8561
  288TMC3    C4 4343   1.347   4.579  14.385 -0.6520  0.4747 -0.2999
  288TMC3    C5 4344   1.215   4.558  14.361 -0.2160 -0.5483 -0.4201
  288TMC3    C6 4345   1.112   4.566  14.446 -0.0322 -0.3315 -0.1038
  288TMC3     C 4346   1.502   4.597  14.563 -0.3245 -0.0170  0.4341
  288TMC3     O 4347   1.520   4.536  14.670  0.0290 -0.3940 -0.0740
  288TMC3     H 4348   1.302   4.643  14.720  1.4329  0.9383 -0.5578
  288TMC3    H1 4349   1.432   4.544  14.328 -2.8216 -2.5233 -1.7483
  288TMC3    H2 4350   1.011   4.580  14.408 -1.5173  0.0100  3.9501
  288TMC3    C7 4351   1.165   4.542  14.233  0.4833  0.1308  0.3133
  288TMC3    C8 4352   1.053   4.640  14.668 -0.6373 -0.2670 -0.1239
  288TMC3    O1 4353   1.059   4.487  14.214  0.4514 -0.4050 -0.1125
  288TMC3    O2 4354   1.073   0.014  14.739 -0.2087  0.0246 -0.2569
  289MPD2     C 4355   0.910   3.992  14.246  0.3630 -0.2490  0.2533
  289MPD2    C1 4356   0.819   3.932  14.167 -0.3258 -0.4892  1.0223
  289MPD2    C2 4357   0.700   3.881  14.228 -0.3888 -0.1790  0.1323
  289MPD2    C3 4358   0.685   3.895  14.367  1.0666  0.7085 -0.4302
  289MPD2    C4 4359   0.778   3.969  14.442  0.0962  0.8396 -0.0417
  289MPD2    C5 4360   0.886   4.014  14.381 -0.0671  0.3572  0.2731
  289MPD2     H 4361   0.622   3.838  14.166  0.4314 -1.2669 -0.1661
  289MPD2    H1 4362   0.766   3.982  14.549 -1.7097 -0.0198 -0.1449
  289MPD2    H2 4363   0.996   4.037  14.199 -1.4334  1.0767 -1.7695
  289MPD2    H3 4364   0.953   4.082  14.432  2.1204 -1.6568  0.0957
  289MPD2     N 4365   0.567   3.855  14.437 -0.4934 -0.0677 -0.2100
  289MPD2    H5 4366   0.561   3.870  14.538 -1.2054 -0.0489 -0.2510
  289MPD2    N1 4367   0.846   3.928  14.031  0.2055 -0.5257  0.2801
  289MPD2    H7 4368   0.922   3.985  13.996  0.0907  0.2655  1.3434
  290TMC3    C1 4369   0.380   3.739  14.474 -0.1857 -0.7126  0.5301
  290TMC3    C2 4370   0.325   3.850  14.536  0.3890  0.0849 -0.4863
  290TMC3    C3 4371   0.200   3.845  14.592  0.4750  0.5708 -0.0131
  290TMC3    C4 4372   0.303   3.621  14.453 -0.2434 -0.8025  0.2447
  290TMC3    C5 4373   0.177   3.623  14.507  0.4857  0.4061  0.1529
  290TMC3    C6 4374   0.131   3.730  14.579  0.7015 -0.0327  0.0032
  290TMC3     C 4375   0.475   3.771  14.376 -0.4391  0.3363  0.1343
  290TMC3     O 4376   0.476   3.719  14.266 -0.7410  0.0618 -0.4474
  290TMC3     H 4377   0.386   3.939  14.546 -0.6144  0.8377 -1.2178
  290TMC3    H1 4378   0.329   3.554  14.372  0.4953  0.3882 -0.4988
  290TMC3    H2 4379   0.029   3.721  14.616  0.2617  0.3022 -1.1411
  290TMC3    C7 4380   0.098   3.502  14.506 -0.8682  0.0916  0.4071
  290TMC3    C8 4381   0.136   3.960  14.654 -0.0314  0.1548  0.1100
  290TMC3    O1 4382   4.704   3.514  14.496  0.8677  0.0761 -0.1259
  290TMC3    O2 4383   0.049   3.938  14.737 -0.8769  0.0945 -0.0531
  291MPD2     C 4384   4.421   3.281   0.914  0.7198 -0.3776 -0.1158
  291MPD2    C1 4385   4.428   3.182   0.814 -0.1307  0.0678 -0.7097
  291MPD2    C2 4386   4.525   3.177   0.722  0.3579  0.0403 -0.3811
  291MPD2    C3 4387   4.625   3.275   0.722 -0.0071 -0.3706 -0.2453
  291MPD2    C4 4388   4.613   3.383   0.816  0.5832  0.3271  0.2444
  291MPD2    C5 4389   4.512   3.381   0.908 -0.2635 -0.1343  0.3146
  291MPD2     H 4390   4.531   3.098   0.648  3.0916 -1.1942  1.1944
  291MPD2    H1 4391   4.699   3.450   0.817 -0.9249  2.2586 -0.0537
  291MPD2    H2 4392   4.352   3.290   0.997  1.6230  1.8754  0.4034
  291MPD2    H3 4393   4.516   3.449   0.993  0.7668  0.1248  0.0622
  291MPD2     N 4394   4.717   3.298   0.615  0.5794  0.3620 -0.5613
  291MPD2    H5 4395   0.064   3.367   0.635  0.8985  0.3641 -1.7536
  291MPD2    N1 4396   4.338   3.075   0.810  0.1842 -0.0953 -0.2463
  291MPD2    H7 4397   4.365   3.007   0.741 -4.0894 -1.5813 -0.4378
  292TMC3    C1 4398   4.168   2.927   0.875  0.6298  0.0825  0.3736
  292TMC3    C2 4399   4.067   2.897   0.960 -0.4340 -0.2883 -0.6577
  292TMC3    C3 4400   3.988   2.785   0.939  0.2371 -0.2516 -0.3706
  292TMC3    C4 4401   4.191   2.854   0.758 -0.8087  0.0492 -0.3262
  292TMC3    C5 4402   4.111   2.737   0.743  0.1862  0.4661  0.3585
  292TMC3    C6 4403   4.016   2.703   0.831  0.4354  0.0445  0.1577
  292TMC3     C 4404   4.229   3.059   0.894 -0.1437 -0.3567 -0.5981
  292TMC3     O 4405   4.194   3.127   0.992 -0.4747  0.1257 -0.6305
  292TMC3     H 4406   4.044   2.957   1.047  0.9261 -0.0029 -0.4923
  292TMC3    H1 4407   4.253   2.898   0.681  0.1952  0.7944  0.8977
  292TMC3    H2 4408   3.968   2.606   0.828  0.1291  0.2173 -0.6344
  292TMC3    C7 4409   4.112   2.666   0.620  0.6350  0.3185  0.6534
  292TMC3    C8 4410   3.875   2.743   1.022  0.0382 -0.3118  0.8791
  292TMC3    O1 4411   4.217   2.658   0.559 -0.2947  0.1807  0.0792
  292TMC3    O2 4412   3.794   2.663   0.982 -0.0340  0.1159 -0.0443
  293MPD2     C 4413   2.380   4.632  12.945 -0.0141  0.0136 -0.1451
  293MPD2    C1 4414   2.260   4.689  12.973  0.6897 -0.6660 -0.6756
  293MPD2    C2 4415   2.242   0.033  13.095  0.0448 -0.3991  0.7539
  293MPD2    C3 4416   2.340   0.030  13.198 -0.2904 -0.2059 -0.5762
  293MPD2    C4 4417   2.454   4.686  13.168  0.2622  0.2151  0.2468
  293MPD2    C5 4418   2.475   4.631  13.043  0.0580  0.1764 -0.1716
  293MPD2     H 4419   2.144   0.072  13.118 -0.0169 -0.2790  0.2788
  293MPD2    H1 4420   2.535   4.681  13.238  0.9405  1.4747 -0.4419
  293MPD2    H2 4421   2.400   4.566  12.862 -2.3689 -1.9926  0.9154
  293MPD2    H3 4422   2.574   4.589  13.028  0.2956  1.4240 -2.1077
  293MPD2     N 4423   2.315   0.093  13.321  0.1745 -0.2790  0.3930
  293MPD2    H5 4424   2.232   0.149  13.333  0.9800  1.0780 -0.3936
  293MPD2    N1 4425   2.161   4.685  12.874  0.0457 -0.2531  0.1686
  293MPD2    H7 4426   2.190   4.665  12.779  0.1098 -1.7029  0.4804
  294TMC3    C1 4427   1.943   4.666  12.781  0.3839 -0.4196 -0.6353
  294TMC3    C2 4428   1.997   4.628  12.660  0.0517  0.0267  0.7013
  294TMC3    C3 4429   1.912   4.612  12.550  0.0519  0.0375 -0.0043
  294TMC3    C4 4430   1.816   4.712  12.783  0.0892 -0.0771  0.1064
  294TMC3    C5 4431   1.748   4.719  12.662  0.0963 -0.4249 -0.2303
  294TMC3    C6 4432   1.787   4.664  12.554 -0.3855 -0.8274 -0.2174
  294TMC3     C 4433   2.025   4.689  12.901 -0.4512 -0.3692 -0.0928
  294TMC3     O 4434   1.963   4.691  13.003  0.1099 -0.1188  0.2398
  294TMC3     H 4435   2.095   4.584  12.656  0.0125 -0.1335  1.5011
  294TMC3    H1 4436   1.771   0.030  12.872  1.7956 -1.5384  1.6911
  294TMC3    H2 4437   1.721   4.666  12.469  0.6531  1.8327 -0.9874
  294TMC3    C7 4438   1.630   0.080  12.659  0.5879  0.1757 -0.0842
  294TMC3    C8 4439   1.983   4.619  12.419  0.4698  0.1393  0.2081
  294TMC3    O1 4440   1.573   0.104  12.764 -0.5113  0.1179  0.7922
  294TMC3    O2 4441   2.089   4.675  12.422  0.1372  0.3052 -0.8208
  295MPD2     C 4442   1.618   3.181   0.466  0.2665  0.1847 -0.1120
  295MPD2    C1 4443   1.674   3.301   0.423  0.3731 -0.3299  0.1042
  295MPD2    C2 4444   1.619   3.421   0.462 -0.2849 -0.0711  0.4456
  295MPD2    C3 4445   1.508   3.425   0.541 -0.0236 -0.0838 -0.3888
  295MPD2    C4 4446   1.445   3.301   0.571 -0.1745  0.2377  0.4788
  295MPD2    C5 4447   1.503   3.183   0.533  0.3624  0.5706  0.2032
  295MPD2     H 4448   1.675   3.513   0.443  0.1281 -0.7216 -1.4877
  295MPD2    H1 4449   1.350   3.290   0.621 -1.4788  1.5222 -1.7236
  295MPD2    H2 4450   1.674   3.090   0.449  2.8382  1.7812 -0.1660
  295MPD2    H3 4451   1.444   3.096   0.557 -0.0922  0.5668 -0.9027
  295MPD2     N 4452   1.447   3.550   0.583  0.9113  0.7285  0.1173
  295MPD2    H5 4453   1.367   3.545   0.645  0.2425 -0.9586 -0.8569
  295MPD2    N1 4454   1.793   3.316   0.341  0.8214  0.0358  0.3344
  295MPD2    H7 4455   1.795   3.412   0.308 -1.2033 -0.1808 -0.4521
  296TMC3    C1 4456   1.414   3.788   0.594 -0.0009  0.0666  0.1973
  296TMC3    C2 4457   1.418   3.908   0.529  0.5157  0.0941 -0.1790
  296TMC3    C3 4458   1.370   4.014   0.600  0.2831  0.1039  0.6483
  296TMC3    C4 4459   1.350   3.767   0.718 -0.1863 -0.3139 -0.6222
  296TMC3    C5 4460   1.306   3.880   0.780  0.1237  0.7443 -0.0772
  296TMC3    C6 4461   1.310   4.010   0.726 -0.8273  0.6583  0.1527
  296TMC3     C 4462   1.482   3.674   0.525  0.3642  0.2005  0.5518
  296TMC3     O 4463   1.565   3.701   0.436 -0.1306 -0.5876 -0.2375
  296TMC3     H 4464   1.474   3.923   0.438 -0.1705  1.2768 -0.4014
  296TMC3    H1 4465   1.366   3.680   0.781  4.9798  0.2559 -1.1695
  296TMC3    H2 4466   1.259   4.096   0.770 -0.7238  0.9443 -0.2881
  296TMC3    C7 4467   1.234   3.875   0.904  0.1946  0.3962  0.0441
  296TMC3    C8 4468   1.393   4.142   0.539  0.0502  0.5001 -0.5231
  296TMC3    O1 4469   1.143   3.957   0.914 -0.9909  0.0677 -0.0362
  296TMC3    O2 4470   1.398   4.141   0.418 -0.4254  0.4405  0.2399
  297MPD2     C 4471   4.144   0.919  16.680 -0.2389  0.3849  0.0021
  297MPD2    C1 4472   4.223   0.920  16.563  0.0325 -0.2316  0.0691
  297MPD2    C2 4473   4.343   0.988  16.567  0.6324  0.3780  0.0903
  297MPD2    C3 4474   4.392   1.052  16.682  0.0430  0.2638  0.3983
  297MPD2    C4 4475   4.313   1.049  16.798 -0.3136  0.3451 -0.4683
  297MPD2    C5 4476   4.185   0.987  16.787  0.2758  0.2232 -0.3546
  297MPD2     H 4477   4.415   0.986  16.486 -2.1348  1.2816 -2.3785
  297MPD2    H1 4478   4.335   1.110  16.885  0.8388  0.4646 -0.8555
  297MPD2    H2 4479   4.053   0.862  16.690  1.1570 -1.5206  1.7492
  297MPD2    H3 4480   4.128   0.998  16.878 -2.9833  2.3629 -2.6357
  297MPD2     N 4481   4.516   1.124  16.667 -0.4812  0.0527  0.1253
  297MPD2    H5 4482   4.560   1.129  16.576  2.0224  0.4933  1.3638
  297MPD2    N1 4483   4.161   0.878  16.441  0.0422  0.2033 -0.0103
  297MPD2    H7 4484   4.068   0.839  16.456 -1.1530  2.0647 -2.4720
  298TMC3    C1 4485   4.103   0.902  16.221 -0.6561  0.4402 -0.3302
  298TMC3    C2 4486   4.139   0.897  16.091 -0.3661 -0.0860  0.2237
  298TMC3    C3 4487   4.041   0.913  15.994 -0.8132 -0.5257 -0.6169
  298TMC3    C4 4488   3.970   0.927  16.257 -0.1202 -0.2407 -0.4352
  298TMC3    C5 4489   3.877   0.947  16.162  0.3742  0.6598  0.3318
  298TMC3    C6 4490   3.907   0.938  16.030  0.5999 -1.4603 -1.1302
  298TMC3     C 4491   4.210   0.903  16.317 -0.0669 -0.3496  0.1363
  298TMC3     O 4492   4.321   0.939  16.273 -0.1707  0.1688 -0.4794
  298TMC3     H 4493   4.241   0.880  16.057 -0.6261 -0.5275 -0.3325
  298TMC3    H1 4494   3.943   0.936  16.361  1.4975  0.8316 -0.1204
  298TMC3    H2 4495   3.833   0.947  15.951  0.2458 -2.8422 -0.9572
  298TMC3    C7 4496   3.762   1.026  16.196  0.1228 -0.4391  0.3078
  298TMC3    C8 4497   4.078   0.942  15.855 -0.5708  0.4479 -0.5990
  298TMC3    O1 4498   3.704   1.006  16.307  0.2719 -0.2875 -0.3132
  298TMC3    O2 4499   3.983   0.949  15.774  0.0258  0.5564  0.6797
  299MPD2     C 4500   0.443   0.718  10.880 -0.4378 -0.3776  0.1538
  299MPD2    C1 4501   0.552   0.772  10.819  0.1889  0.2524 -0.5214
  299MPD2    C2 4502   0.555   0.766  10.682  0.2616 -0.0660  0.0437
  299MPD2    C3 4503   0.447   0.708  10.609 -0.5296 -1.2701 -0.6129
  299MPD2    C4 4504   0.332   0.664  10.675 -0.0281 -0.6524 -0.2081
  299MPD2    C5 4505   0.333   0.672  10.813 -0.3979 -0.1310  0.7506
  299MPD2     H 4506   0.649   0.789  10.633  1.9915 -2.0852  2.3821
  299MPD2    H1 4507   0.242   0.630  10.625 -0.3778  1.5997 -1.1260
  299MPD2    H2 4508   0.446   0.719  10.988 -0.6009 -0.4685  0.1593
  299MPD2    H3 4509   0.255   0.630  10.875 -0.5288 -0.3840  0.4116
  299MPD2     N 4510   0.450   0.694  10.469  1.0892  0.6043  0.2453
  299MPD2    H5 4511   0.403   0.615  10.425 -0.7107  2.3114 -0.9137
  299MPD2    N1 4512   0.651   0.821  10.905  0.7099  0.4875 -0.2082
  299MPD2    H7 4513   0.650   0.800  11.005 -1.0566 -0.7603 -0.4915
  300TMC3    C1 4514   0.494   0.768  10.248  0.4392 -0.2527  0.5066
  300TMC3    C2 4515   0.476   0.902  10.215  0.6185  0.6445 -0.2460
  300TMC3    C3 4516   0.351   0.937  10.170  0.5431 -0.2102  0.0385
  300TMC3    C4 4517   0.384   0.682  10.226 -0.0127  0.5045  0.1476
  300TMC3    C5 4518   0.260   0.721  10.180 -0.1735 -0.8129 -0.2111
  300TMC3    C6 4519   0.241   0.851  10.150  0.4559 -0.3592  0.3606
  300TMC3     C 4520   0.535   0.765  10.390 -0.7813 -0.6707 -0.0248
  300TMC3     O 4521   0.599   0.860  10.417  0.2203 -0.1044 -0.7161
  300TMC3     H 4522   0.552   0.979  10.221  0.9388  0.3229 -0.1740
  300TMC3    H1 4523   0.398   0.578  10.254 -0.1756  0.8221  1.4359
  300TMC3    H2 4524   0.145   0.900  10.138  0.1250 -0.8850  0.8250
  300TMC3    C7 4525   0.155   0.645  10.244  0.0078  0.1723 -0.2667
  300TMC3    C8 4526   0.319   1.083  10.154 -0.5066 -0.1140 -0.2522
  300TMC3    O1 4527   0.172   0.526  10.248  0.7920 -0.0452 -0.2207
  300TMC3    O2 4528   0.221   1.119  10.089  0.1487  0.3806 -0.5861
  301MPD2     C 4529   1.330   2.188   1.781  0.2833  0.7249 -0.2101
  301MPD2    C1 4530   1.298   2.145   1.653  0.0936 -0.2622  0.0852
  301MPD2    C2 4531   1.403   2.094   1.581  0.4958 -0.1526 -0.4190
  301MPD2    C3 4532   1.530   2.074   1.631  0.5776 -0.5974 -0.0352
  301MPD2    C4 4533   1.551   2.109   1.758  0.0813  0.5196 -0.1247
  301MPD2    C5 4534   1.452   2.170   1.832  0.1242 -0.6640  0.0570
  301MPD2     H 4535   1.387   2.062   1.478  0.3630  0.3316 -0.5491
  301MPD2    H1 4536   1.637   2.088   1.819 -0.4688 -0.2584  0.3728
  301MPD2    H2 4537   1.258   2.221   1.855  1.3846 -0.6392  1.4830
  301MPD2    H3 4538   1.470   2.185   1.938  0.3876  0.8586 -0.2117
  301MPD2     N 4539   1.641   2.019   1.560  1.0132 -0.1068 -0.4485
  301MPD2    H5 4540   1.725   2.009   1.616  0.3891  0.0176  0.5117
  301MPD2    N1 4541   1.172   2.159   1.591 -0.0519 -0.0550 -0.5736
  301MPD2    H7 4542   1.167   2.115   1.499  0.2777 -0.3157 -0.4649
  302TMC3    C1 4543   1.769   1.933   1.376  0.1137  0.8865 -0.2030
  302TMC3    C2 4544   1.879   1.935   1.457  0.0288 -0.1684 -0.1882
  302TMC3    C3 4545   1.983   1.857   1.425 -0.1590 -0.4360 -0.3165
  302TMC3    C4 4546   1.758   1.857   1.264 -0.6027  0.2710  0.5413
  302TMC3    C5 4547   1.857   1.772   1.243 -0.2163  0.4637 -0.2743
  302TMC3    C6 4548   1.976   1.777   1.314 -0.0250 -0.3000 -0.2836
  302TMC3     C 4549   1.642   1.979   1.429  0.0567  0.7446 -0.6417
  302TMC3     O 4550   1.546   1.969   1.352  0.2883  0.0090 -0.1488
  302TMC3     H 4551   1.896   2.011   1.533 -0.7199  0.6747 -0.8655
  302TMC3    H1 4552   1.683   1.880   1.190  1.1183  0.2046 -1.2033
  302TMC3    H2 4553   2.052   1.712   1.273  2.2547  1.4125  1.1991
  302TMC3    C7 4554   1.863   1.713   1.105  0.7864 -0.6550  0.3458
  302TMC3    C8 4555   2.109   1.892   1.481  0.4320  0.3662  0.3692
  302TMC3    O1 4556   1.972   1.707   1.048  0.0581  0.1330  0.2676
  302TMC3    O2 4557   2.122   2.004   1.533  0.5198 -0.1135  0.1593
  303MPD2     C 4558   3.787   0.956  10.157 -0.3333  0.0501  0.1401
  303MPD2    C1 4559   3.763   0.863  10.056  0.2462 -0.1082 -0.5749
  303MPD2    C2 4560   3.665   0.890   9.967 -0.0065  0.1988  0.2730
  303MPD2    C3 4561   3.590   1.007   9.971  0.1588  0.0141 -0.7890
  303MPD2    C4 4562   3.624   1.101  10.066 -0.9072 -0.1012  0.4163
  303MPD2    C5 4563   3.714   1.072  10.162 -0.3290 -0.0198  0.4261
  303MPD2     H 4564   3.642   0.810   9.897 -1.5920  0.3040  0.6744
  303MPD2    H1 4565   3.560   1.188  10.068 -2.5684 -1.3029 -0.4623
  303MPD2    H2 4566   3.866   0.933  10.227  0.9538  1.3994 -0.8543
  303MPD2    H3 4567   3.732   1.143  10.241  0.7647  0.7571 -0.5180
  303MPD2     N 4568   3.481   1.037   9.889  1.1662  0.4384 -0.4245
  303MPD2    H5 4569   3.442   1.131   9.890  0.9138  0.3546 -2.2123
  303MPD2    N1 4570   3.844   0.748  10.044  0.2168 -0.0252  0.0996
  303MPD2    H7 4571   3.893   0.719  10.129  1.5931 -1.5365 -1.2109
  304TMC3    C1 4572   3.899   0.543   9.931  0.3049  0.6327  0.7952
  304TMC3    C2 4573   3.843   0.469  10.033  0.2161 -0.1891 -0.1593
  304TMC3    C3 4574   3.855   0.333  10.015 -0.4178  0.6947 -0.0828
  304TMC3    C4 4575   3.972   0.493   9.823  0.0972 -0.2246 -0.6260
  304TMC3    C5 4576   3.989   0.359   9.816  0.6563 -0.4404 -0.4067
  304TMC3    C6 4577   3.936   0.283   9.915  0.3446  0.3824  0.0474
  304TMC3     C 4578   3.856   0.683   9.921 -0.4038  0.6543  0.6421
  304TMC3     O 4579   3.851   0.734   9.808 -0.1384 -0.2028  0.3319
  304TMC3     H 4580   3.763   0.508  10.094  1.5876  1.1594  0.7535
  304TMC3    H1 4581   3.994   0.554   9.736  0.8345 -1.7582 -1.5008
  304TMC3    H2 4582   3.947   0.175   9.912 -1.0605  0.2402  0.0396
  304TMC3    C7 4583   3.960   0.313   9.679  0.5016  0.1735  0.0789
  304TMC3    C8 4584   3.732   0.250  10.027  0.3506 -0.7058 -0.0342
  304TMC3    O1 4585   4.021   0.357   9.583  0.6971  0.2620  0.5247
  304TMC3    O2 4586   3.722   0.181   9.929 -0.5953 -0.3377 -0.1325
  305MPD2     C 4587   0.368   2.023  14.102  0.5736  0.5802 -0.6566
  305MPD2    C1 4588   0.485   1.952  14.116 -0.5479  0.3016  0.5904
  305MPD2    C2 4589   0.519   1.864  14.020 -0.3803  0.4213  0.4147
  305MPD2    C3 4590   0.438   1.848  13.909  0.2919 -0.3359  0.1041
  305MPD2    C4 4591   0.316   1.915  13.903 -0.1868  0.6847  0.0515
  305MPD2    C5 4592   0.286   2.007  13.996  0.5700  0.1521 -0.1039
  305MPD2     H 4593   0.612   1.809  14.030  0.3113  1.6486  0.7235
  305MPD2    H1 4594   0.264   1.912  13.809  2.0490  1.2865 -1.2131
  305MPD2    H2 4595   0.336   2.100  14.171  2.4348  0.6975  0.0578
  305MPD2    H3 4596   0.204   2.077  13.986 -0.4707 -1.0698 -0.1665
  305MPD2     N 4597   0.462   1.752  13.803  0.0347  0.1969  0.2638
  305MPD2    H5 4598   0.398   1.751  13.725  1.7340 -0.7793 -1.1245
  305MPD2    N1 4599   0.564   1.989  14.221  0.8366  0.7541  0.1659
  305MPD2    H7 4600   0.552   2.080  14.263 -0.5196  0.1116  1.1617
  306TMC3    C1 4601   0.705   1.959  14.411  0.5862  0.0525  0.5820
  306TMC3    C2 4602   0.798   1.886  14.478  0.3532 -0.8189 -0.1177
  306TMC3    C3 4603   0.827   1.924  14.605 -0.2600 -0.3724  0.5280
  306TMC3    C4 4604   0.651   2.072  14.470  0.3380  0.3493 -0.5686
  306TMC3    C5 4605   0.691   2.113  14.594  0.4382  0.2700 -0.3537
  306TMC3    C6 4606   0.778   2.034  14.672 -0.2761 -0.1225  0.2507
  306TMC3     C 4607   0.660   1.909  14.284  1.1018  0.1659 -0.5533
  306TMC3     O 4608   0.715   1.807  14.241  0.5405  0.1288  0.1063
  306TMC3     H 4609   0.842   1.798  14.434 -0.4989 -1.9800  1.3529
  306TMC3    H1 4610   0.570   2.128  14.426 -1.4177 -1.2634  0.6445
  306TMC3    H2 4611   0.816   2.053  14.772  0.9952 -1.1828 -0.0520
  306TMC3    C7 4612   0.650   2.244  14.644  0.5841 -0.2479  0.1148
  306TMC3    C8 4613   0.907   1.835  14.684 -0.8249  0.1943  0.1648
  306TMC3    O1 4614   0.548   2.295  14.604  0.7706  0.0021 -0.2759
  306TMC3    O2 4615   1.012   1.793  14.637  0.5859  0.3416 -0.7458
  307MPD2     C 4616   3.072   4.233   0.587 -0.4547  0.9505  0.3493
  307MPD2    C1 4617   3.033   4.371   0.598  0.6210  1.0984 -0.0223
  307MPD2    C2 4618   2.955   4.398   0.709 -0.2905  0.7349 -0.4058
  307MPD2    C3 4619   2.913   4.306   0.796 -0.2806 -0.1797  0.1733
  307MPD2    C4 4620   2.944   4.168   0.768 -0.5981  0.5207 -0.1672
  307MPD2    C5 4621   3.024   4.132   0.665 -0.4187  0.2443  0.2300
  307MPD2     H 4622   2.920   4.499   0.726 -1.8902 -0.3982  3.2089
  307MPD2    H1 4623   2.907   4.081   0.820 -0.5967  0.0417 -0.9692
  307MPD2    H2 4624   3.145   4.210   0.510 -1.5452  0.9991 -0.6971
  307MPD2    H3 4625   3.043   4.025   0.665 -1.1005  0.1196  1.8134
  307MPD2     N 4626   2.826   4.355   0.896 -0.2446  0.9287 -0.5790
  307MPD2    H5 4627   2.804   4.454   0.893 -0.3262  0.8779 -1.7048
  307MPD2    N1 4628   3.088   4.476   0.516  0.4524  0.1502  0.4706
  307MPD2    H7 4629   3.060   4.571   0.539  0.3701  0.1508  0.3712
  308TMC3    C1 4630   2.448   4.469   1.035  0.7960 -0.1976  0.2876
  308TMC3    C2 4631   2.491   4.585   1.090 -0.9631 -0.4307  0.3007
  308TMC3    C3 4632   2.619   4.591   1.124  0.1568 -0.0232  0.8834
  308TMC3    C4 4633   2.529   4.353   1.020  1.0280 -0.5729 -0.9568
  308TMC3    C5 4634   2.660   4.358   1.051 -0.5767 -0.0556  0.0011
  308TMC3    C6 4635   2.704   4.480   1.098  0.6505 -0.1212 -0.2920
  308TMC3     C 4636   2.329   4.454   0.961  0.0887 -0.1108 -0.2867
  308TMC3     O 4637   2.284   4.342   0.956 -0.2407  0.0972  0.5869
  308TMC3     H 4638   2.435   4.677   1.100 -2.2815 -1.2547  0.4104
  308TMC3    H1 4639   2.491   4.262   0.975  1.3135 -0.4739 -1.3944
  308TMC3    H2 4640   2.809   4.484   1.124  0.6932  0.1681 -0.5159
  308TMC3    C7 4641   2.746   4.271   0.974  0.3462 -0.7987  0.3638
  308TMC3    C8 4642   2.682   4.702   1.184  0.5312  0.1492 -0.3980
  308TMC3    O1 4643   2.728   4.148   0.964 -0.4649 -0.3259 -0.7221
  308TMC3    O2 4644   2.747   4.670   1.280 -0.4714 -0.6768 -0.1656
  309MPD2     C 4645   2.331   0.650  17.310 -0.1135  0.3646  0.4687
  309MPD2    C1 4646   2.300   0.749  17.215 -0.5469  0.0804  0.1122
  309MPD2    C2 4647   2.178   0.819  17.227 -0.3838 -0.4340 -0.0499
  309MPD2    C3 4648   2.095   0.801  17.331  0.4224  0.2991 -0.1281
  309MPD2    C4 4649   2.134   0.719  17.430 -0.5124  0.1402  0.3891
  309MPD2    C5 4650   2.249   0.649  17.418 -0.0969  0.0657  0.0947
  309MPD2     H 4651   2.157   0.882  17.141 -3.0305 -0.7563  0.3635
  309MPD2    H1 4652   2.081   0.711  17.524 -1.6934  1.7941 -0.1365
  309MPD2    H2 4653   2.422   0.591  17.306 -1.3861 -1.5688  0.1687
  309MPD2    H3 4654   2.282   0.596  17.507 -0.3325  0.1892  0.2534
  309MPD2     N 4655   1.975   0.863  17.347  0.0667  0.3442  0.4027
  309MPD2    H5 4656   1.915   0.838  17.425  0.1867 -2.4922 -0.4180
  309MPD2    N1 4657   2.384   0.755  17.100  0.0554  0.1535  0.1003
  309MPD2    H7 4658   2.367   0.829  17.033  0.0844  0.0185 -0.0573
  310TMC3    C1 4659   2.570   0.732  16.953 -1.2775  0.4849 -0.1175
  310TMC3    C2 4660   2.501   0.803  16.864 -0.0413 -0.6831 -0.0725
  310TMC3    C3 4661   2.561   0.838  16.743 -0.0350  0.4224 -0.4590
  310TMC3    C4 4662   2.695   0.676  16.925 -0.2889 -0.4266  0.1454
  310TMC3    C5 4663   2.741   0.697  16.796 -0.4553  0.5299  0.4988
  310TMC3    C6 4664   2.672   0.768  16.697 -0.4526 -0.2651 -0.1839
  310TMC3     C 4665   2.504   0.682  17.073  0.7192 -0.4249  0.1418
  310TMC3     O 4666   2.561   0.586  17.124 -0.8035  0.1902  0.4950
  310TMC3     H 4667   2.402   0.842  16.881 -0.8525 -2.7658 -0.0044
  310TMC3    H1 4668   2.737   0.608  16.998  0.4372  0.8435  0.9014
  310TMC3    H2 4669   2.699   0.774  16.593 -0.8167 -0.0573 -0.2658
  310TMC3    C7 4670   2.846   0.611  16.752  0.2029 -0.2357  0.0674
  310TMC3    C8 4671   2.471   0.895  16.646  0.0954  0.4808 -0.2219
  310TMC3    O1 4672   2.834   0.498  16.797  0.3910  0.1748 -0.6896
  310TMC3    O2 4673   2.348   0.880  16.656 -0.3077  0.4820 -0.1685
  311MPD2     C 4674   4.459   1.642  12.834  0.1320 -0.2752  0.2239
  311MPD2    C1 4675   4.444   1.749  12.919  0.0085 -0.2095 -0.2014
  311MPD2    C2 4676   4.323   1.756  12.996 -0.7162 -0.2552  0.7050
  311MPD2    C3 4677   4.225   1.656  12.987 -0.2038  0.1068  0.4441
  311MPD2    C4 4678   4.242   1.560  12.891 -0.2335  0.4131 -0.0810
  311MPD2    C5 4679   4.362   1.554  12.824 -0.5320  0.0948  0.0330
  311MPD2     H 4680   4.308   1.838  13.065  0.2928  1.8960 -1.6134
  311MPD2    H1 4681   4.169   1.482  12.874  0.1421 -0.3960  2.1298
  311MPD2    H2 4682   4.540   1.624  12.764 -0.4895 -0.4475 -0.4583
  311MPD2    H3 4683   4.373   1.487  12.739 -0.2851  0.3297 -0.1196
  311MPD2     N 4684   4.104   1.688  13.056  0.0917  0.2677  0.1029
  311MPD2    H5 4685   4.113   1.766  13.122 -1.0896  1.3244 -0.9974
  311MPD2    N1 4686   4.544   1.834  12.955  0.2413  0.9767  0.1268
  311MPD2    H7 4687   4.518   1.920  13.003  0.0266  2.0095 -1.8223
  312TMC3    C1 4688   3.878   1.674  13.117 -0.4786 -0.4017  0.3548
  312TMC3    C2 4689   3.770   1.668  13.033 -0.8896  0.1527  0.2461
  312TMC3    C3 4690   3.674   1.766  13.042  0.0410  0.3314 -0.5049
  312TMC3    C4 4691   3.888   1.769  13.212 -0.3907 -0.0143 -0.0093
  312TMC3    C5 4692   3.785   1.861  13.226 -0.0038 -1.1929  0.0756
  312TMC3    C6 4693   3.688   1.868  13.132  0.3067  1.0463  0.1441
  312TMC3     C 4694   3.988   1.614  13.052 -0.6721  0.5951 -0.1722
  312TMC3     O 4695   3.962   1.501  13.004 -0.3809  0.1439  0.8738
  312TMC3     H 4696   3.767   1.599  12.949 -0.2963 -1.0379  1.2178
  312TMC3    H1 4697   3.967   1.768  13.287 -1.4591 -0.2924  1.1274
  312TMC3    H2 4698   3.604   1.935  13.143  1.1141  2.0044  0.4475
  312TMC3    C7 4699   3.779   1.937  13.349 -0.4492  0.1847  0.2517
  312TMC3    C8 4700   3.591   1.793  12.922  0.4779  0.4734  0.6550
  312TMC3    O1 4701   3.673   1.994  13.367 -0.2953  0.3859  0.1208
  312TMC3    O2 4702   3.576   1.708  12.838  0.4866 -0.2505  0.3968
  313MPD2     C 4703   4.320   1.886  10.542  0.6929 -0.6230  0.4564
  313MPD2    C1 4704   4.355   1.799  10.646  0.6492 -0.5091  0.3277
  313MPD2    C2 4705   4.488   1.788  10.687  0.4350  0.1146  0.7255
  313MPD2    C3 4706   4.586   1.859  10.616  0.9380 -0.3013  0.2369
  313MPD2    C4 4707   4.547   1.932  10.509 -0.0563 -0.2851 -0.0022
  313MPD2    C5 4708   4.420   1.955  10.473  0.2325  0.1338  0.5959
  313MPD2     H 4709   4.510   1.728  10.775  1.1915 -0.3654  0.2022
  313MPD2    H1 4710   4.627   1.981  10.454 -3.3817  0.3722 -4.2531
  313MPD2    H2 4711   4.219   1.905  10.509  0.9183 -0.8390 -0.3517
  313MPD2    H3 4712   4.383   2.022  10.397 -0.7617 -1.6308 -0.4845
  313MPD2     N 4713   4.724   1.840  10.631 -0.2218 -0.3541 -0.0226
  313MPD2    H5 4714   0.060   1.879  10.561  2.4980 -1.3833  1.7669
  313MPD2    N1 4715   4.264   1.710  10.720 -0.0481  0.5797 -0.8452
  313MPD2    H7 4716   4.303   1.651  10.793  0.2888 -0.0233 -1.5041
  314TMC3    C1 4717   4.056   1.614  10.792 -0.0806  0.0124  0.2784
  314TMC3    C2 4718   4.092   1.619  10.922  0.3674 -0.5176  0.6348
  314TMC3    C3 4719   3.989   1.651  11.014 -0.7076  0.5093 -0.5877
  314TMC3    C4 4720   3.927   1.614  10.750 -0.6418  0.0602 -0.4057
  314TMC3    C5 4721   3.825   1.638  10.840 -0.2814 -0.4382  0.0176
  314TMC3    C6 4722   3.854   1.653  10.970 -0.0298  0.3373  0.3515
  314TMC3     C 4723   4.129   1.711  10.709 -0.4574 -0.3213  0.2182
  314TMC3     O 4724   4.059   1.789  10.644  0.1989 -0.1148  0.4285
  314TMC3     H 4725   4.195   1.634  10.950  0.5286  0.4947 -0.5294
  314TMC3    H1 4726   3.902   1.606  10.645  0.1297 -0.6365 -0.5338
  314TMC3    H2 4727   3.782   1.655  11.051  0.6698  0.0177  0.9843
  314TMC3    C7 4728   3.724   1.727  10.795 -0.5951  0.3354  0.3136
  314TMC3    C8 4729   4.025   1.785  11.059  0.4959 -0.0993 -0.4304
  314TMC3    O1 4730   3.611   1.712  10.832 -0.2201 -0.5479 -0.2735
  314TMC3    O2 4731   4.124   1.837  11.015  0.1170 -0.2416 -0.3264
  315MPD2     C 4732   3.278   0.941   0.314  0.1951 -0.2049 -0.3739
  315MPD2    C1 4733   3.371   0.843   0.333  0.0320  0.0304 -0.2664
  315MPD2    C2 4734   3.458   0.799   0.230 -0.3411  0.9024 -0.2933
  315MPD2    C3 4735   3.434   0.854   0.105  0.5017  0.3967  0.3263
  315MPD2    C4 4736   3.329   0.940   0.084  0.3738 -0.1331 -0.3601
  315MPD2    C5 4737   3.251   0.985   0.187  0.2608  0.7191  0.1852
  315MPD2     H 4738   3.544   0.736   0.250 -2.1626 -1.1539  1.0735
  315MPD2    H1 4739   3.318   0.985  17.687  0.6707  1.1210  0.1746
  315MPD2    H2 4740   3.210   0.975   0.391  1.0120  1.0053 -0.1820
  315MPD2    H3 4741   3.185   1.070   0.175 -0.4519  0.0390 -0.7767
  315MPD2     N 4742   3.524   0.816   0.003 -0.0899  0.1401  0.3558
  315MPD2    H5 4743   3.601   0.755   0.029 -1.9784 -2.7530 -0.8570
  315MPD2    N1 4744   3.408   0.798   0.460 -0.1071  0.1633  0.4270
  315MPD2    H7 4745   3.485   0.732   0.470 -1.1099 -1.0886 -0.2260
  316TMC3    C1 4746   3.658   0.847  17.515  0.5595  0.6233  0.5280
  316TMC3    C2 4747   3.775   0.842  17.589 -0.5803 -0.1161  0.2002
  316TMC3    C3 4748   3.893   0.868  17.525 -0.0706  0.9114  0.3517
  316TMC3    C4 4749   3.667   0.873  17.378 -0.0737  0.0900 -0.0639
  316TMC3    C5 4750   3.790   0.907  17.321 -0.6924 -0.3160 -0.5213
  316TMC3    C6 4751   3.906   0.909  17.394 -0.2073  0.2870  0.4071
  316TMC3     C 4752   3.528   0.861  17.575 -0.0374 -0.6505 -0.1837
  316TMC3     O 4753   3.443   0.917  17.504  0.2792 -0.2691  0.0917
  316TMC3     H 4754   3.758   0.861  17.695 -1.6586 -2.0847  0.3810
  316TMC3    H1 4755   3.580   0.874  17.313  0.4751  0.0088 -0.8007
  316TMC3    H2 4756   4.004   0.935  17.355 -1.3467  2.6668 -0.8669
  316TMC3    C7 4757   3.806   0.927  17.175 -0.1767 -0.8584 -0.1370
  316TMC3    C8 4758   4.011   0.874  17.607  0.3505 -0.6352  0.0469
  316TMC3    O1 4759   3.917   0.906  17.131 -0.0182  0.3747  0.5412
  316TMC3    O2 4760   4.103   0.941  17.560  0.0237  0.5005  0.2057
  317MPD2     C 4761   0.907   3.287  12.164 -0.5483 -0.3753 -0.3812
  317MPD2    C1 4762   0.833   3.240  12.273  0.0255  0.0942  0.0966
  317MPD2    C2 4763   0.887   3.244  12.399  0.3873 -0.2153  0.1084
  317MPD2    C3 4764   1.014   3.312  12.416 -0.3529  0.3749 -0.4459
  317MPD2    C4 4765   1.078   3.361  12.310  0.1545  0.6134  0.5104
  317MPD2    C5 4766   1.029   3.350  12.186 -0.0930  0.1258 -0.0655
  317MPD2     H 4767   0.834   3.203  12.484  2.0362  0.8308  1.6500
  317MPD2    H1 4768   1.177   3.399  12.327  0.6052 -1.0867  1.8003
  317MPD2    H2 4769   0.873   3.296  12.062  1.3813  1.1459 -0.8909
  317MPD2    H3 4770   1.078   3.398  12.102 -1.2480  2.0277  0.3547
  317MPD2     N 4771   1.064   3.333  12.547  0.2302 -0.1133  0.4365
  317MPD2    H5 4772   1.141   3.399  12.542 -0.1687  0.1156 -2.7188
  317MPD2    N1 4773   0.697   3.190  12.262 -0.0257 -0.1296 -0.9032
  317MPD2    H7 4774   0.673   3.130  12.341  2.3428  0.2281  0.1027
  318TMC3    C1 4775   1.089   3.301  12.780  0.6133  0.2992 -1.0150
  318TMC3    C2 4776   1.016   3.282  12.890  0.1242 -0.3077  0.5462
  318TMC3    C3 4777   1.073   3.271  13.015 -0.2301  0.7430  0.0206
  318TMC3    C4 4778   1.224   3.318  12.783 -0.1080 -0.0107  0.1461
  318TMC3    C5 4779   1.280   3.314  12.907 -0.2451 -0.3511  0.4163
  318TMC3    C6 4780   1.210   3.284  13.021 -0.7376  0.6534  0.3853
  318TMC3     C 4781   1.028   3.260  12.658  0.3261 -0.5073  0.0600
  318TMC3     O 4782   0.953   3.164  12.670  0.2836 -0.4371 -0.5161
  318TMC3     H 4783   0.912   3.260  12.872  0.6464 -2.1039 -0.2786
  318TMC3    H1 4784   1.289   3.318  12.696 -0.3748  0.1434 -0.0515
  318TMC3    H2 4785   1.255   3.287  13.120  2.4820  0.4483 -1.0683
  318TMC3    C7 4786   1.423   3.351  12.912  0.1846 -0.5812 -0.3230
  318TMC3    C8 4787   0.991   3.210  13.119  0.4379  0.3413  0.7253
  318TMC3    O1 4788   1.455   3.423  12.817 -0.2471 -0.6469 -0.3795
  318TMC3    O2 4789   1.043   3.170  13.223  0.4619 -0.3278  0.2677
  319MPD2     C 4790   2.003   0.179  16.410 -0.2147 -0.2180  0.3413
  319MPD2    C1 4791   1.896   0.153  16.497 -0.2548 -0.1329 -0.2486
  319MPD2    C2 4792   1.783   0.100  16.434 -0.5252  0.1426  0.2360
  319MPD2    C3 4793   1.784   0.076  16.297  0.5433  0.8405  1.0710
  319MPD2    C4 4794   1.891   0.104  16.218  0.0772 -0.0903 -0.1745
  319MPD2    C5 4795   2.008   0.148  16.275  0.1073  0.1304  0.2918
  319MPD2     H 4796   1.696   0.077  16.493  0.9264  0.8364  2.6365
  319MPD2    H1 4797   1.893   0.113  16.109  0.9795 -1.2706 -0.2496
  319MPD2    H2 4798   2.088   0.224  16.458 -0.8982 -0.8816  2.1781
  319MPD2    H3 4799   2.091   0.187  16.217 -0.3115  0.3501 -0.1529
  319MPD2     N 4800   1.672   0.018  16.234 -0.0605  0.4885  0.2070
  319MPD2    H5 4801   1.678   0.015  16.133  1.1059 -0.9962  0.3090
  319MPD2    N1 4802   1.892   0.176  16.639 -0.3935  0.4367  0.1119
  319MPD2    H7 4803   1.803   0.161  16.685  1.4622  1.7913  4.1769
  320TMC3    C1 4804   1.469   4.656  16.193 -0.3462 -0.6041 -1.1070
  320TMC3    C2 4805   1.433   0.045  16.125  0.7660  0.6618  0.1078
  320TMC3    C3 4806   1.323   0.035  16.044  0.4931 -0.3057  0.0514
  320TMC3    C4 4807   1.402   4.538  16.189 -0.5566  0.4239 -0.0220
  320TMC3    C5 4808   1.306   4.531  16.091 -0.1372  0.5481  0.2487
  320TMC3    C6 4809   1.258   4.636  16.019 -0.1098  0.1894 -0.6801
  320TMC3     C 4810   1.571   4.676  16.289  0.1761 -0.3675 -0.2381
  320TMC3     O 4811   1.557   4.649  16.407 -0.1998  0.4312 -0.2748
  320TMC3     H 4812   1.489   0.136  16.141  1.4431  0.8342 -3.3056
  320TMC3    H1 4813   1.452   4.451  16.230 -1.2636 -0.0064 -0.0791
  320TMC3    H2 4814   1.201   4.618  15.929  1.2779  0.0012 -1.5280
  320TMC3    C7 4815   1.262   4.405  16.044 -0.1335  0.6326 -0.2396
  320TMC3    C8 4816   1.254   0.162  16.022  0.4566 -0.2171 -0.4337
  320TMC3    O1 4817   1.195   4.397  15.942 -0.4497 -0.1985  0.6137
  320TMC3    O2 4818   1.290   0.267  16.075  0.5755  0.4792  0.4303
  321TMC3    C1 4819   1.967   0.245  16.856  0.4855 -0.2053 -0.3401
  321TMC3    C2 4820   1.879   0.155  16.902 -0.9930 -0.2453 -0.0556
  321TMC3    C3 4821   1.823   0.195  17.020  0.4799 -0.2515 -0.1077
  321TMC3    C4 4822   2.033   0.330  16.928 -0.5613 -0.3166  0.5459
  321TMC3    C5 4823   1.987   0.355  17.049 -0.3507  0.0382  0.3002
  321TMC3    C6 4824   1.868   0.309  17.087 -0.8969  0.8351  0.1353
  321TMC3     C 4825   1.998   0.230  16.713  0.6579  0.2405  0.3120
  321TMC3     O 4826   2.114   0.255  16.683  0.1145 -0.0846 -0.1278
  321TMC3     H 4827   1.846   0.067  16.848  2.0070 -0.9012 -0.8110
  321TMC3    H1 4828   2.120   0.388  16.899 -0.2105 -1.5198 -0.8381
  321TMC3    H2 4829   1.828   0.343  17.182  0.9773  0.1666  1.1761
  321TMC3    C7 4830   2.089   0.379  17.150 -0.1107 -0.0074  0.2880
  321TMC3    C8 4831   1.813   0.086  17.107 -0.1758 -0.9138 -0.0520
  321TMC3    O1 4832   2.201   0.404  17.110  0.5247 -0.2569 -0.1990
  321TMC3    O2 4833   1.861   0.108  17.219 -0.2812 -0.2317 -0.6345
  322MPD2     C 4834   0.696   1.168  13.932 -0.6270  0.5187 -0.0540
  322MPD2    C1 4835   0.721   1.124  14.063  0.0095 -0.1924 -0.4082
  322MPD2    C2 4836   0.712   0.990  14.100 -0.1773  0.6909  0.4090
  322MPD2    C3 4837   0.685   0.895  13.997 -0.3576 -0.1868 -0.2348
  322MPD2    C4 4838   0.676   0.935  13.865 -0.0088  1.2254 -0.0870
  322MPD2    C5 4839   0.685   1.070  13.837  0.1204  0.6808  0.2626
  322MPD2     H 4840   0.722   0.957  14.202 -1.0149  1.4743  0.7439
  322MPD2    H1 4841   0.662   0.859  13.789  1.0780  0.5417  0.4016
  322MPD2    H2 4842   0.704   1.272  13.905  2.2525  1.0174  2.7291
  322MPD2    H3 4843   0.699   1.099  13.734 -0.5038 -0.0682 -0.0321
  322MPD2     N 4844   0.675   0.761  14.031 -0.2057  0.5182 -1.1305
  322MPD2    H5 4845   0.689   0.739  14.130  0.9783  1.3543 -1.1172
  322MPD2    N1 4846   0.742   1.226  14.150 -0.1315  0.0684 -0.0078
  322MPD2    H7 4847   0.757   1.313  14.101 -0.2217  1.0319  1.6635
  323TMC3    C1 4848   0.753   1.339  14.368  0.1791  0.2180  0.6910
  323TMC3    C2 4849   0.839   1.432  14.308 -0.1095  0.7019 -0.6476
  323TMC3    C3 4850   0.918   1.506  14.396 -0.2692 -0.3777 -0.8210
  323TMC3    C4 4851   0.743   1.320  14.498 -0.1011  0.2147  0.5040
  323TMC3    C5 4852   0.829   1.392  14.573  0.3028  0.7240  0.4176
  323TMC3    C6 4853   0.923   1.485  14.529 -0.4277 -0.5915  0.3263
  323TMC3     C 4854   0.710   1.223  14.287  1.1137 -0.0301 -0.1909
  323TMC3     O 4855   0.665   1.130  14.350 -0.5909 -0.1476 -0.0427
  323TMC3     H 4856   0.839   1.449  14.201 -0.3543  1.1610 -0.5757
  323TMC3    H1 4857   0.692   1.235  14.543 -1.4240  0.1641 -1.0841
  323TMC3    H2 4858   0.974   1.550  14.599 -0.6305  1.5360 -1.5030
  323TMC3    C7 4859   0.848   1.349  14.712 -0.0583  0.5813  0.1890
  323TMC3    C8 4860   1.027   1.585  14.345 -0.0717 -0.0640 -0.2384
  323TMC3    O1 4861   0.753   1.326  14.785  0.0078 -0.2600  0.4356
  323TMC3    O2 4862   1.135   1.588  14.399  0.9164 -0.0398 -0.1710
  324MPD2     C 4863   2.302   2.308  14.557 -0.5197  0.2370  0.7814
  324MPD2    C1 4864   2.374   2.388  14.474  0.9349 -0.5555  0.4323
  324MPD2    C2 4865   2.306   2.482  14.393  0.2285 -0.2622 -0.2934
  324MPD2    C3 4866   2.172   2.485  14.395 -0.4363  0.3027 -0.1034
  324MPD2    C4 4867   2.102   2.392  14.471 -0.5091  0.0796  0.0974
  324MPD2    C5 4868   2.169   2.308  14.553 -0.2313 -0.3653 -0.7374
  324MPD2     H 4869   2.371   2.551  14.340 -3.6557  2.7886 -1.0370
  324MPD2    H1 4870   1.994   2.397  14.481 -0.6494 -0.8657 -0.9717
  324MPD2    H2 4871   2.337   2.246  14.639 -2.6244 -2.8061 -0.6169
  324MPD2    H3 4872   2.111   2.252  14.626  0.6568  0.2073  0.4204
  324MPD2     N 4873   2.103   2.578  14.313 -0.2143 -0.3432  0.0989
  324MPD2    H5 4874   2.001   2.581  14.312 -0.1841  0.6664  2.8449
  324MPD2    N1 4875   2.515   2.381  14.473  0.2243  0.3251 -0.0332
  324MPD2    H7 4876   2.563   2.455  14.421 -0.0752  0.8171  0.3875
  325TMC3    C1 4877   2.082   2.739  14.142 -0.4001  0.4937 -0.7811
  325TMC3    C2 4878   1.967   2.667  14.105 -0.2534  0.0011 -0.6003
  325TMC3    C3 4879   1.888   2.737  14.023 -0.1218 -0.0816 -0.4448
  325TMC3    C4 4880   2.113   2.864  14.108  0.3443  0.7702  0.7324
  325TMC3    C5 4881   2.004   2.928  14.039  0.4698 -1.1034 -0.2345
  325TMC3    C6 4882   1.897   2.864  13.985 -0.2500 -0.2719 -0.3903
  325TMC3     C 4883   2.162   2.682  14.246  0.4979 -0.1211 -0.1220
  325TMC3     O 4884   2.272   2.735  14.264 -0.3720  0.0035 -0.9352
  325TMC3     H 4885   1.964   2.559  14.102  1.0518 -0.1041  2.1637
  325TMC3    H1 4886   2.193   2.928  14.142 -0.5266  1.8383  0.7689
  325TMC3    H2 4887   1.835   2.914  13.912 -0.5992 -1.0990 -0.6525
  325TMC3    C7 4888   1.993   3.070  14.047 -0.7913 -0.1506  0.3012
  325TMC3    C8 4889   1.763   2.682  13.992 -0.4431 -0.8997  0.1171
  325TMC3    O1 4890   2.075   3.134  13.983  0.5191 -0.7158 -0.2507
  325TMC3    O2 4891   1.699   2.731  13.898  0.1086  0.5937 -0.0831
  326MPD2     C 4892   3.459   3.904  11.191  0.5013 -0.5709  0.5264
  326MPD2    C1 4893   3.562   3.826  11.135  0.3351  0.1719 -0.2789
  326MPD2    C2 4894   3.693   3.834  11.183 -0.1047  0.8506 -0.5710
  326MPD2    C3 4895   3.733   3.938  11.270 -0.0742 -0.6588  0.4260
  326MPD2    C4 4896   3.630   4.010  11.324 -0.2764  0.0405  0.4077
  326MPD2    C5 4897   3.497   3.993  11.292  0.5229 -0.0156  0.4077
  326MPD2     H 4898   3.761   3.758  11.148  0.1817  0.1831  1.4120
  326MPD2    H1 4899   3.656   4.096  11.385  2.5858  0.0325 -0.7822
  326MPD2    H2 4900   3.353   3.894  11.172  0.4433 -0.1469  0.6333
  326MPD2    H3 4901   3.417   4.044  11.345 -0.8710 -0.7602 -0.9691
  326MPD2     N 4902   3.866   3.982  11.297 -0.1206 -0.0268  0.0473
  326MPD2    H5 4903   3.878   4.067  11.351 -0.7276  0.2162 -0.1980
  326MPD2    N1 4904   3.531   3.728  11.035 -0.5899 -0.0352  0.2742
  326MPD2    H7 4905   3.599   3.660  11.002 -0.6470  0.2948 -0.5183
  327TMC3    C1 4906   3.426   3.671  10.837 -0.1029  0.6116  1.1714
  327TMC3    C2 4907   3.352   3.740  10.748 -0.1434 -0.1756  0.6761
  327TMC3    C3 4908   3.395   3.756  10.617  0.2614  0.3417  0.1083
  327TMC3    C4 4909   3.539   3.605  10.793 -0.1471  0.3114  0.0334
  327TMC3    C5 4910   3.578   3.624  10.663  0.0549  0.8439 -0.2558
  327TMC3    C6 4911   3.510   3.695  10.574  0.3215 -0.1436 -0.2282
  327TMC3     C 4912   3.409   3.724  10.975 -0.0929 -0.6834  0.2115
  327TMC3     O 4913   3.301   3.784  10.993  0.2992  0.3893 -0.0890
  327TMC3     H 4914   3.259   3.788  10.778  0.4725  1.6449 -0.4171
  327TMC3    H1 4915   3.585   3.541  10.869  1.7607  1.1862 -0.3888
  327TMC3    H2 4916   3.542   3.711  10.472  2.3592 -2.9822 -0.0332
  327TMC3    C7 4917   3.725   3.630  10.644  0.4511 -1.0307  0.5668
  327TMC3    C8 4918   3.357   3.883  10.544  0.1200  0.3971  0.9537
  327TMC3    O1 4919   3.762   3.653  10.529  0.1110 -0.0934  0.5384
  327TMC3    O2 4920   3.452   3.940  10.495  0.2832  0.1967  0.0814
  328MPD2     C 4921   0.856   3.341  17.516  0.0998 -0.6626  0.2008
  328MPD2    C1 4922   0.829   3.300  17.383 -0.5232 -0.6057  0.5251
  328MPD2    C2 4923   0.811   3.392  17.284  0.4170 -0.0888  0.8310
  328MPD2    C3 4924   0.839   3.524  17.310  0.2465 -1.4644  0.5407
  328MPD2    C4 4925   0.862   3.561  17.440 -0.5446  0.2528  0.2919
  328MPD2    C5 4926   0.872   3.474  17.541  0.0151 -0.0308  0.6660
  328MPD2     H 4927   0.776   3.361  17.187  1.8505  0.9970 -0.0295
  328MPD2    H1 4928   0.887   3.663  17.467 -1.4799  0.3624  0.7545
  328MPD2    H2 4929   0.862   3.267  17.595  0.3102  0.2749  1.0612
  328MPD2    H3 4930   0.902   3.504  17.641  0.2776 -0.8152  0.8217
  328MPD2     N 4931   0.834   3.625  17.207  0.5258 -0.3573 -1.0363
  328MPD2    H5 4932   0.834   3.722  17.235  1.1248 -0.9513  0.9925
  328MPD2    N1 4933   0.824   3.159  17.369 -0.1519 -0.1360 -0.1842
  328MPD2    H7 4934   0.832   3.101  17.452  0.4414 -0.6940 -0.6242
  329TMC3    C1 4935   0.834   2.947  17.278 -0.4502 -0.3246  0.1344
  329TMC3    C2 4936   0.791   2.887  17.399  0.2445  0.6212  0.0128
  329TMC3    C3 4937   0.767   2.755  17.392  0.2506 -0.0925  0.7031
  329TMC3    C4 4938   0.826   2.877  17.160  0.5152  0.0215  0.1795
  329TMC3    C5 4939   0.797   2.743  17.158  0.1531 -0.1097 -0.2270
  329TMC3    C6 4940   0.766   2.681  17.279  0.4297 -0.0469 -0.2369
  329TMC3     C 4941   0.831   3.090  17.253 -0.1222  0.5923 -0.4079
  329TMC3     O 4942   0.834   3.144  17.144  0.2928 -0.2275 -0.0331
  329TMC3     H 4943   0.816   2.940  17.490  0.8965  0.5590 -0.1284
  329TMC3    H1 4944   0.857   2.925  17.067 -0.1585 -2.0151 -1.0925
  329TMC3    H2 4945   0.737   2.576  17.274  1.0932 -0.3009  1.2667
  329TMC3    C7 4946   0.754   2.697  17.024 -0.6391  0.1304  0.3417
  329TMC3    C8 4947   0.687   2.698  17.498  0.5584  0.1742 -0.4834
  329TMC3    O1 4948   0.726   2.787  16.946 -0.3548  0.3641  0.2788
  329TMC3    O2 4949   0.648   2.584  17.482  0.1316 -0.4000 -0.5245
  330TMC3    C1 4950   4.554   2.856   9.960  0.1899 -0.4000  0.4312
  330TMC3    C2 4951   4.629   2.861   9.848 -0.8774  0.1917 -0.2684
  330TMC3    C3 4952   4.683   2.744   9.796  0.3279 -0.2625 -0.7353
  330TMC3    C4 4953   4.541   2.734  10.023 -0.3613  0.0424 -0.1583
  330TMC3    C5 4954   4.597   2.619   9.972 -0.1594  0.7802  0.3060
  330TMC3    C6 4955   4.673   2.624   9.859  0.3950 -0.3020 -0.1902
  330TMC3     C 4956   4.516   2.975  10.033 -0.9433 -0.0884 -0.3163
  330TMC3     O 4957   4.502   2.962  10.156  0.3463 -0.4542 -0.1473
  330TMC3     H 4958   4.653   2.955   9.799 -2.1519  0.5003 -0.3148
  330TMC3    H1 4959   4.484   2.713  10.112  0.0486  1.2519  0.3824
  330TMC3    H2 4960   4.715   2.538   9.806 -0.2013 -1.3696  1.0868
  330TMC3    C7 4961   4.562   2.494  10.025  0.1541  0.2207 -0.9841
  330TMC3    C8 4962   0.037   2.751   9.671  0.2167  0.0473 -0.2756
  330TMC3    O1 4963   4.537   2.496  10.143 -0.5315 -0.1449  0.3985
  330TMC3    O2 4964   0.132   2.678   9.668 -0.6440  0.0684 -0.0460
  331MPD2     C 4965   1.671   1.890  12.693 -0.3169 -0.3313 -0.1186
  331MPD2    C1 4966   1.735   1.959  12.594  0.1715  0.0726 -0.3544
  331MPD2    C2 4967   1.798   1.885  12.492  0.0447  0.1064 -0.8520
  331MPD2    C3 4968   1.807   1.743  12.491 -0.8656 -0.7347 -0.4174
  331MPD2    C4 4969   1.747   1.682  12.597 -0.0737  0.2459 -0.2608
  331MPD2    C5 4970   1.671   1.753  12.688  0.2247 -0.7827 -0.2863
  331MPD2     H 4971   1.844   1.944  12.412 -0.1392  0.4271 -0.7218
  331MPD2    H1 4972   1.735   1.574  12.599 -0.1224  0.2635  0.4428
  331MPD2    H2 4973   1.600   1.943  12.756 -1.0229 -1.6687  0.2013
  331MPD2    H3 4974   1.612   1.704  12.765  0.3056  0.8065  0.7882
  331MPD2     N 4975   1.885   1.670  12.407 -0.4290  0.0925  0.2681
  331MPD2    H5 4976   1.896   1.571  12.425 -2.1987 -0.1969 -0.2011
  331MPD2    N1 4977   1.738   2.090  12.596 -0.2039 -0.0040 -0.0784
  331MPD2    H7 4978   1.703   2.138  12.679  1.6220  1.6886 -0.2890
  332TMC3    C1 4979   2.067   1.642  12.266 -1.0756 -0.2679  0.7763
  332TMC3    C2 4980   2.146   1.699  12.169 -0.5215 -1.0402 -0.2441
  332TMC3    C3 4981   2.270   1.653  12.143 -0.0091 -0.0710  0.0759
  332TMC3    C4 4982   2.115   1.546  12.350  0.5827  0.0389  0.0503
  332TMC3    C5 4983   2.252   1.512  12.322 -0.1852 -0.0271 -0.0849
  332TMC3    C6 4984   2.318   1.546  12.205  0.3585  0.2018  0.2315
  332TMC3     C 4985   1.951   1.728  12.306  0.0501  0.9787 -0.3609
  332TMC3     O 4986   1.914   1.824  12.239 -0.0263  0.5876  0.2172
  332TMC3     H 4987   2.109   1.779  12.106 -1.7437 -0.6350  0.9761
  332TMC3    H1 4988   2.074   1.524  12.447  0.1011  1.0758  0.0809
  332TMC3    H2 4989   2.409   1.501  12.167  1.4868 -0.9817  4.3214
  332TMC3    C7 4990   2.342   1.486  12.431 -0.1627 -0.0906 -0.4412
  332TMC3    C8 4991   2.366   1.756  12.106  0.0228  0.3596 -0.5434
  332TMC3    O1 4992   2.305   1.414  12.520 -0.1332  0.3215 -0.2561
  332TMC3    O2 4993   2.481   1.735  12.138 -0.0375  0.3826 -0.0900
  333MPD2     C 4994   2.120   2.474  10.998 -0.3605  0.4290  0.1042
  333MPD2    C1 4995   2.189   2.374  10.935 -0.1264  0.3242  0.5595
  333MPD2    C2 4996   2.201   2.249  11.002 -0.0213  0.5821 -0.0266
  333MPD2    C3 4997   2.155   2.229  11.124 -0.3136  0.3847 -0.3621
  333MPD2    C4 4998   2.091   2.335  11.193 -0.3498 -0.0773 -0.3453
  333MPD2    C5 4999   2.084   2.459  11.132  0.5870  0.3079  0.6288
  333MPD2     H 5000   2.253   2.168  10.953 -0.6659  0.7173 -0.9263
  333MPD2    H1 5001   2.057   2.331  11.296 -0.7112  0.2872 -0.4484
  333MPD2    H2 5002   2.114   2.574  10.955 -0.8148  0.0225 -0.7677
  333MPD2    H3 5003   2.043   2.541  11.191  1.5596  0.7769  0.6486
  333MPD2     N 5004   2.175   2.107  11.189  0.0745  0.0060  0.0088
  333MPD2    H5 5005   2.246   2.048  11.146 -0.0243  1.3232 -1.9143
  333MPD2    N1 5006   2.245   2.400  10.805  0.3877  0.2607 -0.1690
  333MPD2    H7 5007   2.260   2.498  10.784 -3.5708  0.8536 -0.2519
  334TMC3    C1 5008   2.379   2.338  10.611 -0.1788 -0.1052  1.1347
  334TMC3    C2 5009   2.463   2.241  10.583  1.1289 -0.1758  0.3796
  334TMC3    C3 5010   2.581   2.280  10.519  0.0492  0.4365 -0.4893
  334TMC3    C4 5011   2.392   2.471  10.574 -0.2737 -0.5606 -0.0909
  334TMC3    C5 5012   2.498   2.499  10.489 -0.6699 -0.2578  0.1844
  334TMC3    C6 5013   2.598   2.407  10.464 -0.0440 -0.1490 -0.0138
  334TMC3     C 5014   2.275   2.310  10.712 -0.5815 -0.4669  0.1187
  334TMC3     O 5015   2.237   2.193  10.718 -0.3188  0.0038  0.2490
  334TMC3     H 5016   2.447   2.146  10.633  1.1632  0.2265  1.1692
  334TMC3    H1 5017   2.321   2.552  10.588  0.0541 -0.7068  2.4080
  334TMC3    H2 5018   2.684   2.435  10.404 -0.1877  1.6093  0.5836
  334TMC3    C7 5019   2.521   2.641  10.454  0.0986  0.4766 -0.7774
  334TMC3    C8 5020   2.693   2.195  10.543  0.3018 -0.7534  0.0295
  334TMC3    O1 5021   2.477   2.720  10.537  0.0029  0.6314 -0.1098
  334TMC3    O2 5022   2.673   2.079  10.580  0.3492  0.2591  0.1473
  335TMC3    C1 5023   1.875   3.639  17.254  0.8645  0.3673 -0.1452
  335TMC3    C2 5024   1.818   3.576  17.152  0.4579 -0.5288 -0.6979
  335TMC3    C3 5025   1.872   3.600  17.025 -0.0714 -0.5364 -0.1386
  335TMC3    C4 5026   1.994   3.707  17.236  0.1396 -0.5636 -0.2300
  335TMC3    C5 5027   2.043   3.723  17.114  0.1385 -0.2478  0.3050
  335TMC3    C6 5028   1.988   3.672  17.004 -0.9607  0.3489  0.1449
  335TMC3     C 5029   1.817   3.625  17.381  0.1605 -0.8385  0.5963
  335TMC3     O 5030   1.752   3.523  17.410 -0.5384 -0.8222  0.1586
  335TMC3     H 5031   1.722   3.528  17.167  0.0024  0.8368  0.7664
  335TMC3    H1 5032   2.047   3.744  17.324  1.1428 -0.0705 -1.0484
  335TMC3    H2 5033   2.027   3.688  16.904  1.5329 -0.1718  1.0287
  335TMC3    C7 5034   2.164   3.800  17.106  0.1756  0.3380 -0.6838
  335TMC3    C8 5035   1.815   3.535  16.905  0.4554 -0.6341  0.1539
  335TMC3    O1 5036   2.191   3.844  16.996 -0.5385 -0.3499 -0.5409
  335TMC3    O2 5037   1.851   3.577  16.795 -0.4343  0.0806 -0.6038
  336MPD2     C 5038   1.402   1.350  16.595 -0.3115  0.0978  0.1495
  336MPD2    C1 5039   1.417   1.284  16.479  0.0821 -0.3605  0.1398
  336MPD2    C2 5040   1.445   1.150  16.485  0.2526  0.0397 -0.3008
  336MPD2    C3 5041   1.462   1.081  16.601  0.0905 -0.2999  0.5505
  336MPD2    C4 5042   1.456   1.148  16.717  0.0245  0.3634 -0.0408
  336MPD2    C5 5043   1.431   1.284  16.712  0.0329  0.1846 -0.4972
  336MPD2     H 5044   1.446   1.102  16.389 -2.7625 -2.6429  1.0095
  336MPD2    H1 5045   1.459   1.096  16.812 -0.9926  0.1395 -0.1271
  336MPD2    H2 5046   1.374   1.454  16.605 -0.9307 -0.0688  0.1535
  336MPD2    H3 5047   1.407   1.335  16.805  0.5000  2.1727 -1.4670
  336MPD2     N 5048   1.503   0.950  16.618 -0.0191 -0.7753  0.3173
  336MPD2    H5 5049   1.517   0.925  16.715  1.1894  1.6850  0.7624
  336MPD2    N1 5050   1.391   1.355  16.358  0.1697  0.1360 -0.1923
  336MPD2    H7 5051   1.387   1.301  16.271 -0.7527 -0.5824  0.2911
  337TMC3    C1 5052   1.333   1.532  16.217  0.8675  0.2100 -0.3536
  337TMC3    C2 5053   1.217   1.473  16.179 -0.3776  0.8134  0.1727
  337TMC3    C3 5054   1.121   1.545  16.109  0.4410 -0.1555 -0.3797
  337TMC3    C4 5055   1.353   1.663  16.180 -0.0274 -0.2487  0.6832
  337TMC3    C5 5056   1.258   1.728  16.103 -0.1940 -0.4079 -0.1992
  337TMC3    C6 5057   1.144   1.671  16.066 -0.2953  0.5207 -0.0078
  337TMC3     C 5058   1.394   1.489  16.342  0.3768 -0.7524 -0.1149
  337TMC3     O 5059   1.446   1.570  16.416  0.4655 -0.4957 -0.3404
  337TMC3     H 5060   1.182   1.381  16.226  1.8711  0.3623  0.9614
  337TMC3    H1 5061   1.448   1.711  16.201  0.9495 -2.0250  0.3165
  337TMC3    H2 5062   1.089   1.724  15.989 -0.9112 -1.7165 -1.1118
  337TMC3    C7 5063   1.268   1.872  16.078 -0.0381  0.6248 -0.0723
  337TMC3    C8 5064   0.989   1.480  16.102 -0.2889 -0.7452  1.2141
  337TMC3    O1 5065   1.218   1.924  15.982  0.4329 -0.0161 -0.3007
  337TMC3    O2 5066   0.978   1.372  16.159 -0.0942  0.3780  0.3591
  338MPD2     C 5067   2.282   0.747   0.929  0.3288 -0.2700 -0.7629
  338MPD2    C1 5068   2.206   0.800   0.831  0.3044 -0.0850  0.5112
  338MPD2    C2 5069   2.186   0.937   0.850 -0.2093  0.4369  0.2733
  338MPD2    C3 5070   2.247   1.020   0.946  0.4267 -0.4604 -0.7873
  338MPD2    C4 5071   2.332   0.964   1.035  0.0532 -0.4181  0.1074
  338MPD2    C5 5072   2.345   0.829   1.024  0.5191 -0.3274  0.3281
  338MPD2     H 5073   2.114   0.988   0.787 -1.4415 -0.8356  0.6651
  338MPD2    H1 5074   2.373   1.023   1.116  0.0436  2.3378 -1.9209
  338MPD2    H2 5075   2.304   0.641   0.935 -3.6572 -1.1123 -0.6974
  338MPD2    H3 5076   2.413   0.781   1.093  0.3457 -0.1538  0.6253
  338MPD2     N 5077   2.204   1.155   0.943  0.4326  0.0968  0.1271
  338MPD2    H5 5078   2.138   1.177   0.869  0.2633  0.2359  0.3202
  338MPD2    N1 5079   2.131   0.732   0.736  0.5358  0.1586  0.1980
  338MPD2    H7 5080   2.067   0.791   0.684  0.0950 -0.4922  0.0096
  339TMC3    C1 5081   2.111   1.345   1.026 -0.0236  0.4012 -0.1067
  339TMC3    C2 5082   2.035   1.361   1.142  0.1981 -0.2589 -0.8011
  339TMC3    C3 5083   1.898   1.371   1.140 -0.6206  0.0812 -0.3579
  339TMC3    C4 5084   2.035   1.350   0.907  0.0987  0.2952 -0.1075
  339TMC3    C5 5085   1.898   1.373   0.906 -0.2168  0.2187 -0.2281
  339TMC3    C6 5086   1.829   1.376   1.020  0.2646 -1.0740  1.0150
  339TMC3     C 5087   2.212   1.245   1.041 -0.1899 -0.4318 -0.0520
  339TMC3     O 5088   2.259   1.222   1.156  0.0327 -0.1000 -0.5180
  339TMC3     H 5089   2.080   1.363   1.240  0.8215 -0.5151 -1.0837
  339TMC3    H1 5090   2.093   1.353   0.816 -1.9313 -1.8745 -1.4584
  339TMC3    H2 5091   1.727   1.411   1.022  0.0409 -1.7392  0.9328
  339TMC3    C7 5092   1.829   1.376   0.783 -0.1982 -0.1066 -0.2153
  339TMC3    C8 5093   1.823   1.362   1.266  0.0340 -0.1238  0.9915
  339TMC3    O1 5094   1.895   1.400   0.682 -0.8383  0.6847 -0.7037
  339TMC3    O2 5095   1.880   1.408   1.368 -0.2123  0.5218 -0.7772
  340MPD2     C 5096   2.684   4.093  10.359  0.1608  0.7277  0.4577
  340MPD2    C1 5097   2.715   3.976  10.286 -0.4561 -0.4568  0.1570
  340MPD2    C2 5098   2.836   3.959  10.226 -0.1973  0.4718 -0.4733
  340MPD2    C3 5099   2.932   4.058  10.227 -0.6046 -0.2348  0.4603
  340MPD2    C4 5100   2.898   4.174  10.302 -0.0409  0.4371 -0.1958
  340MPD2    C5 5101   2.774   4.193  10.362  0.3341  0.3083 -0.1960
  340MPD2     H 5102   2.856   3.874  10.162  0.4141  0.0914  0.2231
  340MPD2    H1 5103   2.969   4.255  10.304 -0.2689  0.5411  3.8166
  340MPD2    H2 5104   2.591   4.098  10.414 -1.0164  1.5072 -1.5909
  340MPD2    H3 5105   2.750   4.292  10.398  0.6469  0.5905 -0.7763
  340MPD2     N 5106   3.059   4.051  10.163 -0.0046  0.4476  0.5610
  340MPD2    H5 5107   3.115   4.135  10.174 -2.1095  1.9269 -0.1793
  340MPD2    N1 5108   2.623   3.870  10.287 -0.0683  0.1511 -0.1650
  340MPD2    H7 5109   2.527   3.903  10.289  0.7814  2.5388  1.3762
  341TMC3    C1 5110   2.530   3.682  10.175 -0.5035 -0.5911  0.3324
  341TMC3    C2 5111   2.525   3.540  10.173  0.4813  0.3898  0.4080
  341TMC3    C3 5112   2.496   3.478  10.058 -0.3727  0.0458 -0.0773
  341TMC3    C4 5113   2.495   3.753  10.063  0.1002  0.0018  0.7114
  341TMC3    C5 5114   2.457   3.681   9.950 -0.1899  0.0384 -0.3459
  341TMC3    C6 5115   2.458   3.545   9.941  0.4438  0.1948 -0.4447
  341TMC3     C 5116   2.647   3.743  10.238  0.5744  0.0607  0.0384
  341TMC3     O 5117   2.742   3.669  10.251 -0.1415  0.3399  0.3493
  341TMC3     H 5118   2.578   3.487  10.251  2.7009  1.9786 -0.0032
  341TMC3    H1 5119   2.493   3.861  10.071  2.0509 -0.0588  1.8977
  341TMC3    H2 5120   2.410   3.493   9.859 -0.9568 -0.5847  0.8610
  341TMC3    C7 5121   2.415   3.746   9.827 -0.3463 -0.7208  0.0285
  341TMC3    C8 5122   2.504   3.331  10.067  0.0873 -0.6171 -0.0088
  341TMC3    O1 5123   2.451   3.682   9.729  0.6662 -0.3714  0.7551
  341TMC3    O2 5124   2.484   3.282  10.176  0.7616 -0.4686 -0.4597
  342MPD2     C 5125   4.376   1.390   0.330 -0.4066 -0.2164 -0.3016
  342MPD2    C1 5126   4.442   1.426   0.217  0.7131  0.2685  0.3222
  342MPD2    C2 5127   4.402   1.545   0.155  0.0005  0.3318  0.4370
  342MPD2    C3 5128   4.315   1.635   0.219  0.0535 -0.1464 -1.0060
  342MPD2    C4 5129   4.249   1.596   0.335  0.3832 -0.3144  0.1536
  342MPD2    C5 5130   4.274   1.471   0.381 -0.3990 -0.7452  0.5369
  342MPD2     H 5131   4.444   1.562   0.057  1.1259  2.3511  1.2759
  342MPD2    H1 5132   4.178   1.658   0.390  0.9191  0.0982  0.3780
  342MPD2    H2 5133   4.398   1.297   0.383 -1.5030 -0.7073 -0.7122
  342MPD2    H3 5134   4.225   1.443   0.474 -1.6300 -0.3479  0.0073
  342MPD2     N 5135   4.287   1.761   0.158  0.0334 -0.1038  0.1555
  342MPD2    H5 5136   4.233   1.818   0.223  0.8313  1.1147 -0.2545
  342MPD2    N1 5137   4.544   1.355   0.163  0.0510  0.7091 -0.0965
  342MPD2    H7 5138   4.565   1.380   0.067  0.3746 -1.3341 -0.5596
  343TMC3    C1 5139   4.718   1.192   0.132 -0.2656 -0.5578 -0.0944
  343TMC3    C2 5140   0.030   1.270   0.025 -0.1954 -0.4831 -0.0341
  343TMC3    C3 5141   0.081   1.210  17.613 -0.3552  0.2523 -1.0251
  343TMC3    C4 5142   0.011   1.059   0.125 -0.4890 -0.2236 -0.6205
  343TMC3    C5 5143   0.056   1.001   0.007  0.3423  0.8262  0.3914
  343TMC3    C6 5144   0.090   1.073  17.602 -0.5141 -0.3152 -0.6088
  343TMC3     C 5145   4.615   1.252   0.223  0.2606 -0.4431 -0.3966
  343TMC3     O 5146   4.600   1.192   0.330  1.2831 -0.0839 -0.1934
  343TMC3     H 5147   0.033   1.378   0.041  3.2249 -0.4574 -0.8019
  343TMC3    H1 5148   4.699   1.001   0.209 -1.2740 -0.7510 -1.3284
  343TMC3    H2 5149   0.103   1.022  17.508 -1.7487  1.9053 -2.0037
  343TMC3    C7 5150   4.712   0.877  17.674 -0.3012 -0.0666  0.2211
  343TMC3    C8 5151   0.182   1.292  17.549  0.4988 -0.0185  0.9063
  343TMC3    O1 5152   4.645   0.875  17.571  0.4282  0.4819 -0.1877
  343TMC3    O2 5153   0.180   1.408  17.585  0.1925 -0.4770 -0.3930
  344MPD2     C 5154   1.273   1.357  10.927  0.0004 -0.1823  0.3618
  344MPD2    C1 5155   1.143   1.345  10.892  0.9788 -0.0789  0.5088
  344MPD2    C2 5156   1.099   1.426  10.791  0.2610  0.4747  0.2064
  344MPD2    C3 5157   1.173   1.520  10.731  0.2981 -0.4221  0.5510
  344MPD2    C4 5158   1.296   1.547  10.788 -0.6330  0.3049  0.1147
  344MPD2    C5 5159   1.349   1.455  10.874  0.6111 -0.3995  0.1955
  344MPD2     H 5160   0.996   1.413  10.760  0.6338  0.4231 -0.9968
  344MPD2    H1 5161   1.362   1.620  10.744 -0.7257  0.8091  0.8147
  344MPD2    H2 5162   1.320   1.291  10.999  1.1825  1.1436  0.7872
  344MPD2    H3 5163   1.454   1.460  10.898  0.6960  1.3430 -0.5290
  344MPD2     N 5164   1.119   1.598  10.627  0.9207 -0.1362  0.8137
  344MPD2    H5 5165   1.174   1.678  10.597  1.5368 -0.8548  0.0622
  344MPD2    N1 5166   1.053   1.253  10.946  0.2578 -0.9771  0.0228
  344MPD2    H7 5167   0.965   1.243  10.897  0.8888 -0.0377 -1.3071
  345TMC3    C1 5168   0.998   1.661  10.432  1.0094 -0.2586  0.4257
  345TMC3    C2 5169   0.935   1.603  10.328 -0.0879  0.4598  0.1163
  345TMC3    C3 5170   0.880   1.688  10.238  0.0621 -0.3682  0.1195
  345TMC3    C4 5171   1.015   1.789  10.462 -0.3573  0.4953  0.2406
  345TMC3    C5 5172   0.962   1.867  10.368  0.1601  0.4860 -0.8088
  345TMC3    C6 5173   0.893   1.820  10.260  0.1028 -0.2775 -0.6020
  345TMC3     C 5174   1.016   1.567  10.543  0.4922 -0.2282  0.2105
  345TMC3     O 5175   0.939   1.476  10.542  0.8190  0.1180  0.3354
  345TMC3     H 5176   0.946   1.500  10.295  0.5847  0.7779 -0.6431
  345TMC3    H1 5177   1.071   1.820  10.550  0.4661 -0.2178 -0.0267
  345TMC3    H2 5178   0.855   1.901  10.198  0.1336 -0.3079 -0.6603
  345TMC3    C7 5179   0.983   2.011  10.372 -0.5339 -0.1208 -0.3095
  345TMC3    C8 5180   0.878   1.641  10.101  0.2495  0.1904  0.1266
  345TMC3    O1 5181   0.976   2.065  10.264 -0.1615  0.1685 -0.0526
  345TMC3    O2 5182   0.788   1.673  10.025  0.4051  0.3370  0.0229
  346MPD2     C 5183   0.636   3.061  14.433 -0.3438 -0.1288 -0.7550
  346MPD2    C1 5184   0.738   2.975  14.383  0.3164 -0.5320 -0.0294
  346MPD2    C2 5185   0.871   3.011  14.418 -0.0863 -0.0659  0.4710
  346MPD2    C3 5186   0.898   3.124  14.495  0.7675  0.1801 -0.9876
  346MPD2    C4 5187   0.791   3.199  14.549  0.1784  0.8271 -1.0036
  346MPD2    C5 5188   0.664   3.166  14.515  0.3591  0.1696  0.2351
  346MPD2     H 5189   0.951   2.956  14.369 -1.0237 -0.5195 -0.5512
  346MPD2    H1 5190   0.799   3.287  14.612  0.1728 -0.0734  0.2566
  346MPD2    H2 5191   0.529   3.049  14.422 -0.5823  1.0074  0.4145
  346MPD2    H3 5192   0.586   3.224  14.561  0.5888 -0.4529  1.3953
  346MPD2     N 5193   1.032   3.156  14.527  0.0127  0.1629  0.6904
  346MPD2    H5 5194   1.104   3.105  14.477 -3.3889 -2.8440 -1.1244
  346MPD2    N1 5195   0.706   2.868  14.294 -0.2739 -0.2398 -0.6641
  346MPD2    H7 5196   0.778   2.820  14.242 -1.2841  0.5578 -2.8277
  347TMC3    C1 5197   1.206   3.285  14.606 -0.0126  0.5527 -0.0430
  347TMC3    C2 5198   1.278   3.284  14.493 -0.4144 -0.2611  0.5045
  347TMC3    C3 5199   1.408   3.316  14.498  0.0240  0.3377  0.6546
  347TMC3    C4 5200   1.265   3.320  14.721 -0.3168 -0.1537 -0.2335
  347TMC3    C5 5201   1.395   3.347  14.727 -0.1434 -0.0287 -0.0199
  347TMC3    C6 5202   1.477   3.337  14.612 -0.4912  0.1344  0.6683
  347TMC3     C 5203   1.066   3.255  14.616  0.0168 -0.2547  0.5227
  347TMC3     O 5204   1.000   3.319  14.698 -0.4100  0.0073 -0.1257
  347TMC3     H 5205   1.227   3.259  14.401 -0.7757 -2.8878  1.4089
  347TMC3    H1 5206   1.206   3.325  14.812  1.7051 -0.6528  1.1306
  347TMC3    H2 5207   1.585   3.351  14.612 -0.8243  2.5914  0.9987
  347TMC3    C7 5208   1.447   3.379  14.856  0.0411 -0.6061  0.4806
  347TMC3    C8 5209   1.486   3.313  14.373  0.0702  0.0147  0.1042
  347TMC3    O1 5210   1.380   3.360  14.955 -0.5427  0.0783  0.3904
  347TMC3    O2 5211   1.440   3.244  14.285 -0.4672  0.6157  0.8032
  348MPD2     C 5212   4.292   2.521  12.306  0.2285  0.3108 -0.0934
  348MPD2    C1 5213   4.427   2.562  12.287 -0.6214  1.0045 -0.2293
  348MPD2    C2 5214   4.461   2.638  12.177 -0.3121 -0.1051 -0.5903
  348MPD2    C3 5215   4.365   2.681  12.087  0.2253  0.4257 -0.4641
  348MPD2    C4 5216   4.236   2.644  12.109  0.2774  0.0527  0.4375
  348MPD2    C5 5217   4.203   2.555  12.203  0.0445 -0.1100  0.2918
  348MPD2     H 5218   4.566   2.657  12.156 -1.0254  3.6464 -0.6489
  348MPD2    H1 5219   4.158   2.675  12.040  0.1047  0.4838  0.8225
  348MPD2    H2 5220   4.269   2.444  12.378 -1.6779 -1.0748 -2.1795
  348MPD2    H3 5221   4.113   2.496  12.186  0.8884 -1.6813  1.2980
  348MPD2     N 5222   4.404   2.761  11.976  0.1525 -0.0999 -0.2356
  348MPD2    H5 5223   4.504   2.774  11.965 -0.0268  0.7378 -0.8910
  348MPD2    N1 5224   4.530   2.519  12.377  0.7702  0.5203 -0.7771
  348MPD2    H7 5225   4.616   2.571  12.365  0.5713  0.6073 -1.8584
  349TMC3    C1 5226   4.644   2.398  12.542  0.2284 -0.1766 -0.1644
  349TMC3    C2 5227   4.654   2.265  12.576  0.6625  0.5781 -0.0496
  349TMC3    C3 5228   0.042   2.194  12.556 -0.5502 -0.4553  0.0703
  349TMC3    C4 5229   0.036   2.467  12.510 -0.5985 -0.2908  0.6801
  349TMC3    C5 5230   0.146   2.389  12.492 -0.6415 -0.4329  0.0576
  349TMC3    C6 5231   0.155   2.256  12.511  0.2291  0.1552 -0.6003
  349TMC3     C 5232   4.515   2.423  12.479 -0.0751  0.3542 -0.7711
  349TMC3     O 5233   4.428   2.340  12.497  0.0575 -0.3840 -0.5270
  349TMC3     H 5234   4.564   2.213  12.608  1.3492  0.1872  1.2665
  349TMC3    H1 5235   0.034   2.572  12.483  2.6951 -0.7553 -1.3905
  349TMC3    H2 5236   0.251   2.205  12.512 -0.2511 -0.7186  1.7729
  349TMC3    C7 5237   0.191   2.428  12.363 -0.5245 -0.3491 -0.4413
  349TMC3    C8 5238   0.053   2.051  12.577 -0.4686  0.4028  0.8168
  349TMC3    O1 5239   0.107   2.475  12.289  0.0780  0.6143 -0.0349
  349TMC3    O2 5240   4.685   1.997  12.635 -0.4523  0.5167  0.2496
  350MPD2     C 5241   4.306   1.620  10.123  0.4051 -0.0923  0.0289
  350MPD2    C1 5242   4.358   1.492  10.131  0.6442 -0.4741  0.5694
  350MPD2    C2 5243   4.484   1.479  10.183 -0.2783  0.0641  0.7510
  350MPD2    C3 5244   4.565   1.587  10.221  0.3563 -0.3239  0.4498
  350MPD2    C4 5245   4.509   1.715  10.209  0.1842  0.2986  0.5670
  350MPD2    C5 5246   4.383   1.731  10.165  0.6476 -0.9444 -0.4521
  350MPD2     H 5247   4.524   1.378  10.190  0.1921  0.2889  1.2910
  350MPD2    H1 5248   4.563   1.803  10.242 -0.1949  0.3367  1.0726
  350MPD2    H2 5249   4.212   1.635  10.071 -0.6125  0.9252  2.1332
  350MPD2    H3 5250   4.350   1.833  10.146  0.9749 -1.2467 -2.5548
  350MPD2     N 5251   4.690   1.565  10.268 -0.3861  0.0091 -0.4314
  350MPD2    H5 5252   4.712   1.468  10.287  1.9665  0.5936 -0.1443
  350MPD2    N1 5253   4.288   1.374  10.094 -0.3161 -0.2985  0.0559
  350MPD2    H7 5254   4.331   1.285  10.116 -0.3117 -0.1064  0.8353
  351TMC3    C1 5255   4.114   1.245  10.000 -0.1203 -0.7953 -0.6482
  351TMC3    C2 5256   4.187   1.134  10.031  0.4727 -0.0228  0.2751
  351TMC3    C3 5257   4.148   1.018   9.961  0.1667  0.4864 -0.0160
  351TMC3    C4 5258   4.006   1.245   9.919  0.1294 -0.2170  0.4260
  351TMC3    C5 5259   3.972   1.130   9.852  0.0112 -0.3751  0.7433
  351TMC3    C6 5260   4.043   1.008   9.870  0.2117 -0.2943  0.0107
  351TMC3     C 5261   4.156   1.373  10.052 -0.3973 -0.3320 -0.3994
  351TMC3     O 5262   4.074   1.461  10.044 -0.2682  0.2732  0.2976
  351TMC3     H 5263   4.257   1.134  10.114 -0.2557  1.3779  0.8820
  351TMC3    H1 5264   3.956   1.339   9.900  1.6220 -0.1586 -3.2682
  351TMC3    H2 5265   4.039   0.925   9.801 -0.2189 -0.3354  0.0840
  351TMC3    C7 5266   3.888   1.146   9.740 -0.0342  0.2102  0.0268
  351TMC3    C8 5267   4.161   0.900  10.043 -0.1334  0.0421 -1.1335
  351TMC3    O1 5268   3.890   1.258   9.689  0.3281 -0.7244  0.9374
  351TMC3    O2 5269   4.127   0.906  10.160 -0.2070  0.5393 -0.1964
  352MPD2     C 5270   0.711   3.017   1.383 -0.2015  0.3165  0.4322
  352MPD2    C1 5271   0.771   2.947   1.280 -0.4134 -0.3836  0.4519
  352MPD2    C2 5272   0.784   2.806   1.285 -0.2103 -0.1292  0.2272
  352MPD2    C3 5273   0.749   2.741   1.404  0.2299 -0.5747  0.9193
  352MPD2    C4 5274   0.701   2.816   1.509  0.6621 -0.9376 -0.4217
  352MPD2    C5 5275   0.680   2.949   1.494 -0.0581 -0.3719 -0.2249
  352MPD2     H 5276   0.821   2.748   1.202 -0.2289  0.6040 -0.2884
  352MPD2    H1 5277   0.667   2.769   1.600 -2.9691  0.0491 -1.2511
  352MPD2    H2 5278   0.697   3.124   1.382  0.9331  0.4714  0.7500
  352MPD2    H3 5279   0.634   3.009   1.572  1.1445 -0.1149  0.2797
  352MPD2     N 5280   0.750   2.605   1.414 -0.4441  0.5285 -0.2120
  352MPD2    H5 5281   0.705   2.566   1.497 -1.9289  2.9126  0.0891
  352MPD2    N1 5282   0.798   3.025   1.162 -0.1358 -0.1283 -0.1738
  352MPD2    H7 5283   0.756   3.116   1.151 -0.7470 -0.5759 -1.4991
  353TMC3    C1 5284   0.826   2.393   1.388 -0.0429 -0.4284 -0.4655
  353TMC3    C2 5285   0.909   2.376   1.497 -0.3143 -0.2390  0.8370
  353TMC3    C3 5286   0.966   2.250   1.520  0.1868 -0.4979 -0.5359
  353TMC3    C4 5287   0.812   2.292   1.296 -0.3832 -0.7359  0.1651
  353TMC3    C5 5288   0.867   2.170   1.329 -0.1631  0.4755 -1.0600
  353TMC3    C6 5289   0.946   2.144   1.440  0.0070  0.1503 -0.0261
  353TMC3     C 5290   0.806   2.522   1.318 -0.2338  0.5017  0.4226
  353TMC3     O 5291   0.827   2.530   1.197 -0.2797 -0.7327  0.1260
  353TMC3     H 5292   0.942   2.463   1.553  1.2265 -1.9974  2.7043
  353TMC3    H1 5293   0.752   2.295   1.205 -2.0997 -1.2150  1.2816
  353TMC3    H2 5294   0.997   2.049   1.442  1.1308  0.7390 -0.6619
  353TMC3    C7 5295   0.857   2.055   1.239 -0.4282 -0.3185 -0.6982
  353TMC3    C8 5296   1.063   2.237   1.628  0.4545  0.4796 -0.4502
  353TMC3    O1 5297   0.865   2.086   1.122  0.3109  0.2390 -0.2608
  353TMC3    O2 5298   1.070   2.321   1.716 -0.1742 -0.1834  0.1418
  354TMC3    C1 5299   3.360   4.222  13.679  0.1130 -0.5183  0.1410
  354TMC3    C2 5300   3.450   4.330  13.692 -0.9655 -0.5328 -0.5744
  354TMC3    C3 5301   3.430   4.421  13.592 -0.8001 -0.3038  0.2303
  354TMC3    C4 5302   3.268   4.200  13.576  0.3091 -0.1345  0.6991
  354TMC3    C5 5303   3.279   4.287  13.474 -0.1039 -0.4130  0.0110
  354TMC3    C6 5304   3.348   4.402  13.486  0.1954 -0.4009 -0.3733
  354TMC3     C 5305   3.333   4.133  13.796 -0.7386  0.4874 -0.4243
  354TMC3     O 5306   3.283   4.026  13.776  0.3895  0.1766 -0.4087
  354TMC3     H 5307   3.517   4.351  13.775 -1.6208  1.0670 -0.4407
  354TMC3    H1 5308   3.230   4.099  13.559 -0.4954  0.3484 -0.4109
  354TMC3    H2 5309   3.351   4.474  13.405  0.9995 -3.1380 -2.8209
  354TMC3    C7 5310   3.279   4.238  13.343 -1.0158 -0.1372  0.0331
  354TMC3    C8 5311   3.549   4.494  13.555 -0.1605  0.1183  0.0058
  354TMC3    O1 5312   3.199   4.154  13.307 -0.6415 -0.2314 -0.2620
  354TMC3    O2 5313   3.534   4.589  13.479 -0.6672 -0.1744  0.3514
  355MPD2     C 5314   4.151   4.661  12.304  0.3241  0.3070  0.1208
  355MPD2    C1 5315   4.164   4.643  12.166 -0.2419  0.3344  0.1035
  355MPD2    C2 5316   4.232   4.536  12.113 -0.0393 -0.0554 -0.0443
  355MPD2    C3 5317   4.285   4.438  12.199  0.0034 -0.0148 -0.6163
  355MPD2    C4 5318   4.263   4.449  12.334 -0.1803  0.3054 -0.2491
  355MPD2    C5 5319   4.204   4.563  12.384 -0.0618  0.2996 -0.0042
  355MPD2     H 5320   4.246   4.519  12.007 -0.8405 -1.1837  0.0255
  355MPD2    H1 5321   4.310   4.369  12.391 -1.1882  0.5915  0.9962
  355MPD2    H2 5322   4.110   0.026  12.346 -0.8997 -0.0206 -0.3705
  355MPD2    H3 5323   4.194   4.572  12.492  0.5666  0.0096  0.0745
  355MPD2     N 5324   4.371   4.341  12.153 -0.0473 -0.4126  0.2574
  355MPD2    H5 5325   4.359   4.246  12.187 -1.1575 -1.8493 -4.0949
  355MPD2    N1 5326   4.106   0.013  12.090  0.6534  0.3251  0.1623
  355MPD2    H7 5327   4.084   0.100  12.138  0.0342  1.9078 -2.9510
  356TMC3    C1 5328   4.509   4.503  12.034  0.0682 -0.7495  0.3087
  356TMC3    C2 5329   4.562   4.547  11.914  0.0392 -0.1401 -0.1520
  356TMC3    C3 5330   4.628   4.667  11.918  1.1084 -0.4084 -0.6125
  356TMC3    C4 5331   4.555   4.560  12.150 -0.1711  0.5209 -1.0652
  356TMC3    C5 5332   4.637   4.673  12.153  0.5770 -1.2616  0.1463
  356TMC3    C6 5333   4.669   0.000  12.031  0.0686  0.3392  0.1450
  356TMC3     C 5334   4.453   4.365  12.039 -0.0175  0.6951  0.0038
  356TMC3     O 5335   4.502   4.283  11.963  1.0055 -0.2833 -0.0877
  356TMC3     H 5336   4.545   4.483  11.828  0.5843  0.3799 -0.6514
  356TMC3    H1 5337   4.512   4.520  12.240 -1.4711  1.0305 -1.4564
  356TMC3    H2 5338   0.007   0.088  12.035 -1.1532  1.2326 -0.3204
  356TMC3    C7 5339   4.611   0.027  12.269 -0.3457 -0.6898  0.0905
  356TMC3    C8 5340   4.705   4.702  11.799 -0.2228 -0.0701 -0.9197
  356TMC3    O1 5341   4.554   4.699  12.365  0.1281  0.1964 -0.2931
  356TMC3    O2 5342   0.011   4.608  11.723 -0.3113 -0.0639  0.4425
  357MPD2     C 5343   3.081   3.199   1.594  0.6499 -0.2209 -0.2994
  357MPD2    C1 5344   3.172   3.268   1.670 -0.1171 -0.6986  0.2668
  357MPD2    C2 5345   3.201   3.227   1.801  0.0764  0.6700  0.0344
  357MPD2    C3 5346   3.144   3.108   1.846 -0.0007 -0.4287 -0.0239
  357MPD2    C4 5347   3.054   3.042   1.764 -0.5037  0.2044  0.0494
  357MPD2    C5 5348   3.025   3.084   1.639  0.5074  0.3610  0.8468
  357MPD2     H 5349   3.285   3.275   1.850  0.7689  1.1230 -1.6098
  357MPD2    H1 5350   3.011   2.948   1.797 -0.1002 -0.1528 -0.4503
  357MPD2    H2 5351   3.054   3.234   1.495  1.1362  2.7281  0.6037
  357MPD2    H3 5352   2.949   3.031   1.583 -0.6540  1.0009  1.8326
  357MPD2     N 5353   3.181   3.051   1.966 -0.2774 -0.1168  0.1763
  357MPD2    H5 5354   3.157   2.953   1.975 -0.7090  0.0506  0.8757
  357MPD2    N1 5355   3.223   3.391   1.624 -0.6595  0.1001 -0.1336
  357MPD2    H7 5356   3.216   3.409   1.524 -2.0548  0.0587 -0.0379
  358TMC3    C1 5357   3.350   3.589   1.626 -0.4691  0.4556  0.3311
  358TMC3    C2 5358   3.315   3.618   1.494  0.0408 -0.1417 -0.0511
  358TMC3    C3 5359   3.399   3.696   1.422 -0.1182 -0.1568  0.9048
  358TMC3    C4 5360   3.468   3.635   1.682  0.5157 -0.1500 -0.0515
  358TMC3    C5 5361   3.539   3.727   1.611  0.3880 -0.7680  0.0682
  358TMC3    C6 5362   3.510   3.754   1.476  0.2840  0.6514 -0.4558
  358TMC3     C 5363   3.294   3.480   1.699  0.2623  0.8988  0.0431
  358TMC3     O 5364   3.281   3.496   1.821  0.0285  0.1907 -0.2573
  358TMC3     H 5365   3.221   3.584   1.452 -0.3286  0.9586 -0.1178
  358TMC3    H1 5366   3.494   3.616   1.785 -1.1834 -0.6484  0.2809
  358TMC3    H2 5367   3.578   3.806   1.409  0.5790  0.4214 -0.3303
  358TMC3    C7 5368   3.661   3.781   1.668  0.3463 -0.2077  0.0372
  358TMC3    C8 5369   3.366   3.757   1.295  0.0693 -0.4394 -0.6699
  358TMC3    O1 5370   3.681   3.750   1.785 -0.1856 -0.2363 -0.2751
  358TMC3    O2 5371   3.412   3.868   1.271  0.0424  0.6038 -0.1036
  359MPD2     C 5372   4.028   3.797  12.348  0.5789  0.7304 -0.5002
  359MPD2    C1 5373   4.070   3.668  12.374  0.2287  0.3129 -0.0940
  359MPD2    C2 5374   3.984   3.560  12.382 -0.3269 -0.0969  0.5584
  359MPD2    C3 5375   3.845   3.577  12.358 -0.0754 -0.8572  0.6113
  359MPD2    C4 5376   3.807   3.703  12.324 -0.5138  0.0749 -0.0245
  359MPD2    C5 5377   3.896   3.807  12.327 -0.5363 -0.6686 -0.4244
  359MPD2     H 5378   4.020   3.460  12.403 -0.5608  0.0885  1.8614
  359MPD2    H1 5379   3.703   3.721  12.299 -0.5611  0.5253  0.5062
  359MPD2    H2 5380   4.085   3.889  12.344 -0.9565  1.7503  0.8397
  359MPD2    H3 5381   3.858   3.906  12.302 -0.6841 -0.6529 -0.1343
  359MPD2     N 5382   3.741   3.472  12.350 -0.0235 -0.1531  0.1775
  359MPD2    H5 5383   3.647   3.504  12.327 -0.3705 -0.8640  0.6119
  359MPD2    N1 5384   4.206   3.630  12.407  0.5728 -0.7377 -0.7671
  359MPD2    H7 5385   4.218   3.538  12.448 -2.3400  0.1569  2.1553
  360TMC3    C1 5386   4.436   3.633  12.385 -0.6415 -0.6895  0.1091
  360TMC3    C2 5387   4.544   3.707  12.374 -0.1926  0.4176  0.3550
  360TMC3    C3 5388   4.655   3.646  12.321  0.1596 -0.1477 -0.2566
  360TMC3    C4 5389   4.425   3.504  12.337 -0.2795  0.2170  0.8413
  360TMC3    C5 5390   4.528   3.449  12.274 -0.3037  0.3407  1.2879
  360TMC3    C6 5391   4.648   3.513  12.285  0.4298 -0.4643 -0.9428
  360TMC3     C 5392   4.315   3.714  12.392 -0.1079  0.9860  0.0690
  360TMC3     O 5393   4.317   3.828  12.350 -0.1800  0.1800  0.3365
  360TMC3     H 5394   4.532   3.815  12.376  0.7055  0.5274 -0.4732
  360TMC3    H1 5395   4.334   3.445  12.339  1.0588 -1.9159 -0.6975
  360TMC3    H2 5396   0.015   3.462  12.258 -1.8310 -3.0796 -3.6884
  360TMC3    C7 5397   4.507   3.406  12.146  0.4347  0.3040 -0.1757
  360TMC3    C8 5398   0.010   3.737  12.234  0.3806  0.4266 -0.2586
  360TMC3    O1 5399   4.592   3.440  12.066  0.7520  0.5212 -0.3474
  360TMC3    O2 5400   0.013   3.850  12.273  0.0303 -0.4296 -0.2114
  361MPD2     C 5401   0.434   2.323  17.073 -0.0770  0.4990 -0.1849
  361MPD2    C1 5402   0.505   2.376  17.179 -0.5181  0.0750  0.1241
  361MPD2    C2 5403   0.604   2.290  17.238  0.4659 -0.2269  0.0817
  361MPD2    C3 5404   0.634   2.163  17.190  0.2487 -0.4906 -0.7452
  361MPD2    C4 5405   0.566   2.119  17.080  0.3344  0.5228 -0.5143
  361MPD2    C5 5406   0.465   2.201  17.025  0.0921  0.0731  0.2550
  361MPD2     H 5407   0.650   2.322  17.331  2.1526 -1.8391 -0.2093
  361MPD2    H1 5408   0.573   2.017  17.045  0.4349  0.8386 -1.4360
  361MPD2    H2 5409   0.356   2.371  17.016 -0.0218  1.7212  0.7746
  361MPD2    H3 5410   0.405   2.169  16.941  0.0834 -0.0860  0.3220
  361MPD2     N 5411   0.735   2.078  17.238  0.6781 -0.3293  0.0656
  361MPD2    H5 5412   0.768   2.002  17.180  0.2990  0.9649 -1.8490
  361MPD2    N1 5413   0.486   2.508  17.232  0.5611  0.4900  0.0258
  361MPD2    H7 5414   0.544   2.537  17.310 -1.2187  0.8632  1.2016
  362TMC3    C1 5415   0.405   2.728  17.249 -0.7194 -0.8215  0.6142
  362TMC3    C2 5416   0.340   2.737  17.370 -0.9183  0.2428 -1.1946
  362TMC3    C3 5417   0.264   2.846  17.396  0.8987  0.4144  0.0136
  362TMC3    C4 5418   0.410   2.829  17.163  0.6070 -0.7730 -0.7830
  362TMC3    C5 5419   0.329   2.942  17.181 -0.1200 -0.1583  0.0215
  362TMC3    C6 5420   0.248   2.946  17.296  0.1466 -0.4261 -0.2070
  362TMC3     C 5421   0.403   2.601  17.177  0.4848 -0.3706  0.3653
  362TMC3     O 5422   0.319   2.588  17.091  0.2026  0.5267 -0.9559
  362TMC3     H 5423   0.329   2.646  17.428  0.2687  0.4446 -0.6585
  362TMC3    H1 5424   0.482   2.829  17.083 -2.1541  0.7135 -3.2459
  362TMC3    H2 5425   0.180   3.029  17.312 -0.1048 -0.8374  0.8653
  362TMC3    C7 5426   0.256   2.985  17.058  0.4571  0.3489 -0.3848
  362TMC3    C8 5427   0.183   2.845  17.517 -0.0859 -0.4712 -0.3502
  362TMC3    O1 5428   0.192   3.086  17.062  1.2260  0.0967  0.3421
  362TMC3    O2 5429   0.169   2.735  17.563 -0.3934 -0.2861  0.2154
  363TMC3    C1 5430   0.274   0.399   9.497 -0.4195 -0.1496 -0.8007
  363TMC3    C2 5431   0.245   0.280   9.560 -0.2904 -0.0559  0.0649
  363TMC3    C3 5432   0.153   0.279   9.664 -0.9879  0.0563 -0.3106
  363TMC3    C4 5433   0.214   0.514   9.541 -0.3421 -0.0549  0.2148
  363TMC3    C5 5434   0.126   0.509   9.646  1.1570  0.4687  0.0296
  363TMC3    C6 5435   0.086   0.392   9.700 -0.3600 -0.3533 -0.5424
  363TMC3     C 5436   0.374   0.409   9.399  0.3193 -0.5854 -0.0177
  363TMC3     O 5437   0.432   0.515   9.392  0.1256 -0.2389 -0.2359
  363TMC3     H 5438   0.303   0.191   9.540 -2.3019 -1.1052 -1.1298
  363TMC3    H1 5439   0.244   0.608   9.496  2.4596 -0.7617  0.6065
  363TMC3    H2 5440   0.005   0.387   9.772 -1.1266 -2.3861 -1.5762
  363TMC3    C7 5441   0.076   0.633   9.697  0.0588  0.3767  0.3223
  363TMC3    C8 5442   0.124   0.153   9.732 -0.3881 -0.0864 -0.0135
  363TMC3    O1 5443   0.099   0.736   9.631  0.2946  0.1390  0.0892
  363TMC3    O2 5444   0.058   0.178   9.833  0.0359 -0.6073 -0.1474
  364MPD2     C 5445   3.089   4.314  10.600 -0.5525  0.1675 -0.0945
  364MPD2    C1 5446   3.208   4.293  10.540  0.6062  0.6729  0.2952
  364MPD2    C2 5447   3.259   4.168  10.526  0.2279  0.2315  0.4628
  364MPD2    C3 5448   3.189   4.063  10.588  0.8850 -0.0047 -0.1884
  364MPD2    C4 5449   3.069   4.085  10.648  0.1411 -0.1582 -0.2893
  364MPD2    C5 5450   3.017   4.211  10.656 -0.1717 -0.2056  0.3691
  364MPD2     H 5451   3.356   4.150  10.482 -0.0308  2.7447 -1.1530
  364MPD2    H1 5452   3.012   4.005  10.695 -0.5273 -0.1479 -1.0874
  364MPD2    H2 5453   3.055   4.414  10.624 -1.6021  0.2352 -1.8760
  364MPD2    H3 5454   2.924   4.237  10.704 -1.1662  0.0936 -1.7014
  364MPD2     N 5455   3.231   3.929  10.588 -0.5910  0.5324  0.3889
  364MPD2    H5 5456   3.173   3.856  10.629  0.0247 -0.0802  0.1589
  364MPD2    N1 5457   3.271   4.412  10.492 -0.2507 -0.2939  0.0176
  364MPD2    H7 5458   3.230   4.500  10.522 -0.0248  0.0755 -0.7782
  365TMC3    C1 5459   3.458   4.545  10.407 -0.4885  0.0010  0.8327
  365TMC3    C2 5460   3.551   4.549  10.305 -0.9305 -0.2602 -0.4411
  365TMC3    C3 5461   3.641   4.653  10.323  1.5602  0.4820  0.1390
  365TMC3    C4 5462   3.447   4.634  10.512  0.5222  0.0289  0.1091
  365TMC3    C5 5463   3.535   0.012  10.518 -0.4896 -0.0435  0.5276
  365TMC3    C6 5464   3.633   0.026  10.425 -0.6378 -0.1274 -0.3552
  365TMC3     C 5465   3.385   4.415  10.416 -0.0566 -0.6117 -0.3654
  365TMC3     O 5466   3.419   4.329  10.334 -0.4068  0.1449  0.1534
  365TMC3     H 5467   3.556   4.465  10.237  2.5581 -1.3098  1.0763
  365TMC3    H1 5468   3.379   4.623  10.595 -0.9332  0.6073 -1.0011
  365TMC3    H2 5469   3.700   0.111  10.426 -1.2869  0.4179 -1.9394
  365TMC3    C7 5470   3.509   0.127  10.606 -0.6549  0.1316 -0.1901
  365TMC3    C8 5471   3.761   4.667  10.244  0.4691 -0.4528  0.0754
  365TMC3    O1 5472   3.561   0.231  10.581  0.0467 -0.3829  0.6784
  365TMC3    O2 5473   3.845   0.022  10.284  0.1961 -0.0406 -0.6189
  366MPD2     C 5474   0.978   0.239  15.507 -0.7115 -0.0414  0.4089
  366MPD2    C1 5475   1.056   0.344  15.544  0.4152 -0.0850 -0.2985
  366MPD2    C2 5476   1.193   0.325  15.554  0.0062 -0.7580  0.5010
  366MPD2    C3 5477   1.250   0.205  15.516 -0.1842  0.4662 -0.1804
  366MPD2    C4 5478   1.165   0.106  15.483  0.6249 -0.4461  0.6792
  366MPD2    C5 5479   1.027   0.115  15.488 -0.5990  1.0195 -0.1941
  366MPD2     H 5480   1.254   0.409  15.584 -0.7919  0.4782 -1.3364
  366MPD2    H1 5481   1.198   0.007  15.452 -1.7109 -0.5555 -1.4650
  366MPD2    H2 5482   0.870   0.245  15.495 -0.4942 -0.7427 -1.9288
  366MPD2    H3 5483   0.965   0.026  15.482  2.1746 -0.9969  0.7548
  366MPD2     N 5484   1.388   0.194  15.544  0.2625 -0.1244  0.1334
  366MPD2    H5 5485   1.430   0.283  15.568 -0.8761  0.6865 -0.8317
  366MPD2    N1 5486   1.015   0.473  15.567  0.3452  0.3015  0.0203
  366MPD2    H7 5487   1.093   0.537  15.579 -0.7748  1.8210 -0.7847
  367TMC3    C1 5488   0.899   0.672  15.562  0.9667 -0.4843 -0.2609
  367TMC3    C2 5489   1.002   0.723  15.646  0.0609 -0.6264  0.0669
  367TMC3    C3 5490   1.019   0.860  15.651 -0.5637 -0.1076  0.1064
  367TMC3    C4 5491   0.817   0.759  15.491 -0.0559  0.2833  0.1014
  367TMC3    C5 5492   0.845   0.889  15.497 -0.0587 -0.3817  0.3304
  367TMC3    C6 5493   0.947   0.942  15.571  0.1477  0.6534 -0.1836
  367TMC3     C 5494   0.893   0.531  15.539  0.4172 -0.4091 -0.5251
  367TMC3     O 5495   0.800   0.480  15.484 -0.3533  0.4356 -0.8393
  367TMC3     H 5496   1.068   0.660  15.705  0.5577  0.3675  0.5907
  367TMC3    H1 5497   0.744   0.707  15.430  1.0321 -0.0234 -0.9422
  367TMC3    H2 5498   0.966   1.048  15.580 -0.0949  0.8345 -1.7213
  367TMC3    C7 5499   0.766   0.978  15.420 -0.3631 -1.0727  0.4183
  367TMC3    C8 5500   1.118   0.905  15.743  0.3193  0.0024  0.1591
  367TMC3    O1 5501   0.777   1.098  15.445 -0.5467 -0.3059 -1.1849
  367TMC3    O2 5502   1.174   0.823  15.812 -0.5214 -1.5420  0.0199
  368MPD2     C 5503   2.722   2.396  13.463  0.0145  0.2150 -0.1508
  368MPD2    C1 5504   2.748   2.517  13.395  0.6200  0.3572  0.0936
  368MPD2    C2 5505   2.874   2.576  13.397 -0.4044 -0.0243  0.5077
  368MPD2    C3 5506   2.981   2.509  13.451 -0.0966  0.1865  0.0465
  368MPD2    C4 5507   2.952   2.387  13.509 -0.1540  0.6074 -0.4742
  368MPD2    C5 5508   2.828   2.330  13.521  0.0516 -0.4936 -0.2946
  368MPD2     H 5509   2.888   2.681  13.372  0.3121 -0.1391  0.4434
  368MPD2    H1 5510   3.042   2.332  13.535  0.5441  0.5995 -2.8731
  368MPD2    H2 5511   2.619   2.364  13.473  0.1366  0.5038  2.1410
  368MPD2    H3 5512   2.825   2.241  13.582  0.1484 -0.4742 -0.2623
  368MPD2     N 5513   3.117   2.552  13.432 -0.0015  0.6425  0.0611
  368MPD2    H5 5514   3.199   2.497  13.456 -0.3389 -1.0753 -2.6583
  368MPD2    N1 5515   2.642   2.587  13.336 -0.4720 -0.1789 -0.1029
  368MPD2    H7 5516   2.546   2.558  13.350  0.4727 -2.9018  0.7860
  369TMC3    C1 5517   2.519   2.740  13.205 -0.3350 -0.3119  0.0966
  369TMC3    C2 5518   2.520   2.866  13.138  0.3093  0.1160 -0.3301
  369TMC3    C3 5519   2.400   2.915  13.099  0.1383  0.0292  0.2100
  369TMC3    C4 5520   2.402   2.671  13.233  0.0472  0.2423 -0.0863
  369TMC3    C5 5521   2.283   2.730  13.196  0.3930 -0.3961  0.6097
  369TMC3    C6 5522   2.279   2.859  13.144 -0.1158 -0.0973 -0.1471
  369TMC3     C 5523   2.647   2.697  13.255 -0.2465 -0.3080 -0.0457
  369TMC3     O 5524   2.745   2.767  13.229  0.2954  0.5417 -0.1126
  369TMC3     H 5525   2.611   2.924  13.126  0.2866  0.9124  3.4386
  369TMC3    H1 5526   2.390   2.579  13.289  1.7377  1.0253  1.5528
  369TMC3    H2 5527   2.187   2.906  13.112 -1.0139  0.4649  3.2826
  369TMC3    C7 5528   2.162   2.664  13.224 -0.3411 -0.1734  0.0090
  369TMC3    C8 5529   2.393   2.968  12.964  0.2433 -0.4853 -0.7841
  369TMC3    O1 5530   2.163   2.567  13.300 -0.2552 -0.7029  0.0987
  369TMC3    O2 5531   2.283   2.985  12.912  0.0907 -0.5975  0.2733
  370TMC3    C1 5532   1.961   3.250  16.474  0.1628 -0.2130 -0.1987
  370TMC3    C2 5533   1.904   3.180  16.580 -0.7233  0.1256  0.7089
  370TMC3    C3 5534   1.866   3.050  16.557 -0.2335  0.1832 -0.2412
  370TMC3    C4 5535   1.969   3.197  16.346 -0.2720  0.5154 -0.4607
  370TMC3    C5 5536   1.922   3.069  16.327 -0.2165  0.2066 -0.2646
  370TMC3    C6 5537   1.864   2.999  16.428 -0.0477  0.6865  0.3580
  370TMC3     C 5538   2.041   3.364  16.512  0.0825 -0.0094 -0.3784
  370TMC3     O 5539   2.067   3.386  16.625 -0.1797  0.1651  0.1142
  370TMC3     H 5540   1.896   3.234  16.674  3.4027  0.0282  1.1191
  370TMC3    H1 5541   2.004   3.249  16.258  1.2910 -1.1623 -0.8298
  370TMC3    H2 5542   1.828   2.898  16.415  2.3638 -0.0392 -0.7676
  370TMC3    C7 5543   1.937   3.010  16.197 -0.0792 -0.6162 -0.3209
  370TMC3    C8 5544   1.825   2.958  16.664 -0.1991  0.5359 -0.3412
  370TMC3    O1 5545   1.905   3.083  16.106  0.0040 -0.0397 -0.5449
  370TMC3    O2 5546   1.786   2.845  16.633 -0.2557  0.1979  0.0959
  371TMC3    C1 5547   3.257   1.289  15.896  0.2904 -0.2467 -0.0777
  371TMC3    C2 5548   3.126   1.300  15.943  0.0918 -0.5764 -0.6011
  371TMC3    C3 5549   3.068   1.425  15.932  0.7180 -0.1782 -0.1805
  371TMC3    C4 5550   3.325   1.389  15.835  0.2186  0.0962 -0.3007
  371TMC3    C5 5551   3.266   1.514  15.826  0.2499  0.0122  0.0469
  371TMC3    C6 5552   3.136   1.535  15.874  0.5614  0.4442 -0.3135
  371TMC3     C 5553   3.324   1.163  15.903 -0.5085 -0.0160 -0.3535
  371TMC3     O 5554   3.442   1.166  15.870 -0.1432  0.0790 -0.1716
  371TMC3     H 5555   3.066   1.224  15.992  1.3269 -0.7128  0.7047
  371TMC3    H1 5556   3.425   1.368  15.798  0.4033  1.4965 -0.5802
  371TMC3    H2 5557   3.088   1.630  15.853 -2.9096 -1.2447 -0.0197
  371TMC3    C7 5558   3.331   1.630  15.754 -0.3867  0.6469  0.7180
  371TMC3    C8 5559   2.940   1.441  16.010  0.4603 -0.6183 -0.0359
  371TMC3    O1 5560   3.296   1.744  15.798 -0.4804  0.2747  0.0744
  371TMC3    O2 5561   2.883   1.335  16.038  0.1534 -0.1533 -0.6496
  372MPD2     C 5562   2.486   2.606  13.625  0.1518 -1.0277 -0.4018
  372MPD2    C1 5563   2.566   2.548  13.718 -0.3257  0.2309 -0.1940
  372MPD2    C2 5564   2.542   2.417  13.754 -0.8952  0.3308  0.0720
  372MPD2    C3 5565   2.454   2.345  13.680  0.5944  0.0272 -0.3345
  372MPD2    C4 5566   2.381   2.403  13.579 -0.1845 -0.4219 -0.0300
  372MPD2    C5 5567   2.390   2.536  13.559  0.4954 -0.2356 -0.7468
  372MPD2     H 5568   2.595   2.367  13.835 -1.0167  0.2484  0.1009
  372MPD2    H1 5569   2.304   2.347  13.528  0.4230 -0.2533 -1.1319
  372MPD2    H2 5570   2.491   2.712  13.601  2.7868 -0.5537  2.2422
  372MPD2    H3 5571   2.321   2.587  13.493  1.0475  0.6361 -0.6539
  372MPD2     N 5572   2.453   2.206  13.704 -0.1905  0.5812  0.3751
  372MPD2    H5 5573   2.517   2.177  13.778 -0.7998  0.8565  1.0077
  372MPD2    N1 5574   2.680   2.618  13.766 -0.7350 -0.2335  0.7387
  372MPD2    H7 5575   2.730   2.575  13.844  2.1966 -2.4223 -2.3307
  373TMC3    C1 5576   2.390   1.983  13.704 -1.1637  0.9417  0.0671
  373TMC3    C2 5577   2.383   1.971  13.843  0.8519  0.2008  0.4126
  373TMC3    C3 5578   2.415   1.851  13.899 -0.4391  0.7975  0.2067
  373TMC3    C4 5579   2.425   1.880  13.626  0.0754  0.2505  0.0919
  373TMC3    C5 5580   2.480   1.773  13.691  0.2941 -1.4270  0.5112
  373TMC3    C6 5581   2.461   1.743  13.826  0.0171  0.0672 -0.7887
  373TMC3     C 5582   2.376   2.109  13.646 -0.0118  0.0626  0.3119
  373TMC3     O 5583   2.318   2.113  13.542 -0.1411 -0.3262  0.2614
  373TMC3     H 5584   2.353   2.053  13.908  0.4913 -0.1391  0.6801
  373TMC3    H1 5585   2.453   1.900  13.524  0.5926 -1.3409 -0.0824
  373TMC3    H2 5586   2.482   1.649  13.876 -0.4084  1.2408  1.6110
  373TMC3    C7 5587   2.579   1.696  13.625 -0.7356 -0.0265  0.7110
  373TMC3    C8 5588   2.447   1.850  14.037 -0.0366 -0.6422  1.1456
  373TMC3    O1 5589   2.571   1.674  13.509 -0.6319 -0.2161  0.6701
  373TMC3    O2 5590   2.555   1.803  14.071 -0.0205 -0.2780  0.0501
  374TMC3    C1 5591   3.462   2.750   9.935  0.0309 -0.3999 -0.2714
  374TMC3    C2 5592   3.587   2.800   9.929  0.0459 -0.5653  0.2015
  374TMC3    C3 5593   3.609   2.899   9.839  0.9902 -0.2766 -0.6957
  374TMC3    C4 5594   3.361   2.796   9.854 -0.4446  0.5324 -0.1785
  374TMC3    C5 5595   3.397   2.901   9.769 -0.8887 -0.1634  0.1439
  374TMC3    C6 5596   3.524   2.945   9.742 -0.4749 -0.7613  0.0182
  374TMC3     C 5597   3.454   2.616   9.993 -0.5149 -0.1231  0.5543
  374TMC3     O 5598   3.565   2.568  10.016  0.2748  0.1650 -0.3090
  374TMC3     H 5599   3.674   2.758   9.979  0.3287 -0.5452 -0.2770
  374TMC3    H1 5600   3.260   2.759   9.847 -0.2561 -0.1211  0.5704
  374TMC3    H2 5601   3.544   3.022   9.668  1.7921 -0.9814  0.4185
  374TMC3    C7 5602   3.287   2.965   9.702  0.2580  0.7719 -0.5610
  374TMC3    C8 5603   3.737   2.972   9.838  0.7426 -0.6903  0.0731
  374TMC3    O1 5604   3.318   2.986   9.584  0.1075  0.0544  0.0723
  374TMC3    O2 5605   3.762   3.058   9.756 -0.8454 -0.1416 -0.1677
  375MPD2     C 5606   3.386   3.927  16.856 -0.4387 -0.4272  0.2733
  375MPD2    C1 5607   3.277   3.887  16.782  0.3912 -0.1768 -0.3043
  375MPD2    C2 5608   3.271   3.756  16.736  0.7665 -0.5037  0.5355
  375MPD2    C3 5609   3.367   3.665  16.774 -0.2826 -0.3197  0.8539
  375MPD2    C4 5610   3.471   3.707  16.854 -0.4411  0.2781  0.2404
  375MPD2    C5 5611   3.486   3.835  16.887  0.5914  0.2857  0.1325
  375MPD2     H 5612   3.191   3.717  16.674 -0.8202  0.5024  1.9648
  375MPD2    H1 5613   3.541   3.636  16.898 -0.9561 -0.0592  0.5182
  375MPD2    H2 5614   3.400   4.025  16.900  1.4631  0.1277 -1.5678
  375MPD2    H3 5615   3.577   3.869  16.937  0.2801  2.8175 -1.0228
  375MPD2     N 5616   3.377   3.531  16.724 -0.5094  0.8350 -0.1096
  375MPD2    H5 5617   3.468   3.489  16.735 -0.6991  0.1644 -1.1716
  375MPD2    N1 5618   3.165   3.966  16.768  0.0765 -0.0197 -0.0009
  375MPD2    H7 5619   3.090   3.935  16.708  0.5404  0.7334 -0.9743
  376TMC3    C1 5620   3.333   3.332  16.607 -0.0251  0.0985 -0.0386
  376TMC3    C2 5621   3.440   3.278  16.672  0.5254  0.1423  0.5987
  376TMC3    C3 5622   3.518   3.189  16.606 -0.8820 -0.3409 -0.6511
  376TMC3    C4 5623   3.287   3.287  16.492  0.2313  0.2609 -0.0435
  376TMC3    C5 5624   3.370   3.202  16.429 -0.9726 -0.0993  0.2079
  376TMC3    C6 5625   3.483   3.146  16.485 -0.1072  0.0937 -0.2900
  376TMC3     C 5626   3.282   3.463  16.652  0.5127 -0.2256  0.0549
  376TMC3     O 5627   3.171   3.498  16.611 -0.2157 -0.1784  0.7589
  376TMC3     H 5628   3.464   3.308  16.774  1.9196 -2.3715  1.0183
  376TMC3    H1 5629   3.201   3.332  16.445  2.1326  3.9912  0.0938
  376TMC3    H2 5630   3.546   3.077  16.430  0.5632  1.1392 -0.8341
  376TMC3    C7 5631   3.334   3.198  16.294  0.7087  0.4682 -0.7903
  376TMC3    C8 5632   3.656   3.185  16.640 -0.2281  0.3133 -0.3709
  376TMC3    O1 5633   3.261   3.283  16.251  0.1832 -0.1985  0.3222
  376TMC3    O2 5634   3.690   3.193  16.758 -0.0674 -0.5280  0.2571
  377MPD2     C 5635   1.321   2.711  12.568  0.1484 -0.2101  0.2791
  377MPD2    C1 5636   1.389   2.624  12.653  0.8093 -0.0947  0.4130
  377MPD2    C2 5637   1.326   2.553  12.754  0.0307 -0.3886  0.1766
  377MPD2    C3 5638   1.182   2.567  12.762 -0.4590  0.1060  0.1980
  377MPD2    C4 5639   1.117   2.656  12.679  0.5992 -0.3105  0.4114
  377MPD2    C5 5640   1.191   2.729  12.585 -0.0375  0.0322 -0.2946
  377MPD2     H 5641   1.375   2.486  12.824 -1.5833 -0.1585  1.4998
  377MPD2    H1 5642   1.010   2.673  12.681  0.6349 -0.2340  1.4876
  377MPD2    H2 5643   1.372   2.770  12.494 -1.1449  1.0000  0.3597
  377MPD2    H3 5644   1.132   2.801  12.531 -0.4904 -0.9777 -1.1428
  377MPD2     N 5645   1.094   2.501  12.851 -0.2145 -0.2090  1.1833
  377MPD2    H5 5646   0.994   2.505  12.838  0.2357 -0.7906 -2.5111
  377MPD2    N1 5647   1.525   2.630  12.645  0.2254 -0.1470 -0.0650
  377MPD2    H7 5648   1.569   2.686  12.573 -1.5544 -0.4519 -1.4063
  378TMC3    C1 5649   1.880   2.828  12.690 -0.1249 -0.5232  0.0594
  378TMC3    C2 5650   1.768   2.754  12.670 -0.2507  0.2438 -0.1534
  378TMC3    C3 5651   1.750   2.640  12.740  0.0316 -0.0215  0.3680
  378TMC3    C4 5652   1.987   2.779  12.759  0.4287  0.3604  0.0259
  378TMC3    C5 5653   1.970   2.647  12.816  0.1949  0.9374  0.0506
  378TMC3    C6 5654   1.851   2.586  12.813 -0.0041 -0.8939  0.2558
  378TMC3     C 5655   1.886   2.948  12.616  0.3700 -0.2121  0.0004
  378TMC3     O 5656   1.831   2.955  12.505  0.7308  0.9197  0.2947
  378TMC3     H 5657   1.684   2.812  12.633 -0.2962  0.5834  0.4981
  378TMC3    H1 5658   2.079   2.833  12.775 -1.0210  1.8569  3.2354
  378TMC3    H2 5659   1.836   2.490  12.863 -0.5893 -0.4542  0.9300
  378TMC3    C7 5660   2.084   2.576  12.868  0.5389  0.7594 -0.2956
  378TMC3    C8 5661   1.619   2.573  12.734  0.0009  0.4206  0.0331
  378TMC3    O1 5662   2.048   2.472  12.923  0.4843  0.1821 -0.1028
  378TMC3    O2 5663   1.605   2.483  12.818 -0.4263  0.4471 -0.2358
  379MPD2     C 5664   2.364   1.138  16.198  0.1068  0.1358 -0.3540
  379MPD2    C1 5665   2.281   1.078  16.287  0.4280  0.5474  0.3747
  379MPD2    C2 5666   2.335   1.012  16.397  0.4473 -0.4276  0.1222
  379MPD2    C3 5667   2.471   1.020  16.426 -0.5306 -0.0442 -1.1717
  379MPD2    C4 5668   2.553   1.075  16.333  0.5605 -0.4288  0.2491
  379MPD2    C5 5669   2.498   1.123  16.214 -0.2751  0.2611  0.0223
  379MPD2     H 5670   2.266   0.961  16.464 -0.5822  1.2775  0.3464
  379MPD2    H1 5671   2.661   1.070  16.346  0.2371 -0.5297  3.0368
  379MPD2    H2 5672   2.321   1.189  16.113 -0.4807  0.7710  0.3242
  379MPD2    H3 5673   2.557   1.167  16.133 -0.0222 -1.4618 -0.7239
  379MPD2     N 5674   2.534   0.959  16.539 -0.2760 -0.6048  0.2008
  379MPD2    H5 5675   2.635   0.950  16.528 -0.2672 -0.2095 -0.0612
  379MPD2    N1 5676   2.145   1.059  16.248 -0.1075 -0.3446  0.2279
  379MPD2    H7 5677   2.124   1.078  16.150 -0.6292 -0.2425  0.3553
  380TMC3    C1 5678   1.923   0.975  16.265 -0.0985  0.2023  0.5295
  380TMC3    C2 5679   1.944   0.873  16.174 -0.2670  0.0640  0.7045
  380TMC3    C3 5680   1.850   0.840  16.086 -0.5624  0.6191  0.2652
  380TMC3    C4 5681   1.804   1.038  16.268 -0.2439 -0.1427 -0.3422
  380TMC3    C5 5682   1.712   1.005  16.171 -0.0751 -0.2120  0.1398
  380TMC3    C6 5683   1.726   0.896  16.091  1.1791  0.0235 -0.5889
  380TMC3     C 5684   2.034   1.031  16.336  0.9786  0.5766  0.7976
  380TMC3     O 5685   2.032   1.025  16.458  0.5341  0.7690  0.3782
  380TMC3     H 5686   2.047   0.846  16.154 -0.6412  0.5585 -1.8622
  380TMC3    H1 5687   1.802   1.130  16.324  0.5415 -0.5680  0.3757
  380TMC3    H2 5688   1.652   0.863  16.019  0.9310 -0.4435 -0.1181
  380TMC3    C7 5689   1.618   1.115  16.129  0.3987 -0.7665 -0.1524
  380TMC3    C8 5690   1.890   0.833  15.948  0.5840 -0.0820 -0.1031
  380TMC3    O1 5691   1.640   1.228  16.166  0.5711 -0.2982  0.3776
  380TMC3    O2 5692   1.817   0.862  15.858  0.8309  0.0119  0.3563
  381TMC3    C1 5693   2.014   2.087  16.287  0.2138 -0.0806 -0.5082
  381TMC3    C2 5694   2.092   2.200  16.300 -0.2164  0.1143  0.1484
  381TMC3    C3 5695   2.056   2.298  16.395 -0.7408  0.0883 -0.1426
  381TMC3    C4 5696   1.894   2.078  16.350  0.4814 -0.1334 -0.5564
  381TMC3    C5 5697   1.865   2.170  16.444  0.2449 -0.1235  0.4332
  381TMC3    C6 5698   1.937   2.286  16.469 -0.1300  0.0125 -0.5837
  381TMC3     C 5699   2.085   1.968  16.261  1.0248  0.4777 -0.2982
  381TMC3     O 5700   2.206   1.979  16.287  0.3926 -0.3220  0.3656
  381TMC3     H 5701   2.188   2.206  16.251 -0.2807  0.4147  0.0593
  381TMC3    H1 5702   1.840   1.985  16.359  0.9945 -0.3286  0.5229
  381TMC3    H2 5703   1.911   2.360  16.543 -2.9585 -0.8584 -0.7274
  381TMC3    C7 5704   1.734   2.159  16.506  0.4358  0.2012 -0.5526
  381TMC3    C8 5705   2.124   2.425  16.390 -0.3195  0.8119 -0.6540
  381TMC3    O1 5706   1.687   2.047  16.504  0.5177 -0.1309 -0.0866
  381TMC3    O2 5707   2.218   2.427  16.310  0.5666  0.0098  0.3391
  382MPD2     C 5708   1.425   4.679  17.314  0.2889 -0.3976 -0.6552
  382MPD2    C1 5709   1.374   0.072  17.363 -0.1688  0.0559  0.4111
  382MPD2    C2 5710   1.240   0.098  17.361  0.6121  0.0251 -0.4405
  382MPD2    C3 5711   1.151   0.001  17.318  0.4284 -0.0710  0.1742
  382MPD2    C4 5712   1.197   4.601  17.280  0.8559 -0.1316 -0.5083
  382MPD2    C5 5713   1.337   4.579  17.277  0.6153  0.0373 -0.1143
  382MPD2     H 5714   1.207   0.195  17.396  1.4597  0.0417  0.3125
  382MPD2    H1 5715   1.123   4.524  17.265 -0.5125  0.9859  0.4844
  382MPD2    H2 5716   1.530   4.655  17.321 -0.0358 -1.4805  0.7737
  382MPD2    H3 5717   1.373   4.479  17.256  0.1221  0.4169 -2.7820
  382MPD2     N 5718   1.011   0.015  17.332 -0.3361  0.1501  0.1136
  382MPD2    H5 5719   0.958   4.653  17.326  0.0307 -0.0161 -0.6886
  382MPD2    N1 5720   1.455   0.178  17.409  0.4276  1.0918 -0.0178
  382MPD2    H7 5721   1.404   0.262  17.433 -2.1718 -0.2785 -0.8021
  383TMC3    C1 5722   0.807   0.051  17.435  0.2474 -0.3594  0.0200
  383TMC3    C2 5723   0.744   4.701  17.341 -0.4620 -0.3119 -0.7586
  383TMC3    C3 5724   0.637   4.630  17.390  0.2097  0.3351  0.2462
  383TMC3    C4 5725   0.757   0.079  17.559  0.3152  0.0271  0.2219
  383TMC3    C5 5726   0.643   0.015  17.600 -0.3288  0.2659 -0.2318
  383TMC3    C6 5727   0.592   4.640  17.515 -0.1325 -0.3981  0.3469
  383TMC3     C 5728   0.942   0.098  17.407  0.3821  0.4245 -0.2102
  383TMC3     O 5729   0.985   0.196  17.463 -0.1506  0.3378 -0.4317
  383TMC3     H 5730   0.780   4.680  17.240  0.3941 -0.2469 -0.4661
  383TMC3    H1 5731   0.820   0.129  17.631  0.8396 -1.2568  0.6448
  383TMC3    H2 5732   0.503   4.586  17.545 -1.5714  2.3378  0.9731
  383TMC3    C7 5733   0.606   0.009   0.042  0.3658 -0.5071 -0.3052
  383TMC3    C8 5734   0.584   4.516  17.310 -0.3153  0.7413 -0.1986
  383TMC3    O1 5735   0.685   0.050   0.126  0.3580  0.1832 -0.5354
  383TMC3    O2 5736   0.534   4.536  17.196 -0.4547 -0.2876  0.1572
  384MPD2     C 5737   2.913   1.234  11.966 -0.7115 -0.0713  0.0460
  384MPD2    C1 5738   2.864   1.134  12.041  0.0268  0.0495 -0.7468
  384MPD2    C2 5739   2.946   1.024  12.070  0.4774 -0.2499 -0.8885
  384MPD2    C3 5740   3.075   1.022  12.027  0.3848 -0.6109 -0.7131
  384MPD2    C4 5741   3.127   1.120  11.944 -0.2968  0.0229  0.1280
  384MPD2    C5 5742   3.035   1.221  11.906  0.3747 -0.3406  0.1963
  384MPD2     H 5743   2.911   0.940  12.129 -1.0809  0.1585 -1.2318
  384MPD2    H1 5744   3.229   1.110  11.910  0.0972  0.7185  1.0961
  384MPD2    H2 5745   2.856   1.324  11.948  0.7985  1.1781  1.5535
  384MPD2    H3 5746   3.064   1.311  11.853 -1.3166  0.2945  0.3521
  384MPD2     N 5747   3.152   0.908  12.070 -0.0619 -0.1580  0.4523
  384MPD2    H5 5748   3.104   0.867  12.150 -0.6969 -1.1548 -0.4378
  384MPD2    N1 5749   2.742   1.155  12.107  0.2911  0.0210 -0.2629
  384MPD2    H7 5750   2.695   1.244  12.115  2.8101  1.3336  0.2566
  385TMC3    C1 5751   3.333   0.766  12.106  0.3104 -0.6093 -0.9994
  385TMC3    C2 5752   3.313   0.646  12.046  0.2733  0.0582  0.1070
  385TMC3    C3 5753   3.233   0.554  12.114  0.0856  0.1283  0.4541
  385TMC3    C4 5754   3.288   0.782  12.233  0.1961  0.9636  0.3299
  385TMC3    C5 5755   3.213   0.691  12.302 -0.8663 -0.7626 -0.6304
  385TMC3    C6 5756   3.188   0.569  12.241 -0.5289  0.2346 -0.3437
  385TMC3     C 5757   3.269   0.862  12.021 -0.6470  0.3470 -0.0027
  385TMC3     O 5758   3.314   0.882  11.906  0.0643 -0.1411 -0.1067
  385TMC3     H 5759   3.346   0.634  11.944  1.1944 -0.9174  0.5179
  385TMC3    H1 5760   3.306   0.878  12.280  2.5438  0.2159  0.9558
  385TMC3    H2 5761   3.118   0.495  12.279 -0.6441  0.2638 -0.5009
  385TMC3    C7 5762   3.110   0.749  12.377  0.7669  0.2997 -0.0223
  385TMC3    C8 5763   3.187   0.444  12.033 -0.6854 -0.0734 -0.3192
  385TMC3    O1 5764   3.082   0.865  12.347  0.5188  0.1688 -0.1045
  385TMC3    O2 5765   3.172   0.471  11.915  0.0818  0.2095  0.3454
  386TMC3    C1 5766   3.073   3.361  11.661  0.2423 -0.0866 -0.0877
  386TMC3    C2 5767   3.111   3.369  11.530 -0.4358 -0.4310  0.5137
  386TMC3    C3 5768   3.017   3.341  11.434 -0.1013  0.4319  0.3563
  386TMC3    C4 5769   2.950   3.329  11.700  0.3317 -0.2318  0.2808
  386TMC3    C5 5770   2.859   3.305  11.600  0.0574 -0.8115  0.4082
  386TMC3    C6 5771   2.887   3.308  11.466  0.0028 -0.5050  0.3954
  386TMC3     C 5772   3.178   3.338  11.757  0.2834  0.8323  0.6255
  386TMC3     O 5773   3.165   3.368  11.875  0.4152 -0.3420  1.0163
  386TMC3     H 5774   3.211   3.396  11.501 -0.1445  1.2334  3.0621
  386TMC3    H1 5775   2.917   3.334  11.803  2.2765 -1.2079  0.9489
  386TMC3    H2 5776   2.819   3.271  11.390 -2.7780  1.3548  1.9896
  386TMC3    C7 5777   2.726   3.272  11.648  0.0279  1.4248 -1.1364
  386TMC3    C8 5778   3.037   3.349  11.290 -0.5832 -0.3070 -0.4040
  386TMC3    O1 5779   2.727   3.222  11.762 -0.0519 -0.4959  0.8053
  386TMC3    O2 5780   2.937   3.344  11.218 -0.4971  0.6897  0.4144
  387MPD2     C 5781   0.763   2.942   9.596  0.1857 -0.6555 -0.9618
  387MPD2    C1 5782   0.830   3.044   9.661  0.6629  0.0875 -0.2395
  387MPD2    C2 5783   0.925   3.020   9.753  0.1251 -0.0028 -0.1218
  387MPD2    C3 5784   0.954   2.888   9.787  0.0345  0.0593 -0.3987
  387MPD2    C4 5785   0.896   2.785   9.718  0.0188 -0.3267  1.2035
  387MPD2    C5 5786   0.793   2.810   9.634 -0.5790  0.7513 -0.2924
  387MPD2     H 5787   0.972   3.109   9.792 -2.5284  0.8351  1.1385
  387MPD2    H1 5788   0.903   2.678   9.736 -2.3338 -1.0018 -1.8265
  387MPD2    H2 5789   0.681   2.973   9.531  1.1179  3.7042 -0.0731
  387MPD2    H3 5790   0.731   2.726   9.605  0.4803  0.4698 -1.7058
  387MPD2     N 5791   1.039   2.868   9.897  0.1681 -0.2537  0.2608
  387MPD2    H5 5792   1.069   2.956   9.939 -0.8409  2.1625 -4.1680
  387MPD2    N1 5793   0.802   3.184   9.640 -0.0552  0.2919  0.2869
  387MPD2    H7 5794   0.866   3.249   9.685 -0.6663  1.1265 -0.0478
  388TMC3    C1 5795   0.663   3.371   9.615 -0.0418  0.1300 -0.5248
  388TMC3    C2 5796   0.648   3.463   9.518 -0.0333 -0.4572 -0.6273
  388TMC3    C3 5797   0.647   3.596   9.549 -0.2042  0.4006  0.1500
  388TMC3    C4 5798   0.704   3.410   9.739  0.0636 -0.7006  0.2825
  388TMC3    C5 5799   0.711   3.544   9.770  0.2061 -0.1019  0.0056
  388TMC3    C6 5800   0.668   3.636   9.680  0.1319 -0.9232  0.2166
  388TMC3     C 5801   0.685   3.235   9.571  0.4837  0.5400  0.1037
  388TMC3     O 5802   0.610   3.181   9.497  0.0519  0.2515  0.0328
  388TMC3     H 5803   0.644   3.430   9.414 -3.2189 -0.0822 -0.6246
  388TMC3    H1 5804   0.715   3.339   9.820 -1.5178  0.0668  1.1656
  388TMC3    H2 5805   0.670   3.743   9.700  0.7376 -0.6675 -1.1937
  388TMC3    C7 5806   0.793   3.586   9.881  0.1628  0.4003  0.6027
  388TMC3    C8 5807   0.634   3.699   9.443  0.4091 -0.2687  0.2224
  388TMC3    O1 5808   0.771   3.690   9.938 -0.6676  0.2421 -0.0153
  388TMC3    O2 5809   0.680   3.808   9.464 -0.5126  0.0342 -0.2737
  389MPD2     C 5810   0.473   1.578  11.345 -0.0216  0.3860 -0.0610
  389MPD2    C1 5811   0.442   1.531  11.215  0.0681  0.0460 -0.0526
  389MPD2    C2 5812   0.361   1.419  11.196 -0.1947 -0.2650 -0.2988
  389MPD2    C3 5813   0.304   1.358  11.307  0.4324 -0.2541 -0.3511
  389MPD2    C4 5814   0.327   1.413  11.429 -0.0208 -0.5317  0.0300
  389MPD2    C5 5815   0.410   1.522  11.446  0.3237 -0.3656  0.1992
  389MPD2     H 5816   0.350   1.362  11.105  0.0342 -2.2928  0.9458
  389MPD2    H1 5817   0.280   1.377  11.520 -0.0345  0.8590  0.5751
  389MPD2    H2 5818   0.524   1.671  11.365  1.4451 -0.3730 -0.2550
  389MPD2    H3 5819   0.413   1.560  11.547  0.5746  0.7285 -0.2267
  389MPD2     N 5820   0.220   1.248  11.298  0.4996  0.1185  0.3931
  389MPD2    H5 5821   0.184   1.220  11.389 -0.7396  0.3291 -0.0311
  389MPD2    N1 5822   0.500   1.594  11.101  0.1353  0.1859  0.3861
  389MPD2    H7 5823   0.575   1.657  11.126  0.8795 -1.7699  3.2155
  390TMC3    C1 5824   0.090   1.067  11.229  0.8981 -0.4387 -0.0195
  390TMC3    C2 5825   0.103   1.018  11.356  0.2911 -0.2022  0.6266
  390TMC3    C3 5826   0.004   0.931  11.400  1.0849 -0.0106  0.7986
  390TMC3    C4 5827   0.001   1.013  11.143 -0.0964  0.8436  0.4313
  390TMC3    C5 5828   4.635   0.917  11.190 -0.0717  0.5909  0.3021
  390TMC3    C6 5829   4.626   0.884  11.319  0.0659 -0.1831  0.0450
  390TMC3     C 5830   0.176   1.179  11.184 -0.3984  0.0648 -0.6337
  390TMC3     O 5831   0.174   1.200  11.062 -0.0209  0.7003  0.5351
  390TMC3     H 5832   0.175   1.043  11.432 -1.3397 -0.6022  2.3143
  390TMC3    H1 5833   4.722   1.047  11.040  1.0456  1.2879  0.5449
  390TMC3    H2 5834   4.554   0.809  11.351  0.1450 -0.3459 -0.1541
  390TMC3    C7 5835   4.537   0.871  11.097  0.8201  0.2130 -0.6164
  390TMC3    C8 5836   0.001   0.892  11.541  0.2929 -0.4673 -0.2750
  390TMC3    O1 5837   4.577   0.818  10.994  0.2139 -0.3911  0.8512
  390TMC3    O2 5838   0.059   0.961  11.626 -0.3614 -0.0166 -0.0988
  391MPD2     C 5839   4.024   2.634  11.348 -0.7845  0.1442 -0.1638
  391MPD2    C1 5840   4.153   2.670  11.321 -0.7040  0.8151  0.0827
  391MPD2    C2 5841   4.174   2.716  11.191  0.6250 -0.2864  0.7709
  391MPD2    C3 5842   4.067   2.743  11.107  0.0157  0.3787  0.5423
  391MPD2    C4 5843   3.938   2.705  11.136  0.1149 -0.7633 -1.0109
  391MPD2    C5 5844   3.923   2.648  11.256 -0.4210 -0.3295 -0.0381
  391MPD2     H 5845   4.270   2.746  11.151 -0.0712 -0.0069 -0.6928
  391MPD2    H1 5846   3.853   2.737  11.077  0.2504  1.4918  0.0234
  391MPD2    H2 5847   4.006   2.587  11.444  1.8748  0.2053  0.3670
  391MPD2    H3 5848   3.822   2.627  11.291 -1.6611  2.2072 -2.0576
  391MPD2     N 5849   4.099   2.812  10.990  0.7563  0.2356 -0.2298
  391MPD2    H5 5850   4.199   2.832  10.982  1.0000  0.0685  2.2375
  391MPD2    N1 5851   4.251   2.665  11.426  0.1920 -0.1701 -0.1487
  391MPD2    H7 5852   4.211   2.649  11.518  0.2946  0.4453 -0.0005
  392TMC3    C1 5853   4.074   2.931  10.787 -0.3784 -0.5581  0.1463
  392TMC3    C2 5854   4.010   2.933  10.665  0.1148 -0.2656  0.8830
  392TMC3    C3 5855   4.045   3.021  10.570  0.3110  0.1551 -0.1058
  392TMC3    C4 5856   4.167   3.025  10.816 -0.2554  0.1795  0.0241
  392TMC3    C5 5857   4.202   3.116  10.719 -0.6191  0.1512 -0.4009
  392TMC3    C6 5858   4.142   3.124  10.596  0.3551  0.6426  0.4570
  392TMC3     C 5859   4.012   2.844  10.884 -0.5976 -0.2822 -0.1795
  392TMC3     O 5860   3.900   2.799  10.861 -0.4632  0.7331 -1.0439
  392TMC3     H 5861   3.935   2.860  10.641  0.5122  0.2257 -1.8334
  392TMC3    H1 5862   4.203   3.041  10.917  0.4014  0.0293 -0.1804
  392TMC3    H2 5863   4.165   3.204  10.527 -3.5455  0.4001 -1.1800
  392TMC3    C7 5864   4.303   3.207  10.749 -0.3939  0.6179  0.0863
  392TMC3    C8 5865   4.003   2.986  10.434 -0.4133  0.2368  0.2055
  392TMC3    O1 5866   4.303   3.260  10.860  0.1135 -0.7690  0.0501
  392TMC3    O2 5867   3.910   2.905  10.418 -0.0441  0.3557  0.7670
  393TMC3    C1 5868   3.967   1.880  10.225 -0.3620 -0.0527  0.3707
  393TMC3    C2 5869   3.834   1.888  10.198  0.1135  0.0377 -0.3248
  393TMC3    C3 5870   3.753   1.795  10.257 -0.0272  0.9347  0.0733
  393TMC3    C4 5871   4.027   1.772  10.294 -0.8077 -0.4067  0.6114
  393TMC3    C5 5872   3.936   1.675  10.331 -0.5217 -0.4826  0.1241
  393TMC3    C6 5873   3.805   1.685  10.317 -0.4261  0.1577 -0.4790
  393TMC3     C 5874   4.055   1.968  10.156  0.4047 -0.0852  0.2848
  393TMC3     O 5875   4.168   1.984  10.200 -0.2063 -0.1582 -0.2409
  393TMC3     H 5876   3.787   1.978  10.161  0.1039 -0.4207 -1.4236
  393TMC3    H1 5877   4.135   1.760  10.297 -0.5319  2.6719  3.0036
  393TMC3    H2 5878   3.744   1.609  10.364 -0.9547  0.0306 -1.3846
  393TMC3    C7 5879   3.990   1.558  10.405  0.4091  0.6115  0.2778
  393TMC3    C8 5880   3.620   1.804  10.211  0.1625 -0.3410  0.2165
  393TMC3    O1 5881   3.913   1.469  10.439  0.0236  0.3482 -0.7645
  393TMC3    O2 5882   3.594   1.890  10.127 -0.2353  0.1090 -0.1688
  394TMC3    C1 5883   0.566   1.630  10.872  0.1432 -0.2067 -0.6295
  394TMC3    C2 5884   0.527   1.619  10.736  0.7146 -0.4732 -0.6083
  394TMC3    C3 5885   0.586   1.694  10.636  0.3820  0.1839 -0.2618
  394TMC3    C4 5886   0.675   1.713  10.901 -0.0780  0.7754  0.2405
  394TMC3    C5 5887   0.738   1.785  10.794  0.1339 -0.8116  0.4357
  394TMC3    C6 5888   0.693   1.779  10.660 -0.3100 -0.6122 -0.1667
  394TMC3     C 5889   0.483   1.557  10.970  0.3305  0.4817 -0.6217
  394TMC3     O 5890   0.407   1.469  10.926 -0.1747 -0.2272 -0.4583
  394TMC3     H 5891   0.441   1.557  10.714  0.4313  0.1424 -1.1931
  394TMC3    H1 5892   0.719   1.713  11.000  0.2074 -0.5386  0.1055
  394TMC3    H2 5893   0.746   1.840  10.589  0.0753 -0.8734 -0.0993
  394TMC3    C7 5894   0.880   1.823  10.804 -0.1861 -0.2692  0.0383
  394TMC3    C8 5895   0.540   1.679  10.503  0.2397 -0.0979  0.1701
  394TMC3    O1 5896   0.923   1.901  10.720 -0.0816 -0.1786  0.4592
  394TMC3    O2 5897   0.560   1.775  10.424 -0.1150 -0.0821 -0.1929
  395TMC3    C1 5898   0.059   3.036  15.275 -0.6847  0.1754 -0.3164
  395TMC3    C2 5899   0.001   2.957  15.176 -0.5173  0.6744  0.1511
  395TMC3    C3 5900   0.017   2.990  15.044 -0.4264 -0.3352 -0.2823
  395TMC3    C4 5901   0.120   3.147  15.236  0.6137 -0.2116 -0.1059
  395TMC3    C5 5902   0.136   3.178  15.103 -0.0877  0.1656  0.6422
  395TMC3    C6 5903   0.084   3.094  15.008 -0.2471 -0.1526  1.0223
  395TMC3     C 5904   0.004   3.035  15.408 -0.2057  0.1766  0.2628
  395TMC3     O 5905   4.685   3.145  15.445  0.4529  0.2029  0.0107
  395TMC3     H 5906   4.659   2.878  15.207 -1.6215  1.3964 -0.3981
  395TMC3    H1 5907   0.181   3.208  15.301 -0.6978 -0.0180  0.9399
  395TMC3    H2 5908   0.086   3.123  14.904 -3.5424  0.5552  1.1727
  395TMC3    C7 5909   0.190   3.306  15.061  0.2045  0.0474  0.6646
  395TMC3    C8 5910   4.616   2.960  14.973  0.2077  0.8662 -0.2286
  395TMC3    O1 5911   0.201   3.398  15.140 -0.0371  0.5109 -0.2274
  395TMC3    O2 5912   4.569   2.845  14.967  0.0706 -0.2090  0.0899
  396MPD2     C 5913   3.936   4.636  17.283 -0.6495 -0.0172 -0.3740
  396MPD2    C1 5914   4.064   4.602  17.309 -0.7638  0.0728  0.8069
  396MPD2    C2 5915   4.158   4.704  17.325 -0.1923  0.3195 -0.4641
  396MPD2    C3 5916   4.128   0.110  17.301  0.2931  0.4231 -0.9052
  396MPD2    C4 5917   3.996   0.143  17.265 -0.3699 -0.0834  0.2773
  396MPD2    C5 5918   3.900   0.037  17.256  0.6580 -0.2578  0.1408
  396MPD2     H 5919   4.262   4.685  17.349 -0.4616  0.1054  0.5010
  396MPD2    H1 5920   3.962   0.242  17.238  0.9484  0.3430  0.1591
  396MPD2    H2 5921   3.862   4.557  17.286 -0.5659 -0.1787 -2.4356
  396MPD2    H3 5922   3.797   0.060  17.232  0.5055 -1.0943 -0.0036
  396MPD2     N 5923   4.239   0.195  17.303  0.0392  0.3145  0.0410
  396MPD2    H5 5924   4.327   0.163  17.341 -0.3157 -0.5378  0.1360
  396MPD2    N1 5925   4.100   4.462  17.334  0.4675  0.0422  0.1940
  396MPD2    H7 5926   4.030   4.389  17.339  2.4661 -1.9576 -0.6551
  397TMC3    C1 5927   4.236   4.271  17.359 -0.7041  0.6148 -0.2724
  397TMC3    C2 5928   4.299   4.218  17.249 -0.8757 -0.0045  1.2079
  397TMC3    C3 5929   4.246   4.116  17.177 -0.1804  0.1699  0.4105
  397TMC3    C4 5930   4.114   4.216  17.394 -0.2414 -0.7818  0.3797
  397TMC3    C5 5931   4.073   4.103  17.332 -0.0680 -0.2590 -0.5252
  397TMC3    C6 5932   4.138   4.043  17.225  0.4186 -0.0668 -0.8067
  397TMC3     C 5933   4.231   4.419  17.344 -0.5163 -0.0749  0.0705
  397TMC3     O 5934   4.340   4.473  17.324  0.3740 -0.0611 -0.3006
  397TMC3     H 5935   4.382   4.274  17.207 -0.5334 -0.3933  1.3731
  397TMC3    H1 5936   4.048   4.263  17.467 -0.7409 -0.2133 -0.4290
  397TMC3    H2 5937   4.097   3.956  17.175 -1.3759 -0.0976  0.6896
  397TMC3    C7 5938   3.990   4.005  17.409 -1.0172  0.2184  0.0681
  397TMC3    C8 5939   4.266   4.103  17.040 -0.4901  0.4761 -0.6006
  397TMC3    O1 5940   3.928   3.926  17.342 -0.1337  0.0082  0.0100
  397TMC3    O2 5941   4.219   4.007  16.982 -0.4953  0.1984 -0.0817
  398MPD2     C 5942   2.136   0.616   0.225 -0.1615 -0.4171  0.4272
  398MPD2    C1 5943   2.202   0.521   0.297 -0.7522 -0.0151 -0.4623
  398MPD2    C2 5944   2.289   0.550   0.399  0.4713 -0.2799 -0.0278
  398MPD2    C3 5945   2.309   0.683   0.421 -0.4079 -0.0436 -0.4219
  398MPD2    C4 5946   2.233   0.776   0.360 -0.0987  0.0690  0.0225
  398MPD2    C5 5947   2.145   0.746   0.258  0.3997 -0.2522  0.1026
  398MPD2     H 5948   2.333   0.475   0.463  0.0698 -0.1259  0.4355
  398MPD2    H1 5949   2.240   0.881   0.385  0.0115  0.0096  0.2458
  398MPD2    H2 5950   2.063   0.592   0.148 -1.7853  1.5160  1.3532
  398MPD2    H3 5951   2.081   0.825   0.220  1.2267  1.1770  1.7062
  398MPD2     N 5952   2.406   0.719   0.524  1.1169  0.0992  0.1302
  398MPD2    H5 5953   2.453   0.641   0.570  0.8154  0.0040  0.2823
  398MPD2    N1 5954   2.175   0.381   0.288  0.3308  1.1865 -0.4418
  398MPD2    H7 5955   2.221   0.319   0.355  0.8715 -0.6099 -2.4839
  399TMC3    C1 5956   2.096   0.173   0.218  0.1169  0.7776  0.1670
  399TMC3    C2 5957   2.195   0.125   0.303  0.7247  0.5876  1.0242
  399TMC3    C3 5958   2.168   0.004   0.360  0.0372  0.1255 -0.4422
  399TMC3    C4 5959   1.976   0.108   0.191  0.3915  0.5703  0.4126
  399TMC3    C5 5960   1.960   4.716   0.258  0.1807  0.2058 -0.1800
  399TMC3    C6 5961   2.050   4.665   0.353 -0.5633 -0.1598 -0.2029
  399TMC3     C 5962   2.098   0.318   0.196  0.1419 -0.2235  0.1081
  399TMC3     O 5963   2.015   0.368   0.120 -0.3892 -0.2115 -0.0064
  399TMC3     H 5964   2.293   0.169   0.316  1.5622 -0.8253 -0.6780
  399TMC3    H1 5965   1.905   0.143   0.117 -0.1669  0.4173  0.8760
  399TMC3    H2 5966   2.039   4.566   0.397 -1.3873 -0.3773 -0.8995
  399TMC3    C7 5967   1.854   4.618   0.221  0.4983  0.1496 -0.6357
  399TMC3    C8 5968   2.270   4.664   0.434  0.2826 -0.3675  0.8711
  399TMC3    O1 5969   1.856   4.509   0.272 -0.6739 -0.0028  0.1970
  399TMC3    O2 5970   2.379   4.721   0.434  0.3777  0.8835  0.6270
  400TMC3    C1 5971   0.826   3.731  17.006  0.0717  0.6677  0.0919
  400TMC3    C2 5972   0.725   3.753  16.918 -0.4842  0.8278  0.2598
  400TMC3    C3 5973   0.715   3.878  16.869 -0.3986 -0.5976  0.5875
  400TMC3    C4 5974   0.925   3.825  17.039  0.3587 -0.6731  0.0618
  400TMC3    C5 5975   0.897   3.952  17.004  0.3717 -0.3046 -0.3650
  400TMC3    C6 5976   0.799   3.984  16.909  0.0993  0.1709  0.1381
  400TMC3     C 5977   0.813   3.605  17.070  0.5272  0.0094 -1.0130
  400TMC3     O 5978   0.769   3.505  17.017  0.0279 -0.1483  0.1864
  400TMC3     H 5979   0.648   3.677  16.906 -0.0239  0.3989 -0.0008
  400TMC3    H1 5980   0.996   3.806  17.119 -1.0643  0.5053  1.5918
  400TMC3    H2 5981   0.785   4.082  16.865 -2.6009 -0.2634  0.0297
  400TMC3    C7 5982   1.015   4.035  16.984  0.4123  0.0216  0.0048
  400TMC3    C8 5983   0.595   3.919  16.801  0.7052 -0.2270  0.0966
  400TMC3    O1 5984   1.120   3.996  17.024  0.6930 -0.2267  0.3025
  400TMC3    O2 5985   0.573   4.038  16.797 -0.2246  0.4476  0.3283
  401MPD2     C 5986   3.694   2.362   2.097  0.0626 -0.9536 -0.0296
  401MPD2    C1 5987   3.763   2.418   1.993  0.8573 -0.3091  0.0469
  401MPD2    C2 5988   3.818   2.340   1.891 -0.3749  0.9341  0.1543
  401MPD2    C3 5989   3.823   2.203   1.909  0.0086  0.1675  0.0272
  401MPD2    C4 5990   3.748   2.144   2.009  0.0209  0.0458  0.4535
  401MPD2    C5 5991   3.682   2.225   2.097 -0.2756  0.8740 -0.1560
  401MPD2     H 5992   3.875   2.381   1.808  0.6921 -0.1958  0.3136
  401MPD2    H1 5993   3.726   2.039   1.997 -1.5023  0.7373 -2.6244
  401MPD2    H2 5994   3.635   2.421   2.166  1.4284 -0.5121  0.7754
  401MPD2    H3 5995   3.618   2.180   2.171  1.5431 -1.9823 -0.3325
  401MPD2     N 5996   3.912   2.127   1.823  0.9381  0.6622 -0.2937
  401MPD2    H5 5997   3.944   2.183   1.745 -0.6068 -0.4446 -1.7155
  401MPD2    N1 5998   3.779   2.560   1.973  0.3542 -0.3130 -0.4549
  401MPD2    H7 5999   3.825   2.587   1.886  0.4915 -1.2027 -0.6560
  402TMC3    C1 6000   3.993   1.939   1.706  0.8907  0.4155 -0.4974
  402TMC3    C2 6001   4.069   1.828   1.719  0.3468  0.8999  0.6146
  402TMC3    C3 6002   4.147   1.786   1.612 -0.0187 -0.5580  0.9205
  402TMC3    C4 6003   3.985   2.001   1.581  0.2071  0.3848  1.1767
  402TMC3    C5 6004   4.061   1.959   1.473  0.3955 -0.4912 -0.1377
  402TMC3    C6 6005   4.149   1.853   1.486 -0.2479 -0.5445 -0.0994
  402TMC3     C 6006   3.924   1.995   1.826 -0.5973 -0.0197 -0.5672
  402TMC3     O 6007   3.910   1.914   1.915  0.1222  0.5950 -0.7914
  402TMC3     H 6008   4.073   1.773   1.812 -0.5528  0.7508  0.5661
  402TMC3    H1 6009   3.912   2.079   1.565 -2.1323 -1.8779  0.9140
  402TMC3    H2 6010   4.223   1.821   1.413 -0.1471 -0.0552 -0.2079
  402TMC3    C7 6011   4.046   2.030   1.348 -0.2325 -0.5592 -0.4761
  402TMC3    C8 6012   4.214   1.659   1.600  0.2039 -0.3291 -0.4879
  402TMC3    O1 6013   3.970   2.128   1.354  0.3084  0.8801  0.3486
  402TMC3    O2 6014   4.221   1.609   1.487 -0.3685 -0.2581  0.5240
  403MPD2     C 6015   2.296   0.781  13.657 -0.1195 -0.5519 -0.2194
  403MPD2    C1 6016   2.359   0.689  13.735 -0.3733  0.6591  0.2570
  403MPD2    C2 6017   2.438   0.725  13.839 -0.2986  0.3134  0.0111
  403MPD2    C3 6018   2.478   0.859  13.855 -0.5109  0.3417  0.6863
  403MPD2    C4 6019   2.411   0.958  13.778  0.0880 -0.6746 -0.0158
  403MPD2    C5 6020   2.320   0.910  13.677 -0.3269  0.7143  0.5150
  403MPD2     H 6021   2.474   0.651  13.910  0.4006  1.6024  1.0021
  403MPD2    H1 6022   2.439   1.063  13.783 -1.9479 -0.0896 -0.9918
  403MPD2    H2 6023   2.232   0.760  13.572 -1.6114 -0.0170  0.7641
  403MPD2    H3 6024   2.259   0.979  13.619  1.2164  1.2437 -0.4787
  403MPD2     N 6025   2.570   0.877  13.945 -0.0359  0.1209 -0.2481
  403MPD2    H5 6026   2.618   0.795  13.980 -1.3750 -0.2486  0.7160
  403MPD2    N1 6027   2.349   0.551  13.712  0.1505 -0.1385 -0.2810
  403MPD2    H7 6028   2.419   0.494  13.758  1.0072  0.0470 -1.3666
  404TMC3    C1 6029   2.271   0.347  13.636 -0.7692 -0.5767  0.4302
  404TMC3    C2 6030   2.310   0.299  13.758 -0.0348  0.3439 -0.4355
  404TMC3    C3 6031   2.354   0.167  13.776 -0.3864  0.0290 -0.4505
  404TMC3    C4 6032   2.289   0.272  13.524 -0.0294 -0.0887 -0.2296
  404TMC3    C5 6033   2.334   0.145  13.548  0.2778 -0.2594  0.3603
  404TMC3    C6 6034   2.375   0.089  13.666 -0.1394 -0.2565 -0.0699
  404TMC3     C 6035   2.269   0.487  13.613  0.3210  0.6462 -0.1713
  404TMC3     O 6036   2.191   0.539  13.532 -0.6617  0.4899  0.1538
  404TMC3     H 6037   2.291   0.351  13.851  1.2854 -0.2453  0.1643
  404TMC3    H1 6038   2.269   0.316  13.427 -0.9786 -1.2330 -0.5633
  404TMC3    H2 6039   2.409   4.711  13.670 -2.0396 -0.8147  1.9674
  404TMC3    C7 6040   2.381   0.065  13.436  1.2781 -0.5996 -0.3426
  404TMC3    C8 6041   2.429   0.131  13.890  0.3448  0.4584  0.4832
  404TMC3    O1 6042   2.454   4.690  13.460 -0.0841 -0.3120 -0.3794
  404TMC3    O2 6043   2.532   0.067  13.881 -0.6735  0.1025  0.0598
  405MPD2     C 6044   2.636   1.226  14.925  0.0988 -0.3193 -0.2181
  405MPD2    C1 6045   2.569   1.110  14.900 -0.2226  0.6021 -0.5616
  405MPD2    C2 6046   2.488   1.100  14.787  0.5618  0.3083 -0.7123
  405MPD2    C3 6047   2.478   1.202  14.695  0.1792  0.2825  0.0179
  405MPD2    C4 6048   2.551   1.320  14.722 -0.8657  0.1249  0.1949
  405MPD2    C5 6049   2.620   1.327  14.837  0.2812 -0.5400  0.0132
  405MPD2     H 6050   2.433   1.010  14.763 -0.0953  0.1755  1.2628
  405MPD2    H1 6051   2.544   1.409  14.661  1.9412  0.1102 -0.1560
  405MPD2    H2 6052   2.703   1.232  15.009  0.1151  1.5272 -0.3520
  405MPD2    H3 6053   2.683   1.415  14.845  0.6031 -0.9376  1.7740
  405MPD2     N 6054   2.388   1.175  14.588  0.3516 -0.3010 -0.7374
  405MPD2    H5 6055   2.329   1.093  14.602  0.2339 -0.3374 -1.4682
  405MPD2    N1 6056   2.568   0.999  14.983 -0.3437 -0.6277  0.2010
  405MPD2    H7 6057   2.530   0.917  14.938 -0.8015 -0.1938 -0.2002
  406TMC3    C1 6058   2.047   1.242  14.311  0.5778  0.1172  0.4852
  406TMC3    C2 6059   2.027   1.108  14.291 -0.0486  0.2956 -0.3102
  406TMC3    C3 6060   2.124   1.025  14.344  0.0702 -0.2118  0.5126
  406TMC3    C4 6061   2.156   1.297  14.370 -0.1040 -0.3247  0.2817
  406TMC3    C5 6062   2.255   1.206  14.400 -1.0291 -0.0101 -0.4381
  406TMC3    C6 6063   2.240   1.071  14.399 -0.0253 -0.5534 -0.2897
  406TMC3     C 6064   1.928   1.332  14.311 -0.4767 -0.7248  0.3461
  406TMC3     O 6065   1.950   1.451  14.283  0.1501  0.4157  0.0003
  406TMC3     H 6066   1.942   1.064  14.241 -0.0326  0.6066 -0.6139
  406TMC3    H1 6067   2.158   1.403  14.394  1.8757 -0.1206 -0.7095
  406TMC3    H2 6068   2.326   1.006  14.401 -1.0380 -1.8451  0.8326
  406TMC3    C7 6069   2.358   1.259  14.487  0.8634  0.7860 -0.1226
  406TMC3    C8 6070   2.095   0.883  14.366  0.4530 -0.4893  0.5126
  406TMC3    O1 6071   2.424   1.362  14.457 -0.1042 -0.5136 -0.2542
  406TMC3    O2 6072   2.018   0.828  14.292 -0.8250 -0.1287 -0.5175
  407MPD2     C 6073   0.559   2.448   9.781 -0.9290  0.3791 -0.4726
  407MPD2    C1 6074   0.673   2.512   9.834  0.2521  0.9983 -0.0939
  407MPD2    C2 6075   0.660   2.637   9.897  0.7847  0.1182  0.2873
  407MPD2    C3 6076   0.538   2.709   9.888 -0.7234 -0.8477  0.2332
  407MPD2    C4 6077   0.425   2.647   9.829  0.2656 -0.7650  0.0524
  407MPD2    C5 6078   0.436   2.514   9.775 -0.1462 -0.3786  0.2623
  407MPD2     H 6079   0.753   2.682   9.931  2.2818 -2.2606 -0.6064
  407MPD2    H1 6080   0.330   2.700   9.822  0.3875 -0.4983  0.4219
  407MPD2    H2 6081   0.565   2.349   9.737 -0.8635 -0.1492  0.7352
  407MPD2    H3 6082   0.349   2.468   9.731  0.1974 -2.0517  1.3259
  407MPD2     N 6083   0.537   2.844   9.928  0.0239 -0.1605 -0.7117
  407MPD2    H5 6084   0.453   2.900   9.918 -0.4300 -0.9257 -1.1512
  407MPD2    N1 6085   0.801   2.450   9.847  0.0178 -0.6740 -0.3786
  407MPD2    H7 6086   0.876   2.499   9.893 -1.6718  1.0864  0.5156
  408TMC3    C1 6087   0.997   2.331   9.807  0.5281 -0.6380 -0.4682
  408TMC3    C2 6088   1.043   2.363   9.934  0.0087  0.7136  0.3451
  408TMC3    C3 6089   1.176   2.344   9.954  0.6854  0.6531  0.3445
  408TMC3    C4 6090   1.078   2.279   9.712  0.4791  0.3459 -0.2159
  408TMC3    C5 6091   1.213   2.273   9.741  0.2849  0.2117 -0.0384
  408TMC3    C6 6092   1.266   2.299   9.863  0.1024  0.1769  0.1427
  408TMC3     C 6093   0.854   2.337   9.782 -1.6068  0.1508 -0.5697
  408TMC3     O 6094   0.799   2.254   9.708 -0.2687  1.0833  0.4925
  408TMC3     H 6095   0.986   2.394  10.021  1.3557  0.8011  1.1946
  408TMC3    H1 6096   1.033   2.270   9.614 -1.2798 -2.8964  0.9209
  408TMC3    H2 6097   1.369   2.283   9.892  0.7171  1.0365 -1.5847
  408TMC3    C7 6098   1.307   2.231   9.638  0.1186 -0.0567 -0.0459
  408TMC3    C8 6099   1.229   2.426  10.065 -0.7180 -0.1754 -0.1489
  408TMC3    O1 6100   1.427   2.256   9.656 -0.6392  0.1594  0.5381
  408TMC3    O2 6101   1.171   2.422  10.170  0.2688  0.0276 -0.3510
  409MPD2     C 6102   4.160   3.640  17.393 -0.1879 -0.2381 -0.0911
  409MPD2    C1 6103   4.282   3.678  17.443 -0.7058  0.0219 -0.1743
  409MPD2    C2 6104   4.369   3.759  17.376 -0.3082  0.2693  0.1037
  409MPD2    C3 6105   4.345   3.783  17.242 -1.5289  0.2259  0.8772
  409MPD2    C4 6106   4.217   3.745  17.187  0.1663 -0.7744  0.0915
  409MPD2    C5 6107   4.133   3.674  17.264 -0.2341  0.1696 -0.1173
  409MPD2     H 6108   4.458   3.786  17.432  0.7187 -0.0677 -1.3572
  409MPD2    H1 6109   4.195   3.769  17.084 -0.2384 -0.4564  0.2540
  409MPD2    H2 6110   4.090   3.579  17.448 -2.0352  0.9758 -1.1166
  409MPD2    H3 6111   4.035   3.645  17.227  0.5932 -1.6810 -0.8499
  409MPD2     N 6112   4.439   3.851  17.163  0.4222 -0.1416 -0.1417
  409MPD2    H5 6113   4.417   3.852  17.063 -1.9140 -0.3061  0.3641
  409MPD2    N1 6114   4.317   3.667  17.579 -0.0173 -0.5629 -0.0487
  409MPD2    H7 6115   4.407   3.706  17.602 -0.2564 -0.4034  0.6177
  410TMC3    C1 6116   4.640   3.965  17.100 -0.5548 -0.6405  0.4092
  410TMC3    C2 6117   0.038   4.000  17.146  0.3172 -0.2761 -0.0727
  410TMC3    C3 6118   0.105   4.077  17.059  0.1306  0.5875 -0.0453
  410TMC3    C4 6119   4.591   3.991  16.978 -0.1009 -0.1181 -1.0286
  410TMC3    C5 6120   4.655   4.082  16.900 -0.1164 -0.8840 -0.8894
  410TMC3    C6 6121   0.054   4.118  16.944 -0.4842 -0.0393 -0.1470
  410TMC3     C 6122   4.558   3.904  17.204  0.5786  0.0058  0.8542
  410TMC3     O 6123   4.608   3.911  17.317  0.2144  0.0459  0.2638
  410TMC3     H 6124   0.058   3.990  17.252 -0.4933  0.7736  0.1825
  410TMC3    H1 6125   4.488   3.977  16.948  0.1579 -3.5016 -0.2350
  410TMC3    H2 6126   0.117   4.184  16.885  0.6206 -1.2383 -0.3179
  410TMC3    C7 6127   4.626   4.068  16.759  0.3062 -0.0397  0.4344
  410TMC3    C8 6128   0.225   4.143  17.102 -0.1439 -0.1065 -0.5436
  410TMC3    O1 6129   4.582   3.954  16.732  0.8709  0.5735 -0.0302
  410TMC3    O2 6130   0.261   4.247  17.050 -0.5500 -0.1285  0.0110
  411MPD2     C 6131   4.619   3.673  14.874 -1.0794  0.4608 -0.0146
  411MPD2    C1 6132   4.506   3.722  14.812  0.2387 -0.2185 -0.0977
  411MPD2    C2 6133   4.405   3.633  14.770  0.0089  0.7599 -0.5614
  411MPD2    C3 6134   4.425   3.500  14.790  0.2978 -0.5988  1.2820
  411MPD2    C4 6135   4.535   3.453  14.858 -0.1437 -0.0462 -0.1070
  411MPD2    C5 6136   4.628   3.544  14.897  0.1526 -0.2578  0.7744
  411MPD2     H 6137   4.318   3.665  14.714 -0.6165 -1.6227 -0.9737
  411MPD2    H1 6138   4.555   3.346  14.858 -0.8411 -0.1761 -2.3443
  411MPD2    H2 6139   4.695   3.738  14.917 -1.8692  0.5902  1.1641
  411MPD2    H3 6140   4.722   3.504  14.934 -0.9682 -3.4337  0.1961
  411MPD2     N 6141   4.348   3.403  14.728 -0.4133 -0.1568 -0.3803
  411MPD2    H5 6142   4.386   3.309  14.734 -0.8885 -0.1842  2.2534
  411MPD2    N1 6143   4.500   3.863  14.802  0.1810 -0.4431 -0.0451
  411MPD2    H7 6144   4.582   3.911  14.837  0.9024 -0.6718 -1.4043
  412TMC3    C1 6145   4.185   3.314  14.571  0.7259 -0.6943  0.6233
  412TMC3    C2 6146   4.064   3.348  14.515  0.4829  0.7975  0.3103
  412TMC3    C3 6147   4.042   3.318  14.385  0.0917 -0.5057 -0.2201
  412TMC3    C4 6148   4.282   3.248  14.508 -0.6514 -1.1090  0.6720
  412TMC3    C5 6149   4.261   3.228  14.373  0.0374  0.0748  0.5123
  412TMC3    C6 6150   4.140   3.255  14.318 -0.0201  0.4431  0.0921
  412TMC3     C 6151   4.232   3.423  14.658  0.7579  0.7418 -0.3028
  412TMC3     O 6152   4.163   3.519  14.678  0.1606 -0.1376 -0.0069
  412TMC3     H 6153   3.998   3.414  14.570 -1.5035 -0.1936 -0.9041
  412TMC3    H1 6154   4.381   3.247  14.551 -0.6333  0.3928  0.6587
  412TMC3    H2 6155   4.136   3.242  14.210  0.2814  1.5221 -0.0516
  412TMC3    C7 6156   4.367   3.283  14.291  0.2364 -0.6373 -0.6658
  412TMC3    C8 6157   3.963   3.417  14.315 -0.2846 -0.2724  0.1140
  412TMC3    O1 6158   4.333   3.387  14.242  0.2515 -0.0809  0.4187
  412TMC3    O2 6159   3.845   3.437  14.332 -0.2852 -0.1973 -1.0561
  413MPD2     C 6160   1.676   2.920  15.433  0.0212  0.6560  0.1961
  413MPD2    C1 6161   1.617   2.820  15.352  0.0912  0.3354  0.6690
  413MPD2    C2 6162   1.603   2.692  15.407 -0.0434  0.5124 -0.0427
  413MPD2    C3 6163   1.660   2.669  15.531 -1.1374  0.9377  0.6157
  413MPD2    C4 6164   1.715   2.765  15.610  0.1149 -0.3185  0.1340
  413MPD2    C5 6165   1.724   2.889  15.553  0.0158  0.1683  0.6582
  413MPD2     H 6166   1.556   2.613  15.351  0.0075 -0.2013  0.9296
  413MPD2    H1 6167   1.748   2.762  15.713  1.4344  2.3057 -0.2179
  413MPD2    H2 6168   1.687   3.022  15.400  2.2217 -0.6336 -3.0049
  413MPD2    H3 6169   1.756   2.970  15.617  0.4827  0.9487 -0.5564
  413MPD2     N 6170   1.656   2.533  15.571  0.0212  0.7038  0.3774
  413MPD2    H5 6171   1.604   2.464  15.518 -2.1716  3.5522 -1.2378
  413MPD2    N1 6172   1.550   2.852  15.233 -0.2550  0.1344 -0.4754
  413MPD2    H7 6173   1.532   2.951  15.216  0.4018  0.1514 -1.1020
  414TMC3    C1 6174   1.699   2.346  15.710 -0.8455  0.0341  0.1484
  414TMC3    C2 6175   1.644   2.299  15.826 -0.4851  0.1370 -0.2641
  414TMC3    C3 6176   1.582   2.177  15.827 -0.0753  0.3791 -0.3934
  414TMC3    C4 6177   1.686   2.276  15.599  0.4514 -0.6437 -0.2599
  414TMC3    C5 6178   1.623   2.160  15.603 -0.2881  0.3229  0.4425
  414TMC3    C6 6179   1.558   2.107  15.711  0.1058 -1.0889  0.0463
  414TMC3     C 6180   1.703   2.488  15.696 -0.0084 -0.4343 -0.1403
  414TMC3     O 6181   1.747   2.550  15.793 -0.3752  0.6989 -0.0560
  414TMC3     H 6182   1.655   2.360  15.915 -0.8053 -1.1323  0.6412
  414TMC3    H1 6183   1.744   2.299  15.510  0.1851 -1.2442 -0.5840
  414TMC3    H2 6184   1.520   2.005  15.704 -0.9034 -0.8726  2.5829
  414TMC3    C7 6185   1.682   2.058  15.513  0.4198  0.0080 -0.4555
  414TMC3    C8 6186   1.636   2.082  15.929  0.2961  0.4598 -0.1537
  414TMC3    O1 6187   1.601   1.990  15.446 -0.4366  0.0135 -0.3768
  414TMC3    O2 6188   1.583   1.974  15.944  0.0694  0.1667 -0.1689
  415TMC3    C1 6189   3.311   1.007   9.735  0.1176 -0.3297 -0.1379
  415TMC3    C2 6190   3.346   1.120   9.665 -0.0929  0.3538  0.4563
  415TMC3    C3 6191   3.261   1.157   9.563 -0.3215 -0.2531 -0.2574
  415TMC3    C4 6192   3.208   0.925   9.697  0.0073  0.0643  0.0949
  415TMC3    C5 6193   3.129   0.962   9.591  0.0786 -0.3812 -0.1288
  415TMC3    C6 6194   3.151   1.081   9.522 -0.3601 -0.5315 -0.2067
  415TMC3     C 6195   3.403   0.947   9.830  0.0913 -0.5159 -1.0130
  415TMC3     O 6196   3.415   0.826   9.820  0.2399 -0.2803 -0.6229
  415TMC3     H 6197   3.422   1.188   9.702 -0.0172 -0.3298  1.5508
  415TMC3    H1 6198   3.194   0.828   9.743  2.4619 -0.8701 -1.1985
  415TMC3    H2 6199   3.094   1.094   9.431  0.6446  0.9726 -0.6309
  415TMC3    C7 6200   3.025   0.868   9.553  0.0575 -0.2503 -0.6418
  415TMC3    C8 6201   3.299   1.278   9.490 -0.3773  0.0249 -0.1868
  415TMC3    O1 6202   2.928   0.925   9.498 -0.1035 -0.6512 -0.6603
  415TMC3    O2 6203   3.207   1.324   9.422 -0.7850 -0.0879 -0.5686
  416MPD2     C 6204   4.450   4.195  11.609  0.4894 -0.4110  0.1335
  416MPD2    C1 6205   4.362   4.123  11.678  0.1384  0.3476  0.1473
  416MPD2    C2 6206   4.357   3.988  11.658 -0.0746  0.1309 -0.0568
  416MPD2    C3 6207   4.443   3.926  11.576 -0.1125 -0.0445  0.1554
  416MPD2    C4 6208   4.542   3.999  11.507 -0.3293  0.6401 -0.6567
  416MPD2    C5 6209   4.547   4.132  11.542 -0.0927 -0.7973  0.0296
  416MPD2     H 6210   4.275   3.932  11.702  1.8056 -2.4530  0.1621
  416MPD2    H1 6211   4.627   3.958  11.453  0.4665  0.6662  0.5848
  416MPD2    H2 6212   4.465   4.301  11.621  0.3078 -0.0014 -3.2600
  416MPD2    H3 6213   4.615   4.203  11.497  0.2242 -0.1142  1.5938
  416MPD2     N 6214   4.432   3.783  11.543 -0.3857 -0.0330 -0.7163
  416MPD2    H5 6215   4.365   3.738  11.605 -0.8332  2.5002  0.6591
  416MPD2    N1 6216   4.262   4.191  11.744  0.6877  0.0966  0.1908
  416MPD2    H7 6217   4.273   4.291  11.734 -0.3563  0.3933  2.0291
  417TMC3    C1 6218   4.077   4.234  11.870 -0.7079  0.4709  0.2457
  417TMC3    C2 6219   4.013   4.210  11.990  0.1296  0.3027  0.0305
  417TMC3    C3 6220   3.929   4.309  12.042  0.1198 -0.5980  0.0225
  417TMC3    C4 6221   4.039   4.342  11.786  1.1284 -0.1967 -0.1108
  417TMC3    C5 6222   3.937   4.424  11.829  0.0770 -0.4712 -0.0033
  417TMC3    C6 6223   3.894   4.420  11.961  0.3797  0.3374 -0.8150
  417TMC3     C 6224   4.180   4.142  11.832 -0.8907  0.1303  0.4813
  417TMC3     O 6225   4.194   4.039  11.899  0.3886  0.5510  0.1759
  417TMC3     H 6226   4.048   4.125  12.048  2.7772  1.9071  0.7918
  417TMC3    H1 6227   4.063   4.361  11.682  1.8907 -1.3157 -0.1499
  417TMC3    H2 6228   3.824   4.497  11.991 -0.8681 -1.4535  0.8692
  417TMC3    C7 6229   3.873   4.514  11.731  0.3649  0.3906 -0.2796
  417TMC3    C8 6230   3.879   4.294  12.173  0.2628  0.9681 -0.1261
  417TMC3    O1 6231   3.925   4.538  11.622  0.3846  0.3605 -0.3253
  417TMC3    O2 6232   3.893   4.177  12.217  0.2512  0.0058  0.3377
  418TMC3    C1 6233   2.789   0.794   0.655  0.3600  0.7508  0.2144
  418TMC3    C2 6234   2.675   0.863   0.616 -0.4723 -0.1055  0.2164
  418TMC3    C3 6235   2.552   0.816   0.662  0.2101  0.2701 -0.2853
  418TMC3    C4 6236   2.783   0.686   0.737 -0.8873  0.1201 -0.0820
  418TMC3    C5 6237   2.662   0.638   0.777 -0.9514  0.0815  0.1634
  418TMC3    C6 6238   2.541   0.698   0.735 -0.2425  0.1239 -0.3060
  418TMC3     C 6239   2.866   0.779   0.539 -0.7605  0.3224  0.1515
  418TMC3     O 6240   2.868   0.874   0.463 -0.0415 -0.4560 -0.1531
  418TMC3     H 6241   2.686   0.955   0.560  1.5086 -0.6479 -0.2709
  418TMC3    H1 6242   2.874   0.636   0.768 -0.3074  0.1470 -1.7297
  418TMC3    H2 6243   2.444   0.660   0.763 -0.2680 -0.4162 -1.1222
  418TMC3    C7 6244   2.643   0.548   0.887  0.1185 -0.3527  0.1138
  418TMC3    C8 6245   2.453   0.838   0.556  0.3186 -0.0874 -0.2483
  418TMC3    O1 6246   2.544   0.481   0.870 -0.0425 -0.3764  0.2580
  418TMC3    O2 6247   2.440   0.941   0.491 -0.3357  0.2254  0.4904
  419MPD2     C 6248   1.274   3.736  11.798  0.6308 -0.2555  0.3466
  419MPD2    C1 6249   1.362   3.771  11.899 -0.0920  0.5893 -0.1034
  419MPD2    C2 6250   1.323   3.756  12.030 -0.3199 -0.3099  0.2012
  419MPD2    C3 6251   1.206   3.702  12.069  0.2932 -0.6190 -0.7391
  419MPD2    C4 6252   1.134   3.644  11.965 -0.3112 -1.0232  0.5917
  419MPD2    C5 6253   1.159   3.667  11.833  0.1377  0.6470 -0.2472
  419MPD2     H 6254   1.399   3.780  12.104  1.6278  1.0981 -2.2486
  419MPD2    H1 6255   1.048   3.579  11.982 -0.9304 -0.4757 -0.4301
  419MPD2    H2 6256   1.285   3.768  11.695  0.6305 -0.5850  0.2441
  419MPD2    H3 6257   1.096   3.629  11.753  2.3857 -0.4650 -1.4762
  419MPD2     N 6258   1.182   3.702  12.207 -0.0396 -0.2559 -0.1051
  419MPD2    H5 6259   1.250   3.732  12.276 -1.1686 -1.7337  1.6239
  419MPD2    N1 6260   1.487   3.830  11.877  0.2434 -0.6365 -0.1050
  419MPD2    H7 6261   1.529   3.864  11.963  1.5786 -2.0404 -0.2163
  420TMC3    C1 6262   1.035   3.696  12.401  0.2875 -0.7434 -0.0763
  420TMC3    C2 6263   1.104   3.800  12.458  0.4327 -0.1204  0.4785
  420TMC3    C3 6264   1.070   3.825  12.588 -0.0595 -0.0157 -0.2218
  420TMC3    C4 6265   0.927   3.638  12.449  0.0307  0.1182 -0.0925
  420TMC3    C5 6266   0.890   3.673  12.574 -0.0367 -0.6281 -0.0438
  420TMC3    C6 6267   0.957   3.766  12.645 -1.2074  0.4489  0.2540
  420TMC3     C 6268   1.051   3.675  12.256 -0.5501  0.3909  0.6969
  420TMC3     O 6269   0.948   3.660  12.189 -0.8457  0.5509  0.0816
  420TMC3     H 6270   1.185   3.855  12.410  1.3668  0.0872  2.2776
  420TMC3    H1 6271   0.876   3.554  12.402 -0.9004  0.5363  0.1624
  420TMC3    H2 6272   0.922   3.802  12.741  2.3575  0.8260  1.4277
  420TMC3    C7 6273   0.775   3.599  12.620  0.1424  0.9902 -0.0112
  420TMC3    C8 6274   1.135   3.942  12.647  0.2093 -0.1172  0.2146
  420TMC3    O1 6275   0.694   3.560  12.535  0.1319  0.7948  0.9591
  420TMC3    O2 6276   1.247   3.969  12.612  0.1314  0.1245 -0.3518
  421TMC3    C1 6277   2.749   0.985  14.072 -1.1000  0.2638  0.2701
  421TMC3    C2 6278   2.791   1.096  14.144 -0.3523  0.1321  0.0085
  421TMC3    C3 6279   2.909   1.081  14.211  0.3410 -0.1158  1.5853
  421TMC3    C4 6280   2.819   0.865  14.071  0.0292 -0.1248 -0.8517
  421TMC3    C5 6281   2.943   0.866  14.128  0.3290  0.2374  0.5447
  421TMC3    C6 6282   2.986   0.966  14.207  0.3915 -0.0958  0.1895
  421TMC3     C 6283   2.622   0.998  13.990  0.0716  0.0464 -0.6371
  421TMC3     O 6284   2.567   1.109  13.986  0.3171 -0.4000  0.4802
  421TMC3     H 6285   2.742   1.191  14.126  0.6784  0.6433 -0.1553
  421TMC3    H1 6286   2.775   0.778  14.022  1.1889 -0.8097 -0.6733
  421TMC3    H2 6287   3.071   0.953  14.273  1.5448 -1.1119 -1.4882
  421TMC3    C7 6288   3.039   0.775  14.065  0.2533 -0.6098 -0.6475
  421TMC3    C8 6289   2.965   1.178  14.299 -0.4409  0.0726 -0.4338
  421TMC3    O1 6290   3.157   0.805  14.078  0.1938 -0.1905  0.2622
  421TMC3    O2 6291   3.084   1.193  14.318  0.5559 -0.3893  0.2498
  422TMC3    C1 6292   0.257   2.003  12.903 -0.4623 -0.0082  0.0221
  422TMC3    C2 6293   0.211   2.126  12.922 -0.1464 -0.7728  0.3575
  422TMC3    C3 6294   0.081   2.144  12.950  0.0740  0.4570  0.0127
  422TMC3    C4 6295   0.175   1.890  12.908  0.1474  0.4406  0.6608
  422TMC3    C5 6296   0.040   1.919  12.925 -0.3606 -0.4380  0.1137
  422TMC3    C6 6297   4.713   2.046  12.949 -0.6638 -0.3068 -0.2691
  422TMC3     C 6298   0.374   1.989  12.814  0.4134  0.0838  0.5560
  422TMC3     O 6299   0.392   2.091  12.748  0.7240  0.2500  0.7379
  422TMC3     H 6300   0.277   2.209  12.897 -0.6962  0.6252  3.4276
  422TMC3    H1 6301   0.212   1.789  12.893 -0.6562  0.6906 -3.0124
  422TMC3    H2 6302   4.608   2.060  12.973 -0.2239  1.3395  0.6763
  422TMC3    C7 6303   4.677   1.808  12.928  0.1290  0.4236  0.3005
  422TMC3    C8 6304   0.043   2.278  12.927  0.4439  0.0833  0.3246
  422TMC3    O1 6305   4.722   1.702  12.888  0.3187 -0.0927  0.0945
  422TMC3    O2 6306   0.132   2.360  12.893 -0.2846  0.0944 -0.0649
  423MPD2     C 6307   1.084   2.675   0.503 -0.1050 -0.4588 -0.3593
  423MPD2    C1 6308   1.084   2.813   0.483  0.1055  0.5020 -0.3760
  423MPD2    C2 6309   1.134   2.871   0.367  0.0538  0.2276  0.5026
  423MPD2    C3 6310   1.208   2.784   0.281 -0.5628  0.2137 -0.1934
  423MPD2    C4 6311   1.196   2.647   0.294 -0.0618 -0.5451 -0.1789
  423MPD2    C5 6312   1.136   2.592   0.407 -0.0614 -0.3142 -0.2164
  423MPD2     H 6313   1.144   2.978   0.363  2.6122  0.0347  1.5310
  423MPD2    H1 6314   1.252   2.588   0.222 -0.4238 -0.6135 -0.4010
  423MPD2    H2 6315   1.063   2.632   0.599  1.7397 -0.2544  0.1416
  423MPD2    H3 6316   1.143   2.486   0.429  1.2356 -0.9863 -3.9092
  423MPD2     N 6317   1.293   2.835   0.166  0.2710 -0.8709 -0.3638
  423MPD2    H5 6318   1.343   2.771   0.104 -0.4791 -1.9121  0.0930
  423MPD2    N1 6319   1.008   2.886   0.576 -0.5551 -0.2458 -0.7147
  423MPD2    H7 6320   0.962   2.834   0.650 -0.7884  0.1263 -0.5994
  424TMC3    C1 6321   0.912   3.071   0.700  0.7751  0.9547 -0.2417
  424TMC3    C2 6322   0.925   2.997   0.815 -0.7152 -0.5108  0.6515
  424TMC3    C3 6323   0.884   3.057   0.934 -0.0925  0.0815  0.6816
  424TMC3    C4 6324   0.854   3.190   0.689  0.0513  0.5004  0.1619
  424TMC3    C5 6325   0.808   3.244   0.804  0.5198  0.4719 -0.0040
  424TMC3    C6 6326   0.817   3.177   0.927 -0.6289  0.8320 -0.7770
  424TMC3     C 6327   0.972   3.020   0.573  0.4557  0.4182 -0.1057
  424TMC3     O 6328   0.987   3.094   0.477  0.1239 -0.5383  0.3578
  424TMC3     H 6329   0.985   2.907   0.814  0.7798  0.4691  1.1850
  424TMC3    H1 6330   0.837   3.236   0.593 -0.5648  1.0565  0.5402
  424TMC3    H2 6331   0.775   3.223   1.016  1.4811 -0.2217  0.7743
  424TMC3    C7 6332   0.763   3.388   0.784 -0.1039  0.6169 -0.3431
  424TMC3    C8 6333   0.879   2.972   1.058  0.6817 -0.4718 -0.5237
  424TMC3    O1 6334   0.820   3.459   0.699  0.3792 -0.5910 -0.1245
  424TMC3    O2 6335   0.944   2.868   1.058 -0.6192 -0.2234 -0.3758
  425MPD2     C 6336   0.182   2.344  17.352  0.4578 -0.0697  0.5526
  425MPD2    C1 6337   0.152   2.209  17.346 -0.2307 -0.0351 -0.0133
  425MPD2    C2 6338   0.037   2.160  17.402 -0.5550  0.2182  0.5360
  425MPD2    C3 6339   4.668   2.245  17.454 -0.5732  0.3933  0.4685
  425MPD2    C4 6340   4.685   2.383  17.440  0.4460 -0.2226 -0.4556
  425MPD2    C5 6341   0.083   2.425  17.397  0.2732  0.6973  0.3279
  425MPD2     H 6342   0.021   2.053  17.412 -1.0196  0.1893 -0.6132
  425MPD2    H1 6343   4.621   2.465  17.471 -1.8738 -1.7653 -1.1488
  425MPD2    H2 6344   0.284   2.371  17.329  1.0985  1.2487  4.9665
  425MPD2    H3 6345   0.108   2.531  17.403  0.7634  0.6069 -0.1738
  425MPD2     N 6346   4.560   2.182  17.521 -0.2808 -0.1308  0.6581
  425MPD2    H5 6347   4.551   2.081  17.517 -0.9784 -0.0273 -0.1433
  425MPD2    N1 6348   0.246   2.123  17.290  0.2517 -0.4066 -0.2584
  425MPD2    H7 6349   0.339   2.162  17.282 -0.5651  1.2998 -1.3410
  426TMC3    C1 6350   0.347   1.914  17.252  0.2616 -0.3204  0.1538
  426TMC3    C2 6351   0.336   1.799  17.176  0.4465  0.0855  0.3336
  426TMC3    C3 6352   0.440   1.714  17.194 -0.4033  0.9768 -0.0981
  426TMC3    C4 6353   0.441   1.941  17.342  0.3505  0.2458  0.0205
  426TMC3    C5 6354   0.544   1.847  17.354  0.2576  0.5261  0.5237
  426TMC3    C6 6355   0.555   1.742  17.264  0.0480  0.2114  0.4842
  426TMC3     C 6356   0.223   1.992  17.263  0.1708  0.7864 -0.4292
  426TMC3     O 6357   0.121   1.935  17.230 -0.1021 -0.1091  0.2764
  426TMC3     H 6358   0.246   1.766  17.126 -0.2994  1.8594  0.5188
  426TMC3    H1 6359   0.450   2.030  17.403  0.6007 -0.5308  1.1129
  426TMC3    H2 6360   0.622   1.658  17.271 -1.3637 -1.3499 -4.6811
  426TMC3    C7 6361   0.580   1.807  17.487 -0.6880 -0.0829 -0.3679
  426TMC3    C8 6362   0.456   1.605  17.098  0.1519 -0.6768  0.5517
  426TMC3    O1 6363   0.689   1.753  17.499 -0.1644 -0.4915  0.4158
  426TMC3    O2 6364   0.564   1.586  17.046  0.3189 -0.3602  0.0429
  427MPD2     C 6365   4.042   4.528  15.245 -0.1311  0.0654  0.0381
  427MPD2    C1 6366   3.988   4.404  15.286 -0.6026 -0.9647 -0.9041
  427MPD2    C2 6367   3.852   4.400  15.307 -0.2762 -0.6241  0.0554
  427MPD2    C3 6368   3.766   4.509  15.299  0.3887  0.7671  0.3930
  427MPD2    C4 6369   3.828   4.630  15.264 -0.3490 -0.1415 -0.2060
  427MPD2    C5 6370   3.956   4.639  15.230  0.2866  0.4249  0.5827
  427MPD2     H 6371   3.807   4.305  15.333 -2.4137 -0.4082 -2.8533
  427MPD2    H1 6372   3.765   4.718  15.253  1.2324  0.9457 -0.5481
  427MPD2    H2 6373   4.145   4.533  15.213 -0.6519 -4.2746 -2.3527
  427MPD2    H3 6374   3.996   0.011  15.204 -0.9567  0.7096 -0.2327
  427MPD2     N 6375   3.630   4.499  15.322 -0.3736  0.0356 -0.6036
  427MPD2    H5 6376   3.572   4.580  15.309  0.5089  0.8344  0.4696
  427MPD2    N1 6377   4.065   4.290  15.313 -0.0538 -0.3994  0.1037
  427MPD2    H7 6378   4.018   4.200  15.320 -0.8908 -0.1104 -1.7677
  428TMC3    C1 6379   4.277   4.187  15.343 -0.0810 -0.1158 -0.0718
  428TMC3    C2 6380   4.217   4.090  15.425  0.0324 -0.7933  0.1951
  428TMC3    C3 6381   4.296   3.990  15.476  0.1766 -0.1811  0.1324
  428TMC3    C4 6382   4.410   4.198  15.330 -0.9716  0.1159 -0.3545
  428TMC3    C5 6383   4.485   4.112  15.401 -0.1204 -0.3879  0.7740
  428TMC3    C6 6384   4.433   4.011  15.481  0.2627 -0.3518  0.2594
  428TMC3     C 6385   4.199   4.309  15.325  0.1862  0.4896 -0.0280
  428TMC3     O 6386   4.263   4.404  15.368  0.1998 -0.0007  0.1688
  428TMC3     H 6387   4.110   4.089  15.439 -0.1185 -1.0929 -0.9880
  428TMC3    H1 6388   4.445   4.292  15.288 -0.7278 -0.5753 -1.6772
  428TMC3    H2 6389   4.502   3.943  15.528  0.2475 -1.2162 -0.9512
  428TMC3    C7 6390   4.611   4.163  15.447 -0.2806 -0.1268  0.1629
  428TMC3    C8 6391   4.243   3.864  15.516 -0.8687  0.7276 -0.5729
  428TMC3    O1 6392   4.654   4.132  15.555 -0.1827 -0.0746  0.5618
  428TMC3    O2 6393   4.315   3.790  15.582  0.2667 -0.0841  0.2257
  429MPD2     C 6394   0.412   0.211  17.445 -0.2415  0.3263 -0.3147
  429MPD2    C1 6395   0.376   0.141  17.335  0.6647 -0.2523  0.6576
  429MPD2    C2 6396   0.449   0.155  17.220  0.3927  0.7400  0.6325
  429MPD2    C3 6397   0.558   0.244  17.221  0.4221  0.3951 -0.0760
  429MPD2    C4 6398   0.588   0.312  17.336 -0.5954  0.2430  0.1084
  429MPD2    C5 6399   0.508   0.302  17.445 -0.9157 -0.7115 -0.3173
  429MPD2     H 6400   0.424   0.088  17.139  0.8795  0.0667  1.0360
  429MPD2    H1 6401   0.673   0.378  17.342 -1.2438  1.4325 -3.8622
  429MPD2    H2 6402   0.360   0.210  17.540 -0.3795  0.0363 -0.3938
  429MPD2    H3 6403   0.536   0.362  17.531 -0.3466 -1.6093  0.1252
  429MPD2     N 6404   0.635   0.235  17.104 -0.0847  0.0701  0.5477
  429MPD2    H5 6405   0.606   0.166  17.035  0.4503  1.2944 -0.9102
  429MPD2    N1 6406   0.280   0.038  17.337 -0.3078  0.2703  0.2025
  429MPD2    H7 6407   0.270   4.707  17.253  0.4085  0.5960 -0.1041
  430TMC3    C1 6408   0.805   0.271  16.947  0.6202 -0.8419 -0.1510
  430TMC3    C2 6409   0.709   0.299  16.854  0.6018  0.5193  0.2137
  430TMC3    C3 6410   0.713   0.219  16.743  0.3211  0.0858  0.2768
  430TMC3    C4 6411   0.890   0.172  16.939  0.8403 -0.0167 -0.5393
  430TMC3    C5 6412   0.900   0.099  16.822  0.7838  0.2762 -0.5097
  430TMC3    C6 6413   0.802   0.115  16.731 -0.9134  0.2053 -0.2927
  430TMC3     C 6414   0.754   0.300  17.081 -0.5227  0.7382 -0.2476
  430TMC3     O 6415   0.827   0.353  17.161 -0.5883 -0.7225 -0.4451
  430TMC3     H 6416   0.630   0.369  16.876  0.7277  0.2624  1.4814
  430TMC3    H1 6417   0.952   0.141  17.022 -2.5412  1.0828  2.4062
  430TMC3    H2 6418   0.806   0.051  16.644  2.4280  0.9253 -0.6399
  430TMC3    C7 6419   0.931   4.683  16.839  0.9454 -0.0884  0.1927
  430TMC3    C8 6420   0.612   0.231  16.635 -0.0366  0.2401 -0.0967
  430TMC3    O1 6421   0.863   4.601  16.778 -0.0729  0.2191  0.3654
  430TMC3    O2 6422   0.600   0.135  16.561  0.0845  0.0926  1.2288
  431MPD2     C 6423   2.054   4.620  12.141 -0.3188  0.0528  0.6807
  431MPD2    C1 6424   1.942   4.553  12.189 -0.1858  0.6182  0.0442
  431MPD2    C2 6425   1.869   4.455  12.116  0.1397  0.1269 -0.2873
  431MPD2    C3 6426   1.917   4.427  11.992  0.0126 -0.1186 -0.1481
  431MPD2    C4 6427   2.026   4.509  11.935  0.2850 -0.3390  0.2740
  431MPD2    C5 6428   2.098   4.598  12.011  1.0480  0.7065 -0.9163
  431MPD2     H 6429   1.780   4.410  12.157  0.3067  0.1379  0.0898
  431MPD2    H1 6430   2.067   4.485  11.837 -0.1164 -0.4747  0.1378
  431MPD2    H2 6431   2.109   4.697  12.195 -0.7217 -0.6632  2.0998
  431MPD2    H3 6432   2.184   4.648  11.968  1.1028  2.3924  1.1404
  431MPD2     N 6433   1.867   4.323  11.915 -0.0975 -0.2262 -0.7374
  431MPD2    H5 6434   1.884   4.316  11.816  0.6495 -0.1828 -0.6102
  431MPD2    N1 6435   1.906   4.567  12.324  0.1479  0.1068 -0.0748
  431MPD2    H7 6436   1.818   4.525  12.351  0.3584  0.5201  1.2793
  432TMC3    C1 6437   1.770   4.127  11.840 -0.0056  0.3743 -0.2818
  432TMC3    C2 6438   1.861   4.114  11.742 -0.5993 -0.0408 -0.3690
  432TMC3    C3 6439   1.840   4.020  11.645 -0.3790  0.2927 -0.5419
  432TMC3    C4 6440   1.675   4.022  11.863 -0.9884  0.1119 -0.3956
  432TMC3    C5 6441   1.654   3.933  11.754 -0.0379  0.0531 -0.5859
  432TMC3    C6 6442   1.736   3.926  11.646 -0.5687  0.4395  0.1147
  432TMC3     C 6443   1.780   4.220  11.954 -0.3019  0.0424  0.3917
  432TMC3     O 6444   1.732   4.183  12.064 -0.5633  0.0695  0.1600
  432TMC3     H 6445   1.935   4.191  11.722 -0.2215 -0.1817  0.5267
  432TMC3    H1 6446   1.596   4.039  11.935 -1.4514  1.7102 -1.2704
  432TMC3    H2 6447   1.731   3.855  11.565  0.4476 -1.1531  1.4393
  432TMC3    C7 6448   1.540   3.848  11.756  0.9775 -0.6322  1.0287
  432TMC3    C8 6449   1.948   3.986  11.549 -0.6034 -0.4271  0.9774
  432TMC3    O1 6450   1.502   3.802  11.651  0.3203  0.1279  0.2543
  432TMC3    O2 6451   1.910   3.967  11.431  0.0383 -0.3142  0.0089
  433MPD2     C 6452   0.286   3.236  10.805  0.0504 -0.1825 -0.0439
  433MPD2    C1 6453   0.335   3.128  10.873  0.4693  0.1656  0.3972
  433MPD2    C2 6454   0.382   3.145  10.996 -0.0440 -0.5170  0.4528
  433MPD2    C3 6455   0.382   3.269  11.055 -0.0989 -0.0168  0.5519
  433MPD2    C4 6456   0.341   3.379  10.987 -0.0440  0.3591  0.0784
  433MPD2    C5 6457   0.294   3.360  10.858  0.2234 -0.0588  0.0815
  433MPD2     H 6458   0.433   3.066  11.050  1.9016 -0.1201 -0.8050
  433MPD2    H1 6459   0.356   3.480  11.021  3.1873 -1.0344  2.7177
  433MPD2    H2 6460   0.245   3.227  10.705 -1.5985  0.3314  0.5848
  433MPD2    H3 6461   0.271   3.452  10.805  0.6196 -0.0714 -0.1034
  433MPD2     N 6462   0.430   3.276  11.187 -0.2156  0.1751 -0.1752
  433MPD2    H5 6463   0.463   3.194  11.236 -2.1642  0.3173  1.4112
  433MPD2    N1 6464   0.342   3.005  10.795  0.0353 -0.5441 -0.4862
  433MPD2    H7 6465   0.313   3.010  10.698 -1.1437 -0.3209 -0.1296
  434TMC3    C1 6466   0.429   2.784  10.746 -0.1873 -0.5210  0.2424
  434TMC3    C2 6467   0.491   2.666  10.798  0.7199 -0.2926 -0.3347
  434TMC3    C3 6468   0.616   2.636  10.748  0.4082  0.3138  0.4653
  434TMC3    C4 6469   0.479   2.845  10.629  0.2304 -0.3194  0.5989
  434TMC3    C5 6470   0.593   2.794  10.572  1.5696  0.2642  0.2925
  434TMC3    C6 6471   0.666   2.700  10.641 -0.0735 -0.0301 -0.5702
  434TMC3     C 6472   0.371   2.874  10.842  0.0314 -0.2750  0.3787
  434TMC3     O 6473   0.368   2.838  10.960  0.3953 -0.2781  0.0178
  434TMC3     H 6474   0.453   2.600  10.875 -0.4490  1.7777  0.8425
  434TMC3    H1 6475   0.428   2.925  10.577 -1.9919 -2.1614 -0.0510
  434TMC3    H2 6476   0.760   2.672  10.595 -0.3447 -0.9142 -0.5749
  434TMC3    C7 6477   0.627   2.838  10.440 -0.2370 -0.3296  0.4846
  434TMC3    C8 6478   0.715   2.593  10.840 -0.8026  0.3462 -0.0238
  434TMC3    O1 6479   0.615   2.958  10.416 -0.2796  0.2216  0.3224
  434TMC3    O2 6480   0.696   2.483  10.887 -0.2174 -0.7034 -0.7395
  435MPD2     C 6481   2.211   3.082  15.701  0.2240  0.4366 -0.4177
  435MPD2    C1 6482   2.171   3.102  15.834 -0.1215  0.1221  0.0441
  435MPD2    C2 6483   2.260   3.062  15.934 -0.2851  0.0281 -0.2846
  435MPD2    C3 6484   2.380   3.002  15.899  0.1457  0.5968  0.6079
  435MPD2    C4 6485   2.412   2.972  15.763  0.7464  0.2046 -0.4431
  435MPD2    C5 6486   2.328   3.018  15.665  0.0818  0.6911 -0.1564
  435MPD2     H 6487   2.221   3.083  16.033 -0.6044 -1.0564 -0.1851
  435MPD2    H1 6488   2.496   2.915  15.724  1.6888  2.1174 -1.2104
  435MPD2    H2 6489   2.150   3.111  15.617  0.6528  0.9653 -0.5464
  435MPD2    H3 6490   2.349   3.009  15.559  2.1522 -1.4442  0.4426
  435MPD2     N 6491   2.473   2.978  16.002 -0.3384  0.1094 -0.2242
  435MPD2    H5 6492   2.444   3.015  16.092 -2.2338  2.5716 -1.8499
  435MPD2    N1 6493   2.045   3.160  15.867 -0.0975  1.1925 -0.4378
  435MPD2    H7 6494   2.018   3.169  15.964  2.0847 -0.1546  0.2988
  436TMC3    C1 6495   1.747   3.406  16.017 -0.1919 -0.4440  0.0671
  436TMC3    C2 6496   1.856   3.343  15.960  0.2675  0.2125 -0.4406
  436TMC3    C3 6497   1.829   3.262  15.853  0.2054  0.1765  0.5046
  436TMC3    C4 6498   1.621   3.396  15.963 -0.3556  0.3750  1.2532
  436TMC3    C5 6499   1.603   3.323  15.852 -0.1339  1.1207  0.1273
  436TMC3    C6 6500   1.703   3.244  15.800  0.6561 -1.2697 -0.0779
  436TMC3     C 6501   1.767   3.483  16.137  0.2301  0.0167  0.2751
  436TMC3     O 6502   1.880   3.478  16.183 -0.6788  0.1349  0.4444
  436TMC3     H 6503   1.957   3.367  15.990  0.2713 -1.2020  0.6487
  436TMC3    H1 6504   1.541   3.467  15.983 -1.6796  0.0410 -2.7335
  436TMC3    H2 6505   1.696   3.202  15.700  1.0360  1.1490 -1.1244
  436TMC3    C7 6506   1.480   3.327  15.787  0.0536 -0.4646 -0.8018
  436TMC3    C8 6507   1.944   3.205  15.779  0.5389 -1.0217  0.5350
  436TMC3    O1 6508   1.479   3.287  15.673 -0.0270 -0.2255 -0.1106
  436TMC3    O2 6509   1.924   3.160  15.666  0.7923  0.4516  0.3296
  437TMC3    C1 6510   0.557   0.449  12.926 -0.0648  0.2917 -0.0843
  437TMC3    C2 6511   0.426   0.497  12.940  0.0318 -0.3267  0.3936
  437TMC3    C3 6512   0.396   0.622  12.886  0.2718 -0.1396 -1.0617
  437TMC3    C4 6513   0.659   0.525  12.864  0.2940  0.8746 -0.2108
  437TMC3    C5 6514   0.622   0.652  12.828 -0.0338 -0.3750 -0.2587
  437TMC3    C6 6515   0.492   0.699  12.837  0.5652  0.1297  0.0685
  437TMC3     C 6516   0.596   0.349  13.015  0.0358 -0.1566 -0.8243
  437TMC3     O 6517   0.521   0.329  13.113 -0.4090  0.3361  0.1612
  437TMC3     H 6518   0.351   0.437  12.989  1.4152 -2.4149 -0.0378
  437TMC3    H1 6519   0.764   0.497  12.871  0.4319  2.0320  2.5907
  437TMC3    H2 6520   0.457   0.789  12.787  0.0672  0.0357  0.2543
  437TMC3    C7 6521   0.718   0.741  12.760 -0.3503 -0.1075 -0.0605
  437TMC3    C8 6522   0.258   0.661  12.897 -0.1831  1.0749 -0.1700
  437TMC3    O1 6523   0.675   0.853  12.730 -0.3161  0.2001  1.0505
  437TMC3    O2 6524   0.178   0.574  12.873  0.1051  0.3526  0.6009
  438MPD2     C 6525   3.094   1.003  16.823 -0.3262 -0.3474  0.2259
  438MPD2    C1 6526   3.136   0.886  16.887  0.4450 -0.4002  0.4105
  438MPD2    C2 6527   3.058   0.837  16.995 -0.2882 -0.3674 -0.0231
  438MPD2    C3 6528   2.953   0.908  17.053 -0.9100  0.3613  0.5484
  438MPD2    C4 6529   2.930   1.035  16.991  0.7548  0.5500 -0.1779
  438MPD2    C5 6530   2.990   1.076  16.874 -0.0721  0.1110  0.0600
  438MPD2     H 6531   3.095   0.744  17.035 -0.7396 -0.8111 -0.6396
  438MPD2    H1 6532   2.852   1.102  17.028 -1.2859 -1.6683 -0.4449
  438MPD2    H2 6533   3.141   1.034  16.730 -0.2466 -0.3242  0.2741
  438MPD2    H3 6534   2.970   1.172  16.828 -1.8673 -0.8346 -1.1083
  438MPD2     N 6535   2.882   0.863  17.165  0.9222 -0.3369 -0.4748
  438MPD2    H5 6536   2.813   0.925  17.206  0.6756 -0.1452 -1.1755
  438MPD2    N1 6537   3.257   0.816  16.844  0.1777 -0.8150  0.1999
  438MPD2    H7 6538   3.280   0.728  16.891  1.3615  1.1526  3.2972
  439TMC3    C1 6539   3.471   0.779  16.757  0.6337  0.3188  0.0439
  439TMC3    C2 6540   3.566   0.781  16.650  0.0718 -0.1841 -0.4574
  439TMC3    C3 6541   3.696   0.746  16.670 -0.0211 -0.0082  0.3033
  439TMC3    C4 6542   3.515   0.731  16.877 -0.1894 -0.4679  0.0646
  439TMC3    C5 6543   3.648   0.700  16.889 -0.0537 -0.8027 -0.4972
  439TMC3    C6 6544   3.734   0.698  16.788 -0.9154 -0.6671  0.7041
  439TMC3     C 6545   3.343   0.845  16.737 -0.3381  0.2340 -0.6230
  439TMC3     O 6546   3.346   0.945  16.661 -0.3843  0.3021  0.3677
  439TMC3     H 6547   3.525   0.800  16.551  1.1127  0.6463 -0.7332
  439TMC3    H1 6548   3.455   0.734  16.967 -0.3275  2.1319 -0.1136
  439TMC3    H2 6549   3.834   0.663  16.813  0.1274  0.8531 -1.3683
  439TMC3    C7 6550   3.677   0.599  16.994  0.1060 -0.9187 -0.3523
  439TMC3    C8 6551   3.783   0.711  16.568 -0.0579 -0.0849  0.0277
  439TMC3    O1 6552   3.785   0.615  17.052 -0.3822 -0.0147  0.0403
  439TMC3    O2 6553   3.899   0.691  16.596 -0.3966 -0.7825 -0.0625
  440MPD2     C 6554   1.573   1.575  14.880  0.1461 -0.0195  0.5214
  440MPD2    C1 6555   1.522   1.638  14.995 -0.0384  0.5937 -0.0317
  440MPD2    C2 6556   1.591   1.613  15.115  0.3069  0.3990  0.0392
  440MPD2    C3 6557   1.682   1.509  15.117 -0.0614 -0.2914  0.8479
  440MPD2    C4 6558   1.720   1.443  15.004  0.9517  0.3270 -0.2689
  440MPD2    C5 6559   1.666   1.480  14.886 -0.5872 -0.1566 -0.1442
  440MPD2     H 6560   1.574   1.676  15.201 -1.5144 -1.3235  0.9381
  440MPD2    H1 6561   1.799   1.367  15.005  0.0496 -0.6284 -1.1764
  440MPD2    H2 6562   1.542   1.594  14.778 -1.6582 -2.2592  0.6428
  440MPD2    H3 6563   1.695   1.424  14.798  0.4377  0.1679 -0.0099
  440MPD2     N 6564   1.750   1.468  15.237 -0.7015  0.3468 -0.2756
  440MPD2    H5 6565   1.826   1.402  15.226 -0.8516  0.6360 -3.0943
  440MPD2    N1 6566   1.428   1.741  14.987  0.4919  0.1884  0.0058
  440MPD2    H7 6567   1.419   1.794  15.073  1.4958  2.0324 -1.0340
  441TMC3    C1 6568   1.819   1.461  15.452  0.1475 -0.6873 -0.3270
  441TMC3    C2 6569   1.869   1.554  15.542  0.2666  0.7280 -0.3808
  441TMC3    C3 6570   1.993   1.526  15.598  0.6985 -0.0527  0.2336
  441TMC3    C4 6571   1.877   1.340  15.431 -0.8202  0.0007 -0.0136
  441TMC3    C5 6572   1.992   1.315  15.496 -0.0699 -0.0525  0.3434
  441TMC3    C6 6573   2.053   1.403  15.578 -0.4610  0.6067  0.2371
  441TMC3     C 6574   1.720   1.511  15.365 -0.7281 -0.4633 -0.2561
  441TMC3     O 6575   1.645   1.599  15.409 -0.1005 -0.2538 -0.2917
  441TMC3     H 6576   1.814   1.646  15.558 -0.2622 -0.0420  2.2262
  441TMC3    H1 6577   1.818   1.268  15.376 -2.7790  0.1473  1.8930
  441TMC3    H2 6578   2.142   1.383  15.637 -0.3647 -1.2473 -0.5307
  441TMC3    C7 6579   2.001   1.184  15.551  0.4956 -0.5760 -0.2261
  441TMC3    C8 6580   2.049   1.608  15.710  0.1576 -0.1201 -0.4765
  441TMC3    O1 6581   1.905   1.115  15.534 -0.4365 -0.3226  0.2545
  441TMC3    O2 6582   2.169   1.599  15.731 -0.0884 -0.1340 -0.2537
  442MPD2     C 6583   0.256   2.096  16.746  0.3249  0.2645 -0.3765
  442MPD2    C1 6584   0.155   2.055  16.837  0.3804 -0.4989  0.1435
  442MPD2    C2 6585   0.114   1.926  16.839  0.4074 -0.8142  0.3874
  442MPD2    C3 6586   0.188   1.835  16.759 -0.6334  0.6891  0.2928
  442MPD2    C4 6587   0.297   1.875  16.682 -0.3909  0.2352 -0.1226
  442MPD2    C5 6588   0.332   2.006  16.679  0.5269 -0.8188 -0.1431
  442MPD2     H 6589   0.033   1.893  16.903 -0.1161 -0.5264 -0.1283
  442MPD2    H1 6590   0.359   1.801  16.631  1.4087  3.5122 -2.6979
  442MPD2    H2 6591   0.287   2.199  16.732  2.0688  0.0260  1.8584
  442MPD2    H3 6592   0.416   2.028  16.614  0.8351 -0.9087  0.2277
  442MPD2     N 6593   0.167   1.695  16.751  0.3313  0.0625  0.2392
  442MPD2    H5 6594   0.220   1.654  16.675  2.3661  2.0329  0.6069
  442MPD2    N1 6595   0.085   2.146  16.917  0.3445  0.1813 -0.1295
  442MPD2    H7 6596   0.028   2.106  16.991  2.2474 -1.7910  0.3073
  443TMC3    C1 6597   0.020   2.350  17.013 -0.4492 -0.0372 -0.3185
  443TMC3    C2 6598   0.022   2.489  17.000 -0.4882  0.2075  0.6307
  443TMC3    C3 6599   4.629   2.551  17.044 -0.7546 -0.0903  0.0756
  443TMC3    C4 6600   4.645   2.277  17.081  0.4660  0.5746  0.0751
  443TMC3    C5 6601   4.538   2.350  17.130  0.4842  0.3094  0.2169
  443TMC3    C6 6602   4.532   2.488  17.116  0.1441 -0.4682 -0.4196
  443TMC3     C 6603   0.107   2.281  16.916 -0.4425  0.1290  0.0514
  443TMC3     O 6604   0.151   2.345  16.825 -0.3643  0.2661 -0.4013
  443TMC3     H 6605   0.099   2.545  16.948  1.2638  1.8613  4.9978
  443TMC3    H1 6606   4.642   2.169  17.092 -2.0554  0.6238 -0.1789
  443TMC3    H2 6607   4.441   2.543  17.134  1.0005  0.3013  1.6313
  443TMC3    C7 6608   4.427   2.273  17.179 -0.0205 -0.2993 -0.1860
  443TMC3    C8 6609   4.614   2.690  17.026  0.3034 -0.1851 -0.0579
  443TMC3    O1 6610   4.425   2.154  17.147  0.5516  0.3479 -0.7270
  443TMC3    O2 6611   4.589   2.761  17.124  0.0834  0.1588 -0.6721
  444MPD2     C 6612   0.454   1.389  17.468 -0.4496  0.6925  0.2970
  444MPD2    C1 6613   0.406   1.267  17.448  0.2463 -0.0346 -0.4264
  444MPD2    C2 6614   0.486   1.174  17.391 -0.3606  0.3725 -1.0337
  444MPD2    C3 6615   0.625   1.196  17.371 -0.6713 -0.8610  0.2931
  444MPD2    C4 6616   0.683   1.318  17.390  0.4675 -1.4969 -0.0392
  444MPD2    C5 6617   0.591   1.416  17.434 -0.2253 -0.4037  0.2557
  444MPD2     H 6618   0.447   1.075  17.374 -1.2884  0.6690 -0.6432
  444MPD2    H1 6619   0.789   1.339  17.378  0.1515 -0.0996 -0.3081
  444MPD2    H2 6620   0.390   1.464  17.512  2.2469  2.1029  1.8323
  444MPD2    H3 6621   0.623   1.517  17.453 -0.7872  0.1508 -1.7140
  444MPD2     N 6622   0.701   1.084  17.326  0.0879  0.3237 -0.0597
  444MPD2    H5 6623   0.641   1.002  17.313  1.6500 -1.0476  1.3302
  444MPD2    N1 6624   0.273   1.227  17.472 -0.1000  0.1543  0.2280
  444MPD2    H7 6625   0.244   1.134  17.442  1.6934  0.2770 -1.8789
  445TMC3    C1 6626   0.869   0.939  17.256  0.3136  0.5530  0.2170
  445TMC3    C2 6627   0.772   0.863  17.197 -0.4557  0.2268 -0.7064
  445TMC3    C3 6628   0.810   0.739  17.148 -0.3392 -0.5569  0.8244
  445TMC3    C4 6629   0.994   0.895  17.274  0.0262 -0.1212 -0.0243
  445TMC3    C5 6630   1.024   0.763  17.243 -0.1123 -0.5951  0.8983
  445TMC3    C6 6631   0.933   0.684  17.172 -0.1042  0.5395 -0.0479
  445TMC3     C 6632   0.839   1.076  17.307  0.6599 -0.1062  0.0954
  445TMC3     O 6633   0.921   1.143  17.371  0.4046  0.5724  0.0686
  445TMC3     H 6634   0.682   0.909  17.159 -0.9989 -1.0187 -0.9161
  445TMC3    H1 6635   1.073   0.957  17.316  0.8048 -0.2616 -1.2462
  445TMC3    H2 6636   0.956   0.592  17.120 -1.5932  1.0709 -1.6483
  445TMC3    C7 6637   1.161   0.737  17.197  0.7830  0.2764  0.2535
  445TMC3    C8 6638   0.715   0.662  17.085 -0.2630 -0.9248  0.2866
  445TMC3    O1 6639   1.214   0.827  17.132 -0.5305 -0.4391  0.3936
  445TMC3    O2 6640   0.751   0.602  16.985  0.2784  0.2411  0.1200
  446MPD2     C 6641   0.311   2.343  11.243  0.3589  0.7359  0.2737
  446MPD2    C1 6642   0.246   2.456  11.201 -0.5457 -0.6447 -0.5346
  446MPD2    C2 6643   0.318   2.566  11.158 -0.0816  0.2589 -0.2238
  446MPD2    C3 6644   0.455   2.570  11.179  0.1761 -0.1588 -0.6114
  446MPD2    C4 6645   0.520   2.456  11.219  0.4501 -0.3205  0.2513
  446MPD2    C5 6646   0.445   2.346  11.242  0.2758  0.6004  0.2537
  446MPD2     H 6647   0.278   2.651  11.103  1.0110  1.0816  0.2673
  446MPD2    H1 6648   0.628   2.459  11.230  0.4497  0.2348  0.0944
  446MPD2    H2 6649   0.266   2.253  11.283  0.6190 -0.2053 -1.5318
  446MPD2    H3 6650   0.504   2.264  11.280 -1.0044 -0.9085 -1.0366
  446MPD2     N 6651   0.517   2.692  11.157  0.8501  0.1980  0.5294
  446MPD2    H5 6652   0.455   2.764  11.122  0.6080 -0.3069 -0.0733
  446MPD2    N1 6653   0.104   2.460  11.175  0.3151  0.0858 -0.8065
  446MPD2    H7 6654   0.082   2.555  11.148 -1.9623  0.0096  0.8423
  447TMC3    C1 6655   0.699   2.844  11.172 -0.6235 -0.6960 -0.1727
  447TMC3    C2 6656   0.672   2.898  11.049  0.3893 -0.9441 -0.2210
  447TMC3    C3 6657   0.753   2.994  11.006 -0.0040 -0.2471 -0.4119
  447TMC3    C4 6658   0.807   2.889  11.251 -0.1875  0.7326 -0.0248
  447TMC3    C5 6659   0.894   2.979  11.202  0.0339  0.1588 -0.2325
  447TMC3    C6 6660   0.861   3.040  11.078 -0.2921  0.1053 -0.6051
  447TMC3     C 6661   0.641   2.717  11.212  1.0365  0.1680 -0.0305
  447TMC3     O 6662   0.719   2.649  11.274  0.4607 -0.0935  0.6379
  447TMC3     H 6663   0.601   2.846  10.986  0.1801 -0.7044 -0.1822
  447TMC3    H1 6664   0.835   2.830  11.338 -0.3703 -0.2295 -0.6181
  447TMC3    H2 6665   0.926   3.118  11.040  1.6247 -0.5807  1.3064
  447TMC3    C7 6666   1.035   2.947  11.229  0.4936  0.4258  0.3157
  447TMC3    C8 6667   0.726   3.037  10.874 -0.2150  0.1438  0.2769
  447TMC3    O1 6668   1.122   2.975  11.148  0.4149  0.0984  0.3023
  447TMC3    O2 6669   0.736   2.950  10.795 -0.2218 -0.4125  0.9821
  448TMC3    C1 6670   3.066   2.510  17.056 -0.0191  0.1076 -0.1621
  448TMC3    C2 6671   3.039   2.382  17.011 -0.6605 -1.0887 -0.1034
  448TMC3    C3 6672   3.129   2.317  16.934  0.9037 -0.3356 -0.3007
  448TMC3    C4 6673   3.193   2.565  17.028 -0.1340 -0.2345  0.4416
  448TMC3    C5 6674   3.279   2.492  16.952  0.1618  0.5334 -0.6299
  448TMC3    C6 6675   3.245   2.371  16.905 -0.8435  0.3943 -0.1873
  448TMC3     C 6676   2.983   2.550  17.172 -0.4267  0.2045  0.3252
  448TMC3     O 6677   2.902   2.471  17.217 -0.0944  0.1470 -0.1567
  448TMC3     H 6678   2.939   2.342  17.021 -1.5558  1.3967  1.0874
  448TMC3    H1 6679   3.225   2.656  17.077  0.1955 -0.8365  1.3387
  448TMC3    H2 6680   3.319   2.310  16.855 -1.8031 -2.3094  1.6311
  448TMC3    C7 6681   3.416   2.502  17.001 -0.5122  0.3947  0.7058
  448TMC3    C8 6682   3.101   2.184  16.876  0.1278  0.5373  0.5626
  448TMC3    O1 6683   3.481   2.605  16.988 -0.2910  0.7662  0.6645
  448TMC3    O2 6684   3.198   2.110  16.874  0.3219  0.4182 -0.3025
  449MPD2     C 6685   0.327   1.290  13.673  0.8514  0.5327 -0.1363
  449MPD2    C1 6686   0.188   1.293  13.712  0.6023  0.6764 -0.8736
  449MPD2    C2 6687   0.156   1.303  13.850 -0.5606  0.4324 -0.6600
  449MPD2    C3 6688   0.253   1.319  13.947 -0.6073  0.3924  0.2182
  449MPD2    C4 6689   0.385   1.312  13.907 -0.5762 -0.0133  0.4478
  449MPD2    C5 6690   0.420   1.294  13.769 -0.6354  0.0911  0.4965
  449MPD2     H 6691   0.056   1.271  13.879  0.2991 -2.5490 -0.9134
  449MPD2    H1 6692   0.466   1.302  13.979  0.3483  2.4530 -0.2564
  449MPD2    H2 6693   0.358   1.276  13.570 -0.2348  0.2632 -0.4312
  449MPD2    H3 6694   0.521   1.273  13.736 -0.6788 -0.7582  0.9027
  449MPD2     N 6695   0.214   1.307  14.079  0.1777  0.1364 -0.5483
  449MPD2    H5 6696   0.116   1.286  14.092  0.8807 -1.0249  2.9068
  449MPD2    N1 6697   0.080   1.287  13.620 -0.0400 -0.4608  0.4718
  449MPD2    H7 6698   4.715   1.292  13.668 -0.6197  1.0331 -0.7562
  450TMC3    C1 6699   4.681   1.202  13.445  0.1716 -0.2746  0.1178
  450TMC3    C2 6700   4.671   1.084  13.377 -0.4162 -0.1277 -0.2242
  450TMC3    C3 6701   4.571   0.995  13.416 -0.5318  0.0998  0.2629
  450TMC3    C4 6702   4.580   1.239  13.528  0.5407  0.1023 -0.5504
  450TMC3    C5 6703   4.482   1.150  13.567 -0.4476  0.1133 -0.6543
  450TMC3    C6 6704   4.478   1.023  13.514 -0.9629  0.3607 -0.6675
  450TMC3     C 6705   0.088   1.232  13.498  0.7299 -0.1096  0.8319
  450TMC3     O 6706   0.185   1.185  13.443  0.7285  0.0277  0.1266
  450TMC3     H 6707   0.017   1.058  13.300 -0.0195 -1.3854  0.5652
  450TMC3    H1 6708   4.577   1.345  13.551 -0.6982  0.1463 -0.9421
  450TMC3    H2 6709   4.402   0.952  13.544 -2.3160  2.5684  1.1495
  450TMC3    C7 6710   4.458   1.163  13.708 -0.2969 -0.2165 -0.3277
  450TMC3    C8 6711   4.603   0.852  13.392 -1.3426 -0.3162  0.2733
  450TMC3    O1 6712   4.515   1.257  13.762 -0.5361  0.0665  0.5440
  450TMC3    O2 6713   4.518   0.776  13.358  0.2096 -0.0012 -0.1585
  451MPD2     C 6714   0.938   4.517   0.753 -0.5624  0.2742 -0.0949
  451MPD2    C1 6715   0.841   4.469   0.835 -0.1803  0.3712  0.4357
  451MPD2    C2 6716   0.815   4.332   0.845 -0.4359 -0.1021 -0.7218
  451MPD2    C3 6717   0.905   4.241   0.785 -0.5097 -0.6020  1.0225
  451MPD2    C4 6718   1.010   4.292   0.706 -0.0003  0.1739 -0.4700
  451MPD2    C5 6719   1.024   4.428   0.692 -0.0535 -0.0039  1.1242
  451MPD2     H 6720   0.740   4.288   0.909 -0.5086  2.0930  0.6629
  451MPD2    H1 6721   1.077   4.222   0.658 -0.5135 -0.6165 -0.0410
  451MPD2    H2 6722   0.950   4.624   0.739  0.0743  0.0382 -1.3586
  451MPD2    H3 6723   1.088   4.464   0.613 -1.8284 -0.6548 -0.5994
  451MPD2     N 6724   0.895   4.101   0.792  0.0917  0.2790  0.4021
  451MPD2    H5 6725   0.950   4.044   0.730  1.7920 -0.2566  2.3840
  451MPD2    N1 6726   0.756   4.568   0.893 -0.0010  0.2210 -0.0107
  451MPD2    H7 6727   0.785   4.663   0.871  2.8417 -1.2681 -2.7613
  452TMC3    C1 6728   0.814   3.894   0.848  0.2892  0.2588 -0.3573
  452TMC3    C2 6729   0.804   3.810   0.953 -0.0063  0.2673 -0.0961
  452TMC3    C3 6730   0.884   3.696   0.959 -0.1081 -0.5633  0.2991
  452TMC3    C4 6731   0.881   3.860   0.733  0.6558  0.1055 -0.1893
  452TMC3    C5 6732   0.951   3.740   0.733 -0.1155  0.4557  0.1958
  452TMC3    C6 6733   0.967   3.663   0.853  0.8390 -0.4030  0.0607
  452TMC3     C 6734   0.818   4.032   0.880  0.5095  0.6214  0.3818
  452TMC3     O 6735   0.778   4.070   0.987  0.3735 -0.1914 -0.3156
  452TMC3     H 6736   0.731   3.834   1.029 -0.6669  1.7701 -1.2122
  452TMC3    H1 6737   0.871   3.908   0.636 -0.5982 -0.3361 -0.2813
  452TMC3    H2 6738   1.002   3.562   0.837  1.7139  0.0270 -0.7335
  452TMC3    C7 6739   1.036   3.715   0.613 -0.0810  0.1011  0.2531
  452TMC3    C8 6740   0.893   3.634   1.085 -0.1125 -0.6821  0.1348
  452TMC3    O1 6741   1.063   3.812   0.542  0.6828  0.5061  0.0528
  452TMC3    O2 6742   0.812   3.673   1.169  0.5200 -0.6639  0.2024
  453TMC3    C1 6743   2.677   1.881  11.728 -0.5830  0.1398 -0.3075
  453TMC3    C2 6744   2.604   1.766  11.720 -0.6076 -0.5975 -0.0005
  453TMC3    C3 6745   2.470   1.769  11.692 -0.3395 -0.0304 -0.0151
  453TMC3    C4 6746   2.618   1.997  11.698 -0.2235 -0.3517  0.3776
  453TMC3    C5 6747   2.484   1.996  11.660 -0.3965  0.1665 -0.5647
  453TMC3    C6 6748   2.411   1.887  11.655 -0.1449  0.1456 -0.0950
  453TMC3     C 6749   2.821   1.882  11.749 -0.4714  0.4013  0.6823
  453TMC3     O 6750   2.875   1.989  11.722  0.3531 -0.0119  0.3970
  453TMC3     H 6751   2.639   1.675  11.766  1.5663 -0.3886 -1.2314
  453TMC3    H1 6752   2.664   2.095  11.706  2.5349 -1.5160 -1.1811
  453TMC3    H2 6753   2.308   1.888  11.619 -0.1739 -0.5806 -0.0419
  453TMC3    C7 6754   2.419   2.118  11.612  0.2594  0.0868 -0.1909
  453TMC3    C8 6755   2.384   1.661  11.737 -0.2046 -0.7250  0.5625
  453TMC3    O1 6756   2.301   2.107  11.600 -0.4797 -0.3365  0.4706
  453TMC3    O2 6757   2.266   1.696  11.769 -0.4696  0.3769  0.0697
  454MPD2     C 6758   1.202   0.677  16.575 -0.8209  0.8579 -0.1867
  454MPD2    C1 6759   1.158   0.805  16.550 -0.2934  0.3824 -0.8521
  454MPD2    C2 6760   1.130   0.881  16.660  0.0981 -0.4961 -0.8616
  454MPD2    C3 6761   1.135   0.834  16.789 -0.1319  0.9216  0.2976
  454MPD2    C4 6762   1.199   0.714  16.809 -0.0782  0.2368 -0.0790
  454MPD2    C5 6763   1.232   0.639  16.700 -0.0482  0.4577  0.2593
  454MPD2     H 6764   1.093   0.983  16.650 -1.3703 -0.9790 -0.3530
  454MPD2    H1 6765   1.217   0.675  16.908  1.5637 -0.1044 -0.5198
  454MPD2    H2 6766   1.229   0.598  16.506 -0.6219  0.4702  0.3359
  454MPD2    H3 6767   1.275   0.539  16.705  1.1044  0.8674 -1.3736
  454MPD2     N 6768   1.081   0.900  16.901  0.0819 -0.4236 -0.5135
  454MPD2    H5 6769   1.118   0.871  16.992  1.3779 -0.1617 -0.9571
  454MPD2    N1 6770   1.126   0.859  16.426 -0.4782 -0.3416  1.0191
  454MPD2    H7 6771   1.091   0.954  16.414 -1.9186 -0.9799  0.1425
  455TMC3    C1 6772   0.888   0.998  16.775 -0.7369 -0.1776  0.2118
  455TMC3    C2 6773   0.820   1.117  16.767  0.3539  0.6294  0.3519
  455TMC3    C3 6774   0.693   1.115  16.733  0.0155  0.2902 -0.4413
  455TMC3    C4 6775   0.832   0.874  16.744  0.2187  0.3766  0.1664
  455TMC3    C5 6776   0.702   0.876  16.693 -0.3201  0.5444 -0.2753
  455TMC3    C6 6777   0.634   0.997  16.696 -0.0620 -0.3135  0.1625
  455TMC3     C 6778   0.984   1.000  16.892  0.4484 -0.1642  0.0674
  455TMC3     O 6779   0.942   1.057  16.993  0.0686 -0.1987 -0.1758
  455TMC3     H 6780   0.861   1.208  16.810  0.4757  0.3902  0.7434
  455TMC3    H1 6781   0.871   0.783  16.787  2.0545  1.6248  1.1662
  455TMC3    H2 6782   0.535   1.002  16.651  0.0544  0.9990  0.0517
  455TMC3    C7 6783   0.654   0.784  16.589 -0.1338 -0.0333 -0.8979
  455TMC3    C8 6784   0.609   1.200  16.819  0.5593 -0.2043  0.2654
  455TMC3    O1 6785   0.545   0.798  16.540  0.5220  0.4657  0.4454
  455TMC3    O2 6786   0.651   1.315  16.831  0.5625 -0.6653  0.8664
  456MPD2     C 6787   3.653   1.350  16.051 -0.3227 -0.0006 -0.5151
  456MPD2    C1 6788   3.647   1.231  16.122  0.1113  0.2689  0.2606
  456MPD2    C2 6789   3.535   1.219  16.207 -0.3118  0.1229 -0.0317
  456MPD2    C3 6790   3.434   1.320  16.212 -0.4686 -0.5425  0.3736
  456MPD2    C4 6791   3.446   1.437  16.132 -0.2625  0.2439 -0.8234
  456MPD2    C5 6792   3.552   1.447  16.047 -0.0599 -0.5962  0.5375
  456MPD2     H 6793   3.527   1.132  16.271  1.3654 -1.0570 -1.4245
  456MPD2    H1 6794   3.393   1.529  16.152  0.1746  0.4200 -0.4807
  456MPD2    H2 6795   3.743   1.379  15.998 -1.6812  1.3479 -2.0802
  456MPD2    H3 6796   3.568   1.538  15.990 -0.8093 -0.3902  0.6621
  456MPD2     N 6797   3.356   1.318  16.327  0.2504  0.0307 -0.5653
  456MPD2    H5 6798   3.374   1.234  16.381  0.6809  0.3060 -0.2834
  456MPD2    N1 6799   3.751   1.131  16.112  0.1620  0.2465  0.0045
  456MPD2    H7 6800   3.818   1.151  16.039 -2.7137  3.5648 -1.7484
  457TMC3    C1 6801   3.216   1.402  16.500  0.4012 -0.9331  0.7196
  457TMC3    C2 6802   3.127   1.496  16.548 -0.0082  0.1309 -0.2935
  457TMC3    C3 6803   3.108   1.507  16.682  0.2343 -0.9382 -0.7477
  457TMC3    C4 6804   3.289   1.323  16.585 -0.3129  0.2169 -0.6340
  457TMC3    C5 6805   3.281   1.348  16.720  0.5736 -0.3418  0.0666
  457TMC3    C6 6806   3.181   1.428  16.767  0.2170  0.8018 -0.5619
  457TMC3     C 6807   3.263   1.414  16.361  0.4672 -0.7134  0.5752
  457TMC3     O 6808   3.223   1.513  16.305 -0.0879 -0.2147 -0.3580
  457TMC3     H 6809   3.077   1.559  16.475 -0.6957 -0.6748 -0.5182
  457TMC3    H1 6810   3.370   1.258  16.553  0.1165  0.1116  0.6872
  457TMC3    H2 6811   3.169   1.452  16.872  0.8064  0.1094 -0.3286
  457TMC3    C7 6812   3.367   1.286  16.822  0.1813  0.0082 -0.0769
  457TMC3    C8 6813   3.073   1.639  16.728 -0.1941  0.0196  0.2211
  457TMC3    O1 6814   3.324   1.260  16.935 -0.2259  0.7436 -0.0276
  457TMC3    O2 6815   3.116   1.678  16.834 -0.2398 -0.0472 -0.0111
  458MPD2     C 6816   1.174   0.880  12.567 -0.0357  0.0915  0.7887
  458MPD2    C1 6817   1.196   0.771  12.649  0.0542  0.7205 -0.0581
  458MPD2    C2 6818   1.082   0.706  12.698 -0.4011  0.0997 -0.9195
  458MPD2    C3 6819   0.959   0.758  12.687  0.1290  0.3345 -0.2709
  458MPD2    C4 6820   0.943   0.876  12.621 -0.0173  0.1073 -0.4090
  458MPD2    C5 6821   1.048   0.926  12.558 -0.3658  0.2038  0.0462
  458MPD2     H 6822   1.087   0.612  12.751 -1.1496 -1.3929 -3.4578
  458MPD2    H1 6823   0.845   0.918  12.599  0.5638  1.4540 -0.4432
  458MPD2    H2 6824   1.255   0.932  12.519 -1.1876 -1.2293 -2.5689
  458MPD2    H3 6825   1.032   1.012  12.495  1.1495  0.9923  0.7412
  458MPD2     N 6826   0.848   0.694  12.756  0.1160  0.1219 -0.0847
  458MPD2    H5 6827   0.859   0.603  12.800 -1.7496 -1.6874 -3.2852
  458MPD2    N1 6828   1.333   0.727  12.662  0.2165  0.0146 -0.1496
  458MPD2    H7 6829   1.401   0.777  12.607 -0.1556  0.6280 -0.0584
  459TMC3    C1 6830   1.525   0.602  12.753 -0.6194  0.0667 -0.5522
  459TMC3    C2 6831   1.615   0.680  12.682  0.2440 -0.2624 -0.6926
  459TMC3    C3 6832   1.740   0.630  12.669  0.7342 -0.5235  0.7818
  459TMC3    C4 6833   1.560   0.491  12.821  0.2243  0.1629  0.2450
  459TMC3    C5 6834   1.683   0.444  12.802  0.0645 -0.0413  0.3280
  459TMC3    C6 6835   1.780   0.507  12.720 -0.7212 -0.0355  0.0225
  459TMC3     C 6836   1.374   0.627  12.750  0.1516 -0.7109  0.9211
  459TMC3     O 6837   1.303   0.564  12.828 -0.5106 -0.6471 -0.4930
  459TMC3     H 6838   1.611   0.783  12.651  0.5121 -0.3342 -0.9713
  459TMC3    H1 6839   1.486   0.430  12.872 -1.1837 -0.4426 -2.5685
  459TMC3    H2 6840   1.883   0.474  12.715 -1.1657 -1.3031 -0.8746
  459TMC3    C7 6841   1.739   0.366  12.910  0.3201 -0.2820 -0.5575
  459TMC3    C8 6842   1.835   0.690  12.575  0.0866  0.1458 -0.2495
  459TMC3    O1 6843   1.842   0.303  12.895 -0.0530 -0.2277 -0.2438
  459TMC3    O2 6844   1.847   0.812  12.569 -0.1660 -0.4057  0.1977
  460MPD2     C 6845   0.698   3.392  10.772  0.0201 -0.6633 -0.0275
  460MPD2    C1 6846   0.703   3.259  10.757  0.0734  0.1761 -0.0780
  460MPD2    C2 6847   0.693   3.216  10.629 -0.0560  0.6230  0.1332
  460MPD2    C3 6848   0.681   3.303  10.518 -0.0273 -0.2854 -0.0103
  460MPD2    C4 6849   0.694   3.441  10.541  0.5905  0.0841 -0.1883
  460MPD2    C5 6850   0.702   3.486  10.671  0.4503  0.2209 -0.7165
  460MPD2     H 6851   0.671   3.113  10.603 -1.1390  0.6583  0.8867
  460MPD2    H1 6852   0.683   3.520  10.467  0.0481 -0.6015 -0.8429
  460MPD2    H2 6853   0.689   3.426  10.875 -0.2420 -0.9610  0.0466
  460MPD2    H3 6854   0.691   3.589  10.703  1.7062  0.5903 -1.4838
  460MPD2     N 6855   0.654   3.246  10.392  0.1838  0.6966  0.3423
  460MPD2    H5 6856   0.636   3.146  10.387 -0.0290  0.6990  1.1442
  460MPD2    N1 6857   0.711   3.172  10.870  0.6010  0.6676  0.1791
  460MPD2    H7 6858   0.719   3.221  10.959  1.7756  1.2273 -0.2452
  461TMC3    C1 6859   0.587   3.244  10.168  0.8185 -0.2188  0.5978
  461TMC3    C2 6860   0.621   3.114  10.154 -0.1474  0.2173 -0.3600
  461TMC3    C3 6861   0.588   3.054  10.033 -0.6861 -0.3405 -0.4796
  461TMC3    C4 6862   0.511   3.310  10.066 -0.7701 -0.3471 -0.2122
  461TMC3    C5 6863   0.475   3.245   9.950 -0.2330 -0.4115  0.5594
  461TMC3    C6 6864   0.507   3.111   9.936  0.9679  0.1420  0.1502
  461TMC3     C 6865   0.631   3.324  10.282 -0.3751  0.3589  0.2755
  461TMC3     O 6866   0.633   3.445  10.263  0.4865 -0.5181  0.5501
  461TMC3     H 6867   0.683   3.059  10.224 -1.3132 -2.1786 -1.2163
  461TMC3    H1 6868   0.485   3.415  10.072 -0.1183 -0.1780 -0.3400
  461TMC3    H2 6869   0.504   3.067   9.837 -3.0514  0.4344  0.1573
  461TMC3    C7 6870   0.411   3.325   9.839  0.2581  0.5110 -0.1166
  461TMC3    C8 6871   0.629   2.911  10.012 -0.1045 -0.4399 -0.2375
  461TMC3    O1 6872   0.417   3.448   9.844  1.1403  0.2992 -0.0214
  461TMC3    O2 6873   0.726   2.866  10.069 -0.3621 -0.5075 -0.3813
  462TMC3    C1 6874   0.243   3.420   0.318  0.7118  0.4380 -0.8411
  462TMC3    C2 6875   0.289   3.335   0.226  0.3542 -0.2279  0.7357
  462TMC3    C3 6876   0.251   3.208   0.231  0.4147 -0.8213  0.0054
  462TMC3    C4 6877   0.145   3.387   0.414  0.1681 -0.0388  0.0052
  462TMC3    C5 6878   0.102   3.259   0.406  0.7122  0.3080 -1.5677
  462TMC3    C6 6879   0.153   3.165   0.314  0.3483  0.5888  0.1534
  462TMC3     C 6880   0.302   3.548   0.319  0.9253 -0.9565 -0.9791
  462TMC3     O 6881   0.316   3.609   0.425 -0.0460 -0.4313  0.4742
  462TMC3     H 6882   0.373   3.362   0.163 -1.6433  2.5477 -0.7328
  462TMC3    H1 6883   0.118   3.466   0.482 -1.8280 -1.6383  1.0882
  462TMC3    H2 6884   0.098   3.072   0.301  1.1789  0.1557 -0.2580
  462TMC3    C7 6885   0.000   3.215   0.500 -0.5778 -0.0939 -0.6102
  462TMC3    C8 6886   0.328   3.111   0.152 -0.2903 -0.2030  0.4011
  462TMC3    O1 6887   4.652   3.129   0.461 -0.1567 -0.3705 -0.5304
  462TMC3    O2 6888   0.392   3.162   0.061 -0.3322  0.0742 -0.0368
  463MPD2     C 6889   0.901   2.663   1.775  0.3992  0.2171 -0.5733
  463MPD2    C1 6890   0.870   2.788   1.826  0.2969  0.0071  0.6966
  463MPD2    C2 6891   0.957   2.893   1.788  0.0732 -0.0699  0.5343
  463MPD2    C3 6892   1.078   2.876   1.724  0.2207 -0.4061  0.9683
  463MPD2    C4 6893   1.114   2.746   1.700  0.2950 -0.1071 -0.4326
  463MPD2    C5 6894   1.024   2.646   1.721 -0.7571 -0.7004  0.3661
  463MPD2     H 6895   0.929   2.993   1.820 -0.5085 -0.0254 -0.1342
  463MPD2    H1 6896   1.208   2.708   1.661  0.4607 -1.0053  0.8675
  463MPD2    H2 6897   0.840   2.576   1.797 -1.9251  1.5905 -1.5841
  463MPD2    H3 6898   1.057   2.545   1.701  1.4121  0.6040 -2.6633
  463MPD2     N 6899   1.169   2.980   1.691 -0.5686 -0.9833  0.7446
  463MPD2    H5 6900   1.255   2.955   1.643 -1.5087 -0.0693 -1.4667
  463MPD2    N1 6901   0.745   2.819   1.887 -0.2712 -0.0930  0.2738
  463MPD2    H7 6902   0.726   2.918   1.896  1.8738  0.3693 -0.0810
  464TMC3    C1 6903   0.533   2.782   1.954 -0.4775  0.3538  0.1429
  464TMC3    C2 6904   0.487   2.889   1.879  0.7306  0.7682  0.1016
  464TMC3    C3 6905   0.354   2.900   1.846  0.6038  0.3143 -0.1773
  464TMC3    C4 6906   0.443   2.692   2.002 -0.6969  0.2541 -0.5334
  464TMC3    C5 6907   0.310   2.718   1.979 -0.6498  0.0513 -0.0148
  464TMC3    C6 6908   0.263   2.822   1.903 -0.1599  0.4969 -0.1945
  464TMC3     C 6909   0.653   2.724   1.932 -0.0886  0.1315  0.9132
  464TMC3     O 6910   0.675   2.612   1.972 -0.0305 -0.0748 -0.3325
  464TMC3     H 6911   0.555   2.956   1.828 -0.5417  1.5468 -0.5852
  464TMC3    H1 6912   0.468   2.599   2.053 -0.4117  0.0941 -0.9679
  464TMC3    H2 6913   0.158   2.841   1.885 -0.5305 -0.6222  0.7685
  464TMC3    C7 6914   0.218   2.603   1.986 -0.6623 -0.3122 -0.3604
  464TMC3    C8 6915   0.323   2.962   1.722 -0.3886  0.9213 -0.8287
  464TMC3    O1 6916   0.149   2.585   2.082  0.4108 -0.8493 -0.2739
  464TMC3    O2 6917   0.231   2.908   1.659 -0.0965 -1.2304 -0.4177
  465MPD2     C 6918   2.555   1.132  17.024 -0.3993  0.4717  0.1606
  465MPD2    C1 6919   2.436   1.115  17.091  0.0514 -0.4146 -0.5787
  465MPD2    C2 6920   2.322   1.169  17.035  0.0166  0.2417  0.3525
  465MPD2    C3 6921   2.320   1.209  16.900  0.0235 -0.9228 -0.5514
  465MPD2    C4 6922   2.430   1.193  16.823  0.1761 -0.3221  0.2620
  465MPD2    C5 6923   2.548   1.160  16.889 -0.0216  0.3852  0.0007
  465MPD2     H 6924   2.232   1.173  17.095  1.1098  1.2271  1.9263
  465MPD2    H1 6925   2.433   1.205  16.716  0.2666  0.1636  0.3170
  465MPD2    H2 6926   2.650   1.108  17.069  0.0786  0.5707 -0.7999
  465MPD2    H3 6927   2.641   1.153  16.833  0.5891  0.8555  0.9588
  465MPD2     N 6928   2.196   1.258  16.845 -0.2427 -0.0226 -0.0221
  465MPD2    H5 6929   2.116   1.250  16.906 -0.6316  0.4409 -0.4677
  465MPD2    N1 6930   2.431   1.070  17.226 -0.5486  0.2708  0.0531
  465MPD2    H7 6931   2.344   1.081  17.276 -0.2765 -1.1826  0.8703
  466TMC3    C1 6932   1.807   1.316  16.772 -0.8019 -0.7968  0.5011
  466TMC3    C2 6933   1.777   1.420  16.688  0.7088  0.7122 -0.5041
  466TMC3    C3 6934   1.875   1.486  16.627 -0.4256  0.2934  0.4119
  466TMC3    C4 6935   1.938   1.266  16.761  0.2527  0.4159 -0.1432
  466TMC3    C5 6936   2.039   1.333  16.693 -0.0010  0.2218  0.3728
  466TMC3    C6 6937   2.008   1.443  16.620  0.9247  0.3137  0.0137
  466TMC3     C 6938   1.755   1.316  16.904 -0.6926  0.1603 -0.0674
  466TMC3     O 6939   1.814   1.243  16.984  0.6653  0.2458  0.0982
  466TMC3     H 6940   1.679   1.465  16.696  0.5746  0.3643 -0.1463
  466TMC3    H1 6941   1.967   1.181  16.822  0.9231  0.3178 -0.5954
  466TMC3    H2 6942   2.083   1.502  16.569 -0.8927 -0.2597 -3.3932
  466TMC3    C7 6943   2.175   1.315  16.719  0.4681  0.1915 -0.7054
  466TMC3    C8 6944   1.851   1.630  16.634 -0.5232  0.0240  0.2450
  466TMC3    O1 6945   2.263   1.361  16.643 -0.1959 -0.2090 -0.2387
  466TMC3    O2 6946   1.753   1.671  16.692  0.4843 -0.0954 -0.3391
  467TMC3    C1 6947   3.818   4.676  13.740 -0.1567 -0.4599 -0.7978
  467TMC3    C2 6948   3.915   0.016  13.673  0.7834 -0.3120  0.4886
  467TMC3    C3 6949   3.903   0.151  13.669 -0.0980  0.2292 -0.5550
  467TMC3    C4 6950   3.709   0.011  13.800  0.2103  0.1074 -0.4642
  467TMC3    C5 6951   3.711   0.148  13.805  0.0854  0.6618  0.6885
  467TMC3    C6 6952   3.801   0.215  13.730 -0.1485  0.4475  0.2453
  467TMC3     C 6953   3.873   4.562  13.817 -0.1628 -0.3362 -0.2238
  467TMC3     O 6954   3.807   4.460  13.825  0.1220 -0.4945  0.6670
  467TMC3     H 6955   4.006   4.692  13.640 -0.5817 -1.9528 -0.8947
  467TMC3    H1 6956   3.638   4.676  13.856  1.6493 -1.9119 -0.8491
  467TMC3    H2 6957   3.822   0.321  13.732 -1.7743  0.7468  1.3574
  467TMC3    C7 6958   3.631   0.221  13.906 -0.4911  0.7202 -0.4193
  467TMC3    C8 6959   3.989   0.224  13.585 -0.1388 -0.2964 -0.3660
  467TMC3    O1 6960   3.666   0.330  13.945 -0.5131  0.4638  0.8168
  467TMC3    O2 6961   3.985   0.344  13.597 -0.4333  0.2247  0.7249
  468MPD2     C 6962   2.758   3.008  10.177  0.4111 -0.5137  0.0985
  468MPD2    C1 6963   2.695   3.012  10.300 -0.3850 -0.2986 -0.0959
  468MPD2    C2 6964   2.626   2.904  10.356 -0.4113 -0.3533  0.4937
  468MPD2    C3 6965   2.646   2.780  10.287 -0.1590 -0.3938  0.0698
  468MPD2    C4 6966   2.708   2.778  10.170 -0.6441  0.7071 -0.2464
  468MPD2    C5 6967   2.771   2.890  10.111 -0.4615  0.0062  0.2389
  468MPD2     H 6968   2.600   2.903  10.461  2.7866  1.5548  1.3096
  468MPD2    H1 6969   2.723   2.690  10.109  1.0141  2.2880 -2.0958
  468MPD2    H2 6970   2.809   3.095  10.139 -1.1588 -0.7216 -2.4779
  468MPD2    H3 6971   2.827   2.888  10.017 -1.0485  1.2019 -0.1399
  468MPD2     N 6972   2.589   2.659  10.335  0.0072 -0.5581  0.1661
  468MPD2    H5 6973   2.601   2.576  10.278 -0.2770 -0.5315  0.0680
  468MPD2    N1 6974   2.693   3.133  10.371 -0.2123  0.3229 -0.4817
  468MPD2    H7 6975   2.626   3.139  10.446  0.1283 -1.1210 -0.0626
  469TMC3    C1 6976   2.774   3.330  10.460  0.0659  0.2824  0.2785
  469TMC3    C2 6977   2.879   3.340  10.555 -0.5144  0.3011 -0.9805
  469TMC3    C3 6978   2.846   3.382  10.678  0.1156 -0.0642 -0.6530
  469TMC3    C4 6979   2.646   3.363  10.499 -0.0551  0.1206 -0.1391
  469TMC3    C5 6980   2.615   3.413  10.621 -0.9232  0.0072 -0.2932
  469TMC3    C6 6981   2.718   3.414  10.712 -0.6411  0.4844 -0.2296
  469TMC3     C 6982   2.787   3.235  10.358  0.4484  0.6393  0.0928
  469TMC3     O 6983   2.888   3.233  10.289  0.4673  0.5775 -0.5946
  469TMC3     H 6984   2.971   3.287  10.533 -0.8279  0.4975 -2.7821
  469TMC3    H1 6985   2.575   3.374  10.418  0.9321 -1.4577 -1.2061
  469TMC3    H2 6986   2.696   3.420  10.818 -1.7072  0.5488 -0.4517
  469TMC3    C7 6987   2.474   3.412  10.667  0.0703  0.0109 -0.0540
  469TMC3    C8 6988   2.929   3.347  10.789  0.3318 -0.1291  0.0971
  469TMC3    O1 6989   2.390   3.368  10.589  0.1435 -0.4314  0.0336
  469TMC3    O2 6990   2.875   3.314  10.894  0.1016  0.6002 -0.2991
  470TMC3    C1 6991   4.175   4.376   0.514 -0.3924 -0.5453 -0.3333
  470TMC3    C2 6992   4.152   4.493   0.582 -1.0626  0.8012  0.2635
  470TMC3    C3 6993   4.257   4.540   0.653 -0.2249 -0.0044 -0.6040
  470TMC3    C4 6994   4.298   4.317   0.522  1.4424 -0.3293 -0.2422
  470TMC3    C5 6995   4.403   4.359   0.600  0.1910  0.2736 -0.1895
  470TMC3    C6 6996   4.382   4.480   0.658 -0.1283  0.3833  0.2335
  470TMC3     C 6997   4.098   4.351   0.396 -0.1410  0.1581 -0.4725
  470TMC3     O 6998   4.099   4.247   0.332 -0.1314  0.0961 -0.3950
  470TMC3     H 6999   4.057   4.545   0.595 -0.8401  0.7217  2.3202
  470TMC3    H1 7000   4.319   4.241   0.447  0.1808 -1.1857  0.2755
  470TMC3    H2 7001   4.464   4.519   0.718 -0.0215 -0.3325  0.5501
  470TMC3    C7 7002   4.530   4.290   0.603 -0.6271 -0.4804 -0.2031
  470TMC3    C8 7003   4.248   4.662   0.730  0.9427  1.1292 -0.2853
  470TMC3    O1 7004   4.565   4.220   0.508  0.1379  0.0237 -0.0199
  470TMC3    O2 7005   4.342   4.689   0.808  0.3797  0.0088 -0.8825
  471MPD2     C 7006   0.240   0.461  16.363 -0.2936 -0.3879 -0.5127
  471MPD2    C1 7007   0.304   0.341  16.347 -0.1749 -0.1586  0.1093
  471MPD2    C2 7008   0.408   0.308  16.428 -0.2550 -0.2289 -0.8462
  471MPD2    C3 7009   0.449   0.390  16.535  0.1970  0.2676 -0.1252
  471MPD2    C4 7010   0.376   0.499  16.556  0.3793 -0.6791  0.1126
  471MPD2    C5 7011   0.280   0.540  16.466 -0.1167 -0.1834  0.0807
  471MPD2     H 7012   0.453   0.211  16.412  0.9388  0.3803 -1.1155
  471MPD2    H1 7013   0.405   0.571  16.632 -0.1179  0.8675 -1.1555
  471MPD2    H2 7014   0.147   0.490  16.314  0.1718 -0.5221 -1.4673
  471MPD2    H3 7015   0.230   0.635  16.486 -1.5384 -1.3248  2.0305
  471MPD2     N 7016   0.548   0.350  16.631 -0.0276 -0.4045 -0.1137
  471MPD2    H5 7017   0.577   0.421  16.698 -2.5569  1.3458 -0.8850
  471MPD2    N1 7018   0.252   0.238  16.266 -0.4037  0.2104 -0.2174
  471MPD2    H7 7019   0.302   0.149  16.267  0.8875  0.9216 -1.1910
  472TMC3    C1 7020   0.075   0.126  16.160 -0.2555  0.0389 -0.5784
  472TMC3    C2 7021   4.697   0.125  16.068  0.2290  0.0840 -0.6201
  472TMC3    C3 7022   4.627   0.008  16.048 -1.1967  0.0146 -0.1410
  472TMC3    C4 7023   0.106   0.009  16.231 -0.5324  0.1026 -0.2566
  472TMC3    C5 7024   0.059   4.610  16.194  0.4203 -0.2440  0.5001
  472TMC3    C6 7025   4.677   4.621  16.106  0.5355 -1.1490  0.4295
  472TMC3     C 7026   0.136   0.252  16.188 -0.5966 -0.8791 -0.4823
  472TMC3     O 7027   0.113   0.349  16.113 -0.1403  0.3354 -0.2706
  472TMC3     H 7028   4.659   0.223  16.041 -0.8752  0.2577  1.5321
  472TMC3    H1 7029   0.181   0.005  16.309 -0.3755 -2.4476 -0.5245
  472TMC3    H2 7030   4.635   4.526  16.075  0.7510 -0.6816 -1.3010
  472TMC3    C7 7031   0.043   4.507  16.302  0.4429  0.0338 -0.4231
  472TMC3    C8 7032   4.490   0.018  16.006 -0.4810  0.3490 -0.2517
  472TMC3    O1 7033   0.066   4.542  16.417  0.1311  0.0559 -0.0674
  472TMC3    O2 7034   4.451   0.113  15.939 -0.2787  0.7319  0.0728
  473MPD2     C 7035   4.653   2.213  14.123  0.0454  0.1637 -0.0036
  473MPD2    C1 7036   0.026   2.302  14.075  0.8949 -0.1880  0.1769
  473MPD2    C2 7037   0.134   2.342  14.157  0.2497 -0.3957  0.3804
  473MPD2    C3 7038   0.134   2.308  14.290 -0.6247 -0.2357 -0.4665
  473MPD2    C4 7039   0.025   2.225  14.344  0.5092  0.2553  0.4765
  473MPD2    C5 7040   4.651   2.188  14.257 -0.1522 -0.5710 -0.0477
  473MPD2     H 7041   0.206   2.419  14.133 -0.6350  0.6072  0.9526
  473MPD2    H1 7042   0.012   2.200  14.448  1.8063 -3.4213 -0.2355
  473MPD2    H2 7043   4.563   2.186  14.069 -0.3102 -1.1749  1.2743
  473MPD2    H3 7044   4.563   2.148  14.307 -0.5536 -0.5010 -0.7058
  473MPD2     N 7045   0.230   2.355  14.386  0.2724  0.0416 -0.5294
  473MPD2    H5 7046   0.196   2.358  14.482  0.2200 -1.5046 -0.5013
  473MPD2    N1 7047   4.720   2.356  13.950  0.7523  0.2679  0.3712
  473MPD2    H7 7048   4.665   2.301  13.885 -0.1569 -0.3188  1.6522
  474TMC3    C1 7049   0.408   2.488  14.462  0.0084 -0.6881 -0.9809
  474TMC3    C2 7050   0.319   2.569  14.531  0.3279 -0.4750  0.8462
  474TMC3    C3 7051   0.362   2.686  14.582  0.2849  0.1745 -0.1661
  474TMC3    C4 7052   0.535   2.522  14.438 -0.6885  0.1609  0.1167
  474TMC3    C5 7053   0.582   2.632  14.509 -0.2349  0.0984  0.5711
  474TMC3    C6 7054   0.496   2.721  14.565  0.5442 -0.4602 -0.0480
  474TMC3     C 7055   0.345   2.414  14.357  0.1529 -0.6067 -0.3107
  474TMC3     O 7056   0.411   2.402  14.252 -0.3442 -0.8104 -0.2138
  474TMC3     H 7057   0.212   2.552  14.533 -0.0731  2.2326  2.5625
  474TMC3    H1 7058   0.603   2.454  14.387 -0.1887  0.6140  0.1824
  474TMC3    H2 7059   0.525   2.821  14.596  0.1116 -0.6760  1.0557
  474TMC3    C7 7060   0.725   2.650  14.512 -0.2800  0.7601  0.4805
  474TMC3    C8 7061   0.264   2.785  14.616  0.8472 -0.7459  0.4798
  474TMC3    O1 7062   0.800   2.607  14.428 -0.0168 -0.5136  1.1223
  474TMC3    O2 7063   0.166   2.743  14.677 -0.4369  0.3009 -0.6036
  475MPD2     C 7064   4.384   1.283  10.612 -0.7079 -0.1626  0.4673
  475MPD2    C1 7065   4.426   1.403  10.561  0.2225 -0.0886  0.1566
  475MPD2    C2 7066   4.348   1.489  10.484 -0.1363  0.2640  0.5465
  475MPD2    C3 7067   4.208   1.460  10.473 -0.4774 -0.3609 -0.1245
  475MPD2    C4 7068   4.162   1.351  10.543 -0.3569  0.6972  0.3844
  475MPD2    C5 7069   4.252   1.266  10.606 -0.4406  0.6538 -0.1160
  475MPD2     H 7070   4.394   1.574  10.435  0.4223  1.2090  2.7143
  475MPD2    H1 7071   4.058   1.323  10.537  0.3739 -1.9054 -0.5736
  475MPD2    H2 7072   4.455   1.211  10.653  1.2938  1.7905  0.4696
  475MPD2    H3 7073   4.209   1.179  10.654  1.1045 -0.9454 -1.6621
  475MPD2     N 7074   4.125   1.559  10.417 -0.0914  0.1138 -0.5192
  475MPD2    H5 7075   4.168   1.635  10.366 -2.2986  1.5016 -0.2911
  475MPD2    N1 7076   4.561   1.449  10.571 -0.0128  0.0337 -0.3888
  475MPD2    H7 7077   4.587   1.534  10.523 -0.2947 -0.0639 -0.7133
  476TMC3    C1 7078   0.063   1.437  10.611 -0.0220 -0.1303  0.6826
  476TMC3    C2 7079   0.059   1.473  10.483  0.4889  0.0784 -0.4167
  476TMC3    C3 7080   0.121   1.593  10.444 -0.3979 -0.2889 -0.5341
  476TMC3    C4 7081   0.111   1.526  10.700 -0.1449 -0.2166 -0.2566
  476TMC3    C5 7082   0.146   1.658  10.662 -0.4851  0.0981 -0.5703
  476TMC3    C6 7083   0.160   1.689  10.530  0.9594 -0.0472 -0.2574
  476TMC3     C 7084   4.660   1.389  10.645  0.5511  0.7860  0.3237
  476TMC3     O 7085   4.652   1.307  10.735 -0.2388  0.0342 -0.1133
  476TMC3     H 7086   0.027   1.394  10.417 -2.5203  0.0487  1.0371
  476TMC3    H1 7087   0.082   1.509  10.803 -1.9646 -2.2006 -1.0897
  476TMC3    H2 7088   0.204   1.781  10.493  1.1879 -0.8294 -1.9362
  476TMC3    C7 7089   0.055   1.754  10.724 -0.5393  0.7454  0.0408
  476TMC3    C8 7090   0.052   1.656  10.329 -0.4764  0.0775 -0.2173
  476TMC3    O1 7091   0.002   1.712  10.828  0.4885  0.2416 -0.2031
  476TMC3    O2 7092   0.052   1.779  10.325  0.7454 -0.4344 -0.4184
  477MPD2     C 7093   1.350   2.414  12.020 -0.2903  0.3199  0.4029
  477MPD2    C1 7094   1.333   2.300  11.933 -0.3233  0.6469  0.0615
  477MPD2    C2 7095   1.385   2.180  11.977  0.4766  0.9160  0.2144
  477MPD2    C3 7096   1.440   2.166  12.103 -0.5997  0.1864 -0.1839
  477MPD2    C4 7097   1.449   2.278  12.184  0.3519  0.0713 -0.7451
  477MPD2    C5 7098   1.405   2.401  12.143 -0.3727  0.0112 -0.4706
  477MPD2     H 7099   1.394   2.093  11.913 -1.4244  1.5615 -0.9284
  477MPD2    H1 7100   1.503   2.283  12.277 -4.0529  2.5578  1.6585
  477MPD2    H2 7101   1.318   2.510  11.981 -1.9837 -0.4639 -0.1446
  477MPD2    H3 7102   1.424   2.491  12.199 -1.5300 -0.8367  1.3036
  477MPD2     N 7103   1.483   2.042  12.146  0.8581 -0.3731 -0.1389
  477MPD2    H5 7104   1.508   1.966  12.083  0.1149 -1.5123  0.9713
  477MPD2    N1 7105   1.259   2.320  11.811 -0.3414 -0.4425 -0.3601
  477MPD2    H7 7106   1.214   2.409  11.793 -0.6090 -0.0978  1.9031
  478TMC3    C1 7107   1.134   2.264  11.626 -0.0019 -0.1064 -0.6568
  478TMC3    C2 7108   1.032   2.318  11.690  0.7958  1.0611  0.4704
  478TMC3    C3 7109   0.979   2.428  11.638 -0.1921 -0.0357 -0.7493
  478TMC3    C4 7110   1.187   2.314  11.509  0.1967 -0.2701  0.5250
  478TMC3    C5 7111   1.125   2.425  11.453  0.7693 -0.1501  0.1693
  478TMC3    C6 7112   1.015   2.478  11.516  0.0737  0.3850  0.1411
  478TMC3     C 7113   1.228   2.218  11.724 -0.0497 -1.1521 -0.0318
  478TMC3     O 7114   1.258   2.099  11.726 -0.7827  0.1248 -0.3856
  478TMC3     H 7115   1.007   2.289  11.792 -0.7314  1.5899  0.2573
  478TMC3    H1 7116   1.279   2.272  11.469  0.2088  0.8056 -0.5794
  478TMC3    H2 7117   0.972   2.571  11.480  0.9893  0.3926 -0.9453
  478TMC3    C7 7118   1.160   2.460  11.316  0.3693 -0.6768  0.2718
  478TMC3    C8 7119   0.960   2.534  11.737 -0.1929  0.7630 -0.1846
  478TMC3    O1 7120   1.265   2.416  11.276  0.0538  0.1000  0.3060
  478TMC3    O2 7121   1.034   2.521  11.839  0.1515 -0.3225  0.3135
  479MPD2     C 7122   0.057   4.409  15.239 -0.5718  0.6380 -0.1804
  479MPD2    C1 7123   0.015   4.352  15.357  0.3456 -0.3096  0.5814
  479MPD2    C2 7124   0.034   4.423  15.472 -0.2561 -0.5988 -0.0219
  479MPD2    C3 7125   0.083   4.554  15.468  0.2535 -0.0290 -0.1494
  479MPD2    C4 7126   0.117   4.614  15.347 -0.6787 -0.2272  0.3051
  479MPD2    C5 7127   0.112   4.540  15.231 -0.1148  0.6529  0.0980
  479MPD2     H 7128   0.021   4.376  15.569 -0.2507  1.4536  0.9799
  479MPD2    H1 7129   0.137   4.721  15.339  2.3160 -0.7694  0.6854
  479MPD2    H2 7130   0.053   4.344  15.152 -0.6672 -0.2752  0.5136
  479MPD2    H3 7131   0.145   4.588  15.139 -0.4332  0.0191 -0.3479
  479MPD2     N 7132   0.070   4.640  15.583 -0.2773  0.0645  0.4607
  479MPD2    H5 7133   0.062   0.012  15.554  0.8497  1.1268  3.6811
  479MPD2    N1 7134   4.684   4.223  15.346  0.2057  0.1687 -0.1332
  479MPD2    H7 7135   4.681   4.191  15.250  4.7842 -0.6743  0.0030
  480TMC3    C1 7136   4.396   4.480  15.685 -0.7108  0.1735  0.5933
  480TMC3    C2 7137   4.332   4.566  15.597 -0.1831  0.8473 -0.2457
  480TMC3    C3 7138   4.402   4.677  15.565  0.1520  0.3407  0.7029
  480TMC3    C4 7139   4.517   4.508  15.735  0.1596 -0.6689 -0.6728
  480TMC3    C5 7140   4.587   4.623  15.688 -0.8958  0.3521 -0.5637
  480TMC3    C6 7141   4.530   4.698  15.590 -0.1860  0.0631  0.1675
  480TMC3     C 7142   4.342   4.350  15.713  0.1957 -0.0252  0.5657
  480TMC3     O 7143   4.420   4.270  15.759 -0.1492 -0.3150 -0.3483
  480TMC3     H 7144   4.235   4.553  15.551  0.7436  1.4511 -2.3501
  480TMC3    H1 7145   4.563   4.441  15.806  0.4097  0.0423 -0.1696
  480TMC3    H2 7146   4.579   0.061  15.551 -0.5163 -0.5651 -1.6438
  480TMC3    C7 7147   0.011   4.603  15.705  0.6874 -0.4541  0.0665
  480TMC3    C8 7148   4.364   0.023  15.449  0.2969 -0.3190 -0.1006
  480TMC3    O1 7149   0.055   4.507  15.774  0.3446  0.4081  0.8416
  480TMC3    O2 7150   4.392   0.142  15.439  0.0186 -0.4103 -0.4271
  481MPD2     C 7151   1.051   3.662  13.555  0.0175  0.0054  1.0525
  481MPD2    C1 7152   0.972   3.610  13.648  0.5538 -0.1946  0.3388
  481MPD2    C2 7153   1.012   3.603  13.780  0.2996  0.6970  0.1300
  481MPD2    C3 7154   1.141   3.658  13.809  0.3294  0.0659 -0.4061
  481MPD2    C4 7155   1.226   3.706  13.711  0.0603  0.4958  0.5829
  481MPD2    C5 7156   1.180   3.709  13.581  0.0687 -0.6435 -0.1264
  481MPD2     H 7157   0.942   3.571  13.857  0.7001 -0.7489 -0.1158
  481MPD2    H1 7158   1.323   3.744  13.742 -0.0540  1.7783 -0.6052
  481MPD2    H2 7159   1.023   3.680  13.451  0.3135  0.4259  1.0440
  481MPD2    H3 7160   1.241   3.752  13.503  0.7232 -2.6212 -0.6979
  481MPD2     N 7161   1.189   3.671  13.940 -0.5384  0.1448  0.4550
  481MPD2    H5 7162   1.286   3.699  13.954  0.1982 -2.4097  0.4064
  481MPD2    N1 7163   0.842   3.573  13.598 -0.0651  0.5294  0.5967
  481MPD2    H7 7164   0.833   3.589  13.498  0.4552  2.1233  0.7987
  482TMC3    C1 7165   0.613   3.496  13.604 -0.0475 -0.3198  0.5667
  482TMC3    C2 7166   0.522   3.420  13.674 -0.3706 -0.0971 -0.3770
  482TMC3    C3 7167   0.422   3.350  13.607 -0.6641  0.4441  0.1164
  482TMC3    C4 7168   0.602   3.511  13.466  0.8306 -0.1744  0.0364
  482TMC3    C5 7169   0.512   3.430  13.397  0.2711  0.2360  0.0135
  482TMC3    C6 7170   0.421   3.350  13.468  0.3940 -0.0533  0.7080
  482TMC3     C 7171   0.742   3.514  13.670 -0.0168  0.8266 -0.8454
  482TMC3     O 7172   0.749   3.466  13.783 -0.1734 -0.5141  0.2289
  482TMC3     H 7173   0.524   3.425  13.782 -1.5494 -2.7827 -0.2155
  482TMC3    H1 7174   0.671   3.571  13.409  0.7784 -0.8786 -0.7676
  482TMC3    H2 7175   0.350   3.292  13.411  0.5283  0.2196  0.2587
  482TMC3    C7 7176   0.470   3.462  13.267  0.5442 -0.1337  0.0203
  482TMC3    C8 7177   0.373   3.234  13.676  0.4270  0.2065 -0.3762
  482TMC3    O1 7178   0.348   3.469  13.245 -0.5576  0.1391  0.0835
  482TMC3    O2 7179   0.426   3.222  13.789 -0.3548  0.2110 -0.2722
  483TMC3    C1 7180   3.814   2.776   2.010 -0.7434  0.3346 -0.5162
  483TMC3    C2 7181   3.796   2.791   1.875  0.3958 -0.3194 -0.1816
  483TMC3    C3 7182   3.867   2.894   1.817  0.4404  0.3017  0.1585
  483TMC3    C4 7183   3.922   2.837   2.075  0.2799 -0.8858 -0.0973
  483TMC3    C5 7184   4.002   2.923   2.007  0.3111 -0.0184  0.3303
  483TMC3    C6 7185   3.964   2.965   1.878  0.6655 -0.2496  0.1746
  483TMC3     C 7186   3.785   2.651   2.072  0.2691  0.5316 -0.7122
  483TMC3     O 7187   3.778   2.639   2.193 -0.6838 -0.1891 -0.4543
  483TMC3     H 7188   3.709   2.746   1.828  0.5887 -2.4634  1.4929
  483TMC3    H1 7189   3.944   2.806   2.176  3.6743 -0.5536 -0.7306
  483TMC3    H2 7190   4.010   3.042   1.817  0.9412 -0.7556 -0.2602
  483TMC3    C7 7191   4.138   2.880   2.000 -0.1123  0.1658 -0.5142
  483TMC3    C8 7192   3.863   2.901   1.676  0.1726  0.3863  0.9057
  483TMC3    O1 7193   4.200   2.899   1.895 -0.3645  0.0579 -0.7947
  483TMC3    O2 7194   3.974   2.941   1.629 -0.3895 -0.1178  0.0927
  484MPD2     C 7195   1.999   0.537  12.287 -0.6960 -0.1475  0.5560
  484MPD2    C1 7196   1.979   0.629  12.391 -0.0016  0.1235  0.2929
  484MPD2    C2 7197   2.052   0.746  12.393 -0.3282 -0.2051 -0.0287
  484MPD2    C3 7198   2.167   0.747  12.315  0.4627  1.2314  0.0617
  484MPD2    C4 7199   2.183   0.658  12.212  0.3357  0.2719 -0.2500
  484MPD2    C5 7200   2.090   0.559  12.190 -0.3266  0.9100 -0.4584
  484MPD2     H 7201   2.052   0.824  12.469  0.9991  0.2728 -0.5193
  484MPD2    H1 7202   2.253   0.663  12.130 -2.2533  1.5072 -2.4025
  484MPD2    H2 7203   1.931   0.453  12.279 -0.0627 -0.5569 -0.6046
  484MPD2    H3 7204   2.109   0.482  12.117 -0.7839  0.2551  0.1153
  484MPD2     N 7205   2.280   0.829  12.323  0.4986  0.4205  1.1216
  484MPD2    H5 7206   2.351   0.829  12.250  0.6545 -1.8115  1.2848
  484MPD2    N1 7207   1.891   0.597  12.494 -0.6254 -0.0432  0.0796
  484MPD2    H7 7208   1.835   0.513  12.489  0.3567 -0.6666 -0.3052
  485TMC3    C1 7209   2.426   1.001  12.399  0.3346 -0.0011 -0.2151
  485TMC3    C2 7210   2.487   1.051  12.511 -0.1472  0.2395  0.6507
  485TMC3    C3 7211   2.599   1.126  12.483 -0.6694  0.2857  0.1167
  485TMC3    C4 7212   2.462   1.031  12.274 -0.1811 -0.7105 -0.0655
  485TMC3    C5 7213   2.560   1.122  12.254 -0.5122 -0.0671  0.3544
  485TMC3    C6 7214   2.624   1.170  12.360  0.8202  0.0523  0.5642
  485TMC3     C 7215   2.306   0.923  12.423 -0.2330  0.4862  0.7058
  485TMC3     O 7216   2.256   0.926  12.534 -0.0280  0.3037  0.3745
  485TMC3     H 7217   2.444   1.039  12.609 -0.4034  5.3749  1.2145
  485TMC3    H1 7218   2.417   0.991  12.185 -1.3537 -1.5889  0.9229
  485TMC3    H2 7219   2.715   1.227  12.348  0.1530  0.7009 -1.5781
  485TMC3    C7 7220   2.664   1.063  12.169 -0.0868  0.3120 -0.3050
  485TMC3    C8 7221   2.717   1.062  12.539  0.3966  0.4321  0.2198
  485TMC3    O1 7222   2.668   0.941  12.160  0.2268 -0.9780 -0.3057
  485TMC3    O2 7223   2.832   1.094  12.493  0.1587  0.3276  0.0477
  486MPD2     C 7224   4.454   4.626  12.836 -0.3949 -0.3467 -0.1097
  486MPD2    C1 7225   4.330   4.592  12.780 -0.2058 -0.3584  0.1148
  486MPD2    C2 7226   4.253   4.690  12.724  0.4219  0.7142  0.5357
  486MPD2    C3 7227   4.297   0.092  12.723 -0.1351  0.7176  0.1940
  486MPD2    C4 7228   4.419   0.128  12.779 -0.3081 -0.9263  0.1713
  486MPD2    C5 7229   4.494   0.031  12.841 -0.0463  0.3246  0.2193
  486MPD2     H 7230   4.157   4.669  12.677  1.1709  0.4409 -0.8624
  486MPD2    H1 7231   4.459   0.229  12.771  0.3219 -1.0946  1.1763
  486MPD2    H2 7232   4.522   4.549  12.871 -0.8161 -0.1454  1.1448
  486MPD2    H3 7233   4.587   0.054  12.893  0.8936  1.2940 -1.9018
  486MPD2     N 7234   4.215   0.193  12.658 -0.1142 -0.4212 -0.2863
  486MPD2    H5 7235   4.138   0.167  12.597 -0.1641 -0.1516 -0.3369
  486MPD2    N1 7236   4.288   4.461  12.787 -0.0273  0.4960 -0.1760
  486MPD2    H7 7237   4.350   4.393  12.829 -1.8186 -0.2499  1.2706
  487TMC3    C1 7238   4.150   4.286  12.837 -0.3870  0.6808 -0.6466
  487TMC3    C2 7239   4.018   4.265  12.877  0.4622  0.0906  0.2262
  487TMC3    C3 7240   3.988   4.229  13.002  0.0595 -0.1572  0.4929
  487TMC3    C4 7241   4.244   4.256  12.935 -0.4941 -0.4166  0.1636
  487TMC3    C5 7242   4.209   4.220  13.064  0.2108  0.1406  0.3941
  487TMC3    C6 7243   4.079   4.214  13.099 -0.2579  0.2426  0.0940
  487TMC3     C 7244   4.160   4.416  12.767 -0.1029 -0.9451  0.8007
  487TMC3     O 7245   4.063   4.480  12.734  0.3812 -0.1350  0.2716
  487TMC3     H 7246   3.936   4.295  12.812  0.4879  1.7322  0.9307
  487TMC3    H1 7247   4.350   4.252  12.912 -0.4561 -0.2440  0.3137
  487TMC3    H2 7248   4.049   4.175  13.196 -1.4647 -0.7593 -0.6839
  487TMC3    C7 7249   4.296   4.153  13.153  0.0640 -0.2480 -0.1544
  487TMC3    C8 7250   3.847   4.242  13.047  0.2914 -0.9819 -0.6461
  487TMC3    O1 7251   4.273   4.159  13.272  0.0988 -0.1913  0.1619
  487TMC3    O2 7252   3.832   4.243  13.171 -0.3962 -0.4308  0.2169
  488MPD2     C 7253   4.363   1.540  16.789  0.8246  0.4658  0.1687
  488MPD2    C1 7254   4.379   1.668  16.843  0.8511 -0.1511 -0.3288
  488MPD2    C2 7255   4.324   1.692  16.970 -0.3164 -0.1597  0.2156
  488MPD2    C3 7256   4.271   1.590  17.040 -0.3497 -0.7959 -0.0405
  488MPD2    C4 7257   4.254   1.462  16.983 -0.0922  0.6848  0.5273
  488MPD2    C5 7258   4.293   1.445  16.852 -0.2928 -0.1302  0.4872
  488MPD2     H 7259   4.339   1.784  17.024  1.4025  0.5244 -1.4443
  488MPD2    H1 7260   4.201   1.383  17.036  1.5635 -0.4468  0.4762
  488MPD2    H2 7261   4.394   1.511  16.689  0.7205 -2.2218  0.9035
  488MPD2    H3 7262   4.273   1.357  16.793  2.2178  0.6843 -1.5897
  488MPD2     N 7263   4.235   1.611  17.180  0.1139 -0.3726  0.1797
  488MPD2    H5 7264   4.251   1.700  17.225  0.7552  0.1357 -1.0456
  488MPD2    N1 7265   4.457   1.770  16.780  0.2815 -0.2832  0.1044
  488MPD2    H7 7266   4.483   1.849  16.838 -0.0662 -0.8024  0.9650
  489TMC3    C1 7267   4.109   1.574  17.386  0.0065  0.2124 -0.5386
  489TMC3    C2 7268   4.099   1.706  17.401 -0.0023  0.2592 -0.1570
  489TMC3    C3 7269   4.039   1.761  17.513  0.2938  0.0159 -0.2979
  489TMC3    C4 7270   4.060   1.484  17.484  0.4336 -0.0251 -0.6503
  489TMC3    C5 7271   4.005   1.550  17.594  0.5509 -0.8569 -0.6432
  489TMC3    C6 7272   3.986   1.682  17.607 -0.7013  0.1880 -0.8709
  489TMC3     C 7273   4.167   1.523  17.261  0.1256  0.0955 -0.4727
  489TMC3     O 7274   4.141   1.406  17.248  0.6462  0.2534 -0.2040
  489TMC3     H 7275   4.132   1.764  17.315 -0.6218  0.6153 -0.1524
  489TMC3    H1 7276   4.068   1.377  17.470 -1.7225 -0.2586 -0.0825
  489TMC3    H2 7277   3.933   1.718  17.694  1.9939 -0.1596  0.9103
  489TMC3    C7 7278   3.924   1.468  17.679 -0.2270 -0.1527  0.0456
  489TMC3    C8 7279   4.025   1.901  17.531  1.1461  0.3343  0.2723
  489TMC3    O1 7280   3.829   1.526   0.031 -0.2899 -0.0855  0.2171
  489TMC3    O2 7281   3.971   1.941  17.636  0.1435  0.4511 -0.5696
  490MPD2     C 7282   0.982   0.432   0.339 -1.0035  0.8178 -0.3060
  490MPD2    C1 7283   0.879   0.517   0.376  0.0796  0.5170 -0.3191
  490MPD2    C2 7284   0.904   0.645   0.405 -0.2124 -0.1229 -0.7230
  490MPD2    C3 7285   1.038   0.689   0.404 -0.4534  0.5169 -0.6337
  490MPD2    C4 7286   1.136   0.602   0.373  0.0655  0.6914  0.0398
  490MPD2    C5 7287   1.105   0.475   0.346 -0.0793  0.4986  0.4400
  490MPD2     H 7288   0.817   0.710   0.414  0.4995  0.7032  0.3183
  490MPD2    H1 7289   1.243   0.619   0.377 -0.1593  2.0859  0.3771
  490MPD2    H2 7290   0.978   0.328   0.308  2.4250  0.9113 -1.0208
  490MPD2    H3 7291   1.193   0.418   0.321  0.1475  0.0623  2.2171
  490MPD2     N 7292   1.076   0.818   0.441  0.4286 -0.1467 -0.2880
  490MPD2    H5 7293   1.166   0.851   0.407  0.8526 -2.0199 -0.9829
  490MPD2    N1 7294   0.743   0.471   0.371  0.2450  0.2030 -0.5815
  490MPD2    H7 7295   0.664   0.529   0.347  0.6126  1.2073  0.6363
  491TMC3    C1 7296   0.572   0.306   0.358 -0.6034  0.1469 -0.5132
  491TMC3    C2 7297   0.506   0.226   0.444  0.3703  0.0156  0.5555
  491TMC3    C3 7298   0.375   0.193   0.409 -0.9708 -0.4357  0.5073
  491TMC3    C4 7299   0.528   0.349   0.235  0.4861 -0.0731  0.0873
  491TMC3    C5 7300   0.402   0.305   0.201  0.4081 -0.0764  0.6546
  491TMC3    C6 7301   0.324   0.234   0.293 -0.0779  0.8955 -0.8429
  491TMC3     C 7302   0.706   0.338   0.388  0.1368  0.1307  0.0578
  491TMC3     O 7303   0.768   0.237   0.422 -0.5030 -0.6624  0.4107
  491TMC3     H 7304   0.552   0.193   0.536 -0.2828  1.1004  1.2737
  491TMC3    H1 7305   0.591   0.394   0.159  1.0616 -0.5679  0.2754
  491TMC3    H2 7306   0.218   0.236   0.271 -0.2166 -1.0380 -0.3875
  491TMC3    C7 7307   0.331   0.354   0.087  0.2816  0.2665  0.7154
  491TMC3    C8 7308   0.280   0.195   0.520  0.3947  0.7748  0.9669
  491TMC3    O1 7309   0.236   0.286   0.063 -0.6370  0.4666 -0.5056
  491TMC3    O2 7310   0.182   0.272   0.510 -0.2828 -1.2155  0.0817
  492MPD2     C 7311   1.000   0.930  11.691  0.0190 -0.0965 -0.0384
  492MPD2    C1 7312   0.948   0.853  11.592  0.8592  0.1270 -0.5798
  492MPD2    C2 7313   0.875   0.745  11.633 -0.4909  0.2435  0.2641
  492MPD2    C3 7314   0.849   0.719  11.771 -0.6387  0.4886  0.2857
  492MPD2    C4 7315   0.906   0.802  11.871  0.1084 -0.5259  0.1255
  492MPD2    C5 7316   0.980   0.906  11.822 -0.2596 -0.6848  0.1506
  492MPD2     H 7317   0.822   0.688  11.559  0.7831 -0.8405  0.1758
  492MPD2    H1 7318   0.879   0.785  11.975 -0.4250 -0.0143  0.0704
  492MPD2    H2 7319   1.057   1.020  11.671  1.8116 -1.1396  0.4790
  492MPD2    H3 7320   1.029   0.960  11.903  0.3304  1.3216 -1.5322
  492MPD2     N 7321   0.768   0.617  11.819  0.6426 -0.1594  0.7443
  492MPD2    H5 7322   0.765   0.604  11.919 -2.1911  0.0742  0.6905
  492MPD2    N1 7323   0.948   0.893  11.457  0.3831  0.1757 -0.4085
  492MPD2    H7 7324   1.007   0.975  11.444  0.9354 -0.1271  0.1655
  493TMC3    C1 7325   0.900   0.908  11.216 -0.2798  0.1585 -0.2096
  493TMC3    C2 7326   0.980   1.020  11.199 -0.0735 -0.1580  0.1661
  493TMC3    C3 7327   0.997   1.063  11.068 -0.3905 -0.8213  0.3097
  493TMC3    C4 7328   0.834   0.849  11.111  0.0857  0.1335  0.5554
  493TMC3    C5 7329   0.862   0.893  10.983  0.1359  0.6571 -0.0914
  493TMC3    C6 7330   0.938   1.005  10.957 -0.6323 -0.1043  0.1884
  493TMC3     C 7331   0.889   0.835  11.345  0.5219  0.0221 -0.1934
  493TMC3     O 7332   0.842   0.725  11.341  0.2704  0.3643 -0.7621
  493TMC3     H 7333   1.025   1.082  11.276 -0.5226 -0.2671  0.5100
  493TMC3    H1 7334   0.786   0.753  11.127 -1.2356  0.7515  0.3099
  493TMC3    H2 7335   0.966   1.022  10.854  0.6829 -0.0292  0.5611
  493TMC3    C7 7336   0.767   0.883  10.871 -0.0577  0.0531 -0.2187
  493TMC3    C8 7337   1.081   1.174  11.056  0.0911  0.5855  0.3825
  493TMC3    O1 7338   0.802   0.922  10.762 -0.1480 -1.0942  0.2326
  493TMC3    O2 7339   1.160   1.196  11.146 -0.8566 -0.3210 -0.3339
  494TMC3    C1 7340   0.729   2.809   0.307  0.6647 -0.1585  0.4406
  494TMC3    C2 7341   0.733   2.680   0.347  0.0202 -0.7359  0.3867
  494TMC3    C3 7342   0.823   2.590   0.288 -0.0465  0.2606  1.1111
  494TMC3    C4 7343   0.802   2.850   0.197 -0.3686  0.0949  0.0478
  494TMC3    C5 7344   0.884   2.755   0.140 -0.3471  0.0762 -0.1152
  494TMC3    C6 7345   0.897   2.627   0.179  0.3610 -0.2255  0.4333
  494TMC3     C 7346   0.648   2.909   0.381 -0.0233 -0.3577 -0.0589
  494TMC3     O 7347   0.587   2.861   0.476 -0.1710  1.0619  0.9640
  494TMC3     H 7348   0.667   2.655   0.429  1.3381 -0.5598  1.5159
  494TMC3    H1 7349   0.785   2.947   0.151 -0.1329  0.7395  1.3253
  494TMC3    H2 7350   0.974   2.559   0.145  1.1212 -0.0733  1.8756
  494TMC3    C7 7351   0.966   2.790   0.028  0.3344  0.7818  0.3960
  494TMC3    C8 7352   0.854   2.461   0.352 -0.3085 -0.2474  0.9070
  494TMC3    O1 7353   0.996   2.701  17.655  0.3753  0.0949 -0.0172
  494TMC3    O2 7354   0.922   2.382   0.283 -0.3596  1.1942  0.5104
  495TMC3    C1 7355   4.451   4.065  14.706 -0.7726 -0.0454 -0.1508
  495TMC3    C2 7356   4.432   4.120  14.583 -0.3500 -0.4629 -0.5698
  495TMC3    C3 7357   4.404   4.255  14.574 -0.4682 -0.0853  0.5133
  495TMC3    C4 7358   4.435   4.136  14.825 -0.9480  0.1347  0.3217
  495TMC3    C5 7359   4.404   4.272  14.810 -0.0563 -0.7137  0.4480
  495TMC3    C6 7360   4.398   4.337  14.687 -0.2252 -1.0009 -0.8187
  495TMC3     C 7361   4.414   3.929  14.719 -0.8879 -0.0365  1.1875
  495TMC3     O 7362   4.337   3.890  14.634  0.2989  0.0629  0.9740
  495TMC3     H 7363   4.454   4.059  14.496  1.8227 -1.0106  0.3727
  495TMC3    H1 7364   4.446   4.085  14.920 -0.6781 -1.5512 -0.6232
  495TMC3    H2 7365   4.390   4.444  14.670  0.7154 -0.5846  1.2735
  495TMC3    C7 7366   4.405   4.351  14.932  0.1664 -0.0156  0.0496
  495TMC3    C8 7367   4.292   4.283  14.482 -0.4903  0.0210 -0.2451
  495TMC3    O1 7368   4.367   4.293  15.032  0.5392  0.3447 -0.0469
  495TMC3    O2 7369   4.233   4.388  14.500 -0.3331 -0.6480 -0.1793
  496MPD2     C 7370   2.531   4.526  15.693  0.6288 -0.7199 -0.2681
  496MPD2    C1 7371   2.412   4.468  15.661 -0.1468 -0.5512 -0.4008
  496MPD2    C2 7372   2.317   4.433  15.761 -0.0716  0.3381  0.1312
  496MPD2    C3 7373   2.338   4.477  15.891  0.1579 -0.7675  0.4688
  496MPD2    C4 7374   2.457   4.544  15.924  0.7586 -0.3940  0.9458
  496MPD2    C5 7375   2.547   4.567  15.825 -0.5392  0.1207 -0.0250
  496MPD2     H 7376   2.222   4.392  15.730 -1.2048  0.8245  2.9512
  496MPD2    H1 7377   2.476   4.594  16.019 -0.2751 -3.5095  2.7936
  496MPD2    H2 7378   2.607   4.543  15.617  2.6806 -0.2614  1.8705
  496MPD2    H3 7379   2.638   4.622  15.849 -1.3932  0.9530  1.2770
  496MPD2     N 7380   2.238   4.455  15.982 -0.1968 -0.0227 -0.3087
  496MPD2    H5 7381   2.159   4.409  15.937  0.9018 -1.7978 -0.4332
  496MPD2    N1 7382   2.389   4.454  15.520  0.8349  0.0436  0.4256
  496MPD2    H7 7383   2.463   4.456  15.451  0.2270 -0.4151 -0.2461
  497TMC3    C1 7384   2.108   4.442  16.187 -0.8004 -0.2160  0.7453
  497TMC3    C2 7385   2.005   4.387  16.112  0.4860  0.1665  0.2886
  497TMC3    C3 7386   1.876   4.390  16.164  0.0374  0.2929  0.4761
  497TMC3    C4 7387   2.084   4.494  16.310 -0.3072 -0.8708  0.3060
  497TMC3    C5 7388   1.955   4.481  16.359  0.1047  0.3412 -0.6263
  497TMC3    C6 7389   1.851   4.448  16.286  0.0157 -0.5100  0.0671
  497TMC3     C 7390   2.226   4.489  16.115  0.1485  0.9400 -0.5180
  497TMC3     O 7391   2.301   4.553  16.189 -0.0707 -0.1908 -0.1807
  497TMC3     H 7392   2.013   4.349  16.011  3.8452 -0.2421  0.7086
  497TMC3    H1 7393   2.172   4.505  16.373 -0.8143 -1.0424  1.0463
  497TMC3    H2 7394   1.748   4.460  16.318 -0.2298 -0.7107 -0.6537
  497TMC3    C7 7395   1.935   4.453  16.500  0.1135 -0.3001 -0.3604
  497TMC3    C8 7396   1.774   4.315  16.097  0.7220 -0.2503 -0.1799
  497TMC3    O1 7397   1.828   4.390  16.526 -0.6174 -0.2307 -0.1964
  497TMC3    O2 7398   1.665   4.346  16.134  0.3053  0.7293 -1.0577
  498MPD2     C 7399   3.633   1.577   9.264  0.3183  0.1551  0.3938
  498MPD2    C1 7400   3.710   1.515   9.363 -0.4462  0.4392  0.6946
  498MPD2    C2 7401   3.637   1.425   9.438 -0.2018  0.1995 -0.8658
  498MPD2    C3 7402   3.503   1.400   9.412  0.5172  0.0923  0.0153
  498MPD2    C4 7403   3.431   1.478   9.321  0.2322 -0.4006  0.2889
  498MPD2    C5 7404   3.500   1.554   9.239 -0.4826  0.0941  1.4423
  498MPD2     H 7405   3.692   1.369   9.513 -2.8129 -0.6993  0.3549
  498MPD2    H1 7406   3.328   1.464   9.293  0.7512  1.5770 -2.5964
  498MPD2    H2 7407   3.680   1.660   9.213  0.3124 -1.2744 -1.9756
  498MPD2    H3 7408   3.441   1.609   9.168  0.1235  0.6192  1.3422
  498MPD2     N 7409   3.430   1.310   9.495 -0.9653  0.0824  0.1795
  498MPD2    H5 7410   3.492   1.263   9.561  1.3619  0.5220 -1.6772
  498MPD2    N1 7411   3.850   1.520   9.380 -0.3799  0.2698 -0.0373
  498MPD2    H7 7412   3.890   1.446   9.437 -1.3735  0.9764  1.5857
  499TMC3    C1 7413   4.071   1.562   9.334 -0.1134 -0.7007 -0.9857
  499TMC3    C2 7414   4.113   1.451   9.406  0.3164 -0.3656  0.1438
  499TMC3    C3 7415   4.245   1.442   9.440 -0.5016  0.2224 -0.5995
  499TMC3    C4 7416   4.161   1.666   9.316  0.0587  0.7298 -0.1354
  499TMC3    C5 7417   4.294   1.654   9.352 -0.7971  0.4767  0.5285
  499TMC3    C6 7418   4.334   1.541   9.416 -0.4775 -0.1731  0.1651
  499TMC3     C 7419   3.937   1.599   9.316 -0.7627  0.0809  0.0008
  499TMC3     O 7420   3.908   1.693   9.240 -0.5716  0.3129  0.1809
  499TMC3     H 7421   4.038   1.381   9.441  0.5638 -0.1470  1.1092
  499TMC3    H1 7422   4.133   1.763   9.277 -0.6315  0.8343  0.6034
  499TMC3    H2 7423   4.437   1.521   9.442 -0.0292  0.3984 -1.1678
  499TMC3    C7 7424   4.393   1.763   9.328  0.1204  0.7197 -0.5723
  499TMC3    C8 7425   4.279   1.321   9.516  0.5106  0.2230 -0.1006
  499TMC3    O1 7426   4.352   1.879   9.314 -0.1423  0.1093 -0.0917
  499TMC3    O2 7427   4.373   1.324   9.598  0.0865  0.0034  0.9319
  500MPD2     C 7428   4.517   2.153  10.878 -0.8517 -0.1059  0.4559
  500MPD2    C1 7429   4.575   2.233  10.783 -0.6960  0.1305 -0.1572
  500MPD2    C2 7430   4.492   2.278  10.678 -0.2992 -0.6342 -0.5552
  500MPD2    C3 7431   4.362   2.227  10.664 -0.2107  0.6071  0.1227
  500MPD2    C4 7432   4.314   2.158  10.765  0.3662  0.4834 -0.2635
  500MPD2    C5 7433   4.389   2.113  10.868 -0.2586  0.1958  0.2316
  500MPD2     H 7434   4.531   2.346  10.603  1.0060 -0.9511 -0.1670
  500MPD2    H1 7435   4.210   2.129  10.772 -0.0966  1.6714 -2.1041
  500MPD2    H2 7436   4.566   2.094  10.956 -2.0252 -0.3744  0.9873
  500MPD2    H3 7437   4.340   2.059  10.949  1.9222  0.3827  1.6589
  500MPD2     N 7438   4.281   2.268  10.565  0.6136  0.2499 -0.0083
  500MPD2    H5 7439   4.181   2.249  10.570  0.0422  2.8717 -1.4802
  500MPD2    N1 7440   4.711   2.270  10.788  0.9497  0.6732 -0.8783
  500MPD2    H7 7441   0.013   2.328  10.710  1.5522  0.8575 -0.5376
  501TMC3    C1 7442   0.207   2.247  10.845  0.0383 -0.0594  0.0161
  501TMC3    C2 7443   0.240   2.315  10.735 -0.2252 -0.2845 -0.5129
  501TMC3    C3 7444   0.369   2.315  10.701 -0.9054  0.3703  0.4045
  501TMC3    C4 7445   0.304   2.177  10.912  0.1452  0.3287  0.0090
  501TMC3    C5 7446   0.430   2.187  10.873  0.0506 -0.0372 -0.1679
  501TMC3    C6 7447   0.472   2.260  10.766  0.8342  0.7713  0.6961
  501TMC3     C 7448   0.074   2.209  10.876  1.2528  0.0476 -0.1670
  501TMC3     O 7449   0.061   2.129  10.966  1.1244 -0.0469 -0.1302
  501TMC3     H 7450   0.171   2.367  10.669 -2.5746 -0.2301  2.0164
  501TMC3    H1 7451   0.282   2.113  10.997 -0.3743 -0.9975 -1.1300
  501TMC3    H2 7452   0.575   2.265  10.735  1.5095  1.5753  3.0898
  501TMC3    C7 7453   0.528   2.121  10.952 -0.0513 -0.2149  0.2674
  501TMC3    C8 7454   0.397   2.395  10.587  0.3817  0.6430  0.1740
  501TMC3    O1 7455   0.482   2.038  11.028  0.4680  0.3568  0.1160
  501TMC3    O2 7456   0.319   2.482  10.548 -0.4266 -0.5339 -0.4148
  502TMC3    C1 7457   4.047   0.773  15.386  0.4251  0.0610  0.2811
  502TMC3    C2 7458   3.983   0.889  15.348 -0.1255 -0.0061 -0.0076
  502TMC3    C3 7459   3.885   0.939  15.431 -0.1452 -0.0332  0.4791
  502TMC3    C4 7460   4.001   0.695  15.484  0.1161  0.4291  0.1218
  502TMC3    C5 7461   3.907   0.749  15.565 -0.6321 -0.1696 -0.3874
  502TMC3    C6 7462   3.847   0.866  15.532 -0.3829  0.0394 -0.2038
  502TMC3     C 7463   4.187   0.797  15.389  0.3992 -0.0598 -0.8869
  502TMC3     O 7464   4.238   0.867  15.308  0.0955 -0.6055 -0.0828
  502TMC3     H 7465   4.018   0.926  15.252  0.4073 -0.6370 -0.0605
  502TMC3    H1 7466   4.036   0.592  15.489 -1.0896  0.0731  1.2768
  502TMC3    H2 7467   3.768   0.906  15.595 -1.2280 -0.7410 -0.7722
  502TMC3    C7 7468   3.839   0.654  15.647  0.3680  0.0457  0.6334
  502TMC3    C8 7469   3.885   1.086  15.432  0.4933 -0.2031  0.5171
  502TMC3    O1 7470   3.908   0.565  15.690 -0.3753 -0.8091  0.3877
  502TMC3    O2 7471   3.963   1.142  15.363  0.5581 -0.1491 -0.0443
  503MPD2     C 7472   1.073   1.435  17.076  0.1049  0.8143 -0.0415
  503MPD2    C1 7473   1.154   1.506  17.175 -0.0675 -0.7576  0.5068
  503MPD2    C2 7474   1.272   1.448  17.218 -0.4680  0.7115  0.7985
  503MPD2    C3 7475   1.309   1.319  17.175  0.0457  0.2843  0.1705
  503MPD2    C4 7476   1.236   1.254  17.073  0.1029 -0.2759  0.0011
  503MPD2    C5 7477   1.121   1.315  17.027 -0.1346 -0.3250 -0.2791
  503MPD2     H 7478   1.331   1.500  17.292  0.5766  2.3997 -1.2325
  503MPD2    H1 7479   1.272   1.159  17.034 -1.7135 -0.8405 -0.3282
  503MPD2    H2 7480   0.978   1.473  17.041  0.1251  0.7690 -0.1461
  503MPD2    H3 7481   1.063   1.260  16.953 -0.0249  0.3247 -0.8495
  503MPD2     N 7482   1.433   1.265  17.229 -0.6150 -0.0588  0.2826
  503MPD2    H5 7483   1.486   1.331  17.284  2.0291 -2.5478  0.7683
  503MPD2    N1 7484   1.122   1.630  17.233 -0.6977 -0.6027  0.0168
  503MPD2    H7 7485   1.191   1.668  17.296 -2.0481 -1.5239  2.0356
  504TMC3    C1 7486   1.609   1.132  17.267 -0.2045 -0.3851  0.8176
  504TMC3    C2 7487   1.599   1.158  17.399  0.6058 -0.2689  0.0491
  504TMC3    C3 7488   1.679   1.092  17.495  0.0079  0.3342  0.0819
  504TMC3    C4 7489   1.705   1.044  17.224 -0.3720 -0.2010 -0.3252
  504TMC3    C5 7490   1.797   1.000  17.314  0.6025  0.8964 -0.0709
  504TMC3    C6 7491   1.780   1.013  17.454 -0.3621 -0.5428 -0.5413
  504TMC3     C 7492   1.501   1.161  17.180 -0.3892 -0.1818 -0.2126
  504TMC3     O 7493   1.491   1.101  17.077  0.1936  0.4479  0.0787
  504TMC3     H 7494   1.514   1.212  17.439 -0.6375 -1.2051 -1.3594
  504TMC3    H1 7495   1.705   1.019  17.118 -0.6294  1.3240 -0.6829
  504TMC3    H2 7496   1.852   0.989  17.531 -1.2086  1.0400  0.7490
  504TMC3    C7 7497   1.925   0.952  17.260 -0.0092 -0.3890  0.1042
  504TMC3    C8 7498   1.634   1.097  17.633  0.4380 -0.0364  0.2415
  504TMC3    O1 7499   1.961   0.995  17.154 -0.0897 -0.5861  0.2690
  504TMC3    O2 7500   1.589   1.207  17.664  0.1743 -0.4239  0.6729
  505MPD2     C 7501   3.252   0.141  10.171 -0.0649  0.3599 -0.0213
  505MPD2    C1 7502   3.321   0.113  10.059 -0.5179  0.2718  0.3631
  505MPD2    C2 7503   3.451   0.172  10.042  0.3134  0.4576 -0.0394
  505MPD2    C3 7504   3.512   0.241  10.144 -0.3615  0.7289  0.3843
  505MPD2    C4 7505   3.442   0.268  10.261  0.4333 -0.6473 -0.2491
  505MPD2    C5 7506   3.312   0.214  10.272 -0.3165 -0.1800  0.1971
  505MPD2     H 7507   3.490   0.170   9.941 -2.6558 -0.9136 -1.1662
  505MPD2    H1 7508   3.474   0.332  10.342  1.5076  0.2046 -1.3444
  505MPD2    H2 7509   3.146   0.119  10.180  0.3447 -2.2288 -1.4608
  505MPD2    H3 7510   3.258   0.241  10.361  0.0387  2.1514 -0.2945
  505MPD2     N 7511   3.648   0.285  10.130  0.0605 -0.1179  0.1585
  505MPD2    H5 7512   3.688   0.331  10.211 -0.6761 -1.2284  1.1662
  505MPD2    N1 7513   3.258   0.035   9.958 -0.0781 -0.6004 -0.1516
  505MPD2    H7 7514   3.163   0.006   9.978 -0.3816  0.6214  0.1812
  506TMC3    C1 7515   3.218   4.667   9.743  0.5448 -0.0590 -0.9105
  506TMC3    C2 7516   3.118   0.033   9.702 -0.0809  0.5168 -1.0538
  506TMC3    C3 7517   3.076   0.035   9.571  0.8034 -0.0762  0.3028
  506TMC3    C4 7518   3.288   4.596   9.646  0.3845 -0.2222  0.2275
  506TMC3    C5 7519   3.260   4.628   9.516  0.0588 -0.6418 -0.1436
  506TMC3    C6 7520   3.149   4.701   9.478 -0.7378  0.3655  0.1196
  506TMC3     C 7521   3.309   4.723   9.838 -0.3378  0.2989 -0.4556
  506TMC3     O 7522   3.427   4.720   9.801 -0.1154  0.2237  0.1624
  506TMC3     H 7523   3.071   0.101   9.773 -0.0913 -1.4121  0.7696
  506TMC3    H1 7524   3.362   4.523   9.680 -0.3042 -0.2420  1.6738
  506TMC3    H2 7525   3.137   0.011   9.376 -0.7906  0.2778  0.0961
  506TMC3    C7 7526   3.375   4.665   9.442  0.3672 -0.7781  0.4426
  506TMC3    C8 7527   2.990   0.136   9.522  0.1086 -0.1191 -1.0592
  506TMC3    O1 7528   3.353   4.693   9.327 -0.1949 -0.9261  0.1345
  506TMC3    O2 7529   2.918   0.119   9.429 -0.3583 -0.9434 -0.1728
  507TMC3    C1 7530   2.404   0.731  15.204 -0.0435  0.4776 -0.4583
  507TMC3    C2 7531   2.404   0.652  15.093  0.0705  0.3154  0.8347
  507TMC3    C3 7532   2.508   0.663  15.003 -0.2937 -0.1341  0.1056
  507TMC3    C4 7533   2.499   0.831  15.228 -0.5396 -0.2815  0.5973
  507TMC3    C5 7534   2.601   0.843  15.135 -0.2850  0.3135 -0.3419
  507TMC3    C6 7535   2.607   0.757  15.024 -0.7355 -0.2079  0.6901
  507TMC3     C 7536   2.308   0.712  15.304 -0.7091 -0.5069  0.2281
  507TMC3     O 7537   2.362   0.730  15.411  0.5180 -0.2743 -0.2734
  507TMC3     H 7538   2.323   0.582  15.076  0.7634 -0.3339  0.2094
  507TMC3    H1 7539   2.478   0.911  15.298 -0.9466  1.9897 -2.1208
  507TMC3    H2 7540   2.678   0.776  14.944 -0.8227 -2.0423  0.1648
  507TMC3    C7 7541   2.629   0.976  15.099 -0.5220  0.0609  0.4972
  507TMC3    C8 7542   2.456   0.684  14.869  0.1073 -0.0152  0.1184
  507TMC3    O1 7543   2.668   1.053  15.184 -0.1043  0.2611  0.8156
  507TMC3    O2 7544   2.481   0.792  14.818 -0.0052 -0.1393  0.6670
  508MPD2     C 7545   3.514   3.033  16.025 -0.7534 -0.1936 -0.1889
  508MPD2    C1 7546   3.403   3.094  16.089  0.1456 -0.8649  0.6549
  508MPD2    C2 7547   3.296   3.141  16.013  0.2301 -0.1041  0.1063
  508MPD2    C3 7548   3.311   3.140  15.878 -0.6526 -0.2077  0.5082
  508MPD2    C4 7549   3.411   3.075  15.812 -0.0698 -0.4206  0.6716
  508MPD2    C5 7550   3.513   3.030  15.889 -0.6113 -0.6723 -0.2458
  508MPD2     H 7551   3.206   3.185  16.056  1.1199  0.5355  1.3052
  508MPD2    H1 7552   3.406   3.051  15.706  3.3818  0.1171  0.3725
  508MPD2    H2 7553   3.600   3.000  16.082 -0.5670 -0.2860 -0.5232
  508MPD2    H3 7554   3.603   2.987  15.847  0.8004  0.5501  1.4831
  508MPD2     N 7555   3.209   3.203  15.804 -0.1238  0.3076  0.2293
  508MPD2    H5 7556   3.136   3.242  15.862  2.0954  3.9025  0.5482
  508MPD2    N1 7557   3.410   3.108  16.228  0.8981 -0.2056  0.5949
  508MPD2    H7 7558   3.490   3.067  16.275 -1.4051 -1.3790  3.4592
  509TMC3    C1 7559   3.027   3.491  15.495  0.1269 -0.6747 -0.8609
  509TMC3    C2 7560   3.016   3.581  15.594 -0.7544  0.0048  0.8946
  509TMC3    C3 7561   3.078   3.560  15.715 -0.4912 -0.5395 -0.1306
  509TMC3    C4 7562   3.091   3.372  15.515 -0.0488  0.2519 -0.4915
  509TMC3    C5 7563   3.135   3.350  15.644 -0.1781  0.0841  0.4960
  509TMC3    C6 7564   3.131   3.443  15.741  0.7808  0.0856 -0.2525
  509TMC3     C 7565   3.021   3.530  15.349  0.2465 -0.4163 -0.3605
  509TMC3     O 7566   3.063   3.455  15.266  0.5180 -0.3938  0.0577
  509TMC3     H 7567   2.942   3.660  15.594 -2.4083 -1.5504  0.0559
  509TMC3    H1 7568   3.098   3.295  15.438  0.3195  0.4629 -0.6666
  509TMC3    H2 7569   3.195   3.439  15.828 -0.2588  1.6838  0.5869
  509TMC3    C7 7570   3.220   3.235  15.673 -0.0084  0.4437 -0.4141
  509TMC3    C8 7571   3.167   3.665  15.759 -0.6589 -0.4255  0.4703
  509TMC3    O1 7572   3.275   3.183  15.577  0.0108  0.3138  0.6626
  509TMC3    O2 7573   3.203   3.676  15.874 -0.3712 -0.4691 -0.1177
  510MPD2     C 7574   1.339   0.201  14.709 -0.4637 -0.6685 -0.4784
  510MPD2    C1 7575   1.373   0.156  14.831 -0.1524  0.1849  0.2998
  510MPD2    C2 7576   1.507   0.139  14.862  0.2707  0.0077  0.2273
  510MPD2    C3 7577   1.603   0.175  14.767 -0.2772 -0.1820  0.4773
  510MPD2    C4 7578   1.564   0.231  14.648  0.5586  0.0968 -0.5531
  510MPD2    C5 7579   1.433   0.241  14.618 -0.1740 -0.4719  0.4934
  510MPD2     H 7580   1.534   0.088  14.954  3.4121 -0.6069 -1.0347
  510MPD2    H1 7581   1.630   0.264  14.569  0.4512  0.4553 -0.4947
  510MPD2    H2 7582   1.233   0.217  14.697 -0.5364  0.0989  1.1166
  510MPD2    H3 7583   1.403   0.271  14.518  2.7803  0.7568 -0.0122
  510MPD2     N 7584   1.741   0.153  14.796 -0.1785 -0.7152 -0.0192
  510MPD2    H5 7585   1.761   0.106  14.884  0.8495  1.1137  0.7506
  510MPD2    N1 7586   1.263   0.119  14.912 -0.0451 -0.2189  0.6351
  510MPD2    H7 7587   1.174   0.124  14.863 -0.9557  0.6125  2.3990
  511TMC3    C1 7588   1.147   4.718  15.061 -0.5237 -0.3421 -0.7267
  511TMC3    C2 7589   1.035   0.043  15.120  0.2062  0.6549 -0.2118
  511TMC3    C3 7590   0.929   4.682  15.129  0.3775 -0.0129  0.6776
  511TMC3    C4 7591   1.171   4.593  15.026  0.3974  1.2411  0.0423
  511TMC3    C5 7592   1.057   4.512  15.028 -0.6221  0.3702  0.0199
  511TMC3    C6 7593   0.936   4.560  15.080  0.1674 -0.0891 -0.8623
  511TMC3     C 7594   1.259   0.071  15.041  0.9836  0.0385  0.1846
  511TMC3     O 7595   1.355   0.062  15.115 -0.0137  0.3416  0.1137
  511TMC3     H 7596   1.016   0.145  15.152 -1.0581  1.3594 -3.1764
  511TMC3    H1 7597   1.264   4.565  14.979  0.4624  0.9712  0.3317
  511TMC3    H2 7598   0.852   4.492  15.072 -0.9573  1.4004 -1.7119
  511TMC3    C7 7599   1.056   4.403  14.926  0.4368 -0.6172  0.9606
  511TMC3    C8 7600   0.816   0.001  15.204 -0.4029  0.4235  0.0687
  511TMC3    O1 7601   1.152   4.387  14.851 -0.2278 -0.1095  0.1474
  511TMC3    O2 7602   0.823   0.111  15.249  0.0346 -0.3543  0.2910
  512TMC3    C1 7603   0.014   4.301  13.259  0.2399  0.2814  0.0219
  512TMC3    C2 7604   0.079   4.246  13.368 -1.2334  0.0249  0.4106
  512TMC3    C3 7605   0.113   4.113  13.365 -0.0408  0.5311 -0.1635
  512TMC3    C4 7606   0.005   4.233  13.138  0.4877  0.7097  0.7354
  512TMC3    C5 7607   0.051   4.105  13.137  0.0440 -0.3220  0.5518
  512TMC3    C6 7608   0.094   4.044  13.249  0.0353  0.1266 -0.2966
  512TMC3     C 7609   4.698   4.441  13.258 -0.1535 -0.1323 -0.2149
  512TMC3     O 7610   4.680   4.488  13.141  0.0378 -0.2230  0.0478
  512TMC3     H 7611   0.100   4.301  13.459 -2.8996  1.6816 -0.2003
  512TMC3    H1 7612   4.703   4.285  13.046  1.6862 -2.5779 -1.5018
  512TMC3    H2 7613   0.142   3.947  13.246 -0.6994 -0.2180 -0.8424
  512TMC3    C7 7614   0.052   4.039  13.006 -0.7793  0.3194  0.0791
  512TMC3    C8 7615   0.184   4.053  13.469  0.7254 -0.0432  0.1399
  512TMC3    O1 7616   0.019   4.108  12.910  0.2001 -0.0964  0.0401
  512TMC3    O2 7617   0.168   3.932  13.470  0.2088 -0.2251  0.1179
  513MPD2     C 7618   1.662   4.377  12.739  0.3206  0.6694 -0.0869
  513MPD2    C1 7619   1.726   4.256  12.723  0.3296  0.7642  0.0272
  513MPD2    C2 7620   1.767   4.188  12.835 -0.7363  0.0051  0.0253
  513MPD2    C3 7621   1.756   4.245  12.966  0.4120 -0.0997  0.8960
  513MPD2    C4 7622   1.692   4.367  12.981  0.3428 -0.6183 -0.9429
  513MPD2    C5 7623   1.648   4.431  12.864  0.1430  0.4861  0.1310
  513MPD2     H 7624   1.806   4.087  12.833  0.7227  0.6070 -1.8013
  513MPD2    H1 7625   1.676   4.414  13.078 -2.6230  0.4401 -1.9569
  513MPD2    H2 7626   1.612   4.428  12.657 -2.9429 -1.4874  0.5565
  513MPD2    H3 7627   1.586   4.518  12.880 -1.7953  0.1188 -5.4199
  513MPD2     N 7628   1.798   4.175  13.084 -0.1211 -0.0113  0.2719
  513MPD2    H5 7629   1.833   4.082  13.065 -0.1831 -0.2636  1.4301
  513MPD2    N1 7630   1.757   4.194  12.602 -0.4940  0.8712  0.1544
  513MPD2    H7 7631   1.795   4.101  12.607  0.4346  1.1677 -1.5634
  514TMC3    C1 7632   1.819   4.157  12.383  0.1695 -0.5764  0.4631
  514TMC3    C2 7633   1.933   4.216  12.336  0.1219  0.0889  1.0828
  514TMC3    C3 7634   2.037   4.133  12.313  0.0241  0.5422  0.3231
  514TMC3    C4 7635   1.815   4.024  12.414 -0.8711  0.3768  0.0070
  514TMC3    C5 7636   1.934   3.950  12.403 -0.3869 -0.0121 -0.1275
  514TMC3    C6 7637   2.045   3.999  12.343  0.2277 -0.0703  0.0771
  514TMC3     C 7638   1.746   4.245  12.477 -0.4707  0.4566 -0.6431
  514TMC3     O 7639   1.709   4.356  12.440  0.0726 -0.6256  0.0369
  514TMC3     H 7640   1.933   4.324  12.326  2.6933  0.0292  0.5984
  514TMC3    H1 7641   1.729   3.975  12.458 -1.8670  0.4740 -1.7824
  514TMC3    H2 7642   2.139   3.948  12.328  0.0185 -0.3599 -0.2523
  514TMC3    C7 7643   1.964   3.908  12.536 -0.2445 -0.2936  0.4084
  514TMC3    C8 7644   2.159   4.176  12.239 -0.4855  0.3218 -0.0985
  514TMC3    O1 7645   1.889   3.941  12.626 -0.2550 -0.1343  0.0090
  514TMC3    O2 7646   2.220   4.095  12.159 -0.3952 -0.0175 -0.3561
  515MPD2     C 7647   4.263   1.605  15.391  0.4436 -0.0497  0.1206
  515MPD2    C1 7648   4.327   1.549  15.281 -0.3514 -0.3139 -0.5223
  515MPD2    C2 7649   4.466   1.529  15.290 -0.5506  0.3870 -1.2611
  515MPD2    C3 7650   4.535   1.573  15.403  0.1924  0.3847  0.5674
  515MPD2    C4 7651   4.463   1.632  15.507 -0.2468  0.2929 -0.4480
  515MPD2    C5 7652   4.327   1.648  15.502  0.6794  0.2159 -0.0440
  515MPD2     H 7653   4.520   1.490  15.205 -2.3509  0.5436 -2.4956
  515MPD2    H1 7654   4.502   1.663  15.603 -1.4339  2.9021 -0.8242
  515MPD2    H2 7655   4.159   1.635  15.382  0.7471  1.2394  0.9532
  515MPD2    H3 7656   4.271   1.714  15.567  1.5682 -0.1170  1.0599
  515MPD2     N 7657   4.670   1.568  15.419  0.2890 -0.2182  0.7361
  515MPD2    H5 7658   4.709   1.604  15.505 -0.3879 -0.3382  1.1009
  515MPD2    N1 7659   4.264   1.491  15.166 -0.5033 -0.5898  0.7912
  515MPD2    H7 7660   4.323   1.439  15.102  0.0065  2.1665 -1.0038
  516TMC3    C1 7661   4.081   1.415  15.034  0.5047  0.5037  0.3405
  516TMC3    C2 7662   4.150   1.427  14.923 -0.1195 -0.2100  0.5489
  516TMC3    C3 7663   4.101   1.355  14.813  0.2753  0.2171  0.2394
  516TMC3    C4 7664   3.956   1.348  15.038 -0.2478 -1.1748  0.7407
  516TMC3    C5 7665   3.912   1.276  14.933 -0.0117  0.2152  0.9970
  516TMC3    C6 7666   3.988   1.279  14.822  0.3926  0.1280  0.3830
  516TMC3     C 7667   4.126   1.481  15.151  0.0423 -0.1682  0.4163
  516TMC3     O 7668   4.027   1.516  15.215 -0.0648 -0.0324 -0.4617
  516TMC3     H 7669   4.239   1.489  14.926 -1.5127  1.7740  1.0799
  516TMC3    H1 7670   3.904   1.354  15.134 -1.2498  2.2146 -0.0219
  516TMC3    H2 7671   3.941   1.224  14.741 -0.9238  1.2397  0.3990
  516TMC3    C7 7672   3.825   1.161  14.955  0.0694  0.0958  0.0779
  516TMC3    C8 7673   4.152   1.371  14.674  0.3071 -0.3399  0.0309
  516TMC3    O1 7674   3.816   1.076  14.869  0.1256  0.1653  0.4466
  516TMC3    O2 7675   4.083   1.311  14.595  0.0410 -0.3465  0.2559
  517MPD2     C 7676   3.873   2.368   0.288  0.7580 -0.1113  0.4560
  517MPD2    C1 7677   4.009   2.395   0.307 -0.3253 -0.7221 -0.0075
  517MPD2    C2 7678   4.045   2.488   0.398  0.2263 -0.2639 -0.2297
  517MPD2    C3 7679   3.948   2.547   0.472  1.0136 -0.1989  0.4302
  517MPD2    C4 7680   3.815   2.524   0.455  0.2417 -0.0440  0.2081
  517MPD2    C5 7681   3.779   2.424   0.371  0.0308 -0.3491  0.0936
  517MPD2     H 7682   4.152   2.502   0.411 -0.0883  1.3277  0.6312
  517MPD2    H1 7683   3.740   2.567   0.519  1.7010  0.1172  1.8159
  517MPD2    H2 7684   3.839   2.305   0.206 -0.5594  0.8634  0.2635
  517MPD2    H3 7685   3.675   2.400   0.354 -0.1979  1.0800 -0.4566
  517MPD2     N 7686   3.985   2.627   0.585 -0.2375 -0.2388 -0.4712
  517MPD2    H5 7687   3.914   2.654   0.652 -1.0959  0.6449 -1.7240
  517MPD2    N1 7688   4.104   2.327   0.226  0.9617 -0.2100  0.2248
  517MPD2    H7 7689   4.201   2.354   0.233  0.6633  1.6896 -3.2551
  518TMC3    C1 7690   4.197   2.140   0.106 -1.2842  0.0893 -0.2141
  518TMC3    C2 7691   4.203   2.005   0.105  0.6907  0.5992 -0.6276
  518TMC3    C3 7692   4.308   1.954   0.034  0.5825  0.8041 -0.1761
  518TMC3    C4 7693   4.285   2.225   0.034  0.1291  0.5738 -0.2650
  518TMC3    C5 7694   4.386   2.162  17.673  0.0289 -0.2800  0.1086
  518TMC3    C6 7695   4.401   2.032  17.677  0.6720 -0.6667 -0.2087
  518TMC3     C 7696   4.082   2.200   0.175 -1.5942  0.4419 -0.0484
  518TMC3     O 7697   3.983   2.131   0.191  0.3575 -0.2246  0.0441
  518TMC3     H 7698   4.132   1.949   0.164 -1.3110  1.4524 -2.2364
  518TMC3    H1 7699   4.293   2.332   0.049 -3.3620  0.6730  0.8812
  518TMC3    H2 7700   4.488   1.984  17.634  1.6379  0.0682  0.9299
  518TMC3    C7 7701   4.471   2.253  17.595 -0.6033  0.0898  0.0177
  518TMC3    C8 7702   4.341   1.812   0.041 -0.1446 -0.1383  0.5957
  518TMC3    O1 7703   4.472   2.371  17.618 -0.3474  0.3488 -0.1890
  518TMC3    O2 7704   4.399   1.760  17.647 -0.3893  0.5749  0.6495
  519MPD2     C 7705   1.777   1.362  14.020 -0.4739  0.1105  0.1442
  519MPD2    C1 7706   1.669   1.285  14.048 -0.1178 -0.2130  0.2389
  519MPD2    C2 7707   1.690   1.148  14.043 -0.2919  0.1208 -0.6919
  519MPD2    C3 7708   1.812   1.094  14.002  0.2771 -0.2014 -0.4101
  519MPD2    C4 7709   1.915   1.175  13.980  0.6048  0.2183  0.0087
  519MPD2    C5 7710   1.904   1.309  13.996 -0.0348 -0.2554  0.3640
  519MPD2     H 7711   1.602   1.089  14.063  0.0108 -0.9470 -2.5703
  519MPD2    H1 7712   2.007   1.124  13.952 -0.0269 -0.7687 -0.2445
  519MPD2    H2 7713   1.774   1.470  14.010 -4.4272 -0.1167 -1.3783
  519MPD2    H3 7714   1.993   1.369  13.980  0.3383 -0.1057  3.0711
  519MPD2     N 7715   1.833   0.952  13.987 -0.0831 -0.5687  1.5846
  519MPD2    H5 7716   1.923   0.904  13.983  0.3330  0.3070  0.0901
  519MPD2    N1 7717   1.544   1.339  14.070  0.2587 -0.1741 -0.1126
  519MPD2    H7 7718   1.523   1.433  14.037 -4.4861 -1.1753  0.0814
  520TMC3    C1 7719   1.766   0.730  13.992 -0.3491 -0.0113  0.4463
  520TMC3    C2 7720   1.691   0.638  13.935 -0.0167  0.1478 -0.3791
  520TMC3    C3 7721   1.743   0.511  13.924 -0.2507  0.7143  0.1225
  520TMC3    C4 7722   1.899   0.704  14.027 -0.1027 -0.1195  0.2434
  520TMC3    C5 7723   1.951   0.575  14.014 -0.2090 -0.1047 -0.5895
  520TMC3    C6 7724   1.867   0.482  13.958 -0.0539 -0.5128 -0.0506
  520TMC3     C 7725   1.729   0.861  13.975 -0.5464 -0.4125  0.3328
  520TMC3     O 7726   1.605   0.884  13.976  0.2352 -0.4389  0.5416
  520TMC3     H 7727   1.591   0.659  13.898  1.2579 -0.3883 -4.1355
  520TMC3    H1 7728   1.949   0.779  14.088 -2.3640  2.1845 -0.7397
  520TMC3    H2 7729   1.911   0.384  13.942 -0.7209 -1.0925  1.6394
  520TMC3    C7 7730   2.082   0.533  14.063  0.1751 -0.8339  0.4749
  520TMC3    C8 7731   1.652   0.411  13.862 -0.6861 -0.4568  0.4363
  520TMC3    O1 7732   2.100   0.412  14.080  0.6163  0.1267  0.2408
  520TMC3    O2 7733   1.692   0.306  13.812  0.0226  0.1001 -0.0114
  521MPD2     C 7734   2.421   3.886  17.364 -0.4273  0.3630  0.1416
  521MPD2    C1 7735   2.372   3.878  17.234  0.3888 -0.9435  0.0726
  521MPD2    C2 7736   2.438   3.942  17.125  0.9960 -0.1318 -0.4203
  521MPD2    C3 7737   2.551   4.013  17.149  0.1833 -0.2482 -0.7736
  521MPD2    C4 7738   2.597   4.014  17.283  0.2055  0.2389  0.7286
  521MPD2    C5 7739   2.536   3.950  17.386 -0.7077  0.3089  0.2715
  521MPD2     H 7740   2.400   3.948  17.024 -1.0902 -0.1467  0.3465
  521MPD2    H1 7741   2.687   4.072  17.303 -0.0630 -0.0050  2.7003
  521MPD2    H2 7742   2.369   3.839  17.447  1.8181  0.5375  1.6542
  521MPD2    H3 7743   2.585   3.949  17.483 -0.2638 -1.1554  0.0355
  521MPD2     N 7744   2.622   4.071  17.041 -0.2539  0.1184  0.0406
  521MPD2    H5 7745   2.585   4.060  16.947  1.3913 -2.0496 -0.3585
  521MPD2    N1 7746   2.245   3.813  17.224  0.4278  0.0109  0.1526
  521MPD2    H7 7747   2.209   3.774  17.311  1.5931 -0.2733  0.4996
  522TMC3    C1 7748   2.801   4.162  16.919  0.1604  0.1930  0.0881
  522TMC3    C2 7749   2.938   4.140  16.927 -0.1021 -0.2671  0.5655
  522TMC3    C3 7750   3.013   4.123  16.819  0.5594 -0.0523  0.2740
  522TMC3    C4 7751   2.738   4.159  16.797  0.5134 -0.0900 -0.0113
  522TMC3    C5 7752   2.811   4.115  16.691 -0.3373  0.3616  0.1761
  522TMC3    C6 7753   2.949   4.111  16.700 -0.5213 -0.3351  0.2030
  522TMC3     C 7754   2.740   4.144  17.046  0.4257  0.7837 -0.3523
  522TMC3     O 7755   2.805   4.175  17.141  0.3307 -0.0324  0.0695
  522TMC3     H 7756   2.988   4.153  17.022 -0.3093 -0.0757  0.6469
  522TMC3    H1 7757   2.633   4.187  16.794  0.5261 -0.1177 -0.9830
  522TMC3    H2 7758   3.001   4.075  16.612  0.4735  0.2259  0.5643
  522TMC3    C7 7759   2.762   4.156  16.560 -0.2688  0.2080  0.7176
  522TMC3    C8 7760   3.145   4.074  16.847 -0.5685 -0.5338  0.1707
  522TMC3    O1 7761   2.845   4.177  16.475  0.1767 -0.0071  0.4111
  522TMC3    O2 7762   3.208   4.113  16.945 -0.4673  0.5295 -0.2092
  523MPD2     C 7763   0.245   3.206   9.542 -0.7526  0.0683 -0.3098
  523MPD2    C1 7764   0.302   3.300   9.621 -0.4497  0.7287 -0.0574
  523MPD2    C2 7765   0.303   3.432   9.580  0.1316 -0.0376  0.2107
  523MPD2    C3 7766   0.240   3.469   9.463 -0.1547  0.0723  0.7740
  523MPD2    C4 7767   0.189   3.369   9.383 -0.5839  0.2003 -0.2112
  523MPD2    C5 7768   0.193   3.237   9.416  0.3728 -0.1690  1.1296
  523MPD2     H 7769   0.361   3.508   9.632 -0.2589  0.1716  0.3391
  523MPD2    H1 7770   0.144   3.401   9.289 -3.2517 -0.8151  0.7022
  523MPD2    H2 7771   0.249   3.099   9.560  0.7154  0.1196 -0.2976
  523MPD2    H3 7772   0.140   3.166   9.353  1.6659  0.8786 -1.1644
  523MPD2     N 7773   0.233   3.606   9.422  0.2736  0.0804 -0.1772
  523MPD2    H5 7774   0.188   3.621   9.332  0.0737  1.3751  0.1450
  523MPD2    N1 7775   0.367   3.247   9.730  0.4540 -0.5023 -0.1937
  523MPD2    H7 7776   0.364   3.148   9.748  0.1141 -0.9550 -2.7531
  524TMC3    C1 7777   0.250   3.847   9.443  0.2203 -0.8330 -0.3373
  524TMC3    C2 7778   0.173   3.851   9.328 -0.0159  0.6463 -0.1871
  524TMC3    C3 7779   0.117   3.972   9.308 -0.1620 -0.1256 -0.6454
  524TMC3    C4 7780   0.274   3.954   9.525  0.1177 -0.4393  0.1362
  524TMC3    C5 7781   0.217   4.072   9.491 -0.4811  0.4803  0.1014
  524TMC3    C6 7782   0.137   4.079   9.381 -0.0449 -0.3737  0.5104
  524TMC3     C 7783   0.273   3.716   9.502 -0.4089  0.9013  0.7633
  524TMC3     O 7784   0.323   3.720   9.616  0.9328  0.0191  0.1576
  524TMC3     H 7785   0.133   3.770   9.270 -2.9380  0.6846  1.7916
  524TMC3    H1 7786   0.324   3.947   9.620 -1.0062 -2.5430  0.5836
  524TMC3    H2 7787   0.099   4.175   9.349  1.6214  0.5707  1.4013
  524TMC3    C7 7788   0.195   4.161   9.608  0.5052  0.0315 -0.2302
  524TMC3    C8 7789   0.031   3.984   9.191  0.0998  0.0751  0.1180
  524TMC3    O1 7790   0.208   4.116   9.721 -0.3601  0.0939 -0.1645
  524TMC3    O2 7791   0.048   3.906   9.098  0.4583  0.5366  0.6041
  525MPD2     C 7792   2.860   0.564  14.763  0.6955  0.2892 -0.2089
  525MPD2    C1 7793   2.982   0.607  14.812  0.4827 -0.2259  0.0068
  525MPD2    C2 7794   3.025   0.743  14.782 -0.3349 -0.4235  0.0158
  525MPD2    C3 7795   2.950   0.831  14.704  0.5668 -0.2476  0.8057
  525MPD2    C4 7796   2.829   0.785  14.656 -0.4240 -0.1240  0.6966
  525MPD2    C5 7797   2.785   0.652  14.688 -0.0536  0.1166 -0.4361
  525MPD2     H 7798   3.122   0.778  14.816 -0.7542  0.4987  0.2898
  525MPD2    H1 7799   2.766   0.845  14.591  1.5348 -0.4490 -1.4701
  525MPD2    H2 7800   2.819   0.466  14.783 -1.7554  1.2120 -0.7585
  525MPD2    H3 7801   2.691   0.613  14.653 -0.5557  0.6248  0.3458
  525MPD2     N 7802   2.988   0.966  14.688  0.0664 -0.4052 -0.1367
  525MPD2    H5 7803   2.922   1.024  14.638  0.9766  0.8546  0.0996
  525MPD2    N1 7804   3.064   0.523  14.885 -0.2986  0.1691  0.3647
  525MPD2    H7 7805   3.153   0.556  14.919 -1.0848  0.8178  1.7760
  526TMC3    C1 7806   3.107   0.351  15.044 -0.3531 -0.0837  0.2017
  526TMC3    C2 7807   3.042   0.301  15.152  0.1670 -0.5246 -0.0541
  526TMC3    C3 7808   3.124   0.253  15.251  0.7229  0.0345  0.3343
  526TMC3    C4 7809   3.236   0.350  15.025  0.1631  0.4130  0.1605
  526TMC3    C5 7810   3.311   0.290  15.125 -0.3580 -0.2215  0.5614
  526TMC3    C6 7811   3.259   0.236  15.242 -1.3085 -0.1530  0.6795
  526TMC3     C 7812   3.022   0.405  14.941  0.7360  0.5814  1.3342
  526TMC3     O 7813   2.910   0.361  14.939 -0.7728 -0.1710 -0.5451
  526TMC3     H 7814   2.939   0.326  15.176  0.9644  2.1130  0.6293
  526TMC3    H1 7815   3.277   0.393  14.934  2.8435 -1.0064  0.6946
  526TMC3    H2 7816   3.314   0.199  15.328  0.9279 -0.1414 -0.7593
  526TMC3    C7 7817   3.446   0.238  15.097  0.0312  0.2449  0.5659
  526TMC3    C8 7818   3.064   0.225  15.381 -0.6992  0.0026 -0.6633
  526TMC3    O1 7819   3.516   0.206  15.196 -0.3266  0.0510 -0.3880
  526TMC3    O2 7820   3.139   0.239  15.477 -0.0314  0.0931 -0.1867
  527MPD2     C 7821   0.419   3.771   0.827 -0.2282 -0.3826  0.3809
  527MPD2    C1 7822   0.418   3.695   0.942 -0.9443 -0.0361  0.6726
  527MPD2    C2 7823   0.508   3.586   0.952  0.5227  0.6855 -0.2380
  527MPD2    C3 7824   0.589   3.552   0.850 -0.0696 -0.0845 -0.0256
  527MPD2    C4 7825   0.613   3.649   0.751  1.0658 -0.0392  0.2671
  527MPD2    C5 7826   0.524   3.751   0.743 -0.4549 -0.3186 -0.0530
  527MPD2     H 7827   0.495   3.521   1.037 -1.0346 -0.1041 -1.0750
  527MPD2    H1 7828   0.688   3.637   0.674 -0.4037 -1.0104 -1.0162
  527MPD2    H2 7829   0.353   3.854   0.807 -1.6472 -1.6199 -0.1303
  527MPD2    H3 7830   0.542   3.824   0.664  4.3864 -0.8711  0.5605
  527MPD2     N 7831   0.665   3.428   0.870  0.6263 -0.6545 -0.1997
  527MPD2    H5 7832   0.637   3.363   0.942  2.2129 -0.6362  0.4391
  527MPD2    N1 7833   0.328   3.714   1.045 -0.5749 -0.2043  0.0006
  527MPD2    H7 7834   0.342   3.656   1.127  1.4651 -0.7808 -0.7766
  528TMC3    C1 7835   0.120   3.763   1.139 -0.1560  0.6633 -0.1969
  528TMC3    C2 7836   0.166   3.752   1.263  0.2370  0.2434  0.6303
  528TMC3    C3 7837   0.095   3.705   1.365  0.2448 -0.7306 -1.1988
  528TMC3    C4 7838   4.721   3.721   1.111 -0.1550 -0.0023  0.2567
  528TMC3    C5 7839   4.647   3.676   1.216  0.6111  0.1663 -0.3204
  528TMC3    C6 7840   4.692   3.659   1.341  0.4069 -0.1937 -0.6254
  528TMC3     C 7841   0.208   3.778   1.025  0.0522 -1.3145  0.6615
  528TMC3     O 7842   0.157   3.805   0.912 -0.4863 -0.1269  0.3070
  528TMC3     H 7843   0.257   3.805   1.288  0.8378 -0.4302 -0.1077
  528TMC3    H1 7844   4.687   3.708   1.009  3.5821  0.6358 -1.0691
  528TMC3    H2 7845   4.625   3.623   1.419  1.7021  1.5489  1.2835
  528TMC3    C7 7846   4.517   3.625   1.181  0.0854 -0.3575 -0.0613
  528TMC3    C8 7847   0.160   3.707   1.494  0.5490 -0.2192  0.4448
  528TMC3    O1 7848   4.489   3.510   1.221 -0.0067 -0.2100  0.4682
  528TMC3    O2 7849   0.274   3.745   1.510  0.0542  0.4704 -0.7496
  529MPD2     C 7850   3.941   1.587   0.626  0.1332  0.9462 -0.2093
  529MPD2    C1 7851   3.873   1.707   0.640 -0.5561 -0.7324  0.6102
  529MPD2    C2 7852   3.827   1.769   0.524  0.6018  0.2138 -0.1441
  529MPD2    C3 7853   3.835   1.704   0.403  0.1782 -0.3114  0.2718
  529MPD2    C4 7854   3.899   1.581   0.393  0.0737  0.1514 -0.2460
  529MPD2    C5 7855   3.947   1.521   0.508  0.0928 -0.4042 -0.4297
  529MPD2     H 7856   3.776   1.863   0.542 -1.0070 -1.2536  2.9793
  529MPD2    H1 7857   3.892   1.527   0.299 -2.2279  0.8076 -0.4443
  529MPD2    H2 7858   3.967   1.537   0.719 -1.4717 -1.8819 -1.3144
  529MPD2    H3 7859   3.983   1.419   0.509 -0.2185 -0.5092  1.5226
  529MPD2     N 7860   3.777   1.747   0.281 -0.2612 -0.1409  0.3271
  529MPD2    H5 7861   3.778   1.686   0.200  0.0741  1.6331 -1.0104
  529MPD2    N1 7862   3.858   1.783   0.760  0.4709  0.1764  0.6140
  529MPD2    H7 7863   3.830   1.880   0.757  0.4624  0.1024 -1.7076
  530TMC3    C1 7864   3.823   1.834   0.985  0.4631 -0.0338  0.5241
  530TMC3    C2 7865   3.817   1.787   1.119  1.1570  0.0287  0.5613
  530TMC3    C3 7866   3.767   1.871   1.213  0.3090  0.2165  0.4796
  530TMC3    C4 7867   3.773   1.954   0.948 -0.0714 -0.4224  0.1772
  530TMC3    C5 7868   3.716   2.034   1.046  0.4893  0.0050  0.4807
  530TMC3    C6 7869   3.711   1.991   1.178  0.0950  0.2101 -0.2591
  530TMC3     C 7870   3.868   1.738   0.890  0.3098 -0.0989 -0.7306
  530TMC3     O 7871   3.911   1.628   0.917  0.0156  0.7088 -0.5194
  530TMC3     H 7872   3.852   1.688   1.147  0.8803 -1.0226 -2.7724
  530TMC3    H1 7873   3.779   1.994   0.847  2.0380  1.0590  0.8862
  530TMC3    H2 7874   3.667   2.049   1.258  0.4100 -1.4190  1.1085
  530TMC3    C7 7875   3.640   2.148   1.007  0.4982  0.1625 -0.0211
  530TMC3    C8 7876   3.736   1.824   1.351 -1.0446 -0.2827  0.3101
  530TMC3    O1 7877   3.661   2.200   0.900 -0.7333 -0.4528 -0.3877
  530TMC3    O2 7878   3.668   1.902   1.416  0.6380 -0.4641  0.3456
  531MPD2     C 7879   2.280   3.715  12.902 -0.0947 -0.1516 -0.2052
  531MPD2    C1 7880   2.165   3.784  12.914 -0.1886  0.3707 -0.0861
  531MPD2    C2 7881   2.096   3.824  12.799 -0.1916 -0.2678  0.1114
  531MPD2    C3 7882   2.158   3.798  12.669 -0.4204  0.2300  0.6540
  531MPD2    C4 7883   2.272   3.716  12.665 -0.8585  0.3236  0.9415
  531MPD2    C5 7884   2.332   3.683  12.782 -0.1948  0.3239  0.5135
  531MPD2     H 7885   2.012   3.892  12.806 -0.6805 -0.9486  0.8117
  531MPD2    H1 7886   2.304   3.667  12.574 -0.4561  0.8029  0.8227
  531MPD2    H2 7887   2.343   3.692  12.986  0.7322  0.5383 -0.6367
  531MPD2    H3 7888   2.417   3.615  12.779  0.6877  1.4422  0.1189
  531MPD2     N 7889   2.086   3.835  12.546  0.4574  0.3961  0.2149
  531MPD2    H5 7890   2.139   3.816  12.462 -0.0995 -2.8326  0.5947
  531MPD2    N1 7891   2.129   3.826  13.045 -0.6028 -0.7161  0.5019
  531MPD2    H7 7892   2.203   3.810  13.113  0.7795 -0.9404 -1.0550
  532TMC3    C1 7893   2.003   3.948  13.202  0.1331 -0.0116 -0.1245
  532TMC3    C2 7894   1.878   3.998  13.227 -0.3208  0.8910 -0.5494
  532TMC3    C3 7895   1.876   4.116  13.295  0.3337 -0.0686 -0.1291
  532TMC3    C4 7896   2.113   3.990  13.268 -0.2047  0.2255 -0.1586
  532TMC3    C5 7897   2.098   4.093  13.362  0.1208  0.0555 -0.2978
  532TMC3    C6 7898   1.982   4.159  13.371  0.8355  0.6595 -0.1001
  532TMC3     C 7899   2.005   3.874  13.076  0.0773 -0.6078  1.0574
  532TMC3     O 7900   1.905   3.878  12.998  0.6465 -0.2907 -0.0921
  532TMC3     H 7901   1.795   3.950  13.177  0.5201 -1.3045  0.1768
  532TMC3    H1 7902   2.214   3.952  13.256 -0.2186 -0.2685  1.2497
  532TMC3    H2 7903   1.972   4.256  13.418 -0.1850  1.0272 -1.0576
  532TMC3    C7 7904   2.196   4.131  13.459  0.5911 -0.0094  0.3285
  532TMC3    C8 7905   1.803   4.214  13.216  0.0459  0.4038 -0.1425
  532TMC3    O1 7906   2.158   4.211  13.542  0.8602  0.1035  0.0779
  532TMC3    O2 7907   1.764   4.323  13.256  0.9046  0.4984  0.3225
  533TMC3    C1 7908   3.101   1.171  14.707 -0.1816 -0.2583 -0.0065
  533TMC3    C2 7909   3.222   1.223  14.718  0.0169  0.3522 -0.4252
  533TMC3    C3 7910   3.230   1.330  14.803 -0.3307  0.8638 -0.0432
  533TMC3    C4 7911   2.992   1.218  14.772 -0.0680 -0.4829  0.3810
  533TMC3    C5 7912   3.012   1.316  14.865 -0.1853  0.5336 -0.0020
  533TMC3    C6 7913   3.133   1.385  14.869  0.3481 -1.1416  0.5391
  533TMC3     C 7914   3.111   1.033  14.709  0.1580  0.2358 -0.5576
  533TMC3     O 7915   3.210   0.982  14.756 -0.3492  0.9852 -0.3436
  533TMC3     H 7916   3.305   1.192  14.655 -0.0568 -2.1139  0.6796
  533TMC3    H1 7917   2.898   1.167  14.788 -0.5846  0.6566  1.0261
  533TMC3    H2 7918   3.154   1.463  14.942 -0.3859  0.6429 -1.1502
  533TMC3    C7 7919   2.976   1.256  14.998  0.0660 -0.4073  0.4584
  533TMC3    C8 7920   3.364   1.375  14.840 -0.7138  0.0618  0.1884
  533TMC3    O1 7921   2.974   1.136  15.008 -0.7725 -0.3446 -0.3530
  533TMC3    O2 7922   3.366   1.454  14.935 -0.3827  0.4360  0.4715
  534MPD2     C 7923   0.196   2.294   1.993 -0.1670 -0.9462  0.4339
  534MPD2    C1 7924   0.238   2.374   1.884 -0.5676 -0.0503  0.5339
  534MPD2    C2 7925   0.287   2.308   1.769 -0.4040 -0.0276 -0.0916
  534MPD2    C3 7926   0.293   2.170   1.768  0.7041 -1.2218 -0.3897
  534MPD2    C4 7927   0.249   2.100   1.877 -0.2776 -1.3058 -0.5588
  534MPD2    C5 7928   0.195   2.156   1.982  0.3579  0.4281 -0.3005
  534MPD2     H 7929   0.329   2.377   1.697 -0.9002  0.3062 -0.0615
  534MPD2    H1 7930   0.247   1.992   1.877  0.7460 -1.3256  1.2841
  534MPD2    H2 7931   0.176   2.337   2.090  3.8405  0.7325  0.5219
  534MPD2    H3 7932   0.176   2.101   2.073 -0.0858 -0.6473 -1.0427
  534MPD2     N 7933   0.341   2.094   1.659  0.1218 -0.5398 -0.5030
  534MPD2    H5 7934   0.339   1.993   1.671  2.0059 -0.5293  0.0522
  534MPD2    N1 7935   0.259   2.512   1.890 -0.0988 -0.1737  0.1320
  534MPD2    H7 7936   0.312   2.557   1.815 -1.4080  0.5595 -0.3492
  535TMC3    C1 7937   0.425   2.047   1.445 -0.2682  0.1242  0.3942
  535TMC3    C2 7938   0.435   1.909   1.466 -0.3200 -0.1098  0.2405
  535TMC3    C3 7939   0.485   1.840   1.359 -0.3739 -0.3028 -0.7030
  535TMC3    C4 7940   0.431   2.103   1.319  0.0585  0.6276  0.7832
  535TMC3    C5 7941   0.487   2.028   1.219  0.1169  0.0561  0.0875
  535TMC3    C6 7942   0.521   1.895   1.237  0.1129 -0.2746  0.4546
  535TMC3     C 7943   0.391   2.149   1.548 -0.0763 -0.1101  0.3233
  535TMC3     O 7944   0.392   2.266   1.512  0.1756  0.4827  0.0811
  535TMC3     H 7945   0.427   1.866   1.565  0.1613 -3.0996 -1.0214
  535TMC3    H1 7946   0.404   2.207   1.310  1.2074  0.8967  0.4500
  535TMC3    H2 7947   0.550   1.836   1.151  2.4446 -0.2881  1.2483
  535TMC3    C7 7948   0.470   2.069   1.075 -0.6905 -0.2790 -0.5675
  535TMC3    C8 7949   0.473   1.688   1.373  0.3542  0.5607  0.7078
  535TMC3    O1 7950   0.503   1.988   0.989 -0.0268  0.6294  0.7160
  535TMC3    O2 7951   0.410   1.647   1.466  0.0496 -0.2807 -0.1118
  536MPD2     C 7952   0.016   0.800  16.846 -1.0598  0.3249  0.0923
  536MPD2    C1 7953   4.663   0.691  16.839 -0.1575 -0.2050  0.4882
  536MPD2    C2 7954   4.629   0.639  16.719 -0.0135 -0.1050 -0.1938
  536MPD2    C3 7955   4.668   0.703  16.607  0.7228  0.3377 -0.6174
  536MPD2    C4 7956   0.021   0.818  16.610 -0.6583 -0.2811  0.4724
  536MPD2    C5 7957   0.055   0.862  16.733  0.1697  0.6598  0.3669
  536MPD2     H 7958   4.575   0.545  16.711 -0.9645  0.6320 -2.4644
  536MPD2    H1 7959   0.062   0.876  16.528 -1.8625  2.2381  1.6389
  536MPD2    H2 7960   0.026   0.862  16.935  0.6488  0.0467  0.0969
  536MPD2    H3 7961   0.106   0.957  16.739  1.2345  0.0828  0.3888
  536MPD2     N 7962   4.627   0.644  16.483  0.4186 -0.0962  0.2767
  536MPD2    H5 7963   4.577   0.556  16.490  1.0133 -0.6341 -2.1879
  536MPD2    N1 7964   4.632   0.645  16.964  0.6027 -0.3001 -0.3184
  536MPD2    H7 7965   4.653   0.699  17.048 -0.7328  0.0892 -0.2295
  537TMC3    C1 7966   4.500   0.529  17.119 -0.3615  0.2611 -0.0540
  537TMC3    C2 7967   4.599   0.512  17.204 -0.5974  0.0486  0.2582
  537TMC3    C3 7968   4.573   0.431  17.312  0.3237 -0.3641  0.7838
  537TMC3    C4 7969   4.373   0.468  17.133  0.3294 -0.1503 -0.4156
  537TMC3    C5 7970   4.353   0.386  17.243 -0.8305 -0.1420 -0.5329
  537TMC3    C6 7971   4.452   0.370  17.339 -0.0282  0.5705 -0.8592
  537TMC3     C 7972   4.534   0.546  16.982 -0.1442 -0.4756 -0.0702
  537TMC3     O 7973   4.473   0.474  16.906  0.2512  0.3352 -0.8200
  537TMC3     H 7974   4.694   0.557  17.180 -1.1903  0.3696 -1.5220
  537TMC3    H1 7975   4.302   0.488  17.054  0.2136  1.0441 -0.0141
  537TMC3    H2 7976   4.436   0.309  17.427 -0.5542 -0.4719 -1.6713
  537TMC3    C7 7977   4.229   0.320  17.260  0.0417  0.3595 -0.1568
  537TMC3    C8 7978   4.667   0.430  17.410  0.5063 -0.6180  0.2525
  537TMC3    O1 7979   4.134   0.381  17.208  0.1542  0.3871  0.8180
  537TMC3    O2 7980   4.684   0.324  17.470 -0.5024 -0.1735 -0.4890
  538TMC3    C1 7981   1.129   3.286  11.352  0.2754  0.2986 -0.2137
  538TMC3    C2 7982   1.245   3.318  11.294 -0.2837  0.9170  0.6269
  538TMC3    C3 7983   1.235   3.376  11.165  0.0835  0.1942 -0.0581
  538TMC3    C4 7984   1.011   3.301  11.292 -0.2939  0.0990 -0.6230
  538TMC3    C5 7985   1.002   3.372  11.174  0.6698  0.2205 -0.0440
  538TMC3    C6 7986   1.113   3.405  11.103  0.4025 -0.6874 -0.1948
  538TMC3     C 7987   1.131   3.232  11.480  0.5347 -0.1591 -0.1160
  538TMC3     O 7988   1.030   3.168  11.504 -0.7678  0.0922  0.3909
  538TMC3     H 7989   1.337   3.290  11.344 -0.9197  0.6070  1.6301
  538TMC3    H1 7990   0.917   3.288  11.344 -1.2707 -1.0061 -2.6641
  538TMC3    H2 7991   1.099   3.462  11.012 -0.4407 -1.1422 -0.3418
  538TMC3    C7 7992   0.881   3.446  11.147  0.0279 -0.4194 -0.2382
  538TMC3    C8 7993   1.354   3.409  11.090 -0.7702 -0.4943 -0.5852
  538TMC3    O1 7994   0.783   3.416  11.217  0.0293 -0.0632 -0.4818
  538TMC3    O2 7995   1.455   3.439  11.154  0.5935  0.1279  0.6666
  539MPD2     C 7996   0.941   2.788  11.858 -0.6549 -0.7773  0.1761
  539MPD2    C1 7997   0.857   2.748  11.752  0.9992  0.1884  0.7378
  539MPD2    C2 7998   0.761   2.839  11.716 -0.0242 -0.3238 -0.1352
  539MPD2    C3 7999   0.749   2.958  11.779 -0.3436 -0.1158 -0.2062
  539MPD2    C4 8000   0.815   2.988  11.889 -0.3671  0.5554 -0.6345
  539MPD2    C5 8001   0.912   2.897  11.931  0.7342  0.7017 -0.5537
  539MPD2     H 8002   0.710   2.817  11.623 -1.7866 -0.1352  0.7837
  539MPD2    H1 8003   0.795   3.080  11.943 -2.8121 -0.4573  0.1991
  539MPD2    H2 8004   1.027   2.731  11.894  1.9553  0.9207 -3.3385
  539MPD2    H3 8005   0.983   2.924  12.008 -0.9296  0.0706  1.2058
  539MPD2     N 8006   0.658   3.055  11.724  0.1573  0.2592 -0.2604
  539MPD2    H5 8007   0.633   3.139  11.776  3.0405 -0.3078  2.0908
  539MPD2    N1 8008   0.871   2.624  11.693  0.6112 -0.8298  0.2497
  539MPD2    H7 8009   0.806   2.588  11.623  0.7335 -0.9741  0.2102
  540TMC3    C1 8010   0.543   3.192  11.561  0.4787 -0.3251  0.0766
  540TMC3    C2 8011   0.527   3.229  11.431 -0.3054 -0.0743 -0.3167
  540TMC3    C3 8012   0.473   3.354  11.412  0.2321 -0.2541 -0.0567
  540TMC3    C4 8013   0.498   3.272  11.662  0.4595 -0.3312  0.1605
  540TMC3    C5 8014   0.432   3.387  11.637  0.4499  0.8121 -0.7983
  540TMC3    C6 8015   0.420   3.438  11.511  0.9018 -0.1231 -0.1432
  540TMC3     C 8016   0.610   3.062  11.592  0.7756 -0.0014 -0.5474
  540TMC3     O 8017   0.619   2.983  11.500 -0.6273  0.2712 -0.0799
  540TMC3     H 8018   0.586   3.173  11.360 -0.1815 -1.4032  0.8061
  540TMC3    H1 8019   0.486   3.228  11.760  0.8169 -3.0041 -0.9753
  540TMC3    H2 8020   0.380   3.536  11.486 -0.5468 -0.9621 -1.0565
  540TMC3    C7 8021   0.375   3.449  11.756 -0.2470 -0.5659 -0.7377
  540TMC3    C8 8022   0.438   3.387  11.274 -0.2979  0.5245 -0.4444
  540TMC3    O1 8023   0.332   3.362  11.839  0.0673  0.3575 -0.8472
  540TMC3    O2 8024   0.392   3.501  11.256 -0.0389  0.9111 -0.8083
  541MPD2     C 8025   3.897   4.378  13.513 -0.1784 -0.2680 -0.4916
  541MPD2    C1 8026   3.778   4.448  13.481 -0.2731 -0.5382 -0.6102
  541MPD2    C2 8027   3.783   4.528  13.368  0.2866  0.8112  0.8676
  541MPD2    C3 8028   3.901   4.565  13.302 -0.7636  0.2574 -0.1073
  541MPD2    C4 8029   4.018   4.508  13.347  0.1023 -0.6809 -0.0144
  541MPD2    C5 8030   4.017   4.412  13.450  0.0802  0.3085  0.3393
  541MPD2     H 8031   3.693   4.558  13.316 -0.2502  1.5441  2.2423
  541MPD2    H1 8032   4.118   4.516  13.305  0.0375  3.0220  0.5448
  541MPD2    H2 8033   3.903   4.301  13.588  0.7618  0.1180 -0.1628
  541MPD2    H3 8034   4.109   4.364  13.480 -0.3305 -0.3900  0.4750
  541MPD2     N 8035   3.908   4.646  13.191 -0.3573  0.4891 -1.6169
  541MPD2    H5 8036   3.995   4.653  13.139  0.5805 -0.8743 -0.2072
  541MPD2    N1 8037   3.659   4.408  13.546 -0.2665 -0.0736 -0.0125
  541MPD2    H7 8038   3.657   4.322  13.600 -1.3485 -1.0256 -1.5690
  542TMC3    C1 8039   3.843   0.066  13.014  0.5446  0.1443  0.0909
  542TMC3    C2 8040   3.866   4.715  12.900 -0.4297 -1.3138 -0.0373
  542TMC3    C3 8041   3.893   0.068  12.787  0.4246 -0.3422  0.5395
  542TMC3    C4 8042   3.830   0.204  13.010  0.0471  0.4109  0.5320
  542TMC3    C5 8043   3.852   0.273  12.895 -0.0360  0.0412 -0.2536
  542TMC3    C6 8044   3.882   0.202  12.782  0.2667 -0.3442  0.5124
  542TMC3     C 8045   3.816   0.009  13.144 -0.5108 -0.5548 -0.0025
  542TMC3     O 8046   3.726   0.063  13.201 -0.5468 -0.4942 -0.2631
  542TMC3     H 8047   3.874   4.607  12.903 -0.0474 -1.2018  2.4317
  542TMC3    H1 8048   3.830   0.259  13.103 -4.5314 -0.8279  1.2627
  542TMC3    H2 8049   3.900   0.249  12.687  0.2679  0.0526  0.7092
  542TMC3    C7 8050   3.794   0.404  12.878  0.6376 -0.4318  0.0897
  542TMC3    C8 8051   3.884   0.000  12.656  0.7220  0.5250 -0.5385
  542TMC3    O1 8052   3.833   0.469  12.785 -0.0559 -0.7627  0.0685
  542TMC3    O2 8053   3.934   0.049  12.555  0.4624  0.3362  0.2765
  543TMC3    C1 8054   2.840   0.728  17.351 -0.1687 -0.0787 -0.5798
  543TMC3    C2 8055   2.820   0.598  17.395  0.2181  0.4470  0.3546
  543TMC3    C3 8056   2.832   0.567  17.530 -0.0007 -0.1760  0.0893
  543TMC3    C4 8057   2.887   0.825  17.443  0.6396 -0.6107  0.6214
  543TMC3    C5 8058   2.906   0.782  17.571  0.4305 -0.2370  0.8571
  543TMC3    C6 8059   2.868   0.654  17.623  0.2020 -0.0031  0.1716
  543TMC3     C 8060   2.902   0.742  17.227  0.7479 -0.5509 -0.1995
  543TMC3     O 8061   2.955   0.642  17.183  0.2378 -0.4705 -0.1108
  543TMC3     H 8062   2.782   0.525  17.324 -2.2142 -0.4115  2.5238
  543TMC3    H1 8063   2.930   0.919  17.410 -0.3172 -1.0560 -1.9213
  543TMC3    H2 8064   2.881   0.630   0.027  0.9986  0.0205  0.0761
  543TMC3    C7 8065   2.928   0.881  17.671  0.4289 -0.6526 -1.3219
  543TMC3    C8 8066   2.880   0.432  17.550  0.2406 -0.1884  0.4633
  543TMC3    O1 8067   2.900   0.852   0.085 -0.5527  0.2618  0.0802
  543TMC3    O2 8068   2.925   0.387  17.450  0.0795 -0.1848 -0.2712
  544MPD2     C 8069   2.965   4.696   0.057  0.7965 -0.2896 -0.3248
  544MPD2    C1 8070   2.983   0.020  17.631  0.1008 -0.4219  0.3445
  544MPD2    C2 8071   2.942   0.153  17.595  0.4469 -0.4477 -0.0889
  544MPD2    C3 8072   2.894   0.237  17.696  0.4461  0.0959 -0.2032
  544MPD2    C4 8073   2.879   0.182   0.123 -0.0359  0.5086  0.0825
  544MPD2    C5 8074   2.908   0.052   0.149 -0.1213 -0.4133 -0.3580
  544MPD2     H 8075   2.934   0.175  17.489 -2.1702 -1.5325 -0.1163
  544MPD2    H1 8076   2.832   0.236   0.204  0.4997  1.0544  0.0275
  544MPD2    H2 8077   2.987   4.595   0.090 -3.9358 -1.6787 -1.3251
  544MPD2    H3 8078   2.892   0.015   0.250  2.5634  1.0168  0.5890
  544MPD2     N 8079   2.864   0.370  17.681  0.2621  0.1009  0.0149
  544MPD2    H5 8080   2.822   0.430   0.050  1.3789  0.1566  0.6436
  544MPD2    N1 8081   3.061   4.667  17.542  0.2770  0.0400 -0.3265
  544MPD2    H7 8082   3.074   4.570  17.569 -0.0998 -0.1734 -0.9269
  545TMC3    C1 8083   3.209   4.631  17.362  0.0986 -0.4365 -0.5796
  545TMC3    C2 8084   3.260   4.692  17.247  0.0039 -0.6193  0.0745
  545TMC3    C3 8085   3.376   4.632  17.191  0.0884 -0.2074 -0.7894
  545TMC3    C4 8086   3.278   4.527  17.424  0.4208 -0.9364 -0.8565
  545TMC3    C5 8087   3.383   4.469  17.356 -0.6668  0.4651 -0.5473
  545TMC3    C6 8088   3.435   4.513  17.237 -0.5172 -0.8696 -0.9102
  545TMC3     C 8089   3.121   4.715  17.430 -0.0033 -0.3477 -0.0885
  545TMC3     O 8090   3.115   0.100  17.376 -0.2604  0.1080 -0.0778
  545TMC3     H 8091   3.220   0.055  17.198 -1.4244 -1.0012  0.5484
  545TMC3    H1 8092   3.241   4.480  17.515  0.2125 -0.7522 -0.8467
  545TMC3    H2 8093   3.529   4.475  17.197  1.0206 -0.9604  2.7672
  545TMC3    C7 8094   3.446   4.346  17.412 -0.2498 -0.5061 -0.4783
  545TMC3    C8 8095   3.427   4.702  17.071 -0.3916 -0.6728 -0.1633
  545TMC3    O1 8096   3.496   4.265  17.334 -0.0464 -0.5558 -0.4127
  545TMC3    O2 8097   3.374   0.077  17.028  0.4669 -1.3680  0.1904
  546MPD2     C 8098   4.578   0.425   0.176  0.4142 -0.5132 -0.4374
  546MPD2    C1 8099   4.506   0.502   0.087 -0.4626  0.4086  0.5650
  546MPD2    C2 8100   4.560   0.624   0.049  0.2286  0.2979  0.0175
  546MPD2    C3 8101   4.675   0.667   0.112  0.4699 -0.3533  0.2684
  546MPD2    C4 8102   0.015   0.594   0.212  0.6056 -0.2932 -0.3680
  546MPD2    C5 8103   4.694   0.468   0.237 -0.2525  0.2803 -0.0290
  546MPD2     H 8104   4.500   0.688  17.687  0.8480  1.7049  0.8446
  546MPD2    H1 8105   0.109   0.614   0.264 -0.3907 -0.4806  1.4993
  546MPD2    H2 8106   4.534   0.330   0.204  0.1191 -0.9145 -2.2373
  546MPD2    H3 8107   0.017   0.408   0.314 -0.2953  0.1692 -0.0889
  546MPD2     N 8108   0.011   0.795   0.082 -0.0620 -0.0066 -0.2772
  546MPD2    H5 8109   0.092   0.822   0.136  0.3255 -2.1484  0.2276
  546MPD2    N1 8110   4.384   0.455   0.040 -0.2302  0.1407 -0.0416
  546MPD2    H7 8111   4.352   0.368   0.082 -1.9376  0.6676 -0.2289
  547TMC3    C1 8112   4.176   0.419  17.645  0.0141 -0.0847 -0.0946
  547TMC3    C2 8113   4.083   0.447  17.546  0.0557 -0.1092 -0.4096
  547TMC3    C3 8114   3.955   0.391  17.556 -0.3884  0.1608  0.1168
  547TMC3    C4 8115   4.126   0.373   0.066  0.1739 -0.3969  0.4032
  547TMC3    C5 8116   3.997   0.336   0.081  0.5589 -0.0554 -0.0276
  547TMC3    C6 8117   3.906   0.340  17.676 -0.1283 -0.9274 -0.1615
  547TMC3     C 8118   4.304   0.494  17.642 -0.2492  0.0643  0.7545
  547TMC3     O 8119   4.326   0.581  17.559 -0.9123  0.3614  0.1030
  547TMC3     H 8120   4.111   0.502  17.458 -0.6153  2.4792  0.9822
  547TMC3    H1 8121   4.191   0.361   0.152  1.8144  1.1840 -0.6352
  547TMC3    H2 8122   3.800   0.324  17.687 -0.2332  0.5743  0.8646
  547TMC3    C7 8123   3.948   0.326   0.212  0.0537 -0.9219 -0.3955
  547TMC3    C8 8124   3.865   0.431  17.452 -0.4424  0.0523 -0.2894
  547TMC3    O1 8125   4.022   0.370   0.300 -0.4904 -0.1077 -0.5382
  547TMC3    O2 8126   3.902   0.508  17.365  0.0706  0.5497 -0.4755
  548MPD2     C 8127   4.450   1.585  12.102 -0.0786 -0.7257 -0.0161
  548MPD2    C1 8128   4.468   1.559  12.237  0.0687  0.6052 -0.4477
  548MPD2    C2 8129   4.560   1.470  12.277  0.7462 -0.6188  0.7275
  548MPD2    C3 8130   4.617   1.391  12.180  0.7126  0.3591 -0.3742
  548MPD2    C4 8131   4.597   1.415  12.043 -0.3305 -0.3299 -0.3458
  548MPD2    C5 8132   4.518   1.511  11.998 -0.0170 -0.1392 -0.3468
  548MPD2     H 8133   4.595   1.445  12.376  1.6738 -0.6140  0.3987
  548MPD2    H1 8134   4.642   1.362  11.960  1.7475  0.9940 -0.0598
  548MPD2    H2 8135   4.388   1.665  12.063 -1.3868 -1.0688  1.3363
  548MPD2    H3 8136   4.505   1.540  11.895 -0.9278 -0.8148 -0.4200
  548MPD2     N 8137   4.695   1.278  12.226 -0.5518  0.0151 -0.0674
  548MPD2    H5 8138   0.003   1.284  12.322 -0.9634  1.5742 -0.0343
  548MPD2    N1 8139   4.381   1.621  12.331  0.4193  0.7491 -0.3388
  548MPD2    H7 8140   4.321   1.696  12.299 -1.9979  0.3658  3.3073
  549TMC3    C1 8141   4.238   1.607  12.518 -0.1343 -0.1605  0.4793
  549TMC3    C2 8142   4.174   1.722  12.485  0.3025  0.2966 -1.0035
  549TMC3    C3 8143   4.051   1.745  12.537  0.1860  0.6711  0.3609
  549TMC3    C4 8144   4.166   1.498  12.560 -1.2733 -1.0949  0.3940
  549TMC3    C5 8145   4.038   1.525  12.593  0.6077  0.2458  0.0800
  549TMC3    C6 8146   3.986   1.649  12.614 -0.0393 -0.3759 -0.6812
  549TMC3     C 8147   4.363   1.571  12.457 -0.3498 -0.3041  0.0197
  549TMC3     O 8148   4.422   1.474  12.504 -0.1070 -0.4078 -0.2976
  549TMC3     H 8149   4.233   1.802  12.444 -1.2357  1.3610 -1.1492
  549TMC3    H1 8150   4.226   1.408  12.575 -2.1657 -1.3278  2.5139
  549TMC3    H2 8151   3.879   1.650  12.632  0.2842 -0.3056  1.2973
  549TMC3    C7 8152   3.945   1.416  12.553  0.0171 -0.1393 -0.2738
  549TMC3    C8 8153   3.981   1.863  12.491 -0.7148 -0.5233 -0.3235
  549TMC3    O1 8154   3.838   1.459  12.509  0.4294 -0.2979  0.5790
  549TMC3    O2 8155   4.008   1.894  12.378  0.2080  0.4429 -0.3059
  550TMC3    C1 8156   3.497   3.748  11.895 -0.2216 -0.5844 -0.6064
  550TMC3    C2 8157   3.514   3.821  12.014 -0.0369 -0.3945 -0.2351
  550TMC3    C3 8158   3.573   3.942  12.003  0.1657  0.0024 -0.1389
  550TMC3    C4 8159   3.541   3.801  11.770 -0.3755 -0.1656 -0.1212
  550TMC3    C5 8160   3.570   3.935  11.765 -0.1657 -1.0339  0.2193
  550TMC3    C6 8161   3.601   4.001  11.880  0.4607  0.1499  0.5925
  550TMC3     C 8162   3.355   3.705  11.902  0.7560 -0.5440 -0.4510
  550TMC3     O 8163   3.304   3.670  12.008 -0.0901 -0.0271  0.6267
  550TMC3     H 8164   3.493   3.766  12.106 -2.6700 -0.7812 -1.0853
  550TMC3    H1 8165   3.524   3.751  11.675  0.8789 -0.4645 -0.1932
  550TMC3    H2 8166   3.610   4.109  11.885 -0.2063  0.3778 -2.9726
  550TMC3    C7 8167   3.481   4.002  11.671  0.6695  0.3507 -0.6313
  550TMC3    C8 8168   3.536   4.044  12.113 -0.2343 -0.0434  0.2570
  550TMC3    O1 8169   3.395   3.939  11.613 -0.0381 -0.2003  0.5853
  550TMC3    O2 8170   3.518   4.162  12.086  0.1093  0.0459  0.8015
  551TMC3    C1 8171   0.477   1.535  13.471  0.0329 -0.4649  0.6489
  551TMC3    C2 8172   0.600   1.508  13.414  0.2089  0.6941  0.5842
  551TMC3    C3 8173   0.711   1.515  13.496 -0.3639  0.2208 -0.7959
  551TMC3    C4 8174   0.466   1.593  13.597 -0.2236  1.3550  0.5674
  551TMC3    C5 8175   0.578   1.620  13.664  0.0997 -0.1040  0.4225
  551TMC3    C6 8176   0.701   1.573  13.617 -0.2401 -0.0486 -0.3062
  551TMC3     C 8177   0.362   1.507  13.383 -0.6153 -0.1584  0.3323
  551TMC3     O 8178   0.389   1.464  13.271  0.2403 -0.1546  0.1183
  551TMC3     H 8179   0.610   1.454  13.320  0.4565  1.3505  0.2328
  551TMC3    H1 8180   0.369   1.603  13.644  0.5237 -0.7030  2.5553
  551TMC3    H2 8181   0.784   1.583  13.686 -0.5308 -1.5986  0.2712
  551TMC3    C7 8182   0.568   1.671  13.793  0.0442  0.6372  0.6009
  551TMC3    C8 8183   0.838   1.524  13.429  0.1265 -0.3763 -0.6706
  551TMC3    O1 8184   0.668   1.661  13.859 -0.3055  0.8561 -0.0868
  551TMC3    O2 8185   0.868   1.438  13.349 -0.5161  0.0962  0.4204
  552MPD2     C 8186   2.185   4.029  13.790  0.0668  0.1043 -0.0172
  552MPD2    C1 8187   2.230   3.898  13.815 -0.8892  0.9916  0.1036
  552MPD2    C2 8188   2.325   3.878  13.920  0.4262  0.7735 -0.2473
  552MPD2    C3 8189   2.370   3.988  13.989  0.4647 -0.2203 -0.4580
  552MPD2    C4 8190   2.326   4.116  13.958 -0.0352  0.4431 -1.1916
  552MPD2    C5 8191   2.229   4.139  13.864 -0.0375  0.1459  0.6730
  552MPD2     H 8192   2.368   3.779  13.927  0.8185  0.7940 -2.2960
  552MPD2    H1 8193   2.366   4.196  14.019 -0.7379 -1.1886  1.4387
  552MPD2    H2 8194   2.114   4.055  13.713  0.2607  1.8970  0.4069
  552MPD2    H3 8195   2.192   4.241  13.862  0.2195  0.2343  0.3859
  552MPD2     N 8196   2.471   3.976  14.085  0.9988  0.2661 -0.4825
  552MPD2    H5 8197   2.495   4.062  14.133  0.1530 -0.9067  1.9955
  552MPD2    N1 8198   2.190   3.784  13.742 -0.0323 -0.5552 -0.1155
  552MPD2    H7 8199   2.225   3.692  13.767  2.3001  0.4342  0.2799
  553TMC3    C1 8200   2.096   3.664  13.575 -0.0253  0.1325  0.0180
  553TMC3    C2 8201   2.122   3.678  13.444 -0.0927 -0.2110  0.2095
  553TMC3    C3 8202   2.156   3.566  13.376  0.2736 -0.2298 -0.0160
  553TMC3    C4 8203   2.121   3.551  13.645  0.1988 -0.1589 -0.0088
  553TMC3    C5 8204   2.151   3.442  13.572  0.2400 -0.1309 -0.2749
  553TMC3    C6 8205   2.163   3.443  13.434 -0.0196  1.0059 -0.8471
  553TMC3     C 8206   2.094   3.787  13.640 -0.1110 -0.2180 -0.0557
  553TMC3     O 8207   2.036   3.875  13.581 -0.7567  0.0423 -0.0581
  553TMC3     H 8208   2.120   3.780  13.405  1.9191 -0.4081 -0.4295
  553TMC3    H1 8209   2.109   3.554  13.753 -0.5766  0.3124 -0.1087
  553TMC3    H2 8210   2.222   3.363  13.390  0.6092 -0.5756  2.8313
  553TMC3    C7 8211   2.211   3.330  13.647 -1.3724 -0.4485 -0.0908
  553TMC3    C8 8212   2.245   3.593  13.266 -0.0320  0.2032 -0.2542
  553TMC3    O1 8213   2.155   3.224  13.632  0.2192  0.0268 -0.2085
  553TMC3    O2 8214   2.284   3.708  13.251  0.2329 -0.8390  0.1198
  554TMC3    C1 8215   4.398   2.805  11.738  0.3685  0.7961  0.0154
  554TMC3    C2 8216   4.388   2.703  11.640  0.0037  1.1439 -0.2351
  554TMC3    C3 8217   4.461   2.706  11.526 -0.8538 -0.0098 -0.5411
  554TMC3    C4 8218   4.498   2.898  11.731  0.5451  0.7121 -0.3843
  554TMC3    C5 8219   4.572   2.900  11.610 -0.6808  0.0494  0.2100
  554TMC3    C6 8220   4.552   2.808  11.512 -0.2497  0.9713  0.2491
  554TMC3     C 8221   4.329   2.768  11.862  0.2643 -0.2806  0.1870
  554TMC3     O 8222   4.223   2.720  11.835  0.0397  0.4395  0.0959
  554TMC3     H 8223   4.327   2.616  11.661 -1.4379  2.0664 -0.6151
  554TMC3    H1 8224   4.519   2.955  11.821  1.2272 -1.4866  0.8336
  554TMC3    H2 8225   4.609   2.812  11.420 -0.5955 -0.7872 -0.0391
  554TMC3    C7 8226   4.614   3.036  11.560 -0.3881 -0.5833  1.0143
  554TMC3    C8 8227   4.390   2.694  11.404  0.3462  0.3370 -0.0927
  554TMC3    O1 8228   4.631   3.038  11.437 -0.7209 -0.2005  0.4181
  554TMC3    O2 8229   4.447   2.705  11.299  0.2215  0.6226 -0.2901
  555TMC3    C1 8230   3.337   2.406  15.484  0.4241  0.8471  0.1271
  555TMC3    C2 8231   3.380   2.501  15.580  0.3829  0.6522  0.1302
  555TMC3    C3 8232   3.483   2.464  15.669  0.5821 -0.5189  0.1838
  555TMC3    C4 8233   3.391   2.282  15.477 -0.6283  0.7942  0.2290
  555TMC3    C5 8234   3.497   2.247  15.567 -0.0797 -0.9568  0.3492
  555TMC3    C6 8235   3.529   2.337  15.663  0.0820 -0.2922 -0.4866
  555TMC3     C 8236   3.199   2.417  15.436 -0.0191 -0.1883  0.3862
  555TMC3     O 8237   3.114   2.473  15.506  0.2332  0.2454 -0.4510
  555TMC3     H 8238   3.336   2.600  15.581 -0.1531  0.4129  0.1958
  555TMC3    H1 8239   3.343   2.206  15.416 -0.0719  0.8933 -0.3281
  555TMC3    H2 8240   3.601   2.308  15.739  0.0510 -1.3140 -0.8465
  555TMC3    C7 8241   3.539   2.108  15.586  0.4011 -0.3158 -0.0957
  555TMC3    C8 8242   3.504   2.552  15.783  0.2012  0.0202  0.3127
  555TMC3    O1 8243   3.562   2.079  15.709 -0.2135 -0.2796 -0.2806
  555TMC3    O2 8244   3.460   2.665  15.762  0.3400  0.0606 -0.1179
  556MPD2     C 8245   2.141   4.377  11.040  0.8195 -1.2178 -1.1291
  556MPD2    C1 8246   2.038   4.302  11.095  0.4122 -0.3909 -0.0225
  556MPD2    C2 8247   2.036   4.161  11.079 -0.3824  0.5475 -0.4914
  556MPD2    C3 8248   2.138   4.098  11.010 -0.0002 -0.4015  0.4524
  556MPD2    C4 8249   2.244   4.173  10.957 -0.0192 -0.4416  0.1504
  556MPD2    C5 8250   2.239   4.305  10.979 -0.8235  0.9756  1.0330
  556MPD2     H 8251   1.953   4.100  11.112 -0.7901  1.0273 -0.6295
  556MPD2    H1 8252   2.305   4.127  10.880 -1.4531 -2.0858 -0.0027
  556MPD2    H2 8253   2.153   4.485  11.047  0.7909 -1.1135 -2.6205
  556MPD2    H3 8254   2.318   4.356  10.925  0.5275 -2.3642 -0.1816
  556MPD2     N 8255   2.117   3.962  10.979 -0.0875  0.0607 -0.6005
  556MPD2    H5 8256   2.023   3.929  11.000 -0.2152  0.9500  0.2271
  556MPD2    N1 8257   1.933   4.358  11.167 -0.0492  0.3012  0.5283
  556MPD2    H7 8258   1.849   4.304  11.185  0.8999 -1.0616  0.9275
  557TMC3    C1 8259   2.149   3.760  10.867  0.2378  0.3569 -0.0516
  557TMC3    C2 8260   2.210   3.709  10.755  0.2536 -0.4554 -0.6978
  557TMC3    C3 8261   2.134   3.641  10.663 -0.4142  0.0900 -0.3828
  557TMC3    C4 8262   2.023   3.723  10.900  0.4151  0.1374  0.0519
  557TMC3    C5 8263   1.947   3.653  10.806 -0.2047  0.3110 -0.4108
  557TMC3    C6 8264   2.008   3.614  10.683 -0.0700  0.1333  0.1728
  557TMC3     C 8265   2.209   3.882  10.919  1.0093 -0.7256  0.2681
  557TMC3     O 8266   2.327   3.898  10.903  0.2630 -0.5491 -0.6927
  557TMC3     H 8267   2.311   3.735  10.723  1.4155 -0.3314  3.0923
  557TMC3    H1 8268   1.981   3.757  10.993  1.0549 -1.5073  0.9392
  557TMC3    H2 8269   1.954   3.576  10.596  2.0288 -0.1298 -1.0336
  557TMC3    C7 8270   1.813   3.604  10.853 -1.2178 -0.2408 -0.3114
  557TMC3    C8 8271   2.180   3.642  10.531 -0.3339 -0.0808  0.7260
  557TMC3    O1 8272   1.790   3.601  10.973 -0.2410  0.2179  0.1835
  557TMC3    O2 8273   2.263   3.727  10.501 -0.0665  0.4115  0.4056
  558TMC3    C1 8274   4.221   2.325  10.338  0.0457 -0.5042 -0.2069
  558TMC3    C2 8275   4.096   2.266  10.366 -0.6534  0.5157  0.1988
  558TMC3    C3 8276   3.991   2.317  10.302  0.8745 -0.1990  0.2672
  558TMC3    C4 8277   4.226   2.427  10.242  0.5041  0.0931  0.0361
  558TMC3    C5 8278   4.114   2.470  10.178  0.4963  0.4371  0.7411
  558TMC3    C6 8279   3.990   2.418  10.208  0.1692  0.4681  0.2331
  558TMC3     C 8280   4.327   2.314  10.437 -0.0821  0.3466  0.5376
  558TMC3     O 8281   4.439   2.336  10.399 -0.2996 -0.0401  0.1540
  558TMC3     H 8282   4.090   2.176  10.426  1.0079  0.1390 -0.1903
  558TMC3    H1 8283   4.310   2.496  10.244  1.2192 -0.8094  1.6011
  558TMC3    H2 8284   3.903   2.473  10.174 -1.1350 -0.9865  1.2608
  558TMC3    C7 8285   4.123   2.582  10.099  0.1591 -0.2823  0.2532
  558TMC3    C8 8286   3.859   2.245  10.300  0.0875 -0.1917  0.9483
  558TMC3    O1 8287   4.036   2.666  10.129  0.3045  0.1315 -0.5367
  558TMC3    O2 8288   3.786   2.239  10.203 -0.0547  0.0841 -0.2588
  559MPD2     C 8289   4.139   2.678  10.469  0.0175 -0.7183 -0.1665
  559MPD2    C1 8290   4.055   2.612  10.567  0.6064 -0.3374 -0.2527
  559MPD2    C2 8291   4.107   2.586  10.693 -0.9397  0.9769 -0.3160
  559MPD2    C3 8292   4.241   2.600  10.722  0.0993 -1.0201  0.0013
  559MPD2    C4 8293   4.317   2.650  10.624  0.5590 -0.4851 -0.5106
  559MPD2    C5 8294   4.271   2.686  10.501 -0.0128 -0.2888  0.4419
  559MPD2     H 8295   4.048   2.540  10.772 -0.3568 -1.2595 -1.1696
  559MPD2    H1 8296   4.425   2.657  10.638  0.2031  0.9382  1.5061
  559MPD2    H2 8297   4.108   2.708  10.369 -0.1318 -0.2315  0.0276
  559MPD2    H3 8298   4.337   2.731  10.428  1.1836 -0.9132  1.1521
  559MPD2     N 8299   4.289   2.543  10.850 -0.0898  0.4312  0.2249
  559MPD2    H5 8300   4.220   2.495  10.907  0.6594 -0.3580  0.4738
  559MPD2    N1 8301   3.917   2.603  10.538  0.2587 -0.1891 -0.0033
  559MPD2    H7 8302   3.877   2.654  10.459  0.4387  1.7788  1.1835
  560TMC3    C1 8303   4.443   2.478  11.012  0.1790  1.1469 -0.2622
  560TMC3    C2 8304   4.343   2.436  11.093  0.0288 -0.2247  0.5874
  560TMC3    C3 8305   4.376   2.348  11.189 -0.4935 -0.3441 -0.4712
  560TMC3    C4 8306   4.573   2.478  11.057 -0.2682  0.2900  0.3406
  560TMC3    C5 8307   4.606   2.401  11.165 -0.1590  0.0163 -0.2184
  560TMC3    C6 8308   4.508   2.324  11.221 -0.0545 -0.3248  0.4209
  560TMC3     C 8309   4.421   2.559  10.891  0.4659 -0.7013  0.6823
  560TMC3     O 8310   4.513   2.614  10.837 -0.0984  0.2858 -0.0860
  560TMC3     H 8311   4.239   2.440  11.061  1.1580  3.4969 -2.5086
  560TMC3    H1 8312   4.638   2.525  10.984  0.6648 -0.9651  0.3629
  560TMC3    H2 8313   4.540   2.251  11.295  1.6100  1.6760  1.6731
  560TMC3    C7 8314   0.015   2.362  11.200 -0.1354  0.0948  0.0270
  560TMC3    C8 8315   4.295   2.230  11.214  0.0223  0.4681  0.6488
  560TMC3    O1 8316   0.027   2.258  11.263  0.0369 -0.1124  0.5515
  560TMC3    O2 8317   4.348   2.119  11.205 -0.9428 -0.1337  0.0088
  561TMC3    C1 8318   2.351   1.791  11.334  0.8686  0.6122 -0.6183
  561TMC3    C2 8319   2.265   1.698  11.378  0.4960 -0.3767  0.1991
  561TMC3    C3 8320   2.145   1.733  11.422  0.2455  0.5077 -0.6083
  561TMC3    C4 8321   2.307   1.915  11.314  0.3139 -0.2648  0.0512
  561TMC3    C5 8322   2.181   1.950  11.354 -0.0819  0.3896 -0.7049
  561TMC3    C6 8323   2.094   1.858  11.407 -1.0816 -1.0983  0.2908
  561TMC3     C 8324   2.492   1.758  11.324 -0.4962  0.3909  0.7753
  561TMC3     O 8325   2.524   1.660  11.392  0.6239 -0.2846 -0.0144
  561TMC3     H 8326   2.311   1.604  11.406 -1.8518 -1.3348  0.7705
  561TMC3    H1 8327   2.377   1.995  11.288  2.9937 -2.5206  0.2921
  561TMC3    H2 8328   1.990   1.881  11.430 -0.3726  1.1502  1.2203
  561TMC3    C7 8329   2.123   2.075  11.309  0.5307 -0.0982  0.9181
  561TMC3    C8 8330   2.082   1.624  11.497 -0.2840 -0.8394  0.0087
  561TMC3    O1 8331   2.017   2.093  11.368 -0.5420 -0.3591 -0.2185
  561TMC3    O2 8332   2.121   1.508  11.482  0.6394 -0.2736  0.2884
  562TMC3    C1 8333   3.117   2.828  16.191 -0.4032  0.4525 -0.2333
  562TMC3    C2 8334   3.051   2.919  16.117  0.2591  0.1161 -0.1688
  562TMC3    C3 8335   3.024   2.878  15.985  0.7955  0.2311  0.0640
  562TMC3    C4 8336   3.157   2.702  16.153  0.7283  0.2478  0.7601
  562TMC3    C5 8337   3.120   2.672  16.024  0.3373 -0.2992 -0.4262
  562TMC3    C6 8338   3.060   2.756  15.933  0.0530  0.2033  0.3589
  562TMC3     C 8339   3.151   2.879  16.325  0.7639 -0.4141 -0.5821
  562TMC3     O 8340   3.098   2.982  16.355  0.1664  0.3334  0.1294
  562TMC3     H 8341   3.025   3.020  16.145  1.0084 -0.1707  1.5483
  562TMC3    H1 8342   3.207   2.635  16.223  0.6508  1.5702  2.0733
  562TMC3    H2 8343   3.021   2.721  15.839 -0.6520  0.1633  0.6674
  562TMC3    C7 8344   3.159   2.540  15.966  0.0828  0.5442 -0.1650
  562TMC3    C8 8345   2.953   2.970  15.899 -0.3630  0.0749  0.2073
  562TMC3    O1 8346   3.144   2.519  15.845  0.0801  0.3380  0.1692
  562TMC3    O2 8347   2.876   3.054  15.951 -0.4179 -0.1705 -0.1620
  563MPD2     C 8348   0.864   4.406  15.469 -0.7195 -0.0831  0.4235
  563MPD2    C1 8349   0.789   4.294  15.516  0.8034  0.7468 -0.2802
  563MPD2    C2 8350   0.827   4.164  15.493  0.0826  0.3750  0.8070
  563MPD2    C3 8351   0.940   4.137  15.422  0.1902 -0.1645 -0.1445
  563MPD2    C4 8352   1.024   4.244  15.391 -0.5845  0.1177  0.1764
  563MPD2    C5 8353   0.985   4.376  15.412 -0.0433 -0.1819 -0.0734
  563MPD2     H 8354   0.763   4.082  15.523 -0.6860  0.8767  0.5432
  563MPD2    H1 8355   1.126   4.234  15.354 -1.6372 -0.9312 -2.4309
  563MPD2    H2 8356   0.840   4.511  15.481  0.1918  0.1245  0.4398
  563MPD2    H3 8357   1.053   4.455  15.381  0.2697  0.1340  1.3873
  563MPD2     N 8358   0.979   4.004  15.428 -0.2857 -0.5794  0.1557
  563MPD2    H5 8359   0.904   3.940  15.455 -0.9338 -0.0096 -0.3016
  563MPD2    N1 8360   0.681   4.319  15.601  0.6953  0.2887 -0.3803
  563MPD2    H7 8361   0.677   4.414  15.638 -1.1684  0.3905 -0.8735
  564TMC3    C1 8362   0.505   4.271  15.753 -0.8786 -0.9683  0.7025
  564TMC3    C2 8363   0.381   4.212  15.741 -0.6896  0.0924  0.2575
  564TMC3    C3 8364   0.317   4.195  15.858 -1.0148  0.2735 -0.4346
  564TMC3    C4 8365   0.569   4.280  15.876  0.8867  0.5772 -0.1997
  564TMC3    C5 8366   0.498   4.264  15.990 -0.1591  0.1616 -0.2005
  564TMC3    C6 8367   0.362   4.232  15.981  0.0969  0.0909  0.3745
  564TMC3     C 8368   0.584   4.233  15.636  0.6281  0.0958 -0.0402
  564TMC3     O 8369   0.543   4.130  15.588  0.6302 -0.2221 -0.1622
  564TMC3     H 8370   0.313   4.205  15.657 -0.3095  2.0362 -0.2090
  564TMC3    H1 8371   0.677   4.292  15.875  0.6282  2.8541 -0.6818
  564TMC3    H2 8372   0.304   4.227  16.073 -1.6082  0.4206 -0.6843
  564TMC3    C7 8373   0.572   4.175  16.078  0.1229  0.1129 -0.2894
  564TMC3    C8 8374   0.263   4.060  15.886  0.5838 -0.4195  0.1452
  564TMC3    O1 8375   0.696   4.172  16.068 -0.2293  0.1525 -0.0485
  564TMC3    O2 8376   0.205   4.044  15.991  0.6617  0.2361 -0.4647
  565TMC3    C1 8377   1.074   0.408  10.855 -0.0504 -0.7540 -0.6037
  565TMC3    C2 8378   1.153   0.370  10.960 -0.4629 -0.2292 -0.5482
  565TMC3    C3 8379   1.171   0.236  10.989  0.4351  0.1597  0.1395
  565TMC3    C4 8380   1.010   0.316  10.775  0.0001 -0.5561  0.2531
  565TMC3    C5 8381   1.019   0.188  10.816 -0.1341 -0.3744  0.7210
  565TMC3    C6 8382   1.092   0.146  10.926  0.2216  0.0317  0.6129
  565TMC3     C 8383   1.086   0.548  10.817 -0.0364  0.3007  0.1583
  565TMC3     O 8384   1.050   0.580  10.704  0.0166 -0.3422  0.0430
  565TMC3     H 8385   1.198   0.440  11.029 -0.3089 -2.1206  1.2733
  565TMC3    H1 8386   0.950   0.349  10.691  0.4595 -1.5749 -0.4647
  565TMC3    H2 8387   1.074   0.050  10.973 -0.4405  0.8757  2.0839
  565TMC3    C7 8388   0.951   0.082  10.743  0.3465  0.4552  0.4583
  565TMC3    C8 8389   1.212   0.202  11.124 -0.3138 -0.5939 -0.3750
  565TMC3    O1 8390   0.940   4.700  10.802 -0.1124  0.2783 -0.2138
  565TMC3    O2 8391   1.220   0.289  11.209 -0.2382  0.7446 -0.7311
  566MPD2     C 8392   2.356   1.983  14.516  0.1280 -0.1967  0.1099
  566MPD2    C1 8393   2.470   1.930  14.459 -0.0823 -0.1993 -0.6552
  566MPD2    C2 8394   2.459   1.895  14.325 -0.1008  0.6556  0.6054
  566MPD2    C3 8395   2.346   1.900  14.250 -0.3199  0.1111 -0.4949
  566MPD2    C4 8396   2.237   1.946  14.315 -0.5929  0.1129  0.4868
  566MPD2    C5 8397   2.242   1.985  14.445  0.1357 -0.2592  0.0308
  566MPD2     H 8398   2.548   1.883  14.265 -0.3665 -1.5406  0.6509
  566MPD2    H1 8399   2.145   1.948  14.258  0.4722  0.1118 -1.2641
  566MPD2    H2 8400   2.356   2.023  14.617 -0.2834 -0.4396  0.2072
  566MPD2    H3 8401   2.152   2.016  14.497  0.4386 -0.5562  0.7406
  566MPD2     N 8402   2.339   1.890  14.110 -0.2698 -0.7010  0.2664
  566MPD2    H5 8403   2.257   1.927  14.063 -1.4058 -2.5173  0.8283
  566MPD2    N1 8404   2.594   1.955  14.522  0.8453  0.0387  0.3288
  566MPD2    H7 8405   2.600   2.020  14.600 -1.5691 -0.6858  1.1325
  567TMC3    C1 8406   2.818   1.991  14.511 -0.1719 -0.3527 -0.0754
  567TMC3    C2 8407   2.861   2.066  14.401  0.7744 -0.0942 -0.4962
  567TMC3    C3 8408   2.989   2.119  14.401 -0.0398  0.1122 -0.0649
  567TMC3    C4 8409   2.892   1.975  14.626  0.6578  0.4912 -0.2107
  567TMC3    C5 8410   3.016   2.036  14.619  0.4273 -0.3721  0.3053
  567TMC3    C6 8411   3.066   2.108  14.515  0.1997  0.3831  0.3317
  567TMC3     C 8412   2.712   1.904  14.475  0.1774 -0.0668  0.3811
  567TMC3     O 8413   2.742   1.817  14.390  0.6729  0.7119 -0.3279
  567TMC3     H 8414   2.788   2.082  14.323 -0.0269  0.8592  0.4475
  567TMC3    H1 8415   2.857   1.903  14.699 -2.8246  0.7065 -1.6418
  567TMC3    H2 8416   3.153   2.170  14.527 -0.5822  0.9413  3.2700
  567TMC3    C7 8417   3.088   2.056  14.753 -0.5562  0.6994  0.9661
  567TMC3    C8 8418   3.026   2.206  14.289 -0.1772 -0.1819  0.4817
  567TMC3    O1 8419   3.205   2.082  14.734 -0.3932 -0.6765  0.1652
  567TMC3    O2 8420   2.944   2.245  14.208 -0.1652  0.5479 -0.8709
  568MPD2     C 8421   0.292   2.763  16.769  0.5948 -0.1468  0.0358
  568MPD2    C1 8422   0.252   2.879  16.831  0.6207 -0.3800  0.3723
  568MPD2    C2 8423   0.224   2.985  16.747 -0.0473  0.8681 -0.2878
  568MPD2    C3 8424   0.223   2.976  16.607 -0.3195 -0.4482  0.6779
  568MPD2    C4 8425   0.247   2.854  16.550 -0.0539 -0.1236  0.4711
  568MPD2    C5 8426   0.277   2.748  16.633  0.6683 -0.1987 -0.0983
  568MPD2     H 8427   0.200   3.078  16.798 -0.3017  2.2382 -2.9165
  568MPD2    H1 8428   0.240   2.830  16.445 -1.2575 -0.7015  0.6840
  568MPD2    H2 8429   0.310   2.671  16.824  0.0147 -0.9073 -1.0448
  568MPD2    H3 8430   0.302   2.655  16.584  1.6097 -0.2159  0.3903
  568MPD2     N 8431   0.196   3.093  16.534  0.6294  0.6602 -0.0597
  568MPD2    H5 8432   0.181   3.176  16.591 -2.0894  0.4121 -0.4033
  568MPD2    N1 8433   0.269   2.882  16.970  0.0937 -0.2036 -0.1133
  568MPD2    H7 8434   0.303   2.791  17.001  1.9320  0.2315 -0.8655
  569TMC3    C1 8435   0.154   3.241  16.354 -0.0703 -0.7318 -0.0786
  569TMC3    C2 8436   0.098   3.331  16.440  0.5843 -1.1150  0.3183
  569TMC3    C3 8437   0.057   3.442  16.383 -0.6962  0.0718  0.0450
  569TMC3    C4 8438   0.157   3.260  16.219  0.1308 -0.3635 -0.2095
  569TMC3    C5 8439   0.113   3.372  16.168  0.1148  0.3782  0.4481
  569TMC3    C6 8440   0.056   3.463  16.251 -0.2425  0.6333  0.9218
  569TMC3     C 8441   0.190   3.104  16.398 -0.7025 -0.0372  0.2561
  569TMC3     O 8442   0.235   3.024  16.316 -0.0704 -0.2843  0.3786
  569TMC3     H 8443   0.098   3.316  16.547  3.2268  0.2779  0.5102
  569TMC3    H1 8444   0.207   3.182  16.163  2.1541 -0.9074  2.3372
  569TMC3    H2 8445   0.018   3.556  16.209 -0.5435  0.1764  0.1637
  569TMC3    C7 8446   0.183   3.409  16.047 -0.5921 -0.1239  0.0090
  569TMC3    C8 8447   0.056   3.555  16.464  0.6553 -0.0439 -0.0486
  569TMC3    O1 8448   0.259   3.326  16.007 -0.1637  0.1435  0.0265
  569TMC3    O2 8449   4.688   3.627  16.448  0.1049  0.0962 -0.1035
  570TMC3    C1 8450   4.594   1.888  16.621 -0.3254  0.0669 -0.6925
  570TMC3    C2 8451   4.675   1.881  16.507  0.4451  0.7528  0.0398
  570TMC3    C3 8452   4.720   2.001  16.458 -0.2337  0.1766  0.0440
  570TMC3    C4 8453   4.559   2.006  16.675  0.0581 -1.3282 -0.4280
  570TMC3    C5 8454   4.612   2.118  16.625  0.8117  0.0127 -0.2734
  570TMC3    C6 8455   4.694   2.121  16.516 -0.2463  0.2484 -0.1376
  570TMC3     C 8456   4.528   1.766  16.658  0.4839 -0.1002 -0.5545
  570TMC3     O 8457   4.526   1.676  16.574 -0.1269  0.0274  0.5793
  570TMC3     H 8458   4.706   1.783  16.474 -2.8581  0.3321 -1.8119
  570TMC3    H1 8459   4.481   2.004  16.749  0.5047  1.8995  0.1297
  570TMC3    H2 8460   0.021   2.210  16.484  0.6550 -0.1731  0.1692
  570TMC3    C7 8461   4.562   2.246  16.669  0.1544 -0.7024 -0.3258
  570TMC3    C8 8462   0.084   2.007  16.347  0.4260  0.1263 -0.4098
  570TMC3    O1 8463   4.495   2.255  16.770 -0.8324  0.1370 -0.1464
  570TMC3    O2 8464   0.120   2.119  16.317  0.4526  0.0868  0.0837
  571MPD2     C 8465   2.649   3.076  17.389 -0.2994 -0.7434  0.0705
  571MPD2    C1 8466   2.540   2.993  17.421  0.3717 -0.0224 -0.1458
  571MPD2    C2 8467   2.452   3.049  17.517  0.4988 -0.4540 -0.1861
  571MPD2    C3 8468   2.469   3.174  17.570  0.3772  0.0411 -0.0924
  571MPD2    C4 8469   2.566   3.249  17.533  0.9085  0.5565  0.3840
  571MPD2    C5 8470   2.666   3.196  17.455 -0.0754 -0.2651 -0.4752
  571MPD2     H 8471   2.363   2.991  17.538  2.3268 -2.5080  1.9230
  571MPD2    H1 8472   2.571   3.350  17.574 -1.1250 -0.2069  2.5221
  571MPD2    H2 8473   2.728   3.046  17.322 -0.0343 -0.3647  0.2150
  571MPD2    H3 8474   2.756   3.255  17.445 -0.2175 -0.0216 -0.3177
  571MPD2     N 8475   2.378   3.239  17.664 -0.2211 -0.0081  0.2054
  571MPD2    H5 8476   2.373   3.340  17.671  3.2004  0.3141 -1.7519
  571MPD2    N1 8477   2.534   2.859  17.370  0.6364 -0.6604  0.3332
  571MPD2    H7 8478   2.609   2.830  17.307  1.4201  0.1748  0.8878
  572TMC3    C1 8479   2.175   3.257   0.080  0.1988 -0.0754 -0.0064
  572TMC3    C2 8480   2.067   3.203   0.145  0.2258  0.4382  0.2168
  572TMC3    C3 8481   1.982   3.282   0.214 -0.1861 -0.0642  0.2204
  572TMC3    C4 8482   2.195   3.390   0.088  0.1913 -0.0507  0.3328
  572TMC3    C5 8483   2.111   3.463   0.166  0.1304  0.3441 -0.1908
  572TMC3    C6 8484   2.002   3.414   0.226 -0.8312  0.3334 -0.1285
  572TMC3     C 8485   2.275   3.165   0.024 -0.1091 -0.2130  0.7006
  572TMC3     O 8486   2.256   3.048   0.037 -0.2947 -0.0466 -0.1707
  572TMC3     H 8487   2.025   3.107   0.118  0.4564  0.1065  1.0133
  572TMC3    H1 8488   2.289   3.439   0.067 -0.8531  0.8621 -2.2105
  572TMC3    H2 8489   1.948   3.481   0.292 -1.0394 -0.4570  0.5146
  572TMC3    C7 8490   2.144   3.602   0.178  1.2794  0.1789 -0.2786
  572TMC3    C8 8491   1.877   3.223   0.290 -0.3743  0.4535 -0.0467
  572TMC3    O1 8492   2.179   3.667   0.080  0.2471 -0.0270 -0.1572
  572TMC3    O2 8493   1.885   3.107   0.314  0.0274 -1.2145  0.4079
  573MPD2     C 8494   3.145   3.632   1.035  0.5435  0.3144 -0.3469
  573MPD2    C1 8495   3.243   3.710   1.081 -0.4721 -0.0916  0.1687
  573MPD2    C2 8496   3.298   3.820   1.004 -0.0806  0.6909  0.0033
  573MPD2    C3 8497   3.261   3.829   0.874  0.6356 -0.2173 -0.5376
  573MPD2    C4 8498   3.183   3.727   0.821 -0.2844 -0.2385  0.8291
  573MPD2    C5 8499   3.125   3.637   0.904 -0.2345 -0.0430  0.5704
  573MPD2     H 8500   3.376   3.878   1.053  0.2975  1.1146 -1.1140
  573MPD2    H1 8501   3.181   3.710   0.714  0.0293 -0.5441  0.8730
  573MPD2    H2 8502   3.097   3.555   1.094 -0.6139 -1.1375 -3.1691
  573MPD2    H3 8503   3.061   3.562   0.859 -1.6702  0.4565  1.7963
  573MPD2     N 8504   3.324   3.922   0.791 -0.2637 -0.0111 -0.1321
  573MPD2    H5 8505   3.323   3.918   0.690 -1.3554 -0.4233 -0.0992
  573MPD2    N1 8506   3.276   3.690   1.220 -0.5712  0.7638 -0.1524
  573MPD2    H7 8507   3.236   3.607   1.261  1.1816 -0.2173 -0.4046
  574TMC3    C1 8508   3.440   4.120   0.737  0.2094  0.8764  0.6446
  574TMC3    C2 8509   3.481   4.072   0.615  0.2879  0.1124  0.0117
  574TMC3    C3 8510   3.511   4.162   0.518  0.1908 -0.2215 -0.5830
  574TMC3    C4 8511   3.438   4.253   0.757  0.0903  0.2475 -0.7020
  574TMC3    C5 8512   3.459   4.342   0.652 -0.3584 -0.4051 -0.2368
  574TMC3    C6 8513   3.507   4.301   0.534 -0.0911 -0.3144 -1.1093
  574TMC3     C 8514   3.381   4.035   0.839  0.4809 -0.2079 -0.0603
  574TMC3     O 8515   3.373   4.094   0.946  0.1824  0.0137 -0.0366
  574TMC3     H 8516   3.474   3.964   0.609 -2.8938  0.4476 -1.8902
  574TMC3    H1 8517   3.422   4.291   0.858  0.4023  0.6666 -0.8113
  574TMC3    H2 8518   3.526   4.375   0.458  0.0653  0.9625  0.1713
  574TMC3    C7 8519   3.405   4.476   0.663  0.3562 -0.4593  0.1720
  574TMC3    C8 8520   3.538   4.111   0.388 -0.1778 -0.5675 -0.2234
  574TMC3    O1 8521   3.451   4.561   0.583  0.6174 -0.1592 -0.6378
  574TMC3    O2 8522   3.541   3.992   0.381 -0.1365  0.4288 -0.3090
  575TMC3    C1 8523   1.294   0.354  11.949 -1.0242  0.2276  0.2633
  575TMC3    C2 8524   1.338   0.264  12.049 -0.5750 -0.1623  0.0260
  575TMC3    C3 8525   1.386   0.149  12.001 -0.4053 -0.2281 -0.2023
  575TMC3    C4 8526   1.269   0.321  11.823  0.8202  0.8082 -1.1651
  575TMC3    C5 8527   1.302   0.195  11.785 -0.3022 -0.1806 -0.0401
  575TMC3    C6 8528   1.375   0.115  11.869  0.1269  0.2071  0.7562
  575TMC3     C 8529   1.279   0.489  11.996 -0.4749  0.3839  0.0113
  575TMC3     O 8530   1.265   0.498  12.117 -0.3155  0.1626 -0.1788
  575TMC3     H 8531   1.356   0.297  12.151 -0.2193 -1.7132  0.4576
  575TMC3    H1 8532   1.209   0.385  11.760 -0.4821 -0.8640 -1.5994
  575TMC3    H2 8533   1.419   0.022  11.833 -2.8533 -0.0615 -2.1700
  575TMC3    C7 8534   1.291   0.167  11.642 -0.0062  0.8094 -0.2181
  575TMC3    C8 8535   1.403   0.035  12.097 -0.0218  0.0046 -0.1006
  575TMC3    O1 8536   1.269   0.261  11.571 -0.2362  0.1901 -0.0780
  575TMC3    O2 8537   1.439   4.652  12.046 -0.5458  0.0688 -0.1063
  576MPD2     C 8538   1.280   1.527  12.768 -0.1102  1.0351 -0.5257
  576MPD2    C1 8539   1.258   1.647  12.694  0.5623 -0.3336  0.2678
  576MPD2    C2 8540   1.168   1.740  12.737 -0.0568  0.3589  0.0452
  576MPD2    C3 8541   1.100   1.722  12.855  0.6629  0.2796  0.3983
  576MPD2    C4 8542   1.128   1.604  12.933 -0.2360  0.3730  0.3279
  576MPD2    C5 8543   1.228   1.516  12.894 -0.4541 -0.5605 -0.4136
  576MPD2     H 8544   1.158   1.833  12.683 -1.3703  1.4198  2.1182
  576MPD2    H1 8545   1.079   1.582  13.027 -1.9552  2.6149 -0.0545
  576MPD2    H2 8546   1.337   1.441  12.735 -0.9240  1.2154 -2.3673
  576MPD2    H3 8547   1.241   1.422  12.947 -0.5937  0.6723  1.8347
  576MPD2     N 8548   1.011   1.821  12.897 -0.6970 -0.5434 -0.0200
  576MPD2    H5 8549   1.012   1.905  12.840 -0.6199  0.2353  1.1270
  576MPD2    N1 8550   1.332   1.681  12.573 -0.2726 -1.0486 -0.1416
  576MPD2    H7 8551   1.313   1.771  12.529  0.7507 -0.8096 -0.0897
  577TMC3    C1 8552   1.457   1.670  12.390  0.1251 -0.6190 -0.7895
  577TMC3    C2 8553   1.506   1.586  12.293  0.4789 -0.0050  0.2989
  577TMC3    C3 8554   1.569   1.650  12.190 -0.5929  0.5677  0.7076
  577TMC3    C4 8555   1.458   1.806  12.393  0.1142 -0.1099 -0.8996
  577TMC3    C5 8556   1.517   1.868  12.288 -0.1224  0.2763 -0.2947
  577TMC3    C6 8557   1.581   1.790  12.185 -0.0860  0.6067 -0.0291
  577TMC3     C 8558   1.430   1.607  12.512  0.0120  0.1668  0.5190
  577TMC3     O 8559   1.446   1.490  12.531 -0.2638  0.3532 -0.0087
  577TMC3     H 8560   1.506   1.478  12.301 -1.4266 -0.0392 -0.0119
  577TMC3    H1 8561   1.417   1.863  12.475  1.7174  0.6495 -0.6183
  577TMC3    H2 8562   1.642   1.831  12.105  2.5947 -0.3044  1.5401
  577TMC3    C7 8563   1.499   2.007  12.278 -0.1872 -0.2182 -0.5201
  577TMC3    C8 8564   1.651   1.566  12.103 -0.2208  0.2761 -0.4443
  577TMC3    O1 8565   1.480   2.071  12.379  0.2841  0.0922 -0.2010
  577TMC3    O2 8566   1.690   1.466  12.166  0.1836 -0.5539 -0.3449
  578MPD2     C 8567   4.374   1.490   1.881  0.1832 -0.2266  0.2256
  578MPD2    C1 8568   4.333   1.502   1.751 -0.0093 -0.1005 -0.2143
  578MPD2    C2 8569   4.382   1.419   1.651 -0.3862  0.1712 -1.0536
  578MPD2    C3 8570   4.477   1.324   1.678  0.4558  0.1088 -0.3665
  578MPD2    C4 8571   4.516   1.306   1.809 -0.1366  0.1138  0.3414
  578MPD2    C5 8572   4.463   1.392   1.904 -0.2507 -0.1088  1.0410
  578MPD2     H 8573   4.364   1.433   1.545 -0.7465 -2.0898 -1.3051
  578MPD2    H1 8574   4.589   1.232   1.841  0.3604  0.2091 -0.5711
  578MPD2    H2 8575   4.342   1.545   1.969 -1.0171  3.1991 -2.3678
  578MPD2    H3 8576   4.479   1.368   2.008  1.0857 -1.0351  0.6196
  578MPD2     N 8577   4.527   1.260   1.572  0.5783 -0.3253 -0.0799
  578MPD2    H5 8578   4.486   1.290   1.484  0.0827  0.9785  0.5856
  578MPD2    N1 8579   4.256   1.613   1.722  0.7801  0.1598 -0.4619
  578MPD2    H7 8580   4.243   1.676   1.800  0.3748 -1.4865  0.7951
  579TMC3    C1 8581   4.670   1.132   1.439  0.4959 -0.3820 -0.6988
  579TMC3    C2 8582   0.074   1.096   1.429 -1.1387 -0.0957 -0.3220
  579TMC3    C3 8583   0.114   1.059   1.303 -0.4371 -0.2888  0.7159
  579TMC3    C4 8584   4.577   1.119   1.345  0.1298 -0.0744 -0.0453
  579TMC3    C5 8585   4.618   1.082   1.222  0.6829 -0.1413  0.2514
  579TMC3    C6 8586   0.025   1.046   1.201  0.7293 -0.5455 -0.0733
  579TMC3     C 8587   4.622   1.156   1.570 -0.1754 -0.1423  0.4238
  579TMC3     O 8588   4.684   1.108   1.661 -0.3665  0.0050  0.1740
  579TMC3     H 8589   0.139   1.131   1.508  0.2889 -2.1035 -0.6094
  579TMC3    H1 8590   4.475   1.154   1.356 -0.4773 -2.3040  1.4983
  579TMC3    H2 8591   0.064   1.036   1.101 -1.9212 -1.8231 -0.9749
  579TMC3    C7 8592   4.536   1.105   1.106 -0.4013  0.3689  0.0087
  579TMC3    C8 8593   0.252   1.083   1.275 -0.5870  1.1652 -0.1269
  579TMC3    O1 8594   4.603   1.106   1.002  0.1895 -0.1768  0.1589
  579TMC3    O2 8595   0.286   1.017   1.177 -0.1407 -0.1861 -0.2567
  580TMC3    C1 8596   3.765   0.984  11.509 -0.5928 -0.0127  0.0862
  580TMC3    C2 8597   3.783   0.927  11.385  0.1406  0.1406 -0.1491
  580TMC3    C3 8598   3.767   0.787  11.385 -1.2220 -0.0021  0.1459
  580TMC3    C4 8599   3.728   0.920  11.626  0.2769 -0.5406  0.4251
  580TMC3    C5 8600   3.720   0.782  11.615 -0.3378 -0.0029 -0.1709
  580TMC3    C6 8601   3.742   0.716  11.496  0.3826  0.7280 -0.7957
  580TMC3     C 8602   3.766   1.129  11.520  0.9401 -0.3087  0.8681
  580TMC3     O 8603   3.812   1.187  11.426 -0.2770 -0.1960  0.3364
  580TMC3     H 8604   3.788   0.987  11.295 -1.1347 -0.1476 -0.4121
  580TMC3    H1 8605   3.722   0.962  11.726 -0.1221  2.6363 -0.9567
  580TMC3    H2 8606   3.755   0.609  11.486  2.8833  0.9011  0.6935
  580TMC3    C7 8607   3.782   0.711  11.733  0.5013  0.4467 -0.4476
  580TMC3    C8 8608   3.855   0.716  11.292 -0.5457 -0.2719 -0.2178
  580TMC3    O1 8609   3.844   0.776  11.820 -0.0562  0.1377  0.2362
  580TMC3    O2 8610   3.829   0.599  11.254 -0.3781 -0.0226 -0.1686
  581MPD2     C 8611   1.980   0.399  15.095 -0.5827  0.3779  0.0335
  581MPD2    C1 8612   1.853   0.376  15.125 -0.4589 -0.0346  0.2069
  581MPD2    C2 8613   1.759   0.411  15.031 -0.3801 -0.1979 -0.8115
  581MPD2    C3 8614   1.788   0.468  14.908  0.5197  0.6331  0.4806
  581MPD2    C4 8615   1.916   0.476  14.875 -0.9522 -0.2042 -0.3384
  581MPD2    C5 8616   2.011   0.434  14.964 -0.3122 -0.3510 -0.1833
  581MPD2     H 8617   1.655   0.391  15.054  0.0649 -1.0200  0.4811
  581MPD2    H1 8618   1.951   0.516  14.780  0.4626  1.1398  0.7541
  581MPD2    H2 8619   2.057   0.378  15.169 -0.8599 -0.9916 -0.0770
  581MPD2    H3 8620   2.117   0.442  14.942 -0.7461 -1.0432 -2.5217
  581MPD2     N 8621   1.685   0.532  14.838  0.6644 -0.4260  0.3948
  581MPD2    H5 8622   1.590   0.529  14.874  0.7805 -3.4920  0.4501
  581MPD2    N1 8623   1.818   0.304  15.243 -0.4362 -0.1515 -0.3125
  581MPD2    H7 8624   1.723   0.270  15.244 -0.6132  0.3657  0.9203
  582TMC3    C1 8625   1.817   0.239  15.461 -0.3662 -0.5644  0.3156
  582TMC3    C2 8626   1.842   0.301  15.579  0.4278 -0.0084 -0.0328
  582TMC3    C3 8627   1.750   0.295  15.680  0.0331  0.2750  0.0562
  582TMC3    C4 8628   1.707   0.159  15.441  0.3054  0.9048 -0.3834
  582TMC3    C5 8629   1.613   0.150  15.538 -0.3806 -0.0380 -0.3306
  582TMC3    C6 8630   1.630   0.221  15.657  0.0585 -1.2586 -0.3329
  582TMC3     C 8631   1.898   0.279  15.357 -0.2289 -0.2536  0.2005
  582TMC3     O 8632   2.008   0.328  15.382  0.4213 -0.8065 -0.0433
  582TMC3     H 8633   1.936   0.352  15.596  0.1506  0.5945 -0.3153
  582TMC3    H1 8634   1.699   0.092  15.356  3.1073 -0.8979  0.7686
  582TMC3    H2 8635   1.549   0.219  15.728 -0.2488 -0.4680 -0.6569
  582TMC3    C7 8636   1.481   0.101  15.509  0.0093 -0.2141  0.4609
  582TMC3    C8 8637   1.767   0.352  15.811  0.2722  0.5985  0.3327
  582TMC3    O1 8638   1.459   4.718  15.451 -0.0880  0.6035  0.1302
  582TMC3    O2 8639   1.681   0.325  15.893 -0.0187 -0.6058  0.1025
  583MPD2     C 8640   1.481   2.166  16.643 -0.0122  0.5863  0.4574
  583MPD2    C1 8641   1.555   2.280  16.619 -0.1156  0.1015  0.1825
  583MPD2    C2 8642   1.512   2.398  16.686 -0.5741 -0.6099 -0.6348
  583MPD2    C3 8643   1.389   2.402  16.745 -0.2864  0.3067  1.1125
  583MPD2    C4 8644   1.316   2.284  16.759  0.8914  0.3925  0.0837
  583MPD2    C5 8645   1.359   2.169  16.700  0.1652  0.5698 -0.8984
  583MPD2     H 8646   1.565   2.491  16.666  0.1091 -0.5043  1.7376
  583MPD2    H1 8647   1.219   2.281  16.806  1.3479  0.7343  1.0548
  583MPD2    H2 8648   1.506   2.068  16.604  1.4397  0.8074  0.8047
  583MPD2    H3 8649   1.300   2.081  16.721 -1.7867  2.1396  0.1645
  583MPD2     N 8650   1.335   2.527  16.791  0.2612 -0.0634 -0.2337
  583MPD2    H5 8651   1.392   2.610  16.776 -0.6211  0.1402 -2.5068
  583MPD2    N1 8652   1.678   2.276  16.552  0.2659 -0.3750 -0.6454
  583MPD2    H7 8653   1.719   2.369  16.553 -0.1052 -0.2153 -0.2917
  584TMC3    C1 8654   1.213   2.672  16.925 -0.6505  0.1211  0.1297
  584TMC3    C2 8655   1.270   2.765  16.845  0.7671 -0.0008  0.4281
  584TMC3    C3 8656   1.283   2.887  16.896  0.5586  0.2900 -0.6634
  584TMC3    C4 8657   1.186   2.686  17.058 -0.3978  0.2714 -0.2197
  584TMC3    C5 8658   1.177   2.818  17.098  0.6969  0.4536  0.2289
  584TMC3    C6 8659   1.236   2.917  17.023  0.1936 -0.6381 -0.4713
  584TMC3     C 8660   1.229   2.540  16.870 -0.5021 -0.9123  1.3914
  584TMC3     O 8661   1.148   2.460  16.917 -0.5994  0.3998 -0.1764
  584TMC3     H 8662   1.283   2.749  16.739 -1.6388 -0.9451  0.2783
  584TMC3    H1 8663   1.163   2.602  17.123 -1.0371 -0.3128 -1.2105
  584TMC3    H2 8664   1.233   3.022  17.049  0.0900 -0.8074  0.1910
  584TMC3    C7 8665   1.149   2.842  17.237 -0.1458 -0.4947  1.3536
  584TMC3    C8 8666   1.340   2.992  16.808  0.4664 -0.6348 -1.0580
  584TMC3    O1 8667   1.096   2.748  17.300  0.1014 -0.1807 -0.2150
  584TMC3    O2 8668   1.332   2.970  16.688  0.5394  0.7678 -0.2474
  585MPD2     C 8669   0.573   1.630   0.636  0.0611  0.4491 -0.6946
  585MPD2    C1 8670   0.635   1.654   0.515  0.3943 -0.3493 -0.2618
  585MPD2    C2 8671   0.721   1.567   0.462  0.0416  0.1341 -0.1554
  585MPD2    C3 8672   0.752   1.450   0.541 -0.5422 -0.9166  0.2076
  585MPD2    C4 8673   0.685   1.417   0.659 -0.4084 -0.0991  0.0641
  585MPD2    C5 8674   0.598   1.513   0.705 -0.0847  1.1986 -0.1998
  585MPD2     H 8675   0.777   1.589   0.371 -1.4256  0.0454 -1.0823
  585MPD2    H1 8676   0.712   1.333   0.722 -1.2531  0.9519  1.8523
  585MPD2    H2 8677   0.517   1.704   0.692 -2.4030 -1.2025 -0.9707
  585MPD2    H3 8678   0.568   1.516   0.809  1.5861  0.5717  0.3040
  585MPD2     N 8679   0.846   1.355   0.508  0.3629 -0.8876 -0.2583
  585MPD2    H5 8680   0.867   1.283   0.575 -0.1746  1.9027  2.8960
  585MPD2    N1 8681   0.618   1.783   0.459 -0.1766 -0.9012  0.3671
  585MPD2    H7 8682   0.559   1.837   0.522 -0.7466  0.6712 -1.5331
  586TMC3    C1 8683   0.990   1.235   0.367  0.1298 -0.0519 -0.0742
  586TMC3    C2 8684   1.108   1.231   0.302  0.7018 -0.7772 -0.6921
  586TMC3    C3 8685   1.189   1.124   0.322 -0.5490 -0.5932  0.7787
  586TMC3    C4 8686   0.951   1.141   0.459 -0.6480 -0.4800  0.0579
  586TMC3    C5 8687   1.046   1.042   0.493  0.6154  0.3549 -0.1600
  586TMC3    C6 8688   1.167   1.043   0.425 -0.0820  0.1699  0.1283
  586TMC3     C 8689   0.918   1.355   0.387  0.0982 -0.2027  0.4842
  586TMC3     O 8690   0.942   1.449   0.306  0.1189 -0.4251  0.1228
  586TMC3     H 8691   1.122   1.296   0.217 -0.9351 -1.8402 -1.7717
  586TMC3    H1 8692   0.848   1.129   0.491 -0.1938 -0.7231  1.4254
  586TMC3    H2 8693   1.249   0.984   0.465  0.5392  0.6292 -0.4618
  586TMC3    C7 8694   0.988   0.912   0.479 -0.8967  0.3483 -0.1486
  586TMC3    C8 8695   1.238   1.040   0.219  0.4573 -0.3707 -0.4866
  586TMC3    O1 8696   0.868   0.906   0.504 -0.9093 -0.1784 -0.6011
  586TMC3    O2 8697   1.253   0.924   0.255 -0.3353 -0.5393 -0.8622
  587TMC3    C1 8698   3.319   4.617  16.677  0.3146  0.4021  0.3225
  587TMC3    C2 8699   3.315   0.033  16.682  0.4317 -0.0724 -0.3207
  587TMC3    C3 8700   3.383   0.096  16.586 -0.4363  0.8016  0.4286
  587TMC3    C4 8701   3.406   4.549  16.596 -0.1727 -0.3267 -0.3622
  587TMC3    C5 8702   3.481   4.623  16.503  0.4680  0.1009 -0.1813
  587TMC3    C6 8703   3.466   0.033  16.498  0.0993  0.2996 -0.2236
  587TMC3     C 8704   3.251   4.546  16.787  0.0116 -0.4760 -0.6029
  587TMC3     O 8705   3.312   4.449  16.833 -0.1826  0.0690  0.0303
  587TMC3     H 8706   3.255   0.088  16.753  0.2159 -0.7673  0.0368
  587TMC3    H1 8707   3.417   4.443  16.613  1.0330 -0.0297  0.7283
  587TMC3    H2 8708   3.520   0.100  16.432  2.1133  0.4378  1.5791
  587TMC3    C7 8709   3.603   4.553  16.464 -0.0487 -0.4511 -0.2123
  587TMC3    C8 8710   3.372   0.239  16.578 -0.1742 -0.1285  0.6025
  587TMC3    O1 8711   3.609   4.436  16.502  0.2137  0.3658 -0.0914
  587TMC3    O2 8712   3.465   0.301  16.533  0.2397  0.6030  0.2644
  588TMC3    C1 8713   1.105   2.782  10.099  0.3948  0.2919 -0.0433
  588TMC3    C2 8714   1.058   2.707  10.204 -0.8441  0.5497 -0.5299
  588TMC3    C3 8715   1.099   2.746  10.327 -0.2864 -0.2705  0.1552
  588TMC3    C4 8716   1.155   2.908  10.122 -0.9274 -0.0342 -0.1514
  588TMC3    C5 8717   1.173   2.950  10.246 -0.4152 -0.0218 -0.2166
  588TMC3    C6 8718   1.143   2.872  10.352  1.0390  0.1098 -0.2734
  588TMC3     C 8719   1.050   2.751   9.970  0.6433 -0.3115 -0.6558
  588TMC3     O 8720   1.018   2.634   9.946  0.2819  0.3105  0.3286
  588TMC3     H 8721   1.016   2.608  10.185 -0.6034  0.4466 -0.5305
  588TMC3    H1 8722   1.194   2.967  10.040  1.0502 -1.3427 -0.1536
  588TMC3    H2 8723   1.151   2.905  10.456  0.2928 -2.5674  0.6245
  588TMC3    C7 8724   1.164   3.091  10.281 -0.4893  1.0286 -0.1328
  588TMC3    C8 8725   1.052   2.668  10.439 -0.8581  0.1498 -0.0550
  588TMC3    O1 8726   1.184   3.116  10.402 -0.6913  0.0222  0.0620
  588TMC3    O2 8727   1.035   2.730  10.542 -0.0467  0.3259  0.0883
  589TMC3    C1 8728   4.190   0.510   1.408 -0.2384  0.1422  0.1623
  589TMC3    C2 8729   4.301   0.484   1.484  0.0553 -0.7134 -0.2103
  589TMC3    C3 8730   4.400   0.417   1.419  0.6078 -0.9162 -0.4030
  589TMC3    C4 8731   4.172   0.473   1.280  0.4066 -0.7674  0.5180
  589TMC3    C5 8732   4.278   0.408   1.220  0.0547 -0.0471 -0.1207
  589TMC3    C6 8733   4.390   0.375   1.290 -0.5702  0.2759  0.6147
  589TMC3     C 8734   4.087   0.596   1.466 -0.2230 -0.5454 -0.7234
  589TMC3     O 8735   3.987   0.609   1.399  0.7667 -0.8985  0.0319
  589TMC3     H 8736   4.318   0.501   1.590 -0.3503 -0.5675 -0.1665
  589TMC3    H1 8737   4.077   0.487   1.230  0.3531 -0.8669  0.5914
  589TMC3    H2 8738   4.458   0.303   1.246 -0.1941  1.3385 -0.5408
  589TMC3    C7 8739   4.258   0.327   1.102 -0.3107  0.4478 -0.3153
  589TMC3    C8 8740   4.514   0.373   1.492  0.5003 -0.4720 -0.8089
  589TMC3    O1 8741   4.308   0.216   1.091 -0.0936 -0.0992  0.1132
  589TMC3    O2 8742   4.496   0.342   1.607 -0.2691  0.1016 -0.1513
  590MPD2     C 8743   3.957   3.176  16.650  0.3767 -0.3533  0.0206
  590MPD2    C1 8744   3.878   3.234  16.553 -0.7560 -0.1709  0.7164
  590MPD2    C2 8745   3.937   3.319  16.468  0.2590  0.7788 -0.7901
  590MPD2    C3 8746   4.072   3.352  16.474  0.4798  0.0414 -1.0546
  590MPD2    C4 8747   4.147   3.301  16.575  0.0563 -0.7836 -0.2987
  590MPD2    C5 8748   4.091   3.211  16.663 -0.2832  0.1264  0.1076
  590MPD2     H 8749   3.869   3.380  16.409 -1.1297 -0.1427 -0.1441
  590MPD2    H1 8750   4.250   3.330  16.592  0.1021 -1.7115  0.9844
  590MPD2    H2 8751   3.919   3.109  16.727  0.1832 -0.2919 -0.0208
  590MPD2    H3 8752   4.156   3.162  16.733 -1.4622  0.4912  1.4610
  590MPD2     N 8753   4.115   3.435  16.371  0.4342 -0.4738 -0.2372
  590MPD2    H5 8754   4.040   3.463  16.309  1.8720 -0.3900 -1.9319
  590MPD2    N1 8755   3.741   3.208  16.535  0.1918 -0.2783 -0.1440
  590MPD2    H7 8756   3.693   3.230  16.448  1.5741 -0.4821 -0.9534
  591TMC3    C1 8757   4.264   3.574  16.243  0.3011 -0.4152  0.6406
  591TMC3    C2 8758   4.384   3.567  16.182 -0.6923 -0.5007 -0.5418
  591TMC3    C3 8759   4.405   3.608  16.058 -0.0011 -1.2243  0.4668
  591TMC3    C4 8760   4.162   3.645  16.185 -0.0880 -0.4271 -0.3032
  591TMC3    C5 8761   4.187   3.700  16.063 -0.2153 -0.2850 -0.7047
  591TMC3    C6 8762   4.303   3.669  15.995  1.3019  0.1301  0.4839
  591TMC3     C 8763   4.243   3.470  16.336  0.2329  0.4904  0.0793
  591TMC3     O 8764   4.338   3.413  16.391 -0.2245 -0.2750 -0.4837
  591TMC3     H 8765   4.463   3.514  16.235 -1.5357 -0.1931  1.0367
  591TMC3    H1 8766   4.067   3.648  16.237  0.5288 -0.6631  0.8350
  591TMC3    H2 8767   4.319   3.693  15.891 -1.3479  0.7455  0.2209
  591TMC3    C7 8768   4.095   3.790  15.996  0.1122 -0.4668 -0.5540
  591TMC3    C8 8769   4.513   3.543  15.983 -0.0233  0.0697  0.2016
  591TMC3    O1 8770   3.976   3.793  16.028  0.3386  0.1223 -0.0897
  591TMC3    O2 8771   4.568   3.448  16.038 -0.3782  0.9270  0.2843
  592MPD2     C 8772   0.280   0.316  11.539 -0.0645 -0.3348 -0.0187
  592MPD2    C1 8773   0.217   0.381  11.633  0.7033  0.1123  0.1683
  592MPD2    C2 8774   0.136   0.311  11.725  0.8026 -0.5044  0.3888
  592MPD2    C3 8775   0.113   0.173  11.711 -0.3616 -0.4957 -0.1318
  592MPD2    C4 8776   0.161   0.116  11.599 -0.0853  0.1561  0.2278
  592MPD2    C5 8777   0.248   0.183  11.521 -0.1749  0.3315  0.2487
  592MPD2     H 8778   0.081   0.355  11.807  2.5470  0.6797  0.9269
  592MPD2    H1 8779   0.156   0.011  11.571 -0.3995 -0.1346  1.3702
  592MPD2    H2 8780   0.335   0.363  11.458  0.6147 -0.0964  0.5794
  592MPD2    H3 8781   0.303   0.130  11.444  1.4048 -1.3193  2.5235
  592MPD2     N 8782   0.014   0.111  11.797  0.1086  0.0739  0.7310
  592MPD2    H5 8783   4.705   0.166  11.874  0.7925 -0.0134  1.0949
  592MPD2    N1 8784   0.218   0.519  11.631 -0.5011 -1.0051  0.0695
  592MPD2    H7 8785   0.263   0.560  11.551 -2.4535  0.0919 -0.4747
  593TMC3    C1 8786   0.268   0.727  11.746  0.2149  0.1053 -0.0348
  593TMC3    C2 8787   0.267   0.776  11.874  0.5021  0.4251  0.5425
  593TMC3    C3 8788   0.361   0.872  11.910  0.0900 -0.0231 -0.5507
  593TMC3    C4 8789   0.354   0.776  11.652  0.3480  0.1329 -0.2975
  593TMC3    C5 8790   0.453   0.867  11.693 -0.6874  0.9520 -0.6349
  593TMC3    C6 8791   0.458   0.914  11.821  0.8333  0.1687 -0.0462
  593TMC3     C 8792   0.200   0.599  11.744 -0.9199  0.1540 -0.3229
  593TMC3     O 8793   0.171   0.560  11.857  0.5149  0.1710  0.1632
  593TMC3     H 8794   0.201   0.748  11.955  0.3132  1.6067  0.7867
  593TMC3    H1 8795   0.332   0.739  11.553 -1.8941 -0.3576  0.3696
  593TMC3    H2 8796   0.539   0.983  11.844  0.9917 -0.4626  1.3168
  593TMC3    C7 8797   0.520   0.950  11.593 -0.2771 -0.0124  0.3004
  593TMC3    C8 8798   0.314   0.988  11.985  1.1102 -0.4137  0.9046
  593TMC3    O1 8799   0.572   1.054  11.634  0.2650 -0.5012 -0.1800
  593TMC3    O2 8800   0.196   1.013  11.988 -0.3809  0.2219 -0.4757
  594MPD2     C 8801   2.973   4.268  13.988 -0.1878  0.5181  0.5455
  594MPD2    C1 8802   2.999   4.233  14.118  0.0034 -0.3072  0.3500
  594MPD2    C2 8803   3.112   4.290  14.176 -0.0656 -0.4986 -0.8552
  594MPD2    C3 8804   3.197   4.367  14.099  0.0923 -0.0383  0.6423
  594MPD2    C4 8805   3.177   4.373  13.965  0.1341  0.1049  0.2680
  594MPD2    C5 8806   3.067   4.323  13.905 -0.7154  0.2147  0.3175
  594MPD2     H 8807   3.137   4.279  14.281 -0.2536  1.3869 -0.6094
  594MPD2    H1 8808   3.245   4.420  13.895  0.5394 -2.8778 -1.3368
  594MPD2    H2 8809   2.880   4.241  13.939 -0.1041 -0.0578  0.6940
  594MPD2    H3 8810   3.041   4.325  13.800  0.0992  2.6272  0.1813
  594MPD2     N 8811   3.307   4.424  14.163  0.4042 -1.2443  0.3834
  594MPD2    H5 8812   3.305   4.416  14.264 -2.2189 -1.5352  0.3067
  594MPD2    N1 8813   2.900   4.150  14.186  0.3195 -0.1087  0.3173
  594MPD2    H7 8814   2.843   4.098  14.120 -1.4871  1.4606  0.6386
  595TMC3    C1 8815   3.746   4.549  14.235 -0.3834 -0.2366 -0.0417
  595TMC3    C2 8816   3.641   4.482  14.168 -0.2219  0.0168  0.3630
  595TMC3    C3 8817   3.515   4.519  14.204  0.5727 -0.1538 -0.7261
  595TMC3    C4 8818   3.733   4.646  14.328 -0.0098  0.0201  0.6783
  595TMC3    C5 8819   3.602   4.669  14.364  0.0335 -0.7013  0.1643
  595TMC3    C6 8820   3.491   4.605  14.307 -0.0292  0.1720  0.2187
  595TMC3     C 8821   3.868   4.475  14.227  0.0677  0.7205  0.2996
  595TMC3     O 8822   3.972   4.535  14.245 -0.2249 -0.2376  0.7362
  595TMC3     H 8823   3.651   4.418  14.082 -1.3115  1.2901 -0.7190
  595TMC3    H1 8824   3.821   4.688  14.375  0.6122 -1.2772  0.6716
  595TMC3    H2 8825   3.393   4.639  14.340 -0.2321 -1.1943  1.0392
  595TMC3    C7 8826   3.586   0.017  14.489 -0.5156 -0.1666  0.2550
  595TMC3    C8 8827   3.410   4.498  14.103 -0.0437 -0.2485 -0.0177
  595TMC3    O1 8828   3.471   0.051  14.507  0.1943  0.9261  0.4026
  595TMC3    O2 8829   3.452   4.521  13.987  0.5745  0.4687 -0.2819
  596MPD2     C 8830   2.383   2.358  16.848  0.3299 -0.0123  0.0379
  596MPD2    C1 8831   2.413   2.459  16.760 -0.2984 -0.2091 -0.0964
  596MPD2    C2 8832   2.466   2.433  16.641 -0.0929 -0.6819  0.3898
  596MPD2    C3 8833   2.481   2.307  16.589  0.0294  0.4616 -0.2377
  596MPD2    C4 8834   2.455   2.200  16.675 -0.2542  0.7471  0.0746
  596MPD2    C5 8835   2.405   2.228  16.801 -0.9877 -0.1764  0.8470
  596MPD2     H 8836   2.493   2.518  16.579 -0.7131  0.8088  2.1336
  596MPD2    H1 8837   2.463   2.096  16.644 -0.9394  0.5177  0.6690
  596MPD2    H2 8838   2.330   2.368  16.942  0.4924  2.2879 -0.1190
  596MPD2    H3 8839   2.381   2.140  16.859  0.5611 -0.6335  0.8092
  596MPD2     N 8840   2.520   2.276  16.458 -0.2030  0.5615 -0.2154
  596MPD2    H5 8841   2.518   2.178  16.435  0.2542  0.7959 -1.2809
  596MPD2    N1 8842   2.396   2.595  16.796  0.4050 -0.7071 -0.3677
  596MPD2    H7 8843   2.458   2.662  16.751 -1.5539 -1.0147 -3.4977
  597TMC3    C1 8844   2.302   2.776  16.932 -0.2416 -0.3879  0.0613
  597TMC3    C2 8845   2.417   2.845  16.895  0.6442 -0.8474  0.1453
  597TMC3    C3 8846   2.458   2.957  16.971  0.4230  0.4654  0.3168
  597TMC3    C4 8847   2.234   2.810  17.039 -0.1360  0.2331 -0.7849
  597TMC3    C5 8848   2.277   2.923  17.108 -0.2282 -0.6789 -0.4508
  597TMC3    C6 8849   2.386   2.998  17.075 -0.5955 -0.3333 -0.1651
  597TMC3     C 8850   2.303   2.636  16.892  0.2734  0.1776  0.2473
  597TMC3     O 8851   2.223   2.568  16.953 -0.0811 -0.1937 -0.0634
  597TMC3     H 8852   2.474   2.823  16.805 -0.5548 -0.2326 -0.7473
  597TMC3    H1 8853   2.178   2.729  17.083  2.7872 -1.1533  0.3772
  597TMC3    H2 8854   2.417   3.074  17.146 -3.4581 -0.2877  1.0087
  597TMC3    C7 8855   2.199   2.954  17.231  0.1667 -0.0672 -0.8522
  597TMC3    C8 8856   2.585   3.017  16.937  0.2332 -0.1334  0.4743
  597TMC3    O1 8857   2.133   2.863  17.281  0.4481 -0.8588  0.1489
  597TMC3    O2 8858   2.662   2.952  16.867 -0.8491 -0.2462  0.3964
  598TMC3    C1 8859   0.730   3.635  15.314 -0.1240 -0.0929  0.0532
  598TMC3    C2 8860   0.657   3.520  15.310 -0.0024 -0.2098 -0.4579
  598TMC3    C3 8861   0.635   3.477  15.181 -0.4619 -0.6683 -0.0815
  598TMC3    C4 8862   0.788   3.700  15.212 -0.5260 -0.2565  0.1785
  598TMC3    C5 8863   0.747   3.655  15.087  0.1709 -0.5136 -0.2064
  598TMC3    C6 8864   0.661   3.552  15.069  0.6977  0.5956  0.6367
  598TMC3     C 8865   0.740   3.710  15.438  0.3780 -0.8056  0.9037
  598TMC3     O 8866   0.775   3.826  15.428 -0.0521 -0.2490  0.7040
  598TMC3     H 8867   0.609   3.463  15.389  0.9053  1.1150  1.0485
  598TMC3    H1 8868   0.866   3.775  15.226  0.2771 -0.7556 -1.6295
  598TMC3    H2 8869   0.636   3.518  14.969  1.0253 -0.0891  0.7810
  598TMC3    C7 8870   0.798   3.726  14.962 -0.6669  0.3935  0.5975
  598TMC3    C8 8871   0.596   3.334  15.176 -0.1205  1.3663 -0.2028
  598TMC3    O1 8872   0.809   3.654  14.863  0.0200 -0.2592  0.4919
  598TMC3    O2 8873   0.532   3.285  15.273  0.3917  0.2823 -0.1389
  599MPD2     C 8874   0.765   1.322  16.406 -0.4397  0.2442 -0.1490
  599MPD2    C1 8875   0.683   1.215  16.386 -0.2298 -0.1715 -0.3230
  599MPD2    C2 8876   0.554   1.214  16.415  0.0437 -0.1229  0.3311
  599MPD2    C3 8877   0.501   1.332  16.469 -0.3449  0.4875  0.1081
  599MPD2    C4 8878   0.577   1.449  16.474 -0.7833  0.4035 -1.7287
  599MPD2    C5 8879   0.709   1.445  16.445  0.4513 -0.0831  0.1390
  599MPD2     H 8880   0.495   1.123  16.411  1.0141 -0.7900  1.1207
  599MPD2    H1 8881   0.541   1.548  16.502 -0.1126 -0.1551  1.1032
  599MPD2    H2 8882   0.867   1.325  16.369 -0.4998  0.0598 -0.3292
  599MPD2    H3 8883   0.774   1.532  16.449  0.9127 -0.4638  0.8038
  599MPD2     N 8884   0.365   1.346  16.517  1.0952  0.6127 -0.2018
  599MPD2    H5 8885   0.325   1.437  16.535  0.1333  0.0328  0.5764
  599MPD2    N1 8886   0.748   1.101  16.336 -0.4383  0.0236  0.5181
  599MPD2    H7 8887   0.849   1.095  16.336 -0.4083  0.6196  2.0423
  600TMC3    C1 8888   0.161   1.309  16.618  0.7760 -0.4924  0.0864
  600TMC3    C2 8889   0.050   1.236  16.637  1.0249 -0.5920 -0.9205
  600TMC3    C3 8890   4.673   1.291  16.716 -0.7296  0.0853  0.3133
  600TMC3    C4 8891   0.169   1.427  16.683 -0.0461  0.1376 -0.3149
  600TMC3    C5 8892   0.076   1.475  16.776 -0.0128 -0.4086  0.1256
  600TMC3    C6 8893   4.689   1.400  16.789  0.5693 -0.9349  0.1049
  600TMC3     C 8894   0.275   1.253  16.543 -0.6761  0.0264  0.0007
  600TMC3     O 8895   0.284   1.132  16.524  0.2115 -0.4341  0.1618
  600TMC3     H 8896   0.050   1.148  16.575 -0.6668  0.7201 -2.7755
  600TMC3    H1 8897   0.268   1.472  16.684  0.2647 -0.5827  0.9379
  600TMC3    H2 8898   4.618   1.448  16.856  0.9478  0.5530 -0.5418
  600TMC3    C7 8899   0.083   1.612  16.826 -0.1545 -0.5513 -0.8306
  600TMC3    C8 8900   4.578   1.198  16.767  0.4478  0.2743  0.0997
  600TMC3    O1 8901   0.030   1.647  16.928 -0.4423 -1.2822  0.5943
  600TMC3    O2 8902   4.549   1.209  16.888 -0.0941  0.1687 -0.1501
  601MPD2     C 8903   2.101   4.031   0.456 -0.3320  0.4656  0.4347
  601MPD2    C1 8904   2.128   4.014   0.314  0.5608 -0.6378 -0.5987
  601MPD2    C2 8905   2.147   3.886   0.264 -0.2383  0.5866  0.0817
  601MPD2    C3 8906   2.144   3.775   0.351 -0.4205  0.0707 -0.2845
  601MPD2    C4 8907   2.130   3.795   0.485 -0.0347  0.3531  0.3792
  601MPD2    C5 8908   2.096   3.917   0.536  0.6657 -0.1801 -0.5778
  601MPD2     H 8909   2.153   3.882   0.156  0.3203 -2.5866  0.2154
  601MPD2    H1 8910   2.137   3.716   0.558 -2.7144 -0.0279  0.2056
  601MPD2    H2 8911   2.088   4.126   0.506  0.4885 -0.1148  1.7606
  601MPD2    H3 8912   2.083   3.943   0.641 -1.0771 -0.5823 -0.7024
  601MPD2     N 8913   2.139   3.641   0.310 -0.2930  0.3066 -0.0246
  601MPD2    H5 8914   2.111   3.580   0.386 -2.2582  0.2254 -0.8086
  601MPD2    N1 8915   2.115   4.117   0.219  0.1150 -0.3227 -0.1683
  601MPD2    H7 8916   2.146   4.094   0.126 -0.2912 -0.6211 -0.2308
  602TMC3    C1 8917   2.076   4.322   0.123 -0.3713  0.5475  0.1187
  602TMC3    C2 8918   2.158   4.431   0.107  0.3320  0.6297  0.5449
  602TMC3    C3 8919   2.131   4.514   0.002 -0.1758  0.2004  0.4770
  602TMC3    C4 8920   1.997   4.277   0.025 -0.2265 -0.1038  0.1766
  602TMC3    C5 8921   1.985   4.349  17.612 -0.0176  0.3890  0.3441
  602TMC3    C6 8922   2.051   4.473  17.598 -0.1269  0.2628  0.3963
  602TMC3     C 8923   2.091   4.248   0.243 -1.2200 -0.6056  0.2646
  602TMC3     O 8924   2.107   4.306   0.352  0.0572 -0.6577 -0.4466
  602TMC3     H 8925   2.233   4.451   0.182  1.2021 -1.8287  0.3318
  602TMC3    H1 8926   1.938   4.186   0.024  0.7501 -0.7649  2.3398
  602TMC3    H2 8927   2.059   4.528  17.505  3.5552  0.2434  0.7165
  602TMC3    C7 8928   1.899   4.313  17.496  0.2473  0.0402 -0.1464
  602TMC3    C8 8929   2.200   4.636  17.697  0.0424  0.0838 -0.2986
  602TMC3    O1 8930   1.829   4.217  17.509  0.3327  0.4363 -0.0935
  602TMC3    O2 8931   2.298   4.660   0.068 -0.6476  0.3078  0.4808
  603TMC3    C1 8932   0.915   4.541  11.152  0.0649 -0.0303  0.1290
  603TMC3    C2 8933   0.937   4.550  11.284  0.4487 -0.7414  0.1921
  603TMC3    C3 8934   0.890   4.663  11.352 -0.4060 -0.8163  1.2551
  603TMC3    C4 8935   0.827   4.632  11.084 -0.9507  0.0886  0.0346
  603TMC3    C5 8936   0.784   0.015  11.151 -0.0899 -0.8002 -0.1738
  603TMC3    C6 8937   0.814   0.033  11.286 -0.0292 -0.5147 -0.1164
  603TMC3     C 8938   0.979   4.427  11.081 -0.3175  0.7461  1.0803
  603TMC3     O 8939   0.991   4.330  11.150 -0.2090  0.1767 -0.3343
  603TMC3     H 8940   0.999   4.475  11.332 -0.4002 -0.3884  1.8210
  603TMC3    H1 8941   0.798   4.616  10.980 -1.5680 -1.3619  0.4356
  603TMC3    H2 8942   0.754   0.094  11.351  0.1993 -1.8461  1.3469
  603TMC3    C7 8943   0.739   0.133  11.078 -0.4313  0.1802 -0.4365
  603TMC3    C8 8944   0.907   4.660  11.490  0.5479  0.4848 -0.4382
  603TMC3    O1 8945   0.750   0.240  11.140 -0.6105  0.5513 -0.0186
  603TMC3    O2 8946   0.926   4.550  11.541 -0.4571  0.4615  0.9895
  604MPD2     C 8947   1.585   3.725  16.551 -0.0564 -0.7268 -0.2612
  604MPD2    C1 8948   1.481   3.674  16.481 -0.3712 -0.0607  0.9941
  604MPD2    C2 8949   1.498   3.610  16.360 -0.1570 -0.6341 -0.0499
  604MPD2    C3 8950   1.629   3.594  16.311 -0.3168  0.6707  0.2225
  604MPD2    C4 8951   1.739   3.647  16.380 -0.1826  0.0458 -0.4651
  604MPD2    C5 8952   1.716   3.710  16.501 -0.0224 -0.4829  0.0130
  604MPD2     H 8953   1.405   3.575  16.317 -0.7046  1.1811 -0.3254
  604MPD2    H1 8954   1.839   3.635  16.339 -0.1291 -1.9470  0.2509
  604MPD2    H2 8955   1.571   3.790  16.636  3.0356 -1.6100  0.9079
  604MPD2    H3 8956   1.795   3.768  16.547  0.7710 -2.8018  1.5781
  604MPD2     N 8957   1.642   3.521  16.196  0.1461  0.1479  0.2014
  604MPD2    H5 8958   1.554   3.479  16.168 -0.6424  0.9916  1.3906
  604MPD2    N1 8959   1.354   3.684  16.541  0.0417  0.0571 -0.6010
  604MPD2    H7 8960   1.358   3.740  16.626 -2.2658 -0.8473  0.1151
  605TMC3    C1 8961   1.119   3.667  16.580 -0.7663 -0.8424  0.1463
  605TMC3    C2 8962   1.156   3.725  16.696 -0.1903  0.3192 -0.2431
  605TMC3    C3 8963   1.113   3.852  16.721  0.0067 -0.6473  0.1131
  605TMC3    C4 8964   1.012   3.715  16.507 -0.3374 -0.0595 -0.2596
  605TMC3    C5 8965   0.953   3.829  16.553 -0.8395 -0.7078  0.2111
  605TMC3    C6 8966   1.000   3.902  16.659 -0.1164 -0.6226 -1.1058
  605TMC3     C 8967   1.234   3.627  16.504  0.5091  0.2696 -0.1931
  605TMC3     O 8968   1.210   3.556  16.406 -0.4101  0.5286 -0.0905
  605TMC3     H 8969   1.238   3.683  16.753 -0.1531  2.8640  1.5936
  605TMC3    H1 8970   1.003   3.692  16.401  4.2556 -3.2638  0.0354
  605TMC3    H2 8971   0.953   3.999  16.674 -0.4230 -0.8446 -0.6244
  605TMC3    C7 8972   0.851   3.889  16.467  0.4140 -0.9165  0.5694
  605TMC3    C8 8973   1.226   3.939  16.724 -0.2971 -1.1353 -0.0361
  605TMC3    O1 8974   0.843   4.011  16.465  0.4139 -0.2140  0.4992
  605TMC3    O2 8975   1.334   3.893  16.728 -0.0026 -0.4777 -0.1390
  606TMC3    C1 8976   2.917   1.482  17.056  0.5820  0.3624 -0.1579
  606TMC3    C2 8977   3.044   1.511  17.090 -0.3043 -0.3244  0.1871
  606TMC3    C3 8978   3.114   1.415  17.155  0.1034  0.6207  0.0285
  606TMC3    C4 8979   2.847   1.377  17.105  0.0954  0.7431  0.0171
  606TMC3    C5 8980   2.917   1.296  17.194 -0.4149  0.8836 -0.2610
  606TMC3    C6 8981   3.051   1.311  17.213  0.3664 -0.5529 -0.0634
  606TMC3     C 8982   2.843   1.585  16.985 -0.5403  0.3975 -0.2565
  606TMC3     O 8983   2.761   1.542  16.906 -0.5054  0.1279  0.5608
  606TMC3     H 8984   3.094   1.606  17.077 -0.1349 -0.5168 -0.5710
  606TMC3    H1 8985   2.739   1.384  17.104  0.0987  1.2227  1.7905
  606TMC3    H2 8986   3.105   1.256  17.289  2.2469  0.3976 -0.7076
  606TMC3    C7 8987   2.838   1.232  17.306  0.0220  0.5343  1.0562
  606TMC3    C8 8988   3.240   1.456  17.214 -0.0096  0.9317 -0.5444
  606TMC3    O1 8989   2.895   1.151  17.377  0.1572 -0.1932 -0.2917
  606TMC3    O2 8990   3.260   1.575  17.218  0.2309  0.2697 -0.1710
  607MPD2     C 8991   0.309   4.591  11.889 -0.1517 -0.0216  0.1608
  607MPD2    C1 8992   0.340   4.680  11.993  0.2373 -0.0757  0.8253
  607MPD2    C2 8993   0.307   4.642  12.122  0.0976 -0.0231  0.3697
  607MPD2    C3 8994   0.237   4.528  12.162  0.0306 -0.4757  0.2781
  607MPD2    C4 8995   0.196   4.451  12.055  0.0131  0.4558  0.0251
  607MPD2    C5 8996   0.233   4.483  11.924  0.5700  0.3605 -0.1418
  607MPD2     H 8997   0.335   4.707  12.204 -1.7242  0.1715  0.8503
  607MPD2    H1 8998   0.134   4.364  12.074 -1.6132  1.4078 -0.8267
  607MPD2    H2 8999   0.346   4.597  11.787 -2.3207 -0.0093 -0.6209
  607MPD2    H3 9000   0.208   4.405  11.853 -1.2088 -0.6215  1.5700
  607MPD2     N 9001   0.209   4.513  12.295  0.9950 -0.0215  0.1445
  607MPD2    H5 9002   0.263   4.571  12.359  0.2799  0.3426  0.4184
  607MPD2    N1 9003   0.395   0.082  11.976 -0.2503 -0.3014  0.6231
  607MPD2    H7 9004   0.404   0.142  12.057  0.7132 -0.5406  0.6994
  608TMC3    C1 9005   0.456   0.284  11.877  0.0189  0.1707  0.5685
  608TMC3    C2 9006   0.418   0.342  11.998  0.3392 -0.5589  0.1872
  608TMC3    C3 9007   0.469   0.464  12.031 -0.1313 -0.0867  0.4310
  608TMC3    C4 9008   0.533   0.359  11.787 -0.1874  0.4475 -0.6259
  608TMC3    C5 9009   0.582   0.480  11.825  0.2932 -0.5056  0.4241
  608TMC3    C6 9010   0.551   0.535  11.946 -0.0460 -0.2317  0.1333
  608TMC3     C 9011   0.456   0.136  11.860 -0.3188 -0.4542  0.2415
  608TMC3     O 9012   0.479   0.086  11.753  0.0343  0.2441 -0.1655
  608TMC3     H 9013   0.342   0.294  12.059 -0.1779  1.2414  0.9461
  608TMC3    H1 9014   0.579   0.312  11.700 -0.5479  0.1573 -0.6629
  608TMC3    H2 9015   0.598   0.624  11.985  1.0565 -0.6260 -0.3093
  608TMC3    C7 9016   0.689   0.537  11.744  0.7099 -0.0992 -0.7705
  608TMC3    C8 9017   0.444   0.510  12.165 -0.3642 -0.9566 -0.7242
  608TMC3    O1 9018   0.696   0.502  11.627  0.3498 -0.9073  0.1366
  608TMC3    O2 9019   0.412   0.630  12.173  0.2387 -0.0999  0.0033
  609TMC3    C1 9020   3.991   3.966   9.014  0.4271 -0.2037  0.0343
  609TMC3    C2 9021   3.902   3.872   8.961 -0.0265  0.5584 -0.3690
  609TMC3    C3 9022   3.938   3.749   8.960 -0.3218 -0.0844  0.6276
  609TMC3    C4 9023   4.113   3.935   9.058  0.0724  0.2164  0.7712
  609TMC3    C5 9024   4.144   3.802   9.052 -0.0114  0.6664  0.0216
  609TMC3    C6 9025   4.057   3.707   9.015  0.4744 -0.2330  0.7061
  609TMC3     C 9026   3.940   4.096   9.042 -0.3423  0.6185  0.6736
  609TMC3     O 9027   3.817   4.101   9.032  0.1114  0.2050  0.1984
  609TMC3     H 9028   3.805   3.907   8.927 -0.5902 -1.1518 -0.4784
  609TMC3    H1 9029   4.191   4.006   9.083 -2.2706  2.6848  1.0831
  609TMC3    H2 9030   4.078   3.601   9.008  0.8339 -0.1836  1.0046
  609TMC3    C7 9031   4.258   3.766   9.141 -0.1004  0.1298 -0.1468
  609TMC3    C8 9032   3.858   3.642   8.908 -0.1636 -0.0548 -0.3003
  609TMC3    O1 9033   4.289   3.849   9.227 -0.0900 -0.2186 -0.4519
  609TMC3    O2 9034   3.903   3.530   8.925  0.2248  0.1309  0.5223
  610TMC3    C1 9035   0.532   4.655  12.978  0.0614 -0.5143 -0.3759
  610TMC3    C2 9036   0.547   0.018  12.874  0.0218  0.9417 -0.5681
  610TMC3    C3 9037   0.662   0.016  12.803  0.6494  0.2469 -0.2395
  610TMC3    C4 9038   0.623   4.559  13.007 -0.6915 -0.2330  0.2730
  610TMC3    C5 9039   0.729   4.544  12.926 -0.6913  0.4874  0.0404
  610TMC3    C6 9040   0.756   4.643  12.828 -0.0245 -0.2788 -0.2905
  610TMC3     C 9041   0.444   4.696  13.080 -0.6144 -0.0243  0.0422
  610TMC3     O 9042   0.340   0.032  13.051  0.0061 -0.0148 -0.0293
  610TMC3     H 9043   0.467   0.084  12.843 -0.7849  0.2068 -0.0529
  610TMC3    H1 9044   0.597   4.487  13.084  1.3112 -0.1782  0.9907
  610TMC3    H2 9045   0.837   4.625  12.759  0.7999  1.9144  0.0964
  610TMC3    C7 9046   0.821   4.426  12.950  0.0450  1.0518 -0.8622
  610TMC3    C8 9047   0.650   0.072  12.667 -0.7528 -0.6682 -0.2699
  610TMC3    O1 9048   0.772   4.325  12.993 -0.1308 -0.3967  0.7502
  610TMC3    O2 9049   0.630   0.190  12.659 -0.3775  0.0673 -0.0630
  611MPD2     C 9050   4.338   0.084  10.532 -0.9984 -0.1352 -0.2431
  611MPD2    C1 9051   4.372   4.722  10.437 -0.0841  0.0039 -0.3431
  611MPD2    C2 9052   4.507   4.710  10.393 -0.5766  0.1684 -0.4659
  611MPD2    C3 9053   4.598   0.070  10.451  0.5638 -0.4391 -0.0882
  611MPD2    C4 9054   4.560   0.161  10.555 -0.2481  0.4362  0.3280
  611MPD2    C5 9055   4.430   0.170  10.592  0.1178 -0.4760 -0.1169
  611MPD2     H 9056   4.536   4.642  10.314  1.2370 -1.2195  1.4171
  611MPD2    H1 9057   4.626   0.235  10.599 -0.8951  1.5797 -0.6472
  611MPD2    H2 9058   4.234   0.086  10.562 -0.4125 -1.8775  1.8678
  611MPD2    H3 9059   4.402   0.244  10.667 -0.8969 -1.4121  0.4237
  611MPD2     N 9060   0.009   0.079  10.407  0.6212  0.4568 -0.3678
  611MPD2    H5 9061   0.072   0.141  10.457  0.3493  1.5055 -1.3160
  611MPD2    N1 9062   4.266   4.651  10.389 -0.0924  0.0036 -0.3885
  611MPD2    H7 9063   4.170   4.680  10.405  0.3168  0.6170  0.9156
  612TMC3    C1 9064   0.220   0.062  10.272  0.7109  0.5714  0.2023
  612TMC3    C2 9065   0.285   0.134  10.369 -0.4855  0.4171 -0.2976
  612TMC3    C3 9066   0.387   0.211  10.328  0.6058  0.4560 -0.2784
  612TMC3    C4 9067   0.259   0.058  10.138  0.2861 -0.1701 -0.2134
  612TMC3    C5 9068   0.373   0.128  10.113  0.0953  0.0160  0.0776
  612TMC3    C6 9069   0.431   0.225  10.198 -0.0485  0.6414 -0.0385
  612TMC3     C 9070   0.074   0.020  10.296  0.7753 -0.2724  0.2230
  612TMC3     O 9071   0.015   4.683  10.212  0.2428 -0.4670  0.8725
  612TMC3     H 9072   0.243   0.150  10.468 -0.7456  1.7795 -0.6272
  612TMC3    H1 9073   0.208   4.715  10.072 -1.7102  0.2003  0.9403
  612TMC3    H2 9074   0.515   0.290  10.173 -0.2011  0.6302 -0.5685
  612TMC3    C7 9075   0.437   0.118   9.984 -0.1767  0.0970  0.7560
  612TMC3    C8 9076   0.454   0.295  10.422  0.3894 -0.7353 -0.3197
  612TMC3    O1 9077   0.505   0.214   9.952 -0.4019  0.5408 -0.1784
  612TMC3    O2 9078   0.507   0.400  10.383  0.5819  0.1687 -0.3009
  613MPD2     C 9079   3.722   2.035  17.166  0.3530  0.3929 -0.1328
  613MPD2    C1 9080   3.708   2.104  17.046  0.2895 -0.7132  0.1221
  613MPD2    C2 9081   3.623   2.055  16.950 -0.7002 -1.1007 -0.4984
  613MPD2    C3 9082   3.580   1.917  16.947 -0.5843 -0.3784 -0.1604
  613MPD2    C4 9083   3.606   1.848  17.068 -0.7228 -0.0152 -0.0198
  613MPD2    C5 9084   3.664   1.906  17.177 -0.5036 -1.0974 -0.1056
  613MPD2     H 9085   3.586   2.116  16.868  0.8310  0.0427 -0.3231
  613MPD2    H1 9086   3.568   1.747  17.080 -2.2197  0.9476  3.0393
  613MPD2    H2 9087   3.777   2.070  17.253  1.1703 -2.9935  0.7006
  613MPD2    H3 9088   3.682   1.846  17.266  1.2686 -1.9727 -1.0602
  613MPD2     N 9089   3.507   1.860  16.839 -0.2524  0.4222  0.4589
  613MPD2    H5 9090   3.456   1.775  16.857  0.6869 -0.6037 -1.7546
  613MPD2    N1 9091   3.776   2.228  17.035 -0.6875  0.6062  0.3132
  613MPD2    H7 9092   3.805   2.260  17.127 -0.3101  1.1776 -0.0029
  614TMC3    C1 9093   3.765   2.276  16.789 -1.0674 -0.0223 -0.3688
  614TMC3    C2 9094   3.820   2.160  16.744  0.8040 -0.2647 -0.3960
  614TMC3    C3 9095   3.829   2.138  16.613 -0.4004  0.0150 -0.2713
  614TMC3    C4 9096   3.726   2.370  16.702 -0.3308 -0.2212 -0.5381
  614TMC3    C5 9097   3.725   2.339  16.571  0.4738  0.3805  0.6389
  614TMC3    C6 9098   3.778   2.225  16.524  0.1034 -0.0764 -1.1500
  614TMC3     C 9099   3.786   2.316  16.928 -0.1730 -0.1657  0.0088
  614TMC3     O 9100   3.821   2.432  16.951  0.5922 -0.1194 -0.4897
  614TMC3     H 9101   3.850   2.086  16.818  0.2208  1.2646  1.3520
  614TMC3    H1 9102   3.672   2.454  16.743 -1.4402 -0.1713 -2.0646
  614TMC3    H2 9103   3.765   2.190  16.423 -1.4907  2.7646 -1.9074
  614TMC3    C7 9104   3.674   2.445  16.490 -0.3424 -0.2150  0.1691
  614TMC3    C8 9105   3.858   2.004  16.570 -0.1418  0.2015 -0.4680
  614TMC3    O1 9106   3.645   2.548  16.556 -0.0423 -0.1905  0.4648
  614TMC3    O2 9107   3.880   1.920  16.659  0.8256  0.0653  0.1748
  615MPD2     C 9108   2.658   3.450  15.848 -0.4277 -0.1567  0.3932
  615MPD2    C1 9109   2.700   3.560  15.773  0.0389  0.1499  0.8939
  615MPD2    C2 9110   2.676   3.559  15.637 -0.6980 -0.1491 -0.2340
  615MPD2    C3 9111   2.603   3.453  15.581  0.3623  0.1653  0.2187
  615MPD2    C4 9112   2.557   3.349  15.656 -0.0729  0.2175  0.9231
  615MPD2    C5 9113   2.581   3.351  15.790  0.1855 -0.6045  0.1892
  615MPD2     H 9114   2.723   3.644  15.588 -3.6705  2.9097  2.2111
  615MPD2    H1 9115   2.514   3.260  15.611 -0.0051  0.5952  0.1105
  615MPD2    H2 9116   2.666   3.454  15.956 -0.4708  0.8563  0.3661
  615MPD2    H3 9117   2.547   3.277  15.861 -1.1396  0.8682  1.0661
  615MPD2     N 9118   2.579   3.437  15.445  0.3154 -0.1440 -0.0535
  615MPD2    H5 9119   2.518   3.362  15.414  1.0239 -1.0913  0.8398
  615MPD2    N1 9120   2.768   3.672  15.825 -0.6388  0.0124  0.1240
  615MPD2    H7 9121   2.779   3.757  15.770  0.3489 -1.0693 -1.3387
  616TMC3    C1 9122   2.881   3.810  15.992 -0.8985 -0.3727 -0.3256
  616TMC3    C2 9123   2.991   3.805  16.079 -0.4456 -0.2251 -0.5154
  616TMC3    C3 9124   3.079   3.911  16.080 -0.2932 -0.8601 -0.3160
  616TMC3    C4 9125   2.865   3.904  15.903 -0.1128  0.4311 -0.6539
  616TMC3    C5 9126   2.955   4.004  15.905  0.4465  0.0948 -0.3180
  616TMC3    C6 9127   3.063   4.009  15.992  0.3392  0.7706  0.2518
  616TMC3     C 9128   2.826   3.677  15.953  0.4030  0.5269  0.3653
  616TMC3     O 9129   2.858   3.588  16.030 -0.2377 -0.1255 -1.0353
  616TMC3     H 9130   3.018   3.721  16.141 -2.7493  0.0167  0.8388
  616TMC3    H1 9131   2.782   3.904  15.833  0.1694 -0.4757 -0.9826
  616TMC3    H2 9132   3.134   4.089  15.978  0.4820  0.6771  0.4349
  616TMC3    C7 9133   2.918   4.132  15.845 -0.7747  0.6122 -0.1391
  616TMC3    C8 9134   3.220   3.902  16.120  0.2315  0.2958 -0.3705
  616TMC3    O1 9135   2.874   4.132  15.730  0.6502  0.2807  0.1614
  616TMC3    O2 9136   3.298   3.997  16.103  0.0659 -0.6322 -0.8331
  617MPD2     C 9137   1.169   1.900  13.971  0.4498 -0.2704  0.6710
  617MPD2    C1 9138   1.255   1.812  14.038  0.1022 -0.8115  0.2460
  617MPD2    C2 9139   1.193   1.727  14.125  0.3348 -0.3128  0.6039
  617MPD2    C3 9140   1.054   1.743  14.154  1.1936 -0.1987 -0.4452
  617MPD2    C4 9141   0.974   1.825  14.075  0.5422 -0.1198 -0.3384
  617MPD2    C5 9142   1.033   1.909  13.986  0.1929  0.0757 -0.1782
  617MPD2     H 9143   1.251   1.655  14.182  0.4052 -1.8939 -1.4472
  617MPD2    H1 9144   0.866   1.832  14.082  0.5340 -0.1132 -0.4649
  617MPD2    H2 9145   1.213   1.969  13.899  1.7675  0.4242  2.1337
  617MPD2    H3 9146   0.974   1.994  13.956  0.6463  1.3408  2.4962
  617MPD2     N 9147   0.980   1.663  14.242  0.2034  0.6114  0.0903
  617MPD2    H5 9148   0.881   1.683  14.233 -0.5758 -3.2713 -0.1275
  617MPD2    N1 9149   1.386   1.813  14.000  0.1717  0.8612  0.1722
  617MPD2    H7 9150   1.417   1.882  13.934  2.5988  0.2229  0.6266
  618TMC3    C1 9151   1.616   1.777  13.998 -0.6471  0.0098 -0.6263
  618TMC3    C2 9152   1.722   1.736  14.069 -0.0071 -0.0237 -0.2640
  618TMC3    C3 9153   1.838   1.731  14.004 -0.2991  0.0985 -0.2076
  618TMC3    C4 9154   1.623   1.810  13.869  0.1336  0.8590 -0.7352
  618TMC3    C5 9155   1.741   1.804  13.804 -0.2624 -0.2344 -0.1644
  618TMC3    C6 9156   1.853   1.768  13.872  0.2359 -0.2751  0.1509
  618TMC3     C 9157   1.488   1.748  14.060 -0.3090 -0.0028 -0.2511
  618TMC3     O 9158   1.486   1.680  14.158 -0.1940 -0.1318 -0.0548
  618TMC3     H 9159   1.718   1.687  14.166  1.6618 -0.2213 -0.2867
  618TMC3    H1 9160   1.530   1.821  13.815 -0.4823  0.9465  0.3269
  618TMC3    H2 9161   1.956   1.769  13.837  1.0410 -3.3153  2.4621
  618TMC3    C7 9162   1.736   1.802  13.663  0.0847  0.2883  0.8821
  618TMC3    C8 9163   1.956   1.685  14.072  0.5134 -1.0001  0.1026
  618TMC3    O1 9164   1.626   1.808  13.615 -0.2322  0.4322  0.6241
  618TMC3    O2 9165   1.964   1.725  14.185  0.9838 -0.1826 -0.2695
  619MPD2     C 9166   2.836   3.271  13.801  0.1804  0.6732 -0.0741
  619MPD2    C1 9167   2.796   3.302  13.667 -0.3407 -0.7114 -0.3429
  619MPD2    C2 9168   2.699   3.232  13.604  0.2616  0.2704  0.3872
  619MPD2    C3 9169   2.619   3.144  13.672 -0.0904 -0.2054 -0.3288
  619MPD2    C4 9170   2.653   3.127  13.811 -0.0057  0.3044  0.0800
  619MPD2    C5 9171   2.769   3.176  13.870 -0.1679  0.1501 -0.2449
  619MPD2     H 9172   2.674   3.267  13.504  0.4536 -0.7160 -0.0006
  619MPD2    H1 9173   2.602   3.059  13.878 -1.6514  2.1367  0.6797
  619MPD2    H2 9174   2.924   3.319  13.843  0.0720  0.1159  0.7803
  619MPD2    H3 9175   2.795   3.149  13.972  0.6739 -0.1952 -0.5575
  619MPD2     N 9176   2.498   3.086  13.618  0.6458  0.2765 -0.2276
  619MPD2    H5 9177   2.440   3.036  13.685  0.7378 -1.7897 -1.6839
  619MPD2    N1 9178   2.863   3.402  13.591  0.1903 -0.6330 -0.8915
  619MPD2    H7 9179   2.827   3.424  13.500  2.3827 -0.4735 -1.7225
  620TMC3    C1 9180   2.983   3.586  13.533  0.2325  0.5638 -0.4376
  620TMC3    C2 9181   2.937   3.570  13.405  0.8243  0.5075 -0.0427
  620TMC3    C3 9182   2.906   3.678  13.330 -0.0828  0.6279 -0.1776
  620TMC3    C4 9183   2.992   3.709  13.587  0.1090 -0.6124  0.7829
  620TMC3    C5 9184   2.960   3.822  13.516  0.3601 -0.3036 -0.1283
  620TMC3    C6 9185   2.908   3.798  13.394  0.2885  0.6025  0.0427
  620TMC3     C 9186   2.959   3.487  13.636  0.5279  0.1430  0.2571
  620TMC3     O 9187   2.998   3.505  13.749  0.2004  0.6816 -0.1219
  620TMC3     H 9188   2.937   3.469  13.366  1.5199  0.7345 -0.6195
  620TMC3    H1 9189   3.021   3.724  13.690  0.2770 -1.9397  0.9253
  620TMC3    H2 9190   2.882   3.877  13.324 -2.2300 -0.3575 -0.1055
  620TMC3    C7 9191   2.892   3.924  13.599  0.0719  0.5917 -0.0188
  620TMC3    C8 9192   2.779   3.667  13.259 -0.5836 -0.3160  0.1200
  620TMC3    O1 9193   2.934   3.959  13.707 -0.1367 -0.0793 -0.4122
  620TMC3    O2 9194   2.699   3.753  13.288  0.1638  0.3962  0.5903
  621MPD2     C 9195   3.345   3.957   8.890  0.6825 -0.0282 -0.4505
  621MPD2    C1 9196   3.351   3.886   9.005  0.7591 -0.3465  0.0815
  621MPD2    C2 9197   3.399   3.940   9.121  0.4200  0.2949  0.6918
  621MPD2    C3 9198   3.442   4.070   9.127 -0.5817  0.6430 -0.4574
  621MPD2    C4 9199   3.434   4.148   9.014 -0.4966  0.3989 -0.0611
  621MPD2    C5 9200   3.383   4.090   8.900 -0.9040 -1.0487  0.4037
  621MPD2     H 9201   3.405   3.878   9.209  1.0468 -1.0518 -0.2989
  621MPD2    H1 9202   3.491   4.240   9.001  1.9603 -0.9167  1.3615
  621MPD2    H2 9203   3.310   3.919   8.795  1.7138  1.5977 -1.4903
  621MPD2    H3 9204   3.375   4.158   8.816  1.3537 -1.3547 -0.0575
  621MPD2     N 9205   3.516   4.113   9.240  0.5580 -0.0363 -0.4373
  621MPD2    H5 9206   3.545   4.044   9.308  0.2147  1.1366  0.9043
  621MPD2    N1 9207   3.305   3.750   9.012  0.4337  0.0649 -0.1226
  621MPD2    H7 9208   3.285   3.718   9.107  0.3334 -2.6379 -1.0408
  622TMC3    C1 9209   3.216   3.539   8.953 -0.5942 -0.4821 -0.4692
  622TMC3    C2 9210   3.266   3.486   9.064  0.4884  0.7986  0.1056
  622TMC3    C3 9211   3.191   3.392   9.127 -0.1504  0.0396 -0.0582
  622TMC3    C4 9212   3.088   3.507   8.913 -0.2018  0.2230  0.1651
  622TMC3    C5 9213   3.020   3.404   8.976 -0.3767 -0.6640  0.6175
  622TMC3    C6 9214   3.067   3.350   9.088  0.2590 -0.2281  0.1331
  622TMC3     C 9215   3.267   3.667   8.909  0.1864  0.7291 -0.5621
  622TMC3     O 9216   3.262   3.692   8.788  0.4757  0.0882 -0.1941
  622TMC3     H 9217   3.360   3.518   9.108  2.1530 -0.7812 -2.2713
  622TMC3    H1 9218   3.038   3.558   8.832  0.8622  0.9984  0.0027
  622TMC3    H2 9219   3.002   3.309   9.164 -0.0644 -2.1097 -1.1594
  622TMC3    C7 9220   2.874   3.415   8.959  0.7840 -1.1207 -0.0169
  622TMC3    C8 9221   3.224   3.359   9.261  0.5234 -0.4306  0.3034
  622TMC3    O1 9222   2.825   3.529   8.951 -0.1693 -0.0139 -0.0827
  622TMC3    O2 9223   3.205   3.244   9.291 -0.3725  0.0924 -0.2774
  623MPD2     C 9224   1.710   3.608  15.655  0.2070  0.0499  0.1353
  623MPD2    C1 9225   1.610   3.673  15.730 -0.6812 -0.5408  0.4187
  623MPD2    C2 9226   1.651   3.736  15.846 -0.4215 -0.3316 -0.0949
  623MPD2    C3 9227   1.778   3.736  15.900  0.6362  0.2869  0.0162
  623MPD2    C4 9228   1.879   3.680  15.818  0.1437  0.6809 -0.0575
  623MPD2    C5 9229   1.835   3.616  15.701 -0.3774 -0.8151 -0.5420
  623MPD2     H 9230   1.571   3.784  15.902  0.1420  0.1606  0.2895
  623MPD2    H1 9231   1.985   3.684  15.837 -0.2958 -0.1134  2.5415
  623MPD2    H2 9232   1.688   3.556  15.562  1.9322 -1.0832  0.3690
  623MPD2    H3 9233   1.908   3.573  15.633 -3.3930 -2.0122 -3.0213
  623MPD2     N 9234   1.796   3.803  16.021 -0.0361  0.1488  0.6022
  623MPD2    H5 9235   1.711   3.837  16.064 -0.4602  2.4837 -2.0367
  623MPD2    N1 9236   1.472   3.674  15.696 -0.1740  0.7540 -0.0121
  623MPD2    H7 9237   1.417   3.724  15.764  1.1275 -2.5528  3.4883
  624TMC3    C1 9238   2.000   4.051  16.357  0.9566  0.1287 -0.1456
  624TMC3    C2 9239   1.886   4.098  16.407  0.6519  0.7055 -0.2294
  624TMC3    C3 9240   1.769   4.060  16.339  0.4396 -0.3551  0.4588
  624TMC3    C4 9241   2.012   3.952  16.266  0.8549  0.0089  0.1542
  624TMC3    C5 9242   1.900   3.912  16.210 -0.2884 -0.2185 -0.1105
  624TMC3    C6 9243   1.775   3.971  16.239  0.0941 -0.3473  0.2176
  624TMC3     C 9244   2.122   4.119  16.393  0.3104  0.3222 -0.1587
  624TMC3     O 9245   2.137   4.158  16.504 -0.2178  0.2135 -0.1304
  624TMC3     H 9246   1.877   4.159  16.496 -0.6810 -2.0507  1.5205
  624TMC3    H1 9247   2.103   3.900  16.240 -0.1457 -1.6711  0.0058
  624TMC3    H2 9248   1.687   3.945  16.182  1.5935 -0.3042 -2.1378
  624TMC3    C7 9249   1.918   3.830  16.084  0.6471  0.7174 -0.7615
  624TMC3    C8 9250   1.636   4.059  16.406  0.1499  0.4166 -0.2062
  624TMC3    O1 9251   2.036   3.801  16.048 -0.7034 -0.5815 -0.1793
  624TMC3    O2 9252   1.570   3.963  16.371  0.2544 -0.1198  0.1432
  625MPD2     C 9253   1.946   4.651   0.665 -0.1402 -0.0038  0.7336
  625MPD2    C1 9254   2.046   0.020   0.670 -0.2308  0.1304  0.2819
  625MPD2    C2 9255   2.159   4.717   0.749  0.4151 -0.4400 -0.0212
  625MPD2    C3 9256   2.171   4.597   0.819  0.1154  0.1218 -0.8005
  625MPD2    C4 9257   2.064   4.512   0.828 -0.3751 -0.1226 -0.3695
  625MPD2    C5 9258   1.954   4.540   0.742 -0.2268 -0.3114 -0.0126
  625MPD2     H 9259   2.238   0.065   0.754  2.0117 -2.2409  1.0427
  625MPD2    H1 9260   2.074   4.421   0.887 -1.2728  0.6660  1.0093
  625MPD2    H2 9261   1.861   4.666   0.600 -1.7652 -1.6783  2.4965
  625MPD2    H3 9262   1.869   4.474   0.730 -0.3123 -0.0653 -0.8021
  625MPD2     N 9263   2.289   4.567   0.893 -0.3594 -0.1645 -0.1051
  625MPD2    H5 9264   2.350   4.648   0.897 -0.0865 -0.3804  0.0632
  625MPD2    N1 9265   2.037   0.148   0.612  0.3973 -0.0709  0.7921
  625MPD2    H7 9266   2.127   0.195   0.611  1.2105 -1.6286  0.2091
  626TMC3    C1 9267   1.942   0.346   0.544 -0.6492 -0.3886 -0.0966
  626TMC3    C2 9268   1.866   0.418   0.454 -0.5482  0.3068 -0.4176
  626TMC3    C3 9269   1.883   0.551   0.452  0.5009  0.1219 -0.1860
  626TMC3    C4 9270   2.026   0.407   0.628 -0.1453 -0.0971 -0.9865
  626TMC3    C5 9271   2.035   0.546   0.629  0.9897 -1.4164 -0.5951
  626TMC3    C6 9272   1.964   0.622   0.537 -0.0418  0.0951 -0.0998
  626TMC3     C 9273   1.923   0.205   0.559 -0.4409  0.4570 -1.0837
  626TMC3     O 9274   1.811   0.162   0.536 -0.5407  0.6007 -0.1284
  626TMC3     H 9275   1.805   0.369   0.378  0.5108 -0.9400 -0.4656
  626TMC3    H1 9276   2.081   0.359   0.708  0.0428 -0.6621 -1.4548
  626TMC3    H2 9277   2.004   0.719   0.511 -3.3196  1.4472 -0.0858
  626TMC3    C7 9278   2.143   0.599   0.709  0.2789 -0.5567 -0.2345
  626TMC3    C8 9279   1.818   0.634   0.354 -0.5724  0.2994  0.1500
  626TMC3    O1 9280   2.231   0.519   0.742  0.1913  0.4537 -0.0569
  626TMC3    O2 9281   1.823   0.593   0.238  0.2142  0.0645 -0.5682
  627MPD2     C 9282   1.219   0.312  14.293  0.5856  0.3226 -0.2192
  627MPD2    C1 9283   1.171   0.376  14.411  0.2885  1.0154 -0.1234
  627MPD2    C2 9284   1.065   0.310  14.467 -0.0306  0.2315  0.6070
  627MPD2    C3 9285   0.999   0.203  14.404  0.3526  0.1000 -0.0228
  627MPD2    C4 9286   1.050   0.140  14.293 -0.0874 -0.3352 -0.8861
  627MPD2    C5 9287   1.151   0.211  14.231 -0.5461  0.0289 -0.1524
  627MPD2     H 9288   1.029   0.339  14.565  1.9815  1.0896  1.0892
  627MPD2    H1 9289   1.007   0.057  14.238  0.4075  0.5881 -2.6647
  627MPD2    H2 9290   1.290   0.363  14.229  0.9512  1.4996  1.1398
  627MPD2    H3 9291   1.189   0.177  14.135 -0.7096  3.1249 -1.3347
  627MPD2     N 9292   0.882   0.161  14.459  0.0910  0.0438 -0.1620
  627MPD2    H5 9293   0.852   0.214  14.540 -0.6277  0.7054 -0.8482
  627MPD2    N1 9294   1.226   0.489  14.472 -0.2872  0.4832  0.2778
  627MPD2    H7 9295   1.175   0.533  14.548  0.4537  1.1159  0.4142
  628TMC3    C1 9296   1.398   0.643  14.534  0.0588 -0.3626  0.0926
  628TMC3    C2 9297   1.531   0.637  14.556 -0.4345 -0.3174 -0.1794
  628TMC3    C3 9298   1.584   0.665  14.679  0.1495  0.4859  0.0492
  628TMC3    C4 9299   1.326   0.693  14.637  0.2467 -0.0431 -0.6618
  628TMC3    C5 9300   1.382   0.727  14.759  0.2613  0.7719  0.0274
  628TMC3    C6 9301   1.514   0.707  14.790  0.2296  0.8626 -0.4371
  628TMC3     C 9302   1.347   0.540  14.442 -0.3266 -0.1719 -0.0844
  628TMC3     O 9303   1.431   0.489  14.371  0.3015  0.0918 -0.0414
  628TMC3     H 9304   1.595   0.592  14.481  0.4934 -0.7322  0.8534
  628TMC3    H1 9305   1.218   0.703  14.632  0.1869 -1.1838 -1.5661
  628TMC3    H2 9306   1.555   0.755  14.878 -0.2657  1.1035 -0.3366
  628TMC3    C7 9307   1.310   0.807  14.852 -0.3855  0.0327  0.1496
  628TMC3    C8 9308   1.705   0.596  14.712 -0.0679 -0.1119 -0.4149
  628TMC3    O1 9309   1.341   0.807  14.970  0.3823 -0.0728 -0.3993
  628TMC3    O2 9310   1.800   0.597  14.631  0.1895 -0.1418  0.6679
  629MPD2     C 9311   3.610   3.643  16.347  0.2975  0.0312 -0.3551
  629MPD2    C1 9312   3.600   3.773  16.295 -0.7596 -0.7102  0.3889
  629MPD2    C2 9313   3.482   3.820  16.233 -1.0388  0.3241 -0.6151
  629MPD2    C3 9314   3.369   3.739  16.230  0.8548  0.1433  0.8971
  629MPD2    C4 9315   3.388   3.607  16.279  0.2267  1.1120 -0.5246
  629MPD2    C5 9316   3.502   3.554  16.328  0.0678  0.5141 -0.7250
  629MPD2     H 9317   3.489   3.914  16.178  1.2742  1.8048  2.2299
  629MPD2    H1 9318   3.314   3.527  16.273  1.4066  0.2185 -2.9992
  629MPD2    H2 9319   3.707   3.613  16.386  0.0169 -1.0237 -0.4873
  629MPD2    H3 9320   3.493   3.462  16.385  0.1220  1.3286  0.6031
  629MPD2     N 9321   3.250   3.778  16.165  0.0511  0.1439 -0.1846
  629MPD2    H5 9322   3.179   3.706  16.164 -2.4691  2.6190  0.0861
  629MPD2    N1 9323   3.725   3.853  16.296 -0.4002 -0.5187 -0.3213
  629MPD2    H7 9324   3.811   3.812  16.330  0.9184  3.1279  0.7253
  630TMC3    C1 9325   3.891   4.013  16.252  1.1006 -0.2181 -1.2263
  630TMC3    C2 9326   3.953   4.103  16.162 -0.2527  0.2991 -0.2603
  630TMC3    C3 9327   4.089   4.096  16.173 -0.0135  0.1509 -0.5003
  630TMC3    C4 9328   3.948   3.953  16.362  0.4933 -0.7541 -0.1505
  630TMC3    C5 9329   4.080   3.986  16.375 -0.5262  0.2128  0.7474
  630TMC3    C6 9330   4.150   4.045  16.282 -0.6700 -0.2215 -0.5978
  630TMC3     C 9331   3.761   3.966  16.220  0.6625 -0.2731  0.7027
  630TMC3     O 9332   3.696   4.022  16.134 -0.3192 -0.4675 -0.1917
  630TMC3     H 9333   3.914   4.123  16.063 -1.1467 -0.2256 -0.0143
  630TMC3    H1 9334   3.891   3.925  16.450  1.0685 -0.5884  0.2765
  630TMC3    H2 9335   4.257   4.036  16.296 -0.9736 -0.4635  1.6915
  630TMC3    C7 9336   4.114   4.029  16.507 -0.5956  0.0074  0.8117
  630TMC3    C8 9337   4.149   4.228  16.166 -0.1695  0.2905  0.7184
  630TMC3    O1 9338   4.056   3.989  16.603 -0.2185  0.1762 -0.0184
  630TMC3    O2 9339   4.226   4.255  16.261 -0.4519 -0.0631 -0.1081
  631MPD2     C 9340   2.020   3.871  15.309 -0.1477 -0.5541 -0.2170
  631MPD2    C1 9341   2.103   3.931  15.217  0.3061 -0.3798 -0.4991
  631MPD2    C2 9342   2.204   3.856  15.150  0.0210 -0.4948  0.4713
  631MPD2    C3 9343   2.204   3.718  15.175  0.4965 -0.0779 -0.4731
  631MPD2    C4 9344   2.127   3.666  15.279 -0.2958 -0.3319 -0.0071
  631MPD2    C5 9345   2.032   3.739  15.338  0.4565 -1.1397  0.0395
  631MPD2     H 9346   2.272   3.900  15.078 -0.3325  0.0763  0.4778
  631MPD2    H1 9347   2.128   3.559  15.296 -0.2971 -0.5642 -1.5079
  631MPD2    H2 9348   1.953   3.927  15.373 -0.3774 -2.7232  1.4328
  631MPD2    H3 9349   1.971   3.702  15.419  2.4234 -1.5674  1.3355
  631MPD2     N 9350   2.295   3.641  15.097  0.2039  0.2165  0.2484
  631MPD2    H5 9351   2.361   3.691  15.038  1.5431 -2.1640 -0.2780
  631MPD2    N1 9352   2.076   4.065  15.199 -0.5771 -0.1823 -0.3717
  631MPD2    H7 9353   2.014   4.113  15.264 -1.5188  0.0982 -1.4684
  632TMC3    C1 9354   2.162   4.280  15.136  0.3866  0.3879 -0.2400
  632TMC3    C2 9355   2.157   4.313  15.266  0.2206 -0.0275 -0.5986
  632TMC3    C3 9356   2.260   4.397  15.319 -0.1294  0.1189  0.4153
  632TMC3    C4 9357   2.243   4.344  15.047 -0.1130  0.1259  0.3705
  632TMC3    C5 9358   2.321   4.446  15.094 -0.0571 -0.0561 -0.5475
  632TMC3    C6 9359   2.340   4.461  15.229 -0.1857 -0.4829  0.2298
  632TMC3     C 9360   2.135   4.139  15.097 -0.1156  0.3390 -0.2802
  632TMC3     O 9361   2.186   4.095  14.992 -0.0797  0.1325  0.2853
  632TMC3     H 9362   2.099   4.250  15.333 -0.5495  0.8321 -0.4676
  632TMC3    H1 9363   2.246   4.308  14.944 -0.0411  2.1205 -0.3272
  632TMC3    H2 9364   2.402   4.544  15.261  0.6678 -0.4603 -1.4714
  632TMC3    C7 9365   2.430   4.480  14.998 -0.7892 -0.2399  0.4420
  632TMC3    C8 9366   2.264   4.415  15.462  0.7466  0.6779 -0.8510
  632TMC3    O1 9367   2.397   4.501  14.883  0.2454  0.4448 -0.1068
  632TMC3    O2 9368   2.153   4.392  15.514  0.2026  0.0630  0.4473
  633MPD2     C 9369   1.944   2.193  17.641 -0.2102 -0.4529  0.0218
  633MPD2    C1 9370   1.882   2.103  17.550  0.9462 -0.3276  0.2410
  633MPD2    C2 9371   1.879   1.969  17.578 -0.4162 -0.1173 -0.2202
  633MPD2    C3 9372   1.944   1.921  17.692  0.1718 -0.2190  0.0343
  633MPD2    C4 9373   2.016   2.008   0.066 -0.2511 -0.8720 -0.4007
  633MPD2    C5 9374   2.014   2.141   0.046 -0.2401 -0.5508  0.6470
  633MPD2     H 9375   1.816   1.907  17.515  1.0607 -0.3959 -1.4123
  633MPD2    H1 9376   2.075   1.981   0.153  0.3924 -2.9705 -1.4930
  633MPD2    H2 9377   1.923   2.299  17.637  1.0046 -0.2880 -2.2260
  633MPD2    H3 9378   2.079   2.206   0.105  1.0183 -0.5285 -0.7775
  633MPD2     N 9379   1.926   1.791   0.037  0.7303 -0.2924  0.6822
  633MPD2    H5 9380   1.966   1.758   0.125  1.1926 -1.0089  0.1984
  633MPD2    N1 9381   1.813   2.135  17.434 -0.2267  0.1663 -0.1553
  633MPD2    H7 9382   1.776   2.064  17.372  0.6044  1.5038 -2.1612
  634TMC3    C1 9383   1.768   2.278  17.242  0.2688 -0.0108 -0.1080
  634TMC3    C2 9384   1.772   2.164  17.156  0.3231 -1.2679 -0.1946
  634TMC3    C3 9385   1.765   2.187  17.023  1.2906 -0.1435  0.2096
  634TMC3    C4 9386   1.769   2.405  17.197 -1.0467  0.5289 -0.0599
  634TMC3    C5 9387   1.762   2.425  17.065 -0.6684 -0.0626  0.2236
  634TMC3    C6 9388   1.764   2.315  16.976  0.4295  1.1529 -0.3145
  634TMC3     C 9389   1.809   2.266  17.381  1.1307  0.0416  0.7416
  634TMC3     O 9390   1.830   2.372  17.441  0.0467  0.6039  0.0260
  634TMC3     H 9391   1.784   2.065  17.197  0.9576 -1.6621 -1.3454
  634TMC3    H1 9392   1.773   2.489  17.266  2.5024 -0.5775  1.1099
  634TMC3    H2 9393   1.748   2.334  16.870  0.1862 -1.8556 -0.8205
  634TMC3    C7 9394   1.752   2.556  17.006 -0.5703  0.6527  0.4626
  634TMC3    C8 9395   1.798   2.086  16.936  0.1288 -0.0363 -0.5618
  634TMC3    O1 9396   1.730   2.558  16.887  0.3288  0.4494 -0.3780
  634TMC3    O2 9397   1.749   1.973  16.957 -0.2346  0.2210  0.4463
  635TMC3    C1 9398   2.477   2.631  17.358  0.9865 -0.4501  0.4528
  635TMC3    C2 9399   2.533   2.631  17.234  0.3348 -0.3669  0.1393
  635TMC3    C3 9400   2.551   2.506  17.179 -0.4354  0.4967  0.2795
  635TMC3    C4 9401   2.429   2.528  17.427 -0.1666 -0.4396  0.0850
  635TMC3    C5 9402   2.451   2.405  17.372  0.0286  1.0651 -0.0353
  635TMC3    C6 9403   2.507   2.390  17.244  0.2131  0.8528 -0.6690
  635TMC3     C 9404   2.449   2.760  17.414  0.1356  0.1989 -0.2161
  635TMC3     O 9405   2.358   2.769  17.493  0.7792  0.3672 -0.2002
  635TMC3     H 9406   2.557   2.720  17.176  0.5318 -0.4881  0.0350
  635TMC3    H1 9407   2.397   2.539  17.530 -0.9627 -1.4405 -0.0462
  635TMC3    H2 9408   2.514   2.291  17.200 -2.0947  0.1807  0.4614
  635TMC3    C7 9409   2.409   2.292  17.452 -0.8230 -0.0783 -0.4433
  635TMC3    C8 9410   2.626   2.484  17.054  0.1140 -0.0747  0.2462
  635TMC3    O1 9411   2.333   2.308  17.546  0.3994  0.3221 -0.1752
  635TMC3    O2 9412   2.648   2.366  17.026 -0.1094 -0.1732 -0.4218
  636MPD2     C 9413   3.272   2.273  15.911  0.0303  0.2909 -0.4005
  636MPD2    C1 9414   3.235   2.317  16.029  0.0121 -0.3217  0.4232
  636MPD2    C2 9415   3.268   2.240  16.142 -0.2013  0.9072  0.8928
  636MPD2    C3 9416   3.328   2.113  16.128 -0.7947 -0.0263  0.0824
  636MPD2    C4 9417   3.359   2.068  16.004 -0.1323  0.2861 -0.2555
  636MPD2    C5 9418   3.335   2.148  15.899  0.1744  0.0795  0.3566
  636MPD2     H 9419   3.234   2.275  16.239 -1.3458 -2.0094  1.5322
  636MPD2    H1 9420   3.406   1.974  15.980  0.2424  0.5026 -0.3651
  636MPD2    H2 9421   3.274   2.346  15.830 -1.1713 -1.1969 -1.7698
  636MPD2    H3 9422   3.364   2.108  15.802  0.6880  1.7408 -0.1733
  636MPD2     N 9423   3.351   2.035  16.243  0.8780 -0.1880  0.1138
  636MPD2    H5 9424   3.318   2.076  16.329 -1.7339  1.3404 -1.6106
  636MPD2    N1 9425   3.198   2.449  16.060 -0.1081  0.4193  0.3599
  636MPD2    H7 9426   3.193   2.467  16.160 -0.1222 -0.2859  0.4834
  637TMC3    C1 9427   3.419   1.838  16.383  0.5797  0.1859 -0.0170
  637TMC3    C2 9428   3.405   1.901  16.503  0.0636  0.3917  0.5749
  637TMC3    C3 9429   3.440   1.836  16.619  0.3084 -0.4289 -0.4911
  637TMC3    C4 9430   3.462   1.708  16.389  0.4050  0.0384  0.3422
  637TMC3    C5 9431   3.509   1.650  16.506  0.2695  0.2336 -0.1556
  637TMC3    C6 9432   3.492   1.705  16.624 -0.0873  0.2513 -0.5875
  637TMC3     C 9433   3.394   1.904  16.251 -0.1656  0.2538 -0.3151
  637TMC3     O 9434   3.418   1.829  16.155  0.4824 -0.4953  0.1891
  637TMC3     H 9435   3.361   2.000  16.500  1.4579  1.0273  0.9261
  637TMC3    H1 9436   3.478   1.654  16.296  1.0087  0.0904  0.4217
  637TMC3    H2 9437   3.524   1.652  16.713  0.5896 -2.7186 -2.6065
  637TMC3    C7 9438   3.603   1.535  16.502 -0.1235 -0.3009 -0.4831
  637TMC3    C8 9439   3.479   1.926  16.723  0.1285 -0.0738 -0.2688
  637TMC3    O1 9440   3.564   1.440  16.569 -0.3587 -0.8206  0.1346
  637TMC3    O2 9441   3.518   2.032  16.680 -0.0821 -0.6876 -0.2341
  638MPD2     C 9442   2.988   1.417  15.334 -0.1533  0.1293 -1.1807
  638MPD2    C1 9443   2.973   1.315  15.237 -0.1459 -0.1069  0.5250
  638MPD2    C2 9444   2.956   1.189  15.284  0.5188 -0.4287 -0.1439
  638MPD2    C3 9445   2.969   1.156  15.419 -0.4164  0.3841  0.8289
  638MPD2    C4 9446   3.001   1.250  15.508  0.6006  0.1654  0.2124
  638MPD2    C5 9447   3.005   1.379  15.463  0.1249  0.2093 -0.1804
  638MPD2     H 9448   2.926   1.113  15.212 -0.2049 -1.1973  0.9746
  638MPD2    H1 9449   3.005   1.226  15.614  1.1233  4.2221  1.1339
  638MPD2    H2 9450   2.997   1.521  15.305  0.2369  1.0716  2.4113
  638MPD2    H3 9451   3.027   1.461  15.531 -1.2362  0.8618 -0.5080
  638MPD2     N 9452   2.968   1.020  15.462 -0.1999  0.7403 -0.2820
  638MPD2    H5 9453   2.944   0.949  15.393 -0.2130  1.6377 -1.1938
  638MPD2    N1 9454   2.978   1.349  15.102 -0.1870  0.1238  0.4255
  638MPD2    H7 9455   2.982   1.448  15.078 -0.9326  0.3972  1.3961
  639TMC3    C1 9456   2.981   0.819  15.574 -1.2509  0.2775 -0.0133
  639TMC3    C2 9457   2.907   0.763  15.474  1.1175  0.0233 -0.2642
  639TMC3    C3 9458   2.869   0.633  15.500 -0.4986 -0.3372  0.4241
  639TMC3    C4 9459   3.024   0.756  15.687 -0.6806 -0.1419 -0.1664
  639TMC3    C5 9460   2.996   0.622  15.706  0.5181  0.0405  0.6418
  639TMC3    C6 9461   2.909   0.562  15.610 -0.7197  0.3046 -0.6436
  639TMC3     C 9462   3.001   0.965  15.579  0.0946 -0.4449  0.5170
  639TMC3     O 9463   3.060   1.010  15.675  0.9893 -0.7302  0.3895
  639TMC3     H 9464   2.865   0.815  15.389  0.0704 -0.9979 -0.3725
  639TMC3    H1 9465   3.080   0.806  15.764  0.1557 -2.6735  0.8621
  639TMC3    H2 9466   2.882   0.458  15.611  1.6227 -0.2924  2.0344
  639TMC3    C7 9467   3.103   0.536  15.731 -0.6653 -0.7829  0.1076
  639TMC3    C8 9468   2.831   0.559  15.385  0.1335 -0.0574 -0.2648
  639TMC3    O1 9469   3.068   0.429  15.778 -0.5676  0.0966 -0.5770
  639TMC3    O2 9470   2.886   0.590  15.277 -0.1573 -0.4443 -0.2452
  640MPD2     C 9471   4.233   0.386  10.106  0.2687  0.6458  0.0326
  640MPD2    C1 9472   4.279   0.424   9.981  0.1811 -0.2291  0.2871
  640MPD2    C2 9473   4.277   0.560   9.942  0.0794 -0.5547  0.9663
  640MPD2    C3 9474   4.212   0.659  10.019 -0.4956 -0.3902  0.0010
  640MPD2    C4 9475   4.169   0.617  10.140 -0.0799 -0.8918  0.2827
  640MPD2    C5 9476   4.169   0.484  10.177 -0.7663  0.1572 -0.5344
  640MPD2     H 9477   4.313   0.578   9.841  2.9223  0.0761  2.0900
  640MPD2    H1 9478   4.134   0.685  10.218  1.5331 -1.3854  1.4285
  640MPD2    H2 9479   4.234   0.287  10.151  1.4613  0.6509  0.0192
  640MPD2    H3 9480   4.130   0.450  10.272 -2.8607  0.1203 -1.4072
  640MPD2     N 9481   4.210   0.793   9.969 -0.7857  0.5908  1.2463
  640MPD2    H5 9482   4.243   0.823   9.878 -3.4821 -1.0120 -0.2611
  640MPD2    N1 9483   4.337   0.323   9.892  0.0168  0.3522  0.1068
  640MPD2    H7 9484   4.318   0.225   9.908  0.3471  0.6108  2.0666
  641TMC3    C1 9485   4.422   0.220   9.691 -0.0593 -0.3141  0.4266
  641TMC3    C2 9486   4.409   0.086   9.736 -0.3775 -0.6030 -0.4836
  641TMC3    C3 9487   4.478   4.717   9.666  0.3387  0.7369 -0.7134
  641TMC3    C4 9488   4.502   0.246   9.585 -0.3650  1.0701 -0.5804
  641TMC3    C5 9489   4.564   0.149   9.519  0.3774 -0.0673  0.2993
  641TMC3    C6 9490   4.549   0.018   9.558  0.3122 -0.2717  0.1863
  641TMC3     C 9491   4.398   0.346   9.765  0.3787  0.6706 -0.4636
  641TMC3     O 9492   4.441   0.447   9.712  0.1029 -0.1557 -0.1601
  641TMC3     H 9493   4.345   0.065   9.821  0.0033 -0.6468 -0.2135
  641TMC3    H1 9494   4.520   0.344   9.542 -0.4930  1.5652  0.4872
  641TMC3    H2 9495   4.584   4.659   9.499  1.4967 -0.2211  0.8102
  641TMC3    C7 9496   4.627   0.171   9.384 -0.1831 -0.8717  0.0699
  641TMC3    C8 9497   4.446   4.574   9.693  0.3231  0.5238 -0.4593
  641TMC3    O1 9498   4.653   0.068   9.320  0.6763 -0.4779 -0.0461
  641TMC3    O2 9499   4.456   4.489   9.602  0.7241 -1.0886  0.9917
  642TMC3    C1 9500   0.043   1.039  12.235  0.4736 -0.1077 -0.3964
  642TMC3    C2 9501   0.137   1.076  12.330  0.2978 -0.6887 -0.1536
  642TMC3    C3 9502   0.193   0.977  12.409  0.3191  0.2062 -0.1334
  642TMC3    C4 9503   4.719   0.912  12.228  0.6678 -0.1813  0.0791
  642TMC3    C5 9504   0.051   0.822  12.306  0.3376  1.0974 -0.0145
  642TMC3    C6 9505   0.142   0.851  12.407  0.8024  0.4966 -0.7454
  642TMC3     C 9506   4.696   1.152  12.164 -1.3276 -0.6501 -0.0267
  642TMC3     O 9507   4.623   1.127  12.073  0.5243  0.0442 -0.2484
  642TMC3     H 9508   0.175   1.177  12.324  0.0534 -0.6961 -1.8367
  642TMC3    H1 9509   4.641   0.879  12.161  0.9694 -4.8559  2.0628
  642TMC3    H2 9510   0.173   0.774  12.476 -0.5395  0.3673 -0.2827
  642TMC3    C7 9511   0.002   0.683  12.300  0.4070  0.0827  0.5954
  642TMC3    C8 9512   0.287   1.005  12.515  0.3523  0.3664 -0.5479
  642TMC3    O1 9513   4.724   0.635  12.189 -0.0838  0.5113 -0.4579
  642TMC3    O2 9514   0.348   0.907  12.552  0.0896 -0.4969  0.2195
  643TMC3    C1 9515   3.655   0.861   0.768 -0.1930 -0.1687 -0.2742
  643TMC3    C2 9516   3.517   0.880   0.754 -0.3550 -0.1425  0.5560
  643TMC3    C3 9517   3.444   0.788   0.699 -0.4335  0.0166 -0.0937
  643TMC3    C4 9518   3.703   0.736   0.771 -0.0637  0.0519  1.2707
  643TMC3    C5 9519   3.624   0.634   0.728 -0.1516 -0.4469  0.0817
  643TMC3    C6 9520   3.494   0.662   0.690 -0.2130 -0.3569 -0.4353
  643TMC3     C 9521   3.739   0.965   0.710  0.6979  0.1585 -0.4786
  643TMC3     O 9522   3.691   1.048   0.630  0.6431  0.3505  0.1029
  643TMC3     H 9523   3.481   0.982   0.760  1.5555  0.5684  0.1585
  643TMC3    H1 9524   3.806   0.712   0.795  0.4067  0.1454 -0.6163
  643TMC3    H2 9525   3.431   0.589   0.641  0.1907 -0.6851 -0.4657
  643TMC3    C7 9526   3.693   0.539   0.644  0.0272  0.2650  0.3024
  643TMC3    C8 9527   3.364   0.846   0.584  0.3351 -0.2061  0.2963
  643TMC3    O1 9528   3.781   0.592   0.575  0.0742  0.5398  0.4087
  643TMC3    O2 9529   3.295   0.941   0.612  0.6641  0.2504  0.3365
  644MPD2     C 9530   4.591   0.674   9.986 -0.4076  0.2194 -0.7286
  644MPD2    C1 9531   4.663   0.712   9.876  0.6891 -0.1160  0.2172
  644MPD2    C2 9532   4.687   0.849   9.852 -0.4391  0.2781 -0.4611
  644MPD2    C3 9533   4.633   0.948   9.940 -0.0943  0.1977 -0.8826
  644MPD2    C4 9534   4.543   0.908  10.038  0.2404  0.6490  0.7684
  644MPD2    C5 9535   4.532   0.772  10.059  0.2232 -0.0388 -0.3178
  644MPD2     H 9536   0.031   0.880   9.775 -1.9169  2.7647 -0.8113
  644MPD2    H1 9537   4.495   0.985  10.098  0.2464  0.2242  1.3088
  644MPD2    H2 9538   4.573   0.570  10.009 -0.1373 -0.2753 -2.7664
  644MPD2    H3 9539   4.467   0.754  10.144  2.0549 -0.8307  0.9221
  644MPD2     N 9540   4.664   1.080   9.904  0.2496 -0.1272 -0.2981
  644MPD2    H5 9541   0.011   1.098   9.836 -0.9987 -0.4998 -1.7140
  644MPD2    N1 9542   0.006   0.612   9.809  0.5177  0.3877 -0.3558
  644MPD2    H7 9543   4.722   0.517   9.845  0.6844  0.2477 -0.6802
  645TMC3    C1 9544   4.622   1.313   9.888  0.1381 -0.2852 -0.5243
  645TMC3    C2 9545   0.023   1.345   9.880  0.0071  0.0256  0.3303
  645TMC3    C3 9546   0.062   1.469   9.832  0.4641  0.1068 -0.4090
  645TMC3    C4 9547   4.526   1.397   9.848  0.6797  0.2073 -0.5394
  645TMC3    C5 9548   4.562   1.521   9.796  0.0648  0.9477 -0.3718
  645TMC3    C6 9549   4.695   1.557   9.777 -0.7477  0.4981 -0.1304
  645TMC3     C 9550   4.582   1.190   9.947  0.1118  0.3489  0.3624
  645TMC3     O 9551   4.477   1.188  10.006 -0.7650  0.2523  0.7661
  645TMC3     H 9552   0.095   1.283   9.933 -1.4126  1.3132  3.8119
  645TMC3    H1 9553   4.427   1.352   9.847  0.2247  1.1782  1.1163
  645TMC3    H2 9554   4.725   1.651   9.732  0.0594 -0.5648 -1.8062
  645TMC3    C7 9555   4.460   1.616   9.754 -0.1362  0.6868 -0.0318
  645TMC3    C8 9556   0.203   1.489   9.803 -0.1763 -0.4790 -0.0230
  645TMC3    O1 9557   4.494   1.714   9.685  0.3954 -0.0474 -0.1299
  645TMC3    O2 9558   0.232   1.607   9.801 -0.3958 -0.8045  0.2892
  646MPD2     C 9559   3.321   4.582  14.850 -0.0985 -0.5056 -0.6111
  646MPD2    C1 9560   3.237   4.635  14.948  0.6860  0.6546  0.1695
  646MPD2    C2 9561   3.136   4.723  14.920  0.3584 -0.8755  0.5138
  646MPD2    C3 9562   3.119   0.041  14.787  0.4396  0.4108  0.9535
  646MPD2    C4 9563   3.207   4.713  14.693  0.1567 -0.4289  0.3978
  646MPD2    C5 9564   3.310   4.630  14.725 -0.0351 -0.7708  0.7220
  646MPD2     H 9565   3.065   0.026  14.998  1.0350 -0.2654  0.9131
  646MPD2    H1 9566   3.208   0.012  14.587 -1.7848 -1.4194  0.1603
  646MPD2    H2 9567   3.387   4.500  14.876 -1.8774 -1.7100  0.1112
  646MPD2    H3 9568   3.368   4.584  14.645 -0.3085  0.7961 -0.3714
  646MPD2     N 9569   2.998   0.117  14.755  0.3514  0.4479 -0.4122
  646MPD2    H5 9570   2.935   0.124  14.834  1.0195  2.2999 -0.0375
  646MPD2    N1 9571   3.257   4.575  15.076 -0.3930  0.5079 -0.5252
  646MPD2    H7 9572   3.319   4.496  15.085  1.1807  1.7397 -0.6566
  647TMC3    C1 9573   3.221   4.539  15.316  0.2266 -0.1682 -0.2927
  647TMC3    C2 9574   3.147   4.426  15.334  0.1021  0.1710 -1.0306
  647TMC3    C3 9575   3.201   4.310  15.357  0.2319  0.0194  0.6064
  647TMC3    C4 9576   3.359   4.533  15.327 -0.4188  0.0235 -0.7325
  647TMC3    C5 9577   3.415   4.408  15.371 -0.1371 -0.0132 -0.3607
  647TMC3    C6 9578   3.336   4.301  15.369  0.3281 -0.5081 -0.9311
  647TMC3     C 9579   3.182   4.607  15.190  0.0902  0.3160 -0.6773
  647TMC3     O 9580   3.079   4.673  15.206  0.3275 -0.1861 -0.1201
  647TMC3     H 9581   3.041   4.436  15.314 -0.1024  0.7924  0.3641
  647TMC3    H1 9582   3.416   4.625  15.324 -0.2768 -0.1195 -2.4915
  647TMC3    H2 9583   3.379   4.207  15.400 -0.6141 -0.2715  1.1403
  647TMC3    C7 9584   3.560   4.389  15.365 -0.5848  0.4452  0.2604
  647TMC3    C8 9585   3.124   4.187  15.328 -0.3351 -0.3641 -0.2201
  647TMC3    O1 9586   3.605   4.283  15.406  0.3691 -0.1581  0.4131
  647TMC3    O2 9587   3.030   4.169  15.405 -0.1136  0.2939  0.7492
  648TMC3    C1 9588   2.545   2.321  16.228  0.8442 -0.0671 -0.1091
  648TMC3    C2 9589   2.566   2.188  16.210  0.1979  0.1769  0.0348
  648TMC3    C3 9590   2.509   2.136  16.097  0.7252  0.4202  0.6940
  648TMC3    C4 9591   2.468   2.399  16.143  0.6029  0.1431  0.3415
  648TMC3    C5 9592   2.415   2.338  16.034 -0.0571  1.5362  0.4008
  648TMC3    C6 9593   2.437   2.206  16.002  0.2971 -0.2612  0.6336
  648TMC3     C 9594   2.553   2.369  16.370 -0.8953 -0.1573  0.1505
  648TMC3     O 9595   2.559   2.491  16.375 -0.0176  0.2178 -0.1664
  648TMC3     H 9596   2.626   2.130  16.279  0.7108  1.9863  1.1191
  648TMC3    H1 9597   2.466   2.506  16.159  1.2705  0.2079 -0.0276
  648TMC3    H2 9598   2.390   2.153  15.920  0.9802  0.7648 -0.4137
  648TMC3    C7 9599   2.296   2.406  15.975 -0.0520 -0.1735  0.2600
  648TMC3    C8 9600   2.513   1.993  16.078  0.0326  0.1659 -0.0003
  648TMC3    O1 9601   2.260   2.363  15.869 -0.2795  0.0582  0.2416
  648TMC3    O2 9602   2.432   1.938  16.009 -0.2947 -0.0273 -0.2708
  649TMC3    C1 9603   0.907   2.842  12.963 -0.8996  0.8330 -0.0365
  649TMC3    C2 9604   1.042   2.849  12.918  0.1225 -0.1291  0.1921
  649TMC3    C3 9605   1.134   2.830  13.016  0.6395 -0.3526 -0.0088
  649TMC3    C4 9606   0.873   2.811  13.090  0.7333 -0.5264 -0.1896
  649TMC3    C5 9607   0.980   2.766  13.170  0.1804 -0.0203  0.3556
  649TMC3    C6 9608   1.111   2.779  13.139  0.0535  0.3102 -0.5186
  649TMC3     C 9609   0.809   2.839  12.855  0.1292  0.0521  0.4268
  649TMC3     O 9610   0.847   2.873  12.742  0.0592 -0.1601 -0.4440
  649TMC3     H 9611   1.053   2.899  12.822 -1.6957 -1.5714 -0.7525
  649TMC3    H1 9612   0.771   2.818  13.127  1.2464 -1.6937  1.4196
  649TMC3    H2 9613   1.193   2.764  13.209  0.5862  3.3505 -0.5217
  649TMC3    C7 9614   0.946   2.719  13.306  0.8277  0.3528  0.2799
  649TMC3    C8 9615   1.272   2.866  12.983  0.0058  0.1033 -0.2678
  649TMC3    O1 9616   0.832   2.753  13.344  0.7779  0.3282 -0.3413
  649TMC3    O2 9617   1.346   2.879  13.079  0.3730  0.3600  0.7625
  650TMC3    C1 9618   4.130   0.401  12.588 -0.3880 -0.5278  0.6330
  650TMC3    C2 9619   4.135   0.535  12.598  0.4481  0.2928  0.1368
  650TMC3    C3 9620   4.072   0.611  12.506  0.3727 -0.1774  0.4646
  650TMC3    C4 9621   4.078   0.337  12.480 -0.6275 -0.0115 -0.4912
  650TMC3    C5 9622   4.025   0.413  12.385 -0.0455  0.1821 -0.2455
  650TMC3    C6 9623   4.012   0.550  12.401  0.1389  0.4659  0.6242
  650TMC3     C 9624   4.233   0.332  12.674 -0.1035 -0.0375 -0.1176
  650TMC3     O 9625   4.307   0.396  12.748 -0.4262 -0.7702 -0.1974
  650TMC3     H 9626   4.181   0.581  12.686 -0.2554  0.6592  0.3113
  650TMC3    H1 9627   4.099   0.234  12.455 -1.9495  0.3142 -3.0013
  650TMC3    H2 9628   3.959   0.608  12.326  1.1329  0.5422 -0.0208
  650TMC3    C7 9629   3.982   0.349  12.261 -0.0239 -0.3265  0.5926
  650TMC3    C8 9630   4.059   0.755  12.523 -0.0958  0.4146 -0.0020
  650TMC3    O1 9631   3.986   0.229  12.265  0.7762  0.0219 -0.3272
  650TMC3    O2 9632   4.158   0.818  12.565 -0.2199  0.4461 -0.4805
  651MPD2     C 9633   2.965   2.080  10.605 -0.1558  0.0720 -0.2506
  651MPD2    C1 9634   2.943   2.209  10.558 -0.0629 -0.6181 -0.2832
  651MPD2    C2 9635   3.055   2.285  10.534  0.4644 -0.5192 -0.7228
  651MPD2    C3 9636   3.184   2.246  10.575  0.1162  0.5342 -0.6206
  651MPD2    C4 9637   3.198   2.118  10.632 -0.7202 -0.0621  0.6778
  651MPD2    C5 9638   3.090   2.039  10.641 -0.1887 -0.2724  0.1943
  651MPD2     H 9639   3.046   2.387  10.497  2.1157  0.2358  0.9651
  651MPD2    H1 9640   3.297   2.079  10.654  0.1206  1.3758 -0.4828
  651MPD2    H2 9641   2.884   2.019  10.643 -0.6681  0.0860 -1.2923
  651MPD2    H3 9642   3.108   1.947  10.695  0.9850 -0.5612 -0.6935
  651MPD2     N 9643   3.278   2.345  10.556  0.3481  0.4521  0.5042
  651MPD2    H5 9644   3.249   2.423  10.498 -1.5422 -0.4161  0.2905
  651MPD2    N1 9645   2.815   2.267  10.534  0.4453  0.2806 -0.3450
  651MPD2    H7 9646   2.819   2.361  10.496  0.5116  0.7375  0.8032
  652TMC3    C1 9647   3.700   2.537  10.546 -0.3110  0.3170  1.0677
  652TMC3    C2 9648   3.618   2.435  10.581 -0.4545  0.4206 -0.2654
  652TMC3    C3 9649   3.488   2.446  10.535 -0.6209 -0.0725 -0.6406
  652TMC3    C4 9650   3.659   2.644  10.468 -0.4011  0.2328 -0.3728
  652TMC3    C5 9651   3.527   2.641  10.421 -0.0985  0.3641  0.2072
  652TMC3    C6 9652   3.439   2.545  10.447  0.4384  0.7945  0.1740
  652TMC3     C 9653   3.829   2.526  10.603 -0.6957 -0.2598  0.0231
  652TMC3     O 9654   3.851   2.459  10.703 -0.4350 -0.2750 -0.5359
  652TMC3     H 9655   3.648   2.357  10.650  0.4647  0.9042 -0.1213
  652TMC3    H1 9656   3.718   2.735  10.470 -2.1157  1.3463 -0.0891
  652TMC3    H2 9657   3.348   2.538  10.390  1.2226 -1.2656 -0.8274
  652TMC3    C7 9658   3.463   2.760  10.357  0.0625  0.5395  0.0540
  652TMC3    C8 9659   3.413   2.337  10.589  0.0170  0.3730  0.8760
  652TMC3    O1 9660   3.342   2.770  10.346  0.6607  0.6745  0.7567
  652TMC3    O2 9661   3.458   2.267  10.680 -0.2659  0.0257  0.1464
  653MPD2     C 9662   1.446   2.597  17.208  0.6448  0.0189  0.0066
  653MPD2    C1 9663   1.394   2.586  17.334 -0.5167 -0.1279  0.2701
  653MPD2    C2 9664   1.344   2.462  17.367  0.5904 -0.2053 -0.0626
  653MPD2    C3 9665   1.343   2.352  17.289 -0.7697  0.3982  0.0286
  653MPD2    C4 9666   1.405   2.366  17.167  0.1309  0.2796 -0.4560
  653MPD2    C5 9667   1.448   2.488  17.126  0.1590 -0.1066  0.3618
  653MPD2     H 9668   1.280   2.460  17.456  1.1281  2.9375  0.3804
  653MPD2    H1 9669   1.400   2.284  17.096  0.2325  0.2929 -0.4786
  653MPD2    H2 9670   1.489   2.692  17.179  1.1004 -1.3152 -3.6957
  653MPD2    H3 9671   1.485   2.494  17.024  1.3762 -2.5985  0.6649
  653MPD2     N 9672   1.275   2.235  17.334 -0.6815 -0.5831  0.7726
  653MPD2    H5 9673   1.219   2.237  17.419 -2.0268  1.4004 -0.1676
  653MPD2    N1 9674   1.395   2.689  17.436 -0.0153  0.8443  0.0922
  653MPD2    H7 9675   1.375   2.661  17.531  1.7114  1.5229  0.6640
  654TMC3    C1 9676   1.168   2.028  17.306 -0.2176  0.8170  0.2787
  654TMC3    C2 9677   1.058   2.095  17.355 -0.3637 -0.1080 -0.0859
  654TMC3    C3 9678   0.939   2.030  17.339  0.2635 -0.4266 -0.2617
  654TMC3    C4 9679   1.157   1.907  17.254 -0.7835 -0.1589  0.2443
  654TMC3    C5 9680   1.033   1.837  17.249  0.4447 -0.0844 -0.4540
  654TMC3    C6 9681   0.920   1.904  17.283 -0.5298 -0.9093  0.1315
  654TMC3     C 9682   1.285   2.111  17.275  0.0091 -0.1913 -0.2306
  654TMC3     O 9683   1.382   2.067  17.212 -0.7033 -0.4370  0.1780
  654TMC3     H 9684   1.052   2.191  17.406  2.0338  0.4893 -0.9601
  654TMC3    H1 9685   1.244   1.860  17.211 -0.7808  0.7992 -0.7995
  654TMC3    H2 9686   0.826   1.851  17.295 -1.2468  0.2752 -0.1488
  654TMC3    C7 9687   1.022   1.714  17.183 -0.3250 -0.3990 -0.2647
  654TMC3    C8 9688   0.821   2.115  17.340 -0.2938 -0.3604  0.5478
  654TMC3    O1 9689   0.936   1.697  17.100  0.3446  0.3992 -0.0408
  654TMC3    O2 9690   0.821   2.210  17.416  0.0991  0.1980 -0.1611
  655MPD2     C 9691   2.911   2.279  16.208  0.4445 -0.0575 -0.4715
  655MPD2    C1 9692   2.858   2.352  16.103  0.5836 -0.2754 -0.2702
  655MPD2    C2 9693   2.815   2.287  15.989  0.3741 -0.1478  0.6343
  655MPD2    C3 9694   2.837   2.152  15.973  0.7278  0.4449  0.4412
  655MPD2    C4 9695   2.906   2.088  16.077 -0.8228  0.1092  0.0720
  655MPD2    C5 9696   2.931   2.150  16.193  0.3920  0.8340  0.5222
  655MPD2     H 9697   2.759   2.348  15.919  0.7346 -0.0565  0.4217
  655MPD2    H1 9698   2.948   1.989  16.062 -0.7626 -0.0439  1.2656
  655MPD2    H2 9699   2.938   2.318  16.306  0.0107  2.3251 -1.3098
  655MPD2    H3 9700   2.974   2.089  16.271  1.6388 -0.3101 -1.0610
  655MPD2     N 9701   2.799   2.080  15.861 -0.8141 -0.2876 -0.6672
  655MPD2    H5 9702   2.815   1.980  15.847  0.8776 -0.2748  1.2817
  655MPD2    N1 9703   2.819   2.480  16.116 -0.0067  0.3295 -0.7361
  655MPD2    H7 9704   2.775   2.526  16.037  2.1708  0.1546 -2.0432
  656TMC3    C1 9705   2.756   2.682  16.223  0.4658 -0.0015 -0.5256
  656TMC3    C2 9706   2.730   2.738  16.347  0.3732 -0.4807 -0.0007
  656TMC3    C3 9707   2.670   2.858  16.347  0.6091 -0.2740 -0.2389
  656TMC3    C4 9708   2.724   2.749  16.109  0.2943  0.6403  0.0831
  656TMC3    C5 9709   2.647   2.862  16.114 -0.8358 -0.7651  0.7075
  656TMC3    C6 9710   2.622   2.913  16.234  0.0436 -0.3869 -0.1655
  656TMC3     C 9711   2.833   2.560  16.232  0.2960  0.4666  0.2474
  656TMC3     O 9712   2.883   2.535  16.342  0.4282  0.0956 -0.1137
  656TMC3     H 9713   2.766   2.708  16.445 -2.1829 -1.5526  0.5924
  656TMC3    H1 9714   2.763   2.705  16.018 -1.3917  0.0880 -0.3796
  656TMC3    H2 9715   2.561   3.002  16.248  0.9127  0.6465 -2.9176
  656TMC3    C7 9716   2.577   2.894  15.988  0.0957  0.0261 -0.3165
  656TMC3    C8 9717   2.568   2.884  16.440  0.5417 -0.6059  0.0089
  656TMC3    O1 9718   2.621   2.835  15.887 -0.6831  0.3359 -0.6221
  656TMC3    O2 9719   2.541   2.998  16.472  0.2043 -0.3184  0.1127
  657TMC3    C1 9720   1.307   1.922  14.894  0.4124  1.1149  0.2176
  657TMC3    C2 9721   1.276   1.959  15.020  0.5839 -0.4150 -0.4284
  657TMC3    C3 9722   1.194   2.070  15.036 -0.7500 -0.0935 -0.0354
  657TMC3    C4 9723   1.252   1.974  14.782 -0.3130  0.5964 -0.4514
  657TMC3    C5 9724   1.177   2.087  14.806  0.5981 -0.0339 -0.3507
  657TMC3    C6 9725   1.149   2.142  14.927  0.4636 -0.1355 -0.3289
  657TMC3     C 9726   1.383   1.804  14.869  0.0851 -1.0033  0.2140
  657TMC3     O 9727   1.408   1.770  14.754  0.3777  0.8178  0.2115
  657TMC3     H 9728   1.316   1.914  15.110  0.3096 -2.2501 -1.2228
  657TMC3    H1 9729   1.289   1.955  14.682  0.8361  0.1211  0.0650
  657TMC3    H2 9730   1.089   2.232  14.934 -1.1872 -1.0315 -2.9386
  657TMC3    C7 9731   1.115   2.171  14.700  0.5857 -0.3722 -0.0567
  657TMC3    C8 9732   1.198   2.134  15.163 -0.2152  0.3404 -0.2096
  657TMC3    O1 9733   1.021   2.245  14.732 -0.0724  0.1844  0.8786
  657TMC3    O2 9734   1.148   2.246  15.151  0.4828 -0.1804 -0.1641
  658MPD2     C 9735   3.118   1.990  15.263 -0.1215  0.1238 -0.3782
  658MPD2    C1 9736   2.990   1.988  15.222 -0.5099 -0.1576 -0.1279
  658MPD2    C2 9737   2.956   1.990  15.089 -0.7027 -0.3465 -0.2927
  658MPD2    C3 9738   3.050   2.012  14.995 -0.4869 -0.5374  0.7684
  658MPD2    C4 9739   3.179   2.025  15.034 -0.1400 -0.4895  0.2522
  658MPD2    C5 9740   3.212   2.012  15.170 -0.9987 -0.0597 -0.0184
  658MPD2     H 9741   2.852   1.994  15.058  0.4354  1.2166 -3.8710
  658MPD2    H1 9742   3.263   2.032  14.965 -1.8659 -0.4559 -1.8228
  658MPD2    H2 9743   3.141   1.970  15.367  2.0630 -0.9419 -1.0657
  658MPD2    H3 9744   3.318   2.009  15.194 -1.4287 -1.4864  1.6913
  658MPD2     N 9745   3.005   2.031  14.860  0.3330  0.3741 -0.6788
  658MPD2    H5 9746   2.907   2.017  14.842  0.3311 -0.6232  0.0476
  658MPD2    N1 9747   2.897   1.976  15.328 -0.8646 -0.1525 -0.0827
  658MPD2    H7 9748   2.930   1.999  15.421  0.7733 -0.5612 -0.5729
  659TMC3    C1 9749   2.694   1.960  15.446  0.3861 -0.7068 -0.4474
  659TMC3    C2 9750   2.757   2.010  15.555 -0.1811 -0.3423  0.0958
  659TMC3    C3 9751   2.676   2.037  15.662 -0.9024 -0.4497  0.1959
  659TMC3    C4 9752   2.559   1.961  15.440 -0.6572 -0.2551  0.1542
  659TMC3    C5 9753   2.477   1.989  15.546 -0.3619  0.5546  0.0017
  659TMC3    C6 9754   2.537   2.038  15.649 -0.1561 -0.9039 -0.1012
  659TMC3     C 9755   2.765   1.959  15.312 -0.5688  0.1507  0.4393
  659TMC3     O 9756   2.702   1.926  15.214 -0.4813  0.2957 -0.3145
  659TMC3     H 9757   2.858   2.050  15.551 -0.3337 -0.1520 -2.2226
  659TMC3    H1 9758   2.521   1.942  15.340  2.2689  0.1918 -1.0648
  659TMC3    H2 9759   2.475   2.072  15.732  1.6813  0.3823  0.7311
  659TMC3    C7 9760   2.330   2.006  15.539  0.7463 -0.0229 -0.2816
  659TMC3    C8 9761   2.718   2.135  15.756  0.1500  0.0759  0.6782
  659TMC3    O1 9762   2.273   2.068  15.625  0.1471  0.1289 -0.6098
  659TMC3    O2 9763   2.653   2.240  15.746  0.2217  0.3917  0.2087
  660MPD2     C 9764   1.296   1.133  12.796 -0.3807  0.4691 -0.2320
  660MPD2    C1 9765   1.161   1.157  12.800  0.0710 -0.2162 -0.0330
  660MPD2    C2 9766   1.073   1.082  12.877  0.1440  0.0233  0.4691
  660MPD2    C3 9767   1.126   0.981  12.956  0.2438 -0.4027  0.1896
  660MPD2    C4 9768   1.258   0.953  12.946 -0.0218 -0.1636  0.2938
  660MPD2    C5 9769   1.347   1.032  12.871  0.1780  0.5915 -0.1825
  660MPD2     H 9770   0.966   1.091  12.872 -0.0017 -0.2994  3.2642
  660MPD2    H1 9771   1.301   0.874  13.006 -1.5171  0.6174  2.3624
  660MPD2    H2 9772   1.371   1.177  12.731  1.5649 -0.9805  1.0012
  660MPD2    H3 9773   1.449   1.004  12.848 -0.4962 -2.7136  0.7435
  660MPD2     N 9774   1.054   0.890  13.036 -0.0180  0.1117  0.5638
  660MPD2    H5 9775   1.113   0.822  13.084  1.0401  1.1211  0.6962
  660MPD2    N1 9776   1.113   1.250  12.702 -0.3140  0.0786 -0.5437
  660MPD2    H7 9777   1.179   1.271  12.628  1.5164 -1.8375  0.5219
  661TMC3    C1 9778   0.955   1.353  12.560 -0.1273 -0.1626  0.9628
  661TMC3    C2 9779   1.058   1.407  12.493 -0.0652  0.3248  0.8704
  661TMC3    C3 9780   1.028   1.500  12.402 -0.3424 -0.6348 -0.2682
  661TMC3    C4 9781   0.825   1.384  12.527 -0.9105 -0.1024  0.1638
  661TMC3    C5 9782   0.805   1.472  12.427  0.2477 -0.5062 -0.1983
  661TMC3    C6 9783   0.904   1.546  12.364 -0.1146  0.3270 -0.4987
  661TMC3     C 9784   0.980   1.293  12.687  0.1919  0.2251 -0.3097
  661TMC3     O 9785   0.891   1.283  12.769 -0.1700  0.1464 -0.5132
  661TMC3     H 9786   1.162   1.376  12.501  0.3286  1.6863  1.1128
  661TMC3    H1 9787   0.744   1.341  12.586 -1.4475 -0.2381 -0.6698
  661TMC3    H2 9788   0.870   1.607  12.282  0.7493 -0.1237 -1.1974
  661TMC3    C7 9789   0.680   1.480  12.363 -0.0495  0.3133  0.6352
  661TMC3    C8 9790   1.125   1.526  12.295 -0.1756  0.4518 -0.4945
  661TMC3    O1 9791   0.642   1.592  12.319 -0.2223  0.6028  0.0002
  661TMC3    O2 9792   1.203   1.435  12.277  0.0596  0.8372 -0.1629
  662MPD2     C 9793   1.362   0.887  17.454 -0.0511 -0.5837  0.4648
  662MPD2    C1 9794   1.394   0.837  17.577  0.0563 -0.4117 -0.0432
  662MPD2    C2 9795   1.357   0.909  17.687  0.1626 -0.1601  0.4984
  662MPD2    C3 9796   1.292   1.029  17.678 -0.6515  0.0198 -0.3613
  662MPD2    C4 9797   1.261   1.078  17.556 -0.4904 -0.4639 -0.2086
  662MPD2    C5 9798   1.305   1.009  17.446 -0.3733 -0.1809 -0.1621
  662MPD2     H 9799   1.377   0.872   0.086  3.2378 -0.4390 -0.2201
  662MPD2    H1 9800   1.205   1.171  17.547 -0.9072 -0.6362  0.6521
  662MPD2    H2 9801   1.388   0.846  17.357  0.6983  2.2298 -0.5172
  662MPD2    H3 9802   1.299   1.056  17.348  3.3555  0.1390 -0.2422
  662MPD2     N 9803   1.242   1.095   0.087 -0.3051  0.0086  0.1792
  662MPD2    H5 9804   1.211   1.191   0.076  1.2545  0.6072  1.0289
  662MPD2    N1 9805   1.452   0.709  17.591  0.4761  0.4210 -0.2147
  662MPD2    H7 9806   1.452   0.668  17.684 -0.6788 -0.5589 -0.6501
  663TMC3    C1 9807   1.572   0.518  17.523  0.1310 -0.5662 -0.1832
  663TMC3    C2 9808   1.606   0.498  17.657 -0.4548 -0.1865 -0.4139
  663TMC3    C3 9809   1.670   0.385  17.680  0.1061 -0.3698  0.1131
  663TMC3    C4 9810   1.583   0.423  17.427 -0.3018  0.0534 -0.4006
  663TMC3    C5 9811   1.645   0.301  17.463 -0.1913  0.2740 -0.0849
  663TMC3    C6 9812   1.684   0.282  17.587  0.3075 -0.0522 -0.3266
  663TMC3     C 9813   1.509   0.643  17.483 -0.1453  0.2756 -0.6638
  663TMC3     O 9814   1.496   0.661  17.364 -0.2802  0.2349 -0.1023
  663TMC3     H 9815   1.642   0.586   0.007 -0.4562  0.1659 -1.0229
  663TMC3    H1 9816   1.547   0.442  17.327  1.8740 -0.9157 -1.3607
  663TMC3    H2 9817   1.757   0.204  17.606  0.3107 -0.2034 -0.9608
  663TMC3    C7 9818   1.590   0.177  17.410  0.1163 -0.0457  0.8644
  663TMC3    C8 9819   1.653   0.322   0.106  0.0739 -0.2140  0.5056
  663TMC3    O1 9820   1.679   0.089  17.425  0.0656  0.6651 -0.5847
  663TMC3    O2 9821   1.683   0.203   0.121  0.4908 -0.7856 -0.2250
  664MPD2     C 9822   3.907   3.793  17.602 -0.1921  0.9492  0.4780
  664MPD2    C1 9823   3.948   3.925  17.635  0.8425  0.5768 -0.6793
  664MPD2    C2 9824   3.945   3.969   0.068 -0.5293  0.3235  0.3883
  664MPD2    C3 9825   3.900   3.882   0.167 -0.0647  0.4725 -0.0598
  664MPD2    C4 9826   3.857   3.753   0.130 -0.4531  0.7065 -0.2370
  664MPD2    C5 9827   3.863   3.708  17.699  0.0398  0.0484  0.2607
  664MPD2     H 9828   3.981   4.069   0.089 -1.3924  0.9726 -1.2609
  664MPD2    H1 9829   3.826   3.691   0.213  0.5388 -1.7616 -1.7153
  664MPD2    H2 9830   3.909   3.753  17.501  1.7984  1.2597  0.3938
  664MPD2    H3 9831   3.839   3.610  17.660 -1.1729  0.4973 -0.1077
  664MPD2     N 9832   3.878   3.932   0.293 -0.5919 -0.1667 -0.7062
  664MPD2    H5 9833   3.898   4.031   0.303  1.1149 -0.7344  1.5274
  664MPD2    N1 9834   3.998   4.024  17.544 -0.1177 -0.6488  0.2237
  664MPD2    H7 9835   4.051   4.102  17.581  1.0915  0.2834 -3.4296
  665TMC3    C1 9836   3.845   3.938   0.527  0.1647  1.0938  0.3794
  665TMC3    C2 9837   3.810   3.865   0.636 -0.1385  0.1942  0.1028
  665TMC3    C3 9838   3.837   3.916   0.757  0.7735 -0.1916  0.3454
  665TMC3    C4 9839   3.882   4.068   0.537  0.9880 -0.3764  0.6993
  665TMC3    C5 9840   3.904   4.114   0.662  0.7625  0.7805  0.3740
  665TMC3    C6 9841   3.891   4.036   0.776  0.4617  0.9231  0.3046
  665TMC3     C 9842   3.827   3.869   0.399  1.0049 -0.3897  0.5168
  665TMC3     O 9843   3.764   3.763   0.408  0.1448 -0.4262 -0.0512
  665TMC3     H 9844   3.789   3.759   0.622 -0.5410  0.3057 -0.1145
  665TMC3    H1 9845   3.894   4.137   0.454 -0.1770 -0.2694  0.6201
  665TMC3    H2 9846   3.903   4.083   0.873  0.9871 -0.5360  0.9546
  665TMC3    C7 9847   3.898   4.256   0.688  0.1455 -0.0523 -0.6806
  665TMC3    C8 9848   3.804   3.850   0.881  1.1142 -0.1955 -0.4067
  665TMC3    O1 9849   3.822   4.306   0.605  0.1732  0.5747  0.0418
  665TMC3    O2 9850   3.856   3.904   0.979  0.1017  0.3034  0.2412
  666TMC3    C1 9851   3.658   4.249   9.370  0.0448  0.1287  0.0527
  666TMC3    C2 9852   3.773   4.169   9.372  0.2512  0.7357  0.0562
  666TMC3    C3 9853   3.887   4.217   9.436 -0.0726 -0.6921  0.3934
  666TMC3    C4 9854   3.667   4.378   9.420  0.3477  0.4242 -0.1280
  666TMC3    C5 9855   3.784   4.423   9.478 -0.4895 -0.3017 -0.3203
  666TMC3    C6 9856   3.894   4.343   9.489  0.4265 -0.4383  1.0550
  666TMC3     C 9857   3.570   4.242   9.257 -0.5035 -0.2649 -0.2956
  666TMC3     O 9858   3.548   4.345   9.194 -0.6184  0.6326  0.3194
  666TMC3     H 9859   3.782   4.067   9.338 -3.4340  0.4353  0.0146
  666TMC3    H1 9860   3.584   4.447   9.413 -0.5585 -0.7877 -1.4776
  666TMC3    H2 9861   3.987   4.394   9.509  0.0415  0.1304  1.3824
  666TMC3    C7 9862   3.764   4.485   9.604  0.7319  0.2751  0.6067
  666TMC3    C8 9863   3.953   4.119   9.524 -0.3698 -0.1681  1.1052
  666TMC3    O1 9864   3.670   4.445   9.665  1.2600 -0.4398 -0.4195
  666TMC3    O2 9865   3.932   3.998   9.506 -0.2147  0.3097  0.1437
  667MPD2     C 9866   0.498   3.573  14.746  1.1081  0.1888 -0.2931
  667MPD2    C1 9867   0.426   3.607  14.855  0.0037 -0.6415 -0.4902
  667MPD2    C2 9868   0.340   3.521  14.916  0.4554  0.1455 -0.7131
  667MPD2    C3 9869   0.335   3.387  14.878 -0.4785  0.1170  0.7474
  667MPD2    C4 9870   0.401   3.351  14.762 -0.6239 -0.0093 -0.4472
  667MPD2    C5 9871   0.489   3.440  14.703 -0.1781 -0.6070 -0.1425
  667MPD2     H 9872   0.268   3.552  14.990  0.5533 -0.1770 -0.4821
  667MPD2    H1 9873   0.402   3.245  14.738 -1.5717  0.0150 -0.5950
  667MPD2    H2 9874   0.549   3.652  14.691 -1.4449  0.9153 -1.6011
  667MPD2    H3 9875   0.548   3.417  14.614  1.0653 -1.1434  0.8224
  667MPD2     N 9876   0.253   3.292  14.937  0.4264 -0.2823  0.0968
  667MPD2    H5 9877   0.235   3.208  14.883 -0.5028  0.7701 -1.2262
  667MPD2    N1 9878   0.410   3.735  14.905 -0.1119 -0.1068  0.4086
  667MPD2    H7 9879   0.357   3.732  14.992 -0.3125  0.9289  0.3183
  668TMC3    C1 9880   0.402   3.973  14.919 -0.4978 -0.0744 -0.0651
  668TMC3    C2 9881   0.466   4.095  14.907 -0.4477  0.3343 -0.0618
  668TMC3    C3 9882   0.402   4.212  14.962  0.5180  0.5291  0.5420
  668TMC3    C4 9883   0.275   3.964  14.962 -0.0030 -0.3068  0.3070
  668TMC3    C5 9884   0.215   4.080  15.015 -0.6362  1.2472  0.1799
  668TMC3    C6 9885   0.279   4.197  15.032 -0.1202 -0.2727  0.3067
  668TMC3     C 9886   0.459   3.853  14.850  0.4666 -0.2286  0.0137
  668TMC3     O 9887   0.529   3.871  14.747  0.9390 -0.0941  0.2765
  668TMC3     H 9888   0.560   4.101  14.855 -0.6600 -2.4140 -0.7254
  668TMC3    H1 9889   0.216   3.873  14.958  2.3782 -1.8776  1.2522
  668TMC3    H2 9890   0.228   4.283  15.076  1.9229  1.1692 -0.1609
  668TMC3    C7 9891   0.079   4.052  15.060  0.4406 -0.2048  0.1408
  668TMC3    C8 9892   0.454   4.349  14.952  0.2281 -1.1804 -0.2943
  668TMC3    O1 9893   4.724   4.141  15.071 -0.1033 -0.2768  0.2447
  668TMC3    O2 9894   0.412   4.425  15.035  0.2373 -0.1545 -0.5367
  669TMC3    C1 9895   2.721   3.808  14.426 -0.4642 -0.2199 -1.5921
  669TMC3    C2 9896   2.628   3.789  14.331  1.0908 -1.0740 -0.5055
  669TMC3    C3 9897   2.616   3.878  14.235 -0.3518  0.3296  0.6323
  669TMC3    C4 9898   2.817   3.907  14.428 -0.3615  0.2537 -0.4722
  669TMC3    C5 9899   2.804   4.000  14.326 -0.1968 -0.1361  0.0315
  669TMC3    C6 9900   2.699   3.994  14.229 -0.0312  0.1120  0.4574
  669TMC3     C 9901   2.758   3.695  14.513  0.4361 -0.2136  0.9532
  669TMC3     O 9902   2.875   3.689  14.554 -0.5635  0.1983  0.0995
  669TMC3     H 9903   2.565   3.701  14.341 -1.2233  0.6285  0.0331
  669TMC3    H1 9904   2.898   3.906  14.500 -0.7638 -0.9169 -0.0372
  669TMC3    H2 9905   2.682   4.073  14.157 -2.2484 -1.7701 -1.0797
  669TMC3    C7 9906   2.904   4.105  14.308 -0.5888  0.7060 -0.1843
  669TMC3    C8 9907   2.524   3.860  14.126  0.1172  0.3881  0.1363
  669TMC3    O1 9908   2.985   4.128  14.399  0.0954  0.1619  0.2320
  669TMC3    O2 9909   2.497   3.740  14.100 -0.6920 -0.2094  0.1292
  670MPD2     C 9910   1.304   1.061  13.463 -0.3898 -0.4175 -0.7541
  670MPD2    C1 9911   1.323   1.199  13.461  0.1708  0.2248 -0.4301
  670MPD2    C2 9912   1.290   1.270  13.576  0.2588  0.5163  0.7626
  670MPD2    C3 9913   1.227   1.203  13.680 -0.2069 -1.0879  0.5668
  670MPD2    C4 9914   1.206   1.065  13.672 -0.5261 -0.2062 -0.1406
  670MPD2    C5 9915   1.253   0.993  13.570 -0.2177 -0.1442  0.3027
  670MPD2     H 9916   1.313   1.376  13.573 -1.1493  0.8679  2.6350
  670MPD2    H1 9917   1.158   1.004  13.748 -2.5859  0.3117 -1.0246
  670MPD2    H2 9918   1.336   0.995  13.383  0.7046 -0.0226 -0.6543
  670MPD2    H3 9919   1.246   0.885  13.579  0.1787 -0.2215 -0.3018
  670MPD2     N 9920   1.192   1.274  13.794 -0.5425 -0.1136 -0.0557
  670MPD2    H5 9921   1.230   1.367  13.811 -1.8679  0.6519 -1.2826
  670MPD2    N1 9922   1.395   1.259  13.356  0.0435 -0.1541  0.1645
  670MPD2    H7 9923   1.415   1.357  13.371 -0.1900 -0.5612  2.9998
  671TMC3    C1 9924   1.153   1.296  14.021  0.3348 -0.6823  0.3839
  671TMC3    C2 9925   1.269   1.360  14.032  0.1697 -0.2807 -0.0311
  671TMC3    C3 9926   1.326   1.345  14.157 -0.7691 -0.3255  0.5763
  671TMC3    C4 9927   1.090   1.235  14.125 -0.1459  0.1526  0.4430
  671TMC3    C5 9928   1.146   1.237  14.248 -0.9207 -0.5757  0.5646
  671TMC3    C6 9929   1.263   1.301  14.270 -0.6389  0.3310  0.4428
  671TMC3     C 9930   1.124   1.215  13.898 -0.1691  0.5034  0.5124
  671TMC3     O 9931   1.042   1.129  13.896  0.0247  0.1136 -0.0971
  671TMC3     H 9932   1.342   1.380  13.955  0.9788 -1.3491  0.4664
  671TMC3    H1 9933   1.000   1.177  14.107 -1.1688  1.9944 -0.3532
  671TMC3    H2 9934   1.322   1.293  14.361 -0.4084  0.4512  0.3049
  671TMC3    C7 9935   1.100   1.158  14.353 -0.4849 -0.5904  0.2336
  671TMC3    C8 9936   1.446   1.271  14.138  0.3954 -0.6875 -0.0943
  671TMC3    O1 9937   1.100   1.211  14.461  0.4201 -0.2946  0.4739
  671TMC3    O2 9938   1.448   1.161  14.195 -0.1063  0.0925  0.0524
  672MPD2     C 9939   0.924   1.552   1.166  0.5904  0.4288  0.4502
  672MPD2    C1 9940   0.918   1.659   1.076 -0.0634 -0.3354  0.0706
  672MPD2    C2 9941   0.883   1.784   1.116  0.2563 -0.1620 -0.3157
  672MPD2    C3 9942   0.859   1.805   1.254  1.0124 -0.5514 -0.2356
  672MPD2    C4 9943   0.874   1.702   1.345  0.3609  0.3522  0.0632
  672MPD2    C5 9944   0.903   1.580   1.297 -0.9590  0.2827  0.7129
  672MPD2     H 9945   0.877   1.864   1.042  0.6653  0.8143  0.7072
  672MPD2    H1 9946   0.855   1.716   1.451  0.7410  0.2683  0.1404
  672MPD2    H2 9947   0.936   1.455   1.120 -0.9347  0.3375  0.2453
  672MPD2    H3 9948   0.888   1.502   1.371  0.0770 -1.7570 -1.2328
  672MPD2     N 9949   0.839   1.937   1.304  0.1553  0.3584 -0.4139
  672MPD2    H5 9950   0.806   1.940   1.400 -3.2087 -0.5430 -1.5342
  672MPD2    N1 9951   0.951   1.649   0.937  0.1616 -0.2201 -0.7228
  672MPD2    H7 9952   0.925   1.726   0.876  0.6315  0.0802 -0.5433
  673TMC3    C1 9953   1.029   1.558   0.740  0.4084  0.0004  0.1315
  673TMC3    C2 9954   1.157   1.569   0.693  0.2918  0.5128 -0.1042
  673TMC3    C3 9955   1.179   1.681   0.627  0.0543  0.2897 -0.2683
  673TMC3    C4 9956   0.937   1.644   0.706  0.2121  0.2547 -0.1632
  673TMC3    C5 9957   0.958   1.742   0.621  0.2375  0.2774 -0.0205
  673TMC3    C6 9958   1.085   1.766   0.578  0.0615  0.5626 -0.0526
  673TMC3     C 9959   1.019   1.545   0.880 -0.7002 -0.0902 -0.0603
  673TMC3     O 9960   1.081   1.456   0.939 -0.2061 -0.4368 -0.3620
  673TMC3     H 9961   1.230   1.506   0.743 -0.1185 -0.4269 -0.6880
  673TMC3    H1 9962   0.834   1.624   0.733 -0.1623 -1.8631 -3.2217
  673TMC3    H2 9963   1.124   1.858   0.536  0.2047  0.3342 -0.4186
  673TMC3    C7 9964   0.878   1.857   0.661  0.0160  0.1435 -0.3489
  673TMC3    C8 9965   1.318   1.714   0.617 -0.2874  0.0823  0.0210
  673TMC3    O1 9966   0.822   1.842   0.766  0.3600  0.3376 -0.7402
  673TMC3    O2 9967   1.360   1.773   0.516  0.2356 -0.3302 -0.8564
  674MPD2     C 9968   1.244   2.273  17.656 -0.4041 -0.2299  0.5631
  674MPD2    C1 9969   1.225   2.141  17.685  1.0468 -0.8435 -0.2456
  674MPD2    C2 9970   1.094   2.092   0.007  0.2700  0.2676 -0.7829
  674MPD2    C3 9971   0.980   2.179   0.007  0.3490 -0.9066  0.6898
  674MPD2    C4 9972   1.007   2.315  17.696  0.7555  0.5862  0.3876
  674MPD2    C5 9973   1.136   2.354  17.659 -0.3045 -0.0014 -0.0022
  674MPD2     H 9974   1.074   1.989   0.033 -0.9296  0.7638  0.2854
  674MPD2    H1 9975   0.937   2.397   0.007  0.4527  0.1050  1.8083
  674MPD2    H2 9976   1.340   2.321  17.643 -0.5532 -0.3914 -1.0555
  674MPD2    H3 9977   1.150   2.462  17.659 -0.5810  0.0357 -0.2954
  674MPD2     N 9978   0.851   2.130   0.058  0.0564  0.4235  0.2385
  674MPD2    H5 9979   0.837   2.032   0.081  1.6974  0.1118 -0.1021
  674MPD2    N1 9980   1.341   2.057  17.698 -0.7282 -0.0356  0.2743
  674MPD2    H7 9981   1.431   2.104   0.003 -0.6419 -0.0667 -0.7238
  675TMC3    C1 9982   1.460   1.869   0.100 -0.4250 -0.4946  0.2177
  675TMC3    C2 9983   1.483   1.735   0.096 -0.0825 -0.0032 -0.1266
  675TMC3    C3 9984   1.568   1.676   0.183 -0.2838  0.4617  0.1432
  675TMC3    C4 9985   1.547   1.949   0.169 -0.5232 -0.4039 -0.2504
  675TMC3    C5 9986   1.629   1.889   0.259  0.1976 -0.3394  0.1858
  675TMC3    C6 9987   1.644   1.754   0.264 -0.1127  0.3918 -0.4378
  675TMC3     C 9988   1.338   1.920   0.023 -0.5145  0.4858 -0.2092
  675TMC3     O 9989   1.250   1.844  17.689  0.5701  0.3709  0.5661
  675TMC3     H 9990   1.427   1.668   0.033  1.0397 -0.4214 -0.6756
  675TMC3    H1 9991   1.524   2.055   0.170  0.5543 -0.1680 -0.3893
  675TMC3    H2 9992   1.727   1.717   0.322 -1.3089  0.0846  1.0575
  675TMC3    C7 9993   1.730   1.969   0.328 -0.2466 -0.1748 -0.3832
  675TMC3    C8 9994   1.498   1.568   0.251  0.7850  1.0202  1.4091
  675TMC3    O1 9995   1.818   1.911   0.395  0.2877  0.4712  0.1676
  675TMC3    O2 9996   1.376   1.557   0.227 -1.2472  0.5872  0.3183
  676MPD2     C 9997   4.224   0.061  11.294  0.1022  0.1946 -0.1690
  676MPD2    C1 9998   4.164   4.714  11.395  0.3604  0.7988  0.2152
  676MPD2    C2 9999   4.177   4.578  11.395  0.3145 -0.0381  0.0242
  676MPD2    C310000   4.255   4.512  11.297 -0.3143 -0.1537  0.2909
  676MPD2    C410001   4.317   4.584  11.202 -0.1963 -0.3843  0.2888
  676MPD2    C510002   4.299   4.722  11.199 -0.2208 -0.7928 -0.6001
  676MPD2     H10003   4.119   4.525  11.470  1.9580 -0.5133  0.9804
  676MPD2    H110004   4.388   4.544  11.131  0.9830  0.5487  0.9498
  676MPD2    H210005   4.224   0.169  11.288  1.9629  0.2150  0.0833
  676MPD2    H310006   4.348   0.049  11.117  0.6561 -0.7903 -0.0775
  676MPD2     N10007   4.280   4.371  11.307 -0.0626 -0.2202 -0.2704
  676MPD2    H510008   4.351   4.328  11.248  0.3194  0.3321 -0.2170
  676MPD2    N110009   4.113   0.054  11.514  0.5164 -0.7629  0.0476
  676MPD2    H710010   4.101   4.718  11.594  1.1507  0.7198  1.2703
  677TMC3    C110011   4.073   0.222  11.671 -0.8578  0.4933  0.8144
  677TMC3    C210012   4.038   0.123  11.758 -0.0804  0.5612 -0.5007
  677TMC3    C310013   4.071   0.134  11.890 -0.9150 -0.2097  0.5983
  677TMC3    C410014   4.149   0.328  11.712 -0.3741  0.2984 -0.1824
  677TMC3    C510015   4.178   0.331  11.844  0.5714 -0.4898 -0.0832
  677TMC3    C610016   4.141   0.236  11.932 -0.2307 -0.2368 -0.0704
  677TMC3     C10017   4.081   0.185  11.531 -0.0417  0.2833  0.1264
  677TMC3     O10018   4.073   0.274  11.452  0.2707 -0.2110 -0.9788
  677TMC3     H10019   3.982   0.037  11.723  0.7793  1.0095 -3.0247
  677TMC3    H110020   4.187   0.391  11.633  1.1456 -0.0154  0.3101
  677TMC3    H210021   4.196   0.229  12.026 -0.2835  2.1130  0.1431
  677TMC3    C710022   4.298   0.400  11.882  0.0173 -0.1635 -0.4930
  677TMC3    C810023   4.099   0.003  11.952  0.4003  0.4112 -0.6268
  677TMC3    O110024   4.342   0.401  11.997 -0.0077 -0.2452  0.4474
  677TMC3    O210025   4.127   4.639  11.873 -0.0983 -0.3992 -0.5066
  678MPD2     C10026   0.258   0.170   1.517 -0.1205  0.0006  0.0367
  678MPD2    C110027   0.237   0.202   1.386  0.7093  0.6654  0.5086
  678MPD2    C210028   0.118   0.268   1.357  0.4871 -0.2476  0.0605
  678MPD2    C310029   0.023   0.297   1.459 -0.2421 -0.8053 -0.0705
  678MPD2    C410030   0.052   0.261   1.585 -0.0323 -0.7611  0.0209
  678MPD2    C510031   0.168   0.197   1.617  0.1279  0.3425  0.2492
  678MPD2     H10032   0.095   0.301   1.256  1.1149  0.7329  0.2381
  678MPD2    H110033   4.716   0.303   1.664  0.3380 -4.3303  2.2279
  678MPD2    H210034   0.352   0.123   1.545 -1.0588 -1.8023  0.1429
  678MPD2    H310035   0.200   0.188   1.720  0.9432  0.8419  0.0384
  678MPD2     N10036   4.626   0.356   1.422  0.6945 -0.6951  0.3267
  678MPD2    H510037   4.620   0.391   1.327  1.7761  0.4606  0.6918
  678MPD2    N110038   0.335   0.179   1.284 -0.3693  0.2719  0.5361
  678MPD2    H710039   0.310   0.224   1.197 -2.0769 -1.9891 -0.1492
  679TMC3    C110040   0.598   4.678   1.017  0.3983  0.0662  0.1599
  679TMC3    C210041   0.580   4.713   1.147 -0.2883 -0.5492  0.2490
  679TMC3    C310042   0.517   0.107   1.164 -0.2615  0.1447 -0.0393
  679TMC3    C410043   0.544   0.017   0.909 -0.1892  0.1620 -0.3399
  679TMC3    C510044   0.480   0.134   0.932  0.2417 -0.5142  0.4939
  679TMC3    C610045   0.469   0.182   1.060 -0.3681 -0.7039  0.2836
  679TMC3     C10046   0.662   4.556   0.993 -1.0753  0.1356 -0.3739
  679TMC3     O10047   0.642   4.451   1.055  0.3721  0.1451  0.1416
  679TMC3     H10048   0.615   4.653   1.230  0.4048  0.7591  0.8972
  679TMC3    H110049   0.572   4.707   0.810 -3.2904 -0.6511 -0.9488
  679TMC3    H210050   0.443   0.282   1.091  2.5364  0.3760 -0.7993
  679TMC3    C710051   0.536   0.236   0.853 -0.6787 -0.0746 -0.0073
  679TMC3    C810052   0.460   0.118   1.294 -0.6803 -0.7045 -0.4401
  679TMC3    O110053   0.645   0.219   0.801  0.0119 -0.0614 -0.0247
  679TMC3    O210054   0.518   0.078   1.395 -0.1663 -0.5486  0.3864
  680MPD2     C10055   0.224   2.730  13.652 -0.3063  0.2746  0.4065
  680MPD2    C110056   0.276   2.809  13.751 -0.0037  0.2992 -0.4525
  680MPD2    C210057   0.301   2.946  13.732  0.0438 -0.5208  0.2338
  680MPD2    C310058   0.259   3.011  13.619 -0.4881 -0.0656 -0.3206
  680MPD2    C410059   0.190   2.934  13.523  0.7797  0.2942  0.0798
  680MPD2    C510060   0.181   2.803  13.544  0.1064 -0.1591  0.0018
  680MPD2     H10061   0.352   2.999  13.812  0.8751  0.9936 -1.3137
  680MPD2    H110062   0.154   2.966  13.426 -1.8843 -1.8348  0.3567
  680MPD2    H210063   0.211   2.623  13.656  0.6618  0.1995  1.5175
  680MPD2    H310064   0.127   2.738  13.476 -0.8030 -1.9907  2.4372
  680MPD2     N10065   0.280   3.153  13.602  0.6768  0.3915 -0.5795
  680MPD2    H510066   0.254   3.190  13.511  1.1306  0.0634 -0.8459
  680MPD2    N110067   0.334   2.751  13.865 -0.1328  0.0488  0.2620
  680MPD2    H710068   0.330   2.808  13.949 -0.2740  0.5703 -0.0991
  681TMC3    C110069   0.493   2.615  13.966  0.4258  0.6757  0.1291
  681TMC3    C210070   0.473   2.691  14.072  0.4662  0.2430  0.4220
  681TMC3    C310071   0.590   2.734  14.141 -0.0652  0.2810 -0.3481
  681TMC3    C410072   0.616   2.558  13.938 -0.2154  0.6012  0.2940
  681TMC3    C510073   0.727   2.600  14.008  0.7866  0.0381 -0.7270
  681TMC3    C610074   0.716   2.686  14.108  0.4348 -0.7667 -0.0161
  681TMC3     C10075   0.402   2.630  13.863  0.3665  0.1940 -0.1833
  681TMC3     O10076   0.419   2.555  13.766  0.1300  0.3244 -0.0241
  681TMC3     H10077   0.374   2.727  14.099 -0.1465 -1.2656  0.1695
  681TMC3    H110078   0.630   2.492  13.853  2.8597  0.0106  1.2648
  681TMC3    H210079   0.809   2.725  14.149 -0.2165 -1.1593  1.8510
  681TMC3    C710080   0.858   2.585  13.945 -0.0339  0.4601  0.5754
  681TMC3    C810081   0.579   2.844  14.235 -0.3981 -0.2521  0.1708
  681TMC3    O110082   0.953   2.588  14.026  0.5589 -0.1099  0.5681
  681TMC3    O210083   0.470   2.892  14.262  0.3940 -0.6936  0.4050
  682MPD2     C10084   3.367   0.335  10.786 -0.4023 -1.3147  0.5522
  682MPD2    C110085   3.370   0.197  10.807  0.0426  0.1660 -0.0130
  682MPD2    C210086   3.320   0.147  10.923 -0.2937  0.1232  0.3887
  682MPD2    C310087   3.258   0.240  11.013  0.1777 -0.0720 -0.1826
  682MPD2    C410088   3.248   0.376  10.988  0.0186 -0.1051  0.9294
  682MPD2    C510089   3.309   0.427  10.875 -0.9269  0.2162  0.4622
  682MPD2     H10090   3.348   0.044  10.942 -0.1301  0.5497  2.4639
  682MPD2    H110091   3.194   0.445  11.052 -0.2342  2.2978 -1.9010
  682MPD2    H210092   3.410   0.384  10.700 -2.1348  0.4710  0.6918
  682MPD2    H310093   3.318   0.535  10.865 -1.9558  0.3665  1.1812
  682MPD2     N10094   3.192   0.190  11.124  0.1483 -0.1947 -0.1049
  682MPD2    H510095   3.149   0.262  11.181  0.3577 -0.3853  0.2965
  682MPD2    N110096   3.422   0.102  10.714 -0.0138  0.1675  0.4792
  682MPD2    H710097   3.388   0.009  10.737 -1.1832  0.7365  1.0655
  683TMC3    C110098   3.003   0.092  11.479  0.1183 -1.7381 -0.2626
  683TMC3    C210099   2.901   0.008  11.472 -0.7485 -0.1409  0.4283
  683TMC3    C310100   2.899   4.651  11.361  0.0015  0.0164 -0.2425
  683TMC3    C410101   3.091   0.116  11.373 -0.2108  1.1881  0.2985
  683TMC3    C510102   3.077   0.039  11.266 -0.2979  0.6741 -0.3188
  683TMC3    C610103   2.983   4.663  11.259  0.5424  1.3581 -0.5075
  683TMC3     C10104   3.055   0.148  11.609  0.4052 -0.1748 -0.1417
  683TMC3     O10105   3.090   0.269  11.604  0.1835 -0.3711 -0.0177
  683TMC3     H10106   2.846   4.704  11.561 -0.4516  1.0383  0.9942
  683TMC3    H110107   3.174   0.185  11.385 -1.2118  2.0784  2.1304
  683TMC3    H210108   2.983   4.609  11.164 -0.4325  0.6044 -0.0820
  683TMC3    C710109   3.161   0.060  11.152  0.8486  0.6004 -0.1846
  683TMC3    C810110   2.799   4.549  11.356 -1.0735 -0.3456  0.3087
  683TMC3    O110111   3.184   4.682  11.091  0.5563 -0.1083 -0.0493
  683TMC3    O210112   2.690   4.574  11.410  0.1039  0.0694  0.4669
  684MPD2     C10113   1.135   3.925  16.132  0.0110 -0.1408  0.4715
  684MPD2    C110114   1.141   3.992  16.010  0.5040  0.7500 -0.4374
  684MPD2    C210115   1.191   4.119  16.021 -0.7359 -0.0356  0.6649
  684MPD2    C310116   1.240   4.176  16.134 -0.1112  0.2084 -0.2367
  684MPD2    C410117   1.243   4.097  16.256  0.2126  0.2928  0.4183
  684MPD2    C510118   1.177   3.975  16.254 -0.0912  0.5638  0.9124
  684MPD2     H10119   1.200   4.172  15.927 -0.0342  0.6610  1.1222
  684MPD2    H110120   1.273   4.124  16.356  0.4329  0.6067  0.2666
  684MPD2    H210121   1.097   3.823  16.131  0.8857 -0.4572 -0.5639
  684MPD2    H310122   1.168   3.917  16.345  1.7264 -1.4269 -0.1843
  684MPD2     N10123   1.274   4.312  16.144  0.2662  0.1677  0.3997
  684MPD2    H510124   1.304   4.343  16.236  0.5152 -4.6492  1.9110
  684MPD2    N110125   1.111   3.932  15.883  0.0384  0.0078 -0.0739
  684MPD2    H710126   1.133   3.992  15.804 -0.3384  2.5171  1.7218
  685TMC3    C110127   1.108   3.760  15.721 -0.1221  0.9848  1.1375
  685TMC3    C210128   1.070   3.851  15.630  0.5921 -0.3058 -0.1849
  685TMC3    C310129   1.133   3.851  15.509 -0.7350  0.2912  0.0947
  685TMC3    C410130   1.207   3.671  15.694 -0.3813 -0.7515 -0.6713
  685TMC3    C510131   1.274   3.681  15.578 -0.1896  0.1728  0.1795
  685TMC3    C610132   1.244   3.777  15.485 -0.3151 -0.1130 -0.4328
  685TMC3     C10133   1.078   3.797  15.859 -0.1057 -0.3190  0.2936
  685TMC3     O10134   1.072   3.703  15.936  0.4131  0.4734  0.4954
  685TMC3     H10135   0.976   3.899  15.653  0.4354 -0.0006 -1.4740
  685TMC3    H110136   1.242   3.604  15.772 -0.8447 -0.2105  0.0124
  685TMC3    H210137   1.294   3.800  15.392 -0.8455 -1.4227 -1.0366
  685TMC3    C710138   1.417   3.642  15.579  0.2323  0.1636  0.6664
  685TMC3    C810139   1.108   3.965  15.431 -0.3911 -0.2107  0.3908
  685TMC3    O110140   1.479   3.630  15.475  0.4419  0.3550  0.2259
  685TMC3    O210141   1.202   4.028  15.394 -0.3753 -0.5821 -0.6511
  686MPD2     C10142   2.474   4.114  15.353  0.1012  0.2272  0.4561
  686MPD2    C110143   2.532   4.019  15.431 -0.1324  0.6642  0.1690
  686MPD2    C210144   2.596   3.908  15.376 -0.3355 -0.2121  0.1294
  686MPD2    C310145   2.616   3.909  15.240 -0.4292 -0.0452  0.1355
  686MPD2    C410146   2.588   4.024  15.174  0.0396 -0.3749  0.7017
  686MPD2    C510147   2.508   4.121  15.218 -0.4788 -0.2070  0.0430
  686MPD2     H10148   2.621   3.822  15.436  0.5229 -0.3905 -0.4871
  686MPD2    H110149   2.617   4.030  15.069 -0.2688  1.0163  0.6925
  686MPD2    H210150   2.406   4.188  15.394  1.9762  0.6712  2.7289
  686MPD2    H310151   2.453   4.192  15.156 -0.0684  0.1715  0.1084
  686MPD2     N10152   2.660   3.794  15.180  0.0287  0.1107 -0.1070
  686MPD2    H510153   2.694   3.721  15.242  0.3975 -0.2911 -0.7829
  686MPD2    N110154   2.509   4.029  15.567 -0.2593  0.2651  0.9662
  686MPD2    H710155   2.447   4.107  15.590  0.0448  0.8368 -0.1364
  687TMC3    C110156   2.641   3.622  15.027  0.0731 -0.0845 -0.1038
  687TMC3    C210157   2.521   3.575  14.995 -0.4110  0.1112 -0.4032
  687TMC3    C310158   2.459   3.475  15.071  0.9459  0.2229 -0.2238
  687TMC3    C410159   2.712   3.566  15.136  0.1677  0.1883  0.0180
  687TMC3    C510160   2.652   3.469  15.210  0.0115  0.4714 -0.2060
  687TMC3    C610161   2.526   3.411  15.170  0.4854  0.5337 -0.2915
  687TMC3     C10162   2.626   3.763  15.049  1.3839  0.0352  0.0158
  687TMC3     O10163   2.538   3.820  14.989  1.1731  0.1686 -0.4365
  687TMC3     H10164   2.467   3.628  14.917 -0.5463 -1.5447 -1.4428
  687TMC3    H110165   2.818   3.579  15.152  0.2846 -0.1051 -0.5020
  687TMC3    H210166   2.480   3.340  15.238  1.0853  2.1755  1.8183
  687TMC3    C710167   2.650   3.517  15.353  0.0417 -0.7372 -0.1920
  687TMC3    C810168   2.320   3.504  15.105  0.3923 -0.0469 -0.3575
  687TMC3    O110169   2.728   3.611  15.369  0.2131  0.1994  0.2468
  687TMC3    O210170   2.264   3.408  15.161  0.0709  0.0225  0.2090
  688MPD2     C10171   1.956   3.297  17.524  0.2094 -0.0380 -0.4568
  688MPD2    C110172   1.952   3.158  17.520 -1.0667 -0.3823 -0.3498
  688MPD2    C210173   2.030   3.085  17.434  0.0481  0.7562 -0.7653
  688MPD2    C310174   2.130   3.148  17.371 -0.1312 -1.1838  0.1697
  688MPD2    C410175   2.148   3.283  17.392 -0.3198  0.1432  0.0844
  688MPD2    C510176   2.060   3.356  17.468  0.1975 -0.3157  0.0529
  688MPD2     H10177   2.012   2.978  17.431 -0.0597  0.7404  0.4407
  688MPD2    H110178   2.225   3.336  17.338 -1.9192  2.0873 -0.2780
  688MPD2    H210179   1.890   3.363  17.578 -0.1228  0.5815 -1.6463
  688MPD2    H310180   2.078   3.462  17.480  0.4851 -0.5770  1.9004
  688MPD2     N10181   2.211   3.086  17.269 -0.1557 -0.6113 -0.2279
  688MPD2    H510182   2.289   3.141  17.235 -0.6230  1.1227  1.4595
  688MPD2    N110183   1.843   3.081  17.577 -0.0788 -0.4653  0.3811
  688MPD2    H710184   1.846   2.982  17.555  1.3962 -0.2814 -0.2838
  689TMC3    C110185   1.625   3.036  17.653 -0.8278  0.1855  0.0213
  689TMC3    C210186   1.521   3.057   0.038  0.0264 -0.1885  0.4801
  689TMC3    C310187   1.406   2.982   0.039  0.2194 -0.8454  0.2008
  689TMC3    C410188   1.610   2.946  17.551 -0.0941 -0.2282 -0.4856
  689TMC3    C510189   1.495   2.871  17.545  0.3847 -0.0385 -0.4944
  689TMC3    C610190   1.400   2.881  17.644  0.1660 -0.4879 -0.1041
  689TMC3     C10191   1.733   3.132  17.641 -0.8968 -0.4962 -0.3894
  689TMC3     O10192   1.714   3.242  17.695 -0.5075  0.0539  0.5616
  689TMC3     H10193   1.540   3.126   0.119 -0.6212  0.3758  0.1550
  689TMC3    H110194   1.676   2.939  17.466 -0.5716 -1.8426 -0.7308
  689TMC3    H210195   1.306   2.828  17.627  0.2683 -1.0603  1.1720
  689TMC3    C710196   1.467   2.809  17.424 -0.0629 -0.2361 -0.1768
  689TMC3    C810197   1.342   2.960   0.163  0.0753  0.1110  0.2121
  689TMC3    O110198   1.523   2.859  17.323  0.1311 -0.2219 -0.4152
  689TMC3    O210199   1.338   3.037   0.255 -0.2569  0.1180 -0.6096
  690MPD2     C10200   3.832   0.107  15.973 -0.6121 -0.5408  0.3294
  690MPD2    C110201   3.746   0.035  15.891  0.7522  0.0141  0.2537
  690MPD2    C210202   3.741   0.060  15.752 -0.3946 -0.0720  0.2412
  690MPD2    C310203   3.815   0.165  15.702  0.0077  0.1359 -0.5578
  690MPD2    C410204   3.896   0.238  15.789 -0.2334  0.2544 -0.0441
  690MPD2    C510205   3.899   0.213  15.922  0.1748 -0.3141 -0.0818
  690MPD2     H10206   3.700   4.714  15.681 -0.4949 -0.4811  0.7140
  690MPD2    H110207   3.950   0.318  15.740  1.9891 -0.7866  0.6910
  690MPD2    H210208   3.837   0.084  16.079  0.8498  2.4509  0.9201
  690MPD2    H310209   3.965   0.272  15.984 -0.5987  1.1637 -0.6771
  690MPD2     N10210   3.815   0.202  15.562 -0.8294 -0.2145  0.6702
  690MPD2    H510211   3.749   0.158  15.499  0.3401 -1.1205  0.0765
  690MPD2    N110212   3.667   4.654  15.942 -0.6110  0.2604 -0.0943
  690MPD2    H710213   3.639   4.585  15.873  2.0533  0.2785 -1.2048
  691TMC3    C110214   3.541   4.508  16.079  0.4535  0.2074  0.4407
  691TMC3    C210215   3.433   4.501  16.161 -0.0018  0.5447  0.9123
  691TMC3    C310216   3.351   4.392  16.152 -0.6425 -0.3678 -0.0866
  691TMC3    C410217   3.570   4.409  15.986  0.1073 -0.0505  0.0935
  691TMC3    C510218   3.491   4.296  15.988 -0.2788  0.0956 -0.4780
  691TMC3    C610219   3.375   4.293  16.064  0.2848  0.4134  0.0565
  691TMC3     C10220   3.623   4.634  16.073 -0.3844  1.2963 -0.1275
  691TMC3     O10221   3.606   4.717  16.161 -0.2561 -0.4368  0.0235
  691TMC3     H10222   3.428   4.569  16.245 -0.2077  1.8336 -0.1556
  691TMC3    H110223   3.667   4.419  15.938 -0.3071 -0.2557 -0.7902
  691TMC3    H210224   3.300   4.216  16.047 -0.0275  0.7285 -0.0066
  691TMC3    C710225   3.512   4.209  15.874 -0.2021 -0.4994 -0.0862
  691TMC3    C810226   3.232   4.393  16.226 -0.0065  0.0930 -0.5113
  691TMC3    O110227   3.610   4.236  15.804 -0.0744 -0.2387  0.0126
  691TMC3    O210228   3.181   4.286  16.242 -0.6655  0.0426 -0.2148
  692TMC3    C110229   0.780   0.888  16.239 -0.3863 -0.2063  0.5225
  692TMC3    C210230   0.905   0.895  16.288 -0.5210 -0.0582 -0.6274
  692TMC3    C310231   1.016   0.858  16.219 -0.2550 -1.0772 -0.1331
  692TMC3    C410232   0.758   0.831  16.111  0.7190 -0.1806  0.5745
  692TMC3    C510233   0.866   0.775  16.053 -0.4116  0.3571 -0.2096
  692TMC3    C610234   0.996   0.785  16.109 -0.0037 -0.3241 -0.0260
  692TMC3     C10235   0.690   0.994  16.277  0.7111 -0.2614 -0.9014
  692TMC3     O10236   0.580   0.999  16.223  0.3922  0.1345 -0.0895
  692TMC3     H10237   0.916   0.933  16.389  0.0170  3.6453 -2.0667
  692TMC3    H110238   0.656   0.822  16.076  1.2939  0.3394 -1.2596
  692TMC3    H210239   1.080   0.781  16.041 -0.5578 -0.6507 -0.7053
  692TMC3    C710240   0.832   0.661  15.976  0.2171 -0.1537 -0.6815
  692TMC3    C810241   1.121   0.794  16.306 -0.1920  0.1234  0.6194
  692TMC3    O110242   0.718   0.657  15.926  0.6465 -0.0319 -0.6509
  692TMC3    O210243   1.181   0.692  16.277 -0.3946 -0.1980  0.1183
  693MPD2     C10244   0.615   3.828  10.930  0.6443  0.3479  0.6543
  693MPD2    C110245   0.574   3.726  11.013  0.2063 -0.1733  0.0837
  693MPD2    C210246   0.664   3.632  11.055  0.1720 -0.2244  0.1936
  693MPD2    C310247   0.800   3.643  11.029 -0.4942 -0.3934 -0.1035
  693MPD2    C410248   0.837   3.746  10.945  0.0583 -0.0628  0.1052
  693MPD2    C510249   0.742   3.835  10.894 -0.0657  0.0206  0.0309
  693MPD2     H10250   0.619   3.547  11.105 -0.1464 -0.4067 -0.3993
  693MPD2    H110251   0.940   3.753  10.910  0.2954 -0.2710  0.7555
  693MPD2    H210252   0.556   3.901  10.876 -1.2195  0.4889  2.8517
  693MPD2    H310253   0.775   3.894  10.809 -1.4655  0.5507 -0.1305
  693MPD2     N10254   0.900   3.555  11.071 -0.0236  0.4842  0.3796
  693MPD2    H510255   0.996   3.576  11.044 -0.4139  1.7623 -0.0289
  693MPD2    N110256   0.443   3.718  11.059  0.7458  0.3812 -0.5333
  693MPD2    H710257   0.419   3.648  11.129  1.4057  0.1475 -0.5388
  694TMC3    C110258   0.203   3.773  11.056  0.0292  0.0856 -0.0316
  694TMC3    C210259   0.110   3.735  10.969 -0.1846  0.6256 -0.0170
  694TMC3    C310260   0.002   3.665  11.025  0.1848  0.1122  1.1485
  694TMC3    C410261   0.208   3.732  11.190  0.0091  0.0888  0.1328
  694TMC3    C510262   0.096   3.661  11.239 -0.5799 -0.3661  0.6295
  694TMC3    C610263   4.720   3.623  11.158 -0.7609  0.2071  0.1092
  694TMC3     C10264   0.339   3.801  11.005  0.3517 -1.1617  0.2744
  694TMC3     O10265   0.343   3.843  10.894 -0.7061  0.0388 -0.3958
  694TMC3     H10266   0.121   3.765  10.865  2.2055  2.0489  0.6363
  694TMC3    H110267   0.287   3.753  11.261 -1.4478 -2.2463  2.4752
  694TMC3    H210268   4.623   3.594  11.197 -0.8388  1.2656  0.7134
  694TMC3    C710269   0.083   3.634  11.378  0.1603  0.6393  0.2504
  694TMC3    C810270   4.651   3.582  10.943  0.1409  1.0630  0.3899
  694TMC3    O110271   0.137   3.702  11.457 -0.4792  0.1081  0.6008
  694TMC3    O210272   4.569   3.511  10.999  0.3035  0.1434  0.2260
  695MPD2     C10273   1.414   0.307  13.733 -0.4914  0.3047 -0.7651
  695MPD2    C110274   1.408   0.374  13.855 -0.1790  0.6224  0.5282
  695MPD2    C210275   1.289   0.382  13.924 -0.0913  0.9022 -0.5304
  695MPD2    C310276   1.169   0.336  13.871  0.7224 -0.7215 -1.2326
  695MPD2    C410277   1.172   0.274  13.745 -0.2771 -0.3390 -0.0735
  695MPD2    C510278   1.292   0.263  13.681 -0.9449  0.3569  0.2024
  695MPD2     H10279   1.289   0.441  14.015 -2.5818  3.2719 -2.0783
  695MPD2    H110280   1.081   0.250  13.690 -2.1727  1.7613  2.1436
  695MPD2    H210281   1.504   0.304  13.673  0.6676 -2.0735  1.1528
  695MPD2    H310282   1.294   0.221  13.581  1.3840 -0.1688  0.4647
  695MPD2     N10283   1.053   0.352  13.945 -0.6837  0.2976  0.0148
  695MPD2    H510284   1.069   0.384  14.040 -1.3894  0.1407  0.1881
  695MPD2    N110285   1.526   0.442  13.903  0.2163 -0.0860  0.6416
  695MPD2    H710286   1.513   0.513  13.974 -0.2061 -1.0638  1.5457
  696TMC3    C110287   0.822   0.378  13.992 -0.1219 -0.7123  0.3095
  696TMC3    C210288   0.850   0.378  14.126 -0.0617  0.4663  0.5599
  696TMC3    C310289   0.774   0.460  14.211  0.6420  0.3271  0.4775
  696TMC3    C410290   0.724   0.447  13.935  0.0068  0.4117  0.4427
  696TMC3    C510291   0.649   0.529  14.019  0.0716 -0.4512 -0.3143
  696TMC3    C610292   0.668   0.532  14.156  0.3212  0.3671 -0.3916
  696TMC3     C10293   0.927   0.353  13.892  0.1160  0.3910 -0.1884
  696TMC3     O10294   0.896   0.338  13.773 -0.2620 -0.0575 -0.4464
  696TMC3     H10295   0.935   0.328  14.170 -0.1170  0.0055  0.1410
  696TMC3    H110296   0.706   0.449  13.828 -1.6122 -1.1442  0.6721
  696TMC3    H210297   0.595   0.589  14.211 -0.8911 -1.9721  0.4405
  696TMC3    C710298   0.630   0.656  13.954 -0.5709  0.4153  0.3787
  696TMC3    C810299   0.870   0.545  14.272 -0.6342  0.3420  0.4635
  696TMC3    O110300   0.588   0.657  13.840  0.5379  0.3984 -0.2065
  696TMC3    O210301   0.974   0.563  14.206  0.1726 -0.1369  0.6397
  697MPD2     C10302   0.637   2.892  15.861  0.4903  0.0441 -0.0542
  697MPD2    C110303   0.680   2.806  15.760 -0.2481 -0.1216  0.3152
  697MPD2    C210304   0.718   2.864  15.643  0.0826 -0.3323 -0.5546
  697MPD2    C310305   0.723   2.998  15.626 -0.1075 -0.4950 -0.3976
  697MPD2    C410306   0.697   3.079  15.724  1.0229 -0.0658 -0.2544
  697MPD2    C510307   0.653   3.026  15.842  0.4880 -0.6047 -0.2728
  697MPD2     H10308   0.755   2.804  15.560 -0.6298 -0.6355 -0.6514
  697MPD2    H110309   0.713   3.186  15.713 -0.6447  0.2354  0.2264
  697MPD2    H210310   0.598   2.868  15.959  0.9712  0.0511  0.1376
  697MPD2    H310311   0.634   3.094  15.924 -1.0561 -1.6420  0.2233
  697MPD2     N10312   0.760   3.045  15.493 -0.1683  0.2492 -0.1293
  697MPD2    H510313   0.773   2.969  15.427  0.7895 -0.0321  0.3813
  697MPD2    N110314   0.665   2.668  15.770  0.2126  0.5747  0.4234
  697MPD2    H710315   0.706   2.617  15.692 -3.1008 -0.9681 -0.3432
  698TMC3    C110316   0.861   3.190  15.330  0.4211 -0.2113  0.4483
  698TMC3    C210317   0.931   3.308  15.306 -1.5333  0.4250 -0.5516
  698TMC3    C310318   1.000   3.322  15.190  0.6041  0.0572  0.0189
  698TMC3    C410319   0.860   3.088  15.244  0.5935 -0.1405  0.1259
  698TMC3    C510320   0.933   3.106  15.130 -0.1908 -0.4955 -0.0054
  698TMC3    C610321   1.005   3.225  15.095 -0.1230 -0.5824 -0.3304
  698TMC3     C10322   0.796   3.174  15.461  0.3791 -0.6812 -0.6184
  698TMC3     O10323   0.771   3.281  15.517  0.5281  0.0433  0.0409
  698TMC3     H10324   0.905   3.398  15.360 -0.7255 -0.1485  0.8074
  698TMC3    H110325   0.817   2.990  15.264  0.2304 -0.1309 -0.6197
  698TMC3    H210326   1.078   3.228  15.015 -2.0101  0.9125 -1.9816
  698TMC3    C710327   0.911   3.005  15.031  0.2743  0.1126 -0.6714
  698TMC3    C810328   1.059   3.453  15.164  0.0242  0.5491 -0.0191
  698TMC3    O110329   0.836   2.913  15.051  0.0058 -0.3365 -0.0728
  698TMC3    O210330   1.102   3.514  15.261  0.7841 -0.2776  0.6567
  699TMC3    C110331   0.854   0.799  13.148  0.2008 -0.6294 -0.0120
  699TMC3    C210332   0.917   0.676  13.164  0.4312  0.0846  0.4275
  699TMC3    C310333   0.834   0.571  13.200  0.8107 -0.1341 -0.0892
  699TMC3    C410334   0.729   0.829  13.190  0.5234  0.0079 -0.1046
  699TMC3    C510335   0.655   0.722  13.232 -0.3995 -0.4211  0.2637
  699TMC3    C610336   0.705   0.596  13.231 -0.1916  0.3819 -0.8383
  699TMC3     C10337   0.922   0.912  13.084 -0.3048  0.8148  0.6914
  699TMC3     O10338   0.854   1.015  13.078 -0.2590  0.1107 -0.5624
  699TMC3     H10339   1.016   0.653  13.126  0.8539  3.0850 -0.2805
  699TMC3    H110340   0.680   0.926  13.188 -1.7008 -1.1423 -1.1759
  699TMC3    H210341   0.651   0.509  13.265  0.4787 -0.9377 -3.1737
  699TMC3    C710342   0.517   0.747  13.269 -0.2179  0.1764  0.8209
  699TMC3    C810343   0.894   0.487  13.298  0.1850  0.5755  0.1130
  699TMC3    O110344   0.483   0.858  13.303  0.0011 -0.0587 -0.9852
  699TMC3    O210345   0.816   0.463  13.392  0.5188 -0.2313  0.0488
  700TMC3    C110346   4.334   3.587   0.098  0.3373  0.1371  0.5810
  700TMC3    C210347   4.407   3.471   0.092  0.0392 -0.0500 -0.4108
  700TMC3    C310348   4.543   3.479   0.123 -0.3609 -0.1794  0.2105
  700TMC3    C410349   4.403   3.707   0.111 -0.2110  0.4422 -0.5852
  700TMC3    C510350   4.534   3.702   0.158  0.0265 -0.0968 -0.0615
  700TMC3    C610351   4.607   3.590   0.149 -0.2383  0.2808 -0.9488
  700TMC3     C10352   4.248   3.594  17.683  0.0480  0.6894 -0.3274
  700TMC3     O10353   4.161   3.509  17.667  0.5118  0.1709 -0.4899
  700TMC3     H10354   4.366   3.376   0.060  0.6935 -0.9011  1.2660
  700TMC3    H110355   4.345   3.797   0.092 -1.0619  0.3148  1.4016
  700TMC3    H210356   4.714   3.587   0.165 -0.1798  0.3153 -1.3359
  700TMC3    C710357   4.603   3.823   0.122 -0.3137  0.2406  0.1212
  700TMC3    C810358   4.615   3.366   0.070  0.1220  0.3227 -0.2576
  700TMC3    O110359   4.546   3.884   0.032 -0.2349  0.2746 -0.0850
  700TMC3    O210360   4.722   3.396   0.018 -0.7104  0.3149 -0.2020
  701TMC3    C110361   4.597   2.031  15.997 -0.1536  0.1236  0.3909
  701TMC3    C210362   4.586   1.992  15.863 -0.5058  0.8089  0.1689
  701TMC3    C310363   4.692   2.022  15.782 -0.6211  0.0280 -0.0472
  701TMC3    C410364   4.688   2.129  16.029 -0.6818 -0.0205  0.7397
  701TMC3    C510365   0.067   2.150  15.943  0.3963 -0.2302  0.6019
  701TMC3    C610366   0.074   2.093  15.817  0.0463  0.5620 -0.3753
  701TMC3     C10367   4.475   2.019  16.081 -0.5840 -0.0661  0.2603
  701TMC3     O10368   4.457   2.110  16.165 -0.1596 -0.4635  0.0052
  701TMC3     H10369   4.500   1.937  15.827  1.6686  0.0706 -3.9381
  701TMC3    H110370   4.680   2.170  16.129 -0.1590  1.1097  0.3130
  701TMC3    H210371   0.143   2.121  15.739 -0.7358 -0.4894 -1.4433
  701TMC3    C710372   0.145   2.272  15.946  0.1216  0.1076 -0.0442
  701TMC3    C810373   4.695   1.983  15.644  0.2553 -0.8236  0.2067
  701TMC3    O110374   0.200   2.314  15.844 -0.3361 -0.2983  0.6321
  701TMC3    O210375   0.084   1.961  15.596  0.2015 -0.1641  0.2581
  702MPD2     C10376   4.362   3.886  10.811 -0.8248  0.4931  0.1628
  702MPD2    C110377   4.276   3.980  10.853 -0.3400 -0.5180  0.7704
  702MPD2    C210378   4.186   4.046  10.775  0.0625 -0.7417  0.5843
  702MPD2    C310379   4.203   4.027  10.641  0.9759  0.1021 -0.2590
  702MPD2    C410380   4.292   3.943  10.589  0.4653  0.5789 -0.5173
  702MPD2    C510381   4.368   3.871  10.675  0.4203  0.7332 -0.0026
  702MPD2     H10382   4.120   4.115  10.826 -1.6657  1.2975 -4.4320
  702MPD2    H110383   4.312   3.928  10.483 -2.3714 -0.3883 -0.9275
  702MPD2    H210384   4.431   3.827  10.870  0.2504 -0.8030 -2.3987
  702MPD2    H310385   4.431   3.794  10.631  0.2961 -0.0828  1.2363
  702MPD2     N10386   4.125   4.103  10.553 -0.2318  0.0727  0.0901
  702MPD2    H510387   4.056   4.166  10.594  0.4116  0.7083  0.1981
  702MPD2    N110388   4.262   3.994  10.993 -0.3755  0.6710 -0.1167
  702MPD2    H710389   4.185   4.051  11.027  1.3152  2.3358  0.9220
  703TMC3    C110390   4.073   4.233  10.364 -0.1870 -0.0742 -0.4343
  703TMC3    C210391   3.971   4.286  10.439  0.0708  0.0896 -0.3742
  703TMC3    C310392   3.946   4.417  10.422  0.4871  0.7107  0.3746
  703TMC3    C410393   4.163   4.311  10.292 -0.1374 -0.5454  0.0030
  703TMC3    C510394   4.155   4.448  10.317  0.1517  0.6231  0.0767
  703TMC3    C610395   4.044   4.498  10.377  0.9125  0.2321 -0.1265
  703TMC3     C10396   4.138   4.111  10.413 -0.3984 -0.3362  0.3842
  703TMC3     O10397   4.202   4.039  10.333 -0.1533  0.3608  0.4956
  703TMC3     H10398   3.910   4.217  10.497 -0.7130  1.3301  0.2914
  703TMC3    H110399   4.253   4.260  10.260  0.7954  0.8143  0.4519
  703TMC3    H210400   4.041   4.606  10.383 -0.2382  0.3788 -3.5536
  703TMC3    C710401   4.281   4.524  10.340  0.2250 -0.0879  0.3992
  703TMC3    C810402   3.860   4.477  10.521  0.4776  0.1978  0.2283
  703TMC3    O110403   4.380   4.452  10.345 -0.1988 -0.2193  0.2820
  703TMC3    O210404   3.885   4.594  10.545  0.1498  0.2196  0.0494
  704TMC3    C110405   1.861   2.501  12.432  0.2340  0.5739  0.0206
  704TMC3    C210406   1.989   2.505  12.488  0.0353  0.0437  0.1515
  704TMC3    C310407   2.026   2.398  12.566 -0.5153  0.5558 -1.0170
  704TMC3    C410408   1.775   2.401  12.453 -0.4199 -0.8899 -0.9981
  704TMC3    C510409   1.807   2.301  12.539  0.1595 -0.0874 -0.3605
  704TMC3    C610410   1.936   2.293  12.592 -0.1478  0.1956  0.4027
  704TMC3     C10411   1.823   2.606  12.340  0.3519 -0.3863 -0.4038
  704TMC3     O10412   1.701   2.629  12.342 -0.2705  0.2921 -0.2734
  704TMC3     H10413   2.059   2.586  12.474  1.5690 -1.1095  1.1370
  704TMC3    H110414   1.682   2.406  12.397  1.3404  2.8712 -3.5499
  704TMC3    H210415   1.975   2.203  12.639 -0.7558  0.9881  2.4024
  704TMC3    C710416   1.776   2.172  12.491  0.0240  0.4330  0.8428
  704TMC3    C810417   2.168   2.380  12.584 -0.3737  0.6912  0.1028
  704TMC3    O110418   1.799   2.153  12.375 -0.1579 -0.0956 -0.5297
  704TMC3    O210419   2.235   2.438  12.500  0.2997 -0.8730 -0.0083
  705MPD2     C10420   1.513   0.398  17.036  0.0887  0.0070 -0.5120
  705MPD2    C110421   1.495   0.530  17.015  0.8548 -0.5419  0.4049
  705MPD2    C210422   1.402   0.603  17.081  0.1812 -0.3194 -0.1552
  705MPD2    C310423   1.306   0.539  17.153  0.7759  0.3240 -0.7430
  705MPD2    C410424   1.310   0.399  17.165 -0.4753 -0.6834 -0.1182
  705MPD2    C510425   1.419   0.338  17.111  0.5522  0.0880 -0.0316
  705MPD2     H10426   1.409   0.711  17.070 -1.2638 -0.1914  0.2016
  705MPD2    H110427   1.241   0.340  17.224  0.3730 -2.5622 -1.0061
  705MPD2    H210428   1.584   0.341  16.978  1.0310 -0.1015  0.7563
  705MPD2    H310429   1.404   0.230  17.114  0.3029  0.1719  1.9857
  705MPD2     N10430   1.192   0.602  17.210 -0.4804  0.2547  0.0056
  705MPD2    H510431   1.136   0.539  17.267  0.1703  0.4928  0.9131
  705MPD2    N110432   1.582   0.600  16.931 -0.0955  0.7504  0.1776
  705MPD2    H710433   1.557   0.698  16.915 -2.2540  0.3148  0.8158
  706TMC3    C110434   1.777   0.607  16.503  0.0655 -0.1262  0.0497
  706TMC3    C210435   1.681   0.689  16.462  0.4262 -0.2444  0.0957
  706TMC3    C310436   1.598   0.744  16.555 -0.0378 -0.9620 -0.2551
  706TMC3    C410437   1.794   0.574  16.640 -0.0306 -0.0722 -0.4577
  706TMC3    C510438   1.703   0.624  16.726 -0.1940  0.0311 -0.0656
  706TMC3    C610439   1.603   0.711  16.686  0.3429 -0.9186  0.2984
  706TMC3     C10440   1.885   0.575  16.411  0.0464 -0.4589 -0.5299
  706TMC3     O10441   1.999   0.568  16.461 -0.2176  0.0714  0.2634
  706TMC3     H10442   1.678   0.718  16.358 -0.3578 -1.6292 -0.2621
  706TMC3    H110443   1.872   0.505  16.670  1.5068  2.0177  0.3097
  706TMC3    H210444   1.531   0.755  16.754 -0.4400  1.3519 -2.0439
  706TMC3    C710445   1.673   0.541  16.846  0.2547  0.1854  0.2153
  706TMC3    C810446   1.529   0.861  16.512  0.5904 -0.4481  0.3990
  706TMC3    O110447   1.726   0.433  16.839 -0.4014  0.0072  0.1188
  706TMC3    O210448   1.501   0.864  16.392  0.8998  0.6474  0.8242
  707TMC3    C110449   3.343   3.026   2.137  0.7294  0.1169  0.3289
  707TMC3    C210450   3.467   3.074   2.181 -0.1470  0.4301  0.8247
  707TMC3    C310451   3.556   2.985   2.228  0.4782  0.3854 -0.1373
  707TMC3    C410452   3.309   2.892   2.155 -0.4496 -0.3263  0.2430
  707TMC3    C510453   3.402   2.804   2.206  0.2963  0.4974  0.0843
  707TMC3    C610454   3.527   2.849   2.239 -0.2059  0.6617 -0.1130
  707TMC3     C10455   3.260   3.116   2.060 -1.0407 -0.0192 -0.2769
  707TMC3     O10456   3.286   3.232   2.064  0.2534 -0.0051  0.5670
  707TMC3     H10457   3.496   3.176   2.158  2.4977 -0.5484 -0.1849
  707TMC3    H110458   3.216   2.857   2.111 -0.1191  0.7860 -1.3050
  707TMC3    H210459   3.599   2.782   2.285 -0.4560  1.1744  1.0320
  707TMC3    C710460   3.358   2.662   2.220 -0.3640  0.4763 -0.1308
  707TMC3    C810461   3.689   3.027   2.245 -0.4421 -0.1642  0.3985
  707TMC3    O110462   3.270   2.625   2.145  0.0159 -0.0214  0.1566
  707TMC3    O210463   3.759   2.975   2.329  0.4336  0.2898  0.0255
  708MPD2     C10464   0.119   3.394  14.117 -0.5828  0.0517  0.3099
  708MPD2    C110465   4.725   3.454  14.091  0.2008 -0.2017  0.1878
  708MPD2    C210466   4.611   3.400  14.156  0.2264 -0.2096 -0.3079
  708MPD2    C310467   4.613   3.293  14.237 -0.3231 -0.1267  0.8830
  708MPD2    C410468   0.009   3.245  14.273  0.7424 -0.1938 -0.5223
  708MPD2    C510469   0.123   3.289  14.205  0.5307  0.0371 -0.0753
  708MPD2     H10470   4.513   3.428  14.118  0.5035 -0.4401 -1.1844
  708MPD2    H110471   0.013   3.152  14.330  0.3907 -0.1234 -0.3851
  708MPD2    H210472   0.205   3.415  14.054 -0.2660  0.7146  0.9565
  708MPD2    H310473   0.210   3.224  14.215  0.9561  0.4677 -0.9873
  708MPD2     N10474   4.498   3.236  14.305  1.1251  0.3419  0.2057
  708MPD2    H510475   4.515   3.156  14.365  0.1366 -1.0200 -1.3428
  708MPD2    N110476   4.714   3.568  14.010 -0.7585  0.4563  0.2828
  708MPD2    H710477   0.066   3.585  13.946 -1.5894 -0.3279 -0.9201
  709TMC3    C110478   4.613   3.766  13.909  0.2001  0.4673  0.5128
  709TMC3    C210479   4.623   3.725  13.783  0.5808  0.2046  0.5036
  709TMC3    C310480   4.547   3.780  13.684  0.1349 -0.3897  0.6778
  709TMC3    C410481   4.512   3.859  13.937 -0.4752 -0.1408 -0.4966
  709TMC3    C510482   4.430   3.903  13.841 -0.1676 -0.1197  0.7874
  709TMC3    C610483   4.451   3.871  13.705 -0.3084  0.4120  0.0856
  709TMC3     C10484   4.609   3.658  14.007  0.6905  0.3119  0.1039
  709TMC3     O10485   4.512   3.658  14.074 -0.2005 -0.1944 -0.4000
  709TMC3     H10486   4.692   3.645  13.760 -1.6702 -1.1740 -1.4654
  709TMC3    H110487   4.497   3.884  14.042  3.0048  1.2743 -0.3204
  709TMC3    H210488   4.390   3.913  13.626  1.7833  0.7944 -1.3383
  709TMC3    C710489   4.284   3.897  13.874  0.4826  0.2111 -0.4550
  709TMC3    C810490   4.578   3.750  13.550 -0.2958 -0.7419  0.4004
  709TMC3    O110491   4.211   3.950  13.791 -0.0588 -0.0621  0.2775
  709TMC3    O210492   4.637   3.643  13.523 -0.1227 -0.3299 -0.6068
  710TMC3    C110493   1.139   0.879   0.786  0.0824 -1.1339  0.0053
  710TMC3    C210494   1.256   0.816   0.742 -0.4049  0.4087  0.0214
  710TMC3    C310495   1.253   0.679   0.716 -0.1070  0.9109  0.1429
  710TMC3    C410496   1.024   0.808   0.793 -0.3163  0.6056  0.3712
  710TMC3    C510497   1.020   0.677   0.756  0.6832  0.1708 -0.8386
  710TMC3    C610498   1.133   0.613   0.706 -0.7853 -0.6418  0.2562
  710TMC3     C10499   1.153   0.989   0.878 -0.9157 -0.3472 -1.1009
  710TMC3     O10500   1.215   1.096   0.848  0.9054  0.0912 -0.0279
  710TMC3     H10501   1.346   0.876   0.747 -1.1065  1.3168  1.6355
  710TMC3    H110502   0.928   0.857   0.802 -0.2524  0.4482  1.9270
  710TMC3    H210503   1.121   0.511   0.671 -1.2955 -0.5597  0.1965
  710TMC3    C710504   0.890   0.607   0.762 -0.1079  0.2215  0.5204
  710TMC3    C810505   1.349   0.627   0.623  0.0161 -0.5554  0.8468
  710TMC3    O110506   0.903   0.485   0.771 -0.3916  0.2641 -0.3715
  710TMC3    O210507   1.426   0.707   0.565 -0.2456 -0.1160  0.1034
  711TMC3    C110508   0.165   1.516  15.381  0.5847  1.0384  0.0990
  711TMC3    C210509   0.198   1.547  15.512  0.4809 -0.6215  0.5589
  711TMC3    C310510   0.329   1.559  15.548 -0.5440 -0.0544 -0.8059
  711TMC3    C410511   0.264   1.488  15.291 -0.7206 -0.2677 -0.2830
  711TMC3    C510512   0.397   1.505  15.328 -0.7031  0.4373 -0.4320
  711TMC3    C610513   0.428   1.547  15.453 -0.5162 -0.4319  0.7734
  711TMC3     C10514   0.034   1.506  15.332 -0.0516 -0.3219  0.6404
  711TMC3     O10515   0.019   1.469  15.215 -0.2626  0.3440  0.3500
  711TMC3     H10516   0.118   1.550  15.584  1.5263 -1.4168  1.7401
  711TMC3    H110517   0.237   1.471  15.187  0.7536 -1.6966 -0.4302
  711TMC3    H210518   0.532   1.568  15.477 -0.0600 -1.7772  0.0102
  711TMC3    C710519   0.494   1.407  15.276  0.6095  0.2528  0.5406
  711TMC3    C810520   0.367   1.525  15.690 -0.2867  0.1323  0.4456
  711TMC3    O110521   0.595   1.402  15.346  0.0755 -0.5648  0.0096
  711TMC3    O210522   0.276   1.483  15.762 -0.0443 -0.6173 -0.0014
  712MPD2     C10523   2.080   2.388  13.857 -0.2899 -0.2461  0.1746
  712MPD2    C110524   2.009   2.421  13.745 -0.0914  0.3285  0.2337
  712MPD2    C210525   2.028   2.539  13.684 -0.9849  0.0354 -0.1466
  712MPD2    C310526   2.115   2.636  13.732  0.0886  0.5231 -0.6030
  712MPD2    C410527   2.189   2.600  13.841  0.2709  0.1772 -0.7025
  712MPD2    C510528   2.171   2.480  13.902  0.1455  1.1570  0.5117
  712MPD2     H10529   1.973   2.552  13.591 -0.7603  0.9458 -0.1457
  712MPD2    H110530   2.264   2.666  13.885 -2.4601  1.2699  2.3435
  712MPD2    H210531   2.065   2.294  13.909  0.0127 -1.4059 -1.8308
  712MPD2    H310532   2.235   2.459  13.988  0.1069 -1.1600 -0.0340
  712MPD2     N10533   2.149   2.766  13.673 -0.0494 -0.4746 -0.3173
  712MPD2    H510534   2.223   2.820  13.715 -0.0564 -1.7372  1.3288
  712MPD2    N110535   1.902   2.340  13.689 -0.2227 -0.0346  0.2946
  712MPD2    H710536   1.851   2.369  13.606  0.0832 -2.1050 -0.6053
  713TMC3    C110537   2.151   2.921  13.501 -0.1984  0.5146 -0.2366
  713TMC3    C210538   2.283   2.941  13.526 -0.4133 -0.3924  0.9316
  713TMC3    C310539   2.336   3.049  13.451 -0.2126 -0.4659  0.0561
  713TMC3    C410540   2.074   2.996  13.410  0.1724 -0.3798 -0.1615
  713TMC3    C510541   2.132   3.095  13.336 -0.2505  0.3261 -0.6473
  713TMC3    C610542   2.265   3.117  13.357 -0.0466  0.4785 -0.6824
  713TMC3     C10543   2.077   2.820  13.563 -0.3055 -0.8434 -0.1782
  713TMC3     O10544   1.968   2.780  13.520  0.0653  0.1634 -0.1674
  713TMC3     H10545   2.347   2.871  13.579 -0.6476 -1.6502 -0.4721
  713TMC3    H110546   1.968   2.977  13.397  0.3004 -0.5384 -1.0078
  713TMC3    H210547   2.323   3.192  13.303  0.9295  1.7777  2.1597
  713TMC3    C710548   2.067   3.169  13.224  0.5569  0.0203 -0.8154
  713TMC3    C810549   2.469   3.087  13.482 -0.2859  0.0149  0.5291
  713TMC3    O110550   2.156   3.220  13.155  0.3999 -0.2413  0.1349
  713TMC3    O210551   2.541   3.129  13.393 -0.2955 -0.0399 -0.2455
  714MPD2     C10552   3.804   1.514   1.757  0.7275 -0.2862  0.1884
  714MPD2    C110553   3.891   1.471   1.650 -0.0320  0.6531  0.4859
  714MPD2    C210554   3.879   1.537   1.524  0.4484  1.1225 -0.5092
  714MPD2    C310555   3.800   1.651   1.513  0.6887  0.1854  0.4054
  714MPD2    C410556   3.730   1.700   1.622  0.8508  0.5999  0.0297
  714MPD2    C510557   3.735   1.633   1.741 -0.0058  0.3822  0.3979
  714MPD2     H10558   3.922   1.496   1.433  1.2833 -1.9973  1.2933
  714MPD2    H110559   3.658   1.781   1.624  0.6847  0.4416  0.3521
  714MPD2    H210560   3.795   1.459   1.849  0.1428  0.3454  0.5028
  714MPD2    H310561   3.671   1.664   1.822  0.9614 -0.0984  1.3494
  714MPD2     N10562   3.794   1.710   1.386  0.2318 -0.1344 -0.3163
  714MPD2    H510563   3.860   1.674   1.318  0.5314 -2.4029  1.1690
  714MPD2    N110564   3.965   1.357   1.678 -0.2356  0.3635  0.0516
  714MPD2    H710565   3.963   1.310   1.768  0.3620  1.5301  0.6806
  715TMC3    C110566   4.126   1.189   1.632  0.4649  0.1240 -0.1824
  715TMC3    C210567   4.171   1.113   1.529 -0.3007  0.2507 -0.3007
  715TMC3    C310568   4.256   1.007   1.559  0.3911  0.0543  0.4346
  715TMC3    C410569   4.161   1.170   1.759  0.2459 -0.4973 -0.6008
  715TMC3    C510570   4.242   1.063   1.783  0.5262 -0.3427 -0.0315
  715TMC3    C610571   4.296   0.981   1.689  0.2364  0.5165 -0.4255
  715TMC3     C10572   4.061   1.304   1.586  0.3718 -0.3140  0.2632
  715TMC3     O10573   4.096   1.345   1.478  0.2318  0.1429 -0.0709
  715TMC3     H10574   4.146   1.138   1.427 -0.1744  0.7013 -0.2210
  715TMC3    H110575   4.112   1.229   1.836 -0.7531  2.2924 -3.3691
  715TMC3    H210576   4.361   0.897   1.711  1.2937  1.4693  0.0820
  715TMC3    C710577   4.313   1.059   1.912 -1.1327 -0.0349 -0.9480
  715TMC3    C810578   4.320   0.938   1.448 -0.1560 -0.2420 -0.3044
  715TMC3    O110579   4.415   0.994   1.912  0.0752  0.0672  0.2106
  715TMC3    O210580   4.309   0.974   1.334  0.9018 -0.5696 -0.4440
  716MPD2     C10581   4.462   4.442  10.036  0.1099  0.5517  0.1534
  716MPD2    C110582   4.462   4.434   9.899  0.0829  0.1307 -0.2449
  716MPD2    C210583   4.499   4.320   9.837 -0.0097 -0.7991 -0.1780
  716MPD2    C310584   4.558   4.218   9.905 -0.3336  0.3321  0.8764
  716MPD2    C410585   4.560   4.224  10.042 -0.5845  0.3037  0.4990
  716MPD2    C510586   4.507   4.335  10.108 -0.0560  0.0703 -0.2425
  716MPD2     H10587   4.504   4.314   9.729  2.2726 -2.7747  0.0226
  716MPD2    H110588   4.619   4.158  10.105 -2.5700 -1.5647  0.3949
  716MPD2    H210589   4.427   4.528  10.091  1.7721  0.7214  0.9703
  716MPD2    H310590   4.523   4.344  10.214  0.9972  1.3785 -0.5110
  716MPD2     N10591   4.610   4.099   9.833  0.5162 -0.5025  0.2061
  716MPD2    H510592   4.586   4.077   9.737 -0.5000 -0.0277  0.3478
  716MPD2    N110593   4.428   4.552   9.829 -0.4390 -0.4406 -0.1528
  716MPD2    H710594   4.426   4.637   9.884  0.0679 -0.1986 -0.5110
  717TMC3    C110595   0.003   3.889   9.823 -0.0800 -0.0286  0.1559
  717TMC3    C210596   4.689   3.874   9.693 -0.5318  0.2751 -0.8210
  717TMC3    C310597   4.697   3.745   9.636 -0.1781  0.6582 -0.5186
  717TMC3    C410598   0.058   3.784   9.897 -0.7560  1.2647 -0.1218
  717TMC3    C510599   0.054   3.667   9.845 -0.9526  0.0647 -0.0846
  717TMC3    C610600   0.014   3.636   9.714 -0.4172 -0.1477 -1.3132
  717TMC3     C10601   4.697   4.012   9.897  0.2769 -0.2707 -0.7708
  717TMC3     O10602   0.037   4.025   9.998  0.2618 -0.5572  0.1599
  717TMC3     H10603   4.675   3.964   9.634 -0.2908 -0.9269 -2.6799
  717TMC3    H110604   0.037   3.788  10.004  0.8662  0.1203  0.2277
  717TMC3    H210605   0.000   3.531   9.689  2.3291 -0.9985  0.7632
  717TMC3    C710606   0.076   3.554   9.935 -0.0943  0.5561 -0.4418
  717TMC3    C810607   4.624   3.728   9.513 -0.2578  0.7237  0.1494
  717TMC3    O110608   0.018   3.450   9.906  0.1390  0.8177 -0.0480
  717TMC3    O210609   4.586   3.833   9.463 -0.4540  0.2383  0.4832
  718MPD2     C10610   3.476   3.400  12.906  0.2044 -0.7763 -0.4705
  718MPD2    C110611   3.435   3.285  12.832  0.3908  0.3993  0.1225
  718MPD2    C210612   3.395   3.171  12.909 -0.4317 -0.3386 -0.2023
  718MPD2    C310613   3.415   3.163  13.047  0.1033  0.4417  0.0699
  718MPD2    C410614   3.445   3.282  13.111 -0.4481 -0.8443 -0.8177
  718MPD2    C510615   3.473   3.395  13.042  0.3790 -0.3378 -0.4086
  718MPD2     H10616   3.351   3.084  12.862  2.3242 -2.5915  1.4116
  718MPD2    H110617   3.457   3.278  13.218  0.9710  2.4001 -0.8533
  718MPD2    H210618   3.517   3.489  12.859  0.2592  0.0044  1.0545
  718MPD2    H310619   3.509   3.482  13.097  3.2002 -0.8460 -1.4381
  718MPD2     N10620   3.393   3.038  13.114  0.6527  0.1213 -0.3527
  718MPD2    H510621   3.360   2.968  13.049  2.5556 -0.1248 -1.0308
  718MPD2    N110622   3.438   3.292  12.690  0.4697 -0.4308 -0.3673
  718MPD2    H710623   3.488   3.373  12.655 -0.4941  0.2249 -0.2515
  719TMC3    C110624   3.450   3.205  12.468  0.4436 -0.7223  0.2059
  719TMC3    C210625   3.445   3.086  12.408  0.6219 -0.2262 -0.7998
  719TMC3    C310626   3.560   3.038  12.350 -0.8994 -0.4007  0.0887
  719TMC3    C410627   3.550   3.294  12.444  0.0252  0.1232  0.6955
  719TMC3    C510628   3.655   3.251  12.363  0.0967 -0.8846  0.0590
  719TMC3    C610629   3.664   3.120  12.329  0.5598  0.2714  0.2298
  719TMC3     C10630   3.399   3.194  12.606 -0.6944 -0.2536 -0.2706
  719TMC3     O10631   3.366   3.081  12.636 -0.0701 -0.1742  0.6360
  719TMC3     H10632   3.352   3.030  12.408  0.5862 -0.1747 -3.1419
  719TMC3    H110633   3.557   3.395  12.482  2.6174 -0.2658  1.2343
  719TMC3    H210634   3.744   3.069  12.274  0.4354  0.9971 -0.6321
  719TMC3    C710635   3.772   3.337  12.343  0.2257  0.4137  0.2566
  719TMC3    C810636   3.592   2.901  12.403  0.7403 -0.2522 -0.0420
  719TMC3    O110637   3.888   3.292  12.359  0.0031 -0.3307  0.0562
  719TMC3    O210638   3.703   2.862  12.381 -0.1931 -0.0944 -0.2198
  720MPD2     C10639   2.175   4.479  13.984 -0.4464 -0.9139 -0.0621
  720MPD2    C110640   2.280   4.488  13.887 -0.2659 -0.0030  0.1465
  720MPD2    C210641   2.414   4.493  13.912 -0.7605 -0.3170  0.4326
  720MPD2    C310642   2.443   4.506  14.048 -0.1115  0.4767 -0.5345
  720MPD2    C410643   2.350   4.500  14.145  0.4279 -0.3873  0.4222
  720MPD2    C510644   2.220   4.485  14.115  0.0864 -0.0397  0.5479
  720MPD2     H10645   2.489   4.487  13.834 -0.2229  1.3135  0.8218
  720MPD2    H110646   2.378   4.514  14.249  0.5115  1.0837  0.2004
  720MPD2    H210647   2.071   4.467  13.956  0.0186 -0.1979 -2.0959
  720MPD2    H310648   2.148   4.472  14.195 -0.4782  0.7661  0.1659
  720MPD2     N10649   2.579   4.525  14.084  0.3279 -0.2627  0.0276
  720MPD2    H510650   2.643   4.542  14.006  1.9199 -2.2953  0.8885
  720MPD2    N110651   2.244   4.481  13.749  0.3766 -0.1172 -0.5641
  720MPD2    H710652   2.312   4.464  13.676  1.8683  1.7612  0.3842
  721TMC3    C110653   2.761   4.520  14.233 -0.2944  0.0402 -0.6908
  721TMC3    C210654   2.790   4.497  14.367  0.0546 -0.1486  0.4189
  721TMC3    C310655   2.901   4.545  14.419 -0.4935  0.2718 -0.8701
  721TMC3    C410656   2.851   4.584  14.158  0.3688  0.1496 -0.1660
  721TMC3    C510657   2.964   4.633  14.221  0.4188  0.1610  0.1260
  721TMC3    C610658   2.994   4.609  14.352  0.1796 -0.0887 -0.4687
  721TMC3     C10659   2.628   4.475  14.196 -0.4625  0.2360 -0.2651
  721TMC3     O10660   2.573   4.391  14.262  0.0082  0.2249  0.0641
  721TMC3     H10661   2.738   4.421  14.424 -1.0493  0.8469  0.7687
  721TMC3    H110662   2.840   4.596  14.051  0.4154  0.2509 -0.1596
  721TMC3    H210663   3.083   4.634  14.408 -0.8761 -2.0639  2.1300
  721TMC3    C710664   3.064   4.700  14.142 -0.2844 -0.8217  0.0302
  721TMC3    C810665   2.930   4.506  14.556  0.3021 -0.0678 -0.1977
  721TMC3    O110666   3.072   4.683  14.021  0.0797  0.0937  0.1059
  721TMC3    O210667   3.049   4.504  14.583 -0.2183  0.1060 -0.5306
  722MPD2     C10668   0.765   3.093  13.297 -0.2398 -0.6187  0.6973
  722MPD2    C110669   0.756   3.155  13.165 -0.3500 -0.1553 -0.2199
  722MPD2    C210670   0.631   3.163  13.107 -0.4406 -0.0710  0.2590
  722MPD2    C310671   0.522   3.103  13.177  0.0797  0.1412  0.3670
  722MPD2    C410672   0.535   3.026  13.288  0.2150  0.6509 -0.5023
  722MPD2    C510673   0.657   3.028  13.352  0.2247 -0.1851 -0.3947
  722MPD2     H10674   0.620   3.212  13.012  2.4329 -0.4147 -0.2369
  722MPD2    H110675   0.452   2.974  13.333  0.0184 -0.2872 -1.9550
  722MPD2    H210676   0.861   3.093  13.348 -0.1554  0.5512  0.5440
  722MPD2    H310677   0.673   2.983  13.449  0.7451 -0.9212 -0.8243
  722MPD2     N10678   0.398   3.121  13.108  0.2886  0.2358  0.0487
  722MPD2    H510679   0.393   3.187  13.030  1.0921  0.4588  0.1883
  722MPD2    N110680   0.863   3.214  13.089  0.4321  0.2401 -0.1334
  722MPD2    H710681   0.840   3.236  12.993  2.6351  2.2934 -0.1587
  723TMC3    C110682   0.165   3.079  13.037 -0.9307 -0.0788  0.2693
  723TMC3    C210683   0.064   2.988  13.029 -0.1048 -1.1197 -0.5762
  723TMC3    C310684   4.686   3.008  12.942  0.0636  0.0927 -0.2004
  723TMC3    C410685   0.166   3.189  12.960 -0.0714  0.8704 -0.2479
  723TMC3    C510686   0.054   3.212  12.883 -0.2705 -0.6285 -0.2941
  723TMC3    C610687   4.680   3.121  12.865  0.5432  0.1511  0.3584
  723TMC3     C10688   0.284   3.043  13.126  0.1313  0.0788 -0.4411
  723TMC3     O10689   0.270   2.941  13.197  0.0762 -0.4416 -0.4737
  723TMC3     H10690   0.063   2.900  13.091 -2.9492  0.5290  1.6823
  723TMC3    H110691   0.231   3.273  12.981  1.5400 -0.2499 -0.7585
  723TMC3    H210692   4.595   3.144  12.802 -0.5443 -1.8084  1.1079
  723TMC3    C710693   0.045   3.334  12.800 -0.1421 -0.1959 -0.7923
  723TMC3    C810694   4.581   2.913  12.917  0.7416 -0.4432  0.5874
  723TMC3    O110695   4.710   3.332  12.694  0.3141  0.3096  0.3726
  723TMC3    O210696   4.473   2.968  12.879 -0.0863 -0.0292  0.1111
  724TMC3    C110697   1.748   1.930   9.495  0.5712  0.4080 -0.1050
  724TMC3    C210698   1.700   1.997   9.609 -0.8374  0.2597  1.0282
  724TMC3    C310699   1.572   1.969   9.652  0.2264 -0.3206  0.1676
  724TMC3    C410700   1.673   1.836   9.430  0.0213  0.2453 -0.1318
  724TMC3    C510701   1.544   1.812   9.479 -0.1506  0.5451 -0.0611
  724TMC3    C610702   1.489   1.880   9.587 -0.0805 -0.3998  0.0328
  724TMC3     C10703   1.881   1.960   9.459  0.1455 -0.2739 -0.6039
  724TMC3     O10704   1.962   2.004   9.543 -0.0692 -0.2508  0.3153
  724TMC3     H10705   1.772   2.052   9.668  0.6245 -0.8631  0.2883
  724TMC3    H110706   1.714   1.767   9.357 -0.3590 -1.5048  1.3220
  724TMC3    H210707   1.400   1.850   9.641  0.8604  0.3726  2.0059
  724TMC3    C710708   1.457   1.711   9.420  0.0974 -0.3302  0.0401
  724TMC3    C810709   1.521   2.001   9.791 -0.4791 -0.8148 -0.0934
  724TMC3    O110710   1.357   1.682   9.488  0.2845  0.2609 -0.3146
  724TMC3    O210711   1.421   1.948   9.834 -0.4412  1.4303  0.0535
  725TMC3    C110712   3.038   4.670  12.418 -1.0088  0.0550  0.3475
  725TMC3    C210713   2.962   4.715  12.309  0.5575 -0.2818  0.0655
  725TMC3    C310714   2.941   4.617  12.216 -0.6629  0.4188 -0.2640
  725TMC3    C410715   3.095   4.547  12.426 -1.2711 -0.0757  1.8793
  725TMC3    C510716   3.059   4.456  12.333  0.7162  0.4103  0.4628
  725TMC3    C610717   2.979   4.489  12.231 -0.6015  0.2940  0.1911
  725TMC3     C10718   3.078   0.054  12.503 -0.2042 -0.0711 -0.9714
  725TMC3     O10719   3.048   0.168  12.469  0.1989 -0.1928  0.6549
  725TMC3     H10720   2.925   0.092  12.313 -0.3426 -0.6103 -0.0745
  725TMC3    H110721   3.178   4.526  12.494 -0.5480  2.4957  1.7878
  725TMC3    H210722   2.951   4.410  12.163  1.9994 -0.0963 -0.4468
  725TMC3    C710723   3.150   4.351  12.317  0.0955 -0.0914  0.6817
  725TMC3    C810724   2.872   4.649  12.091  0.1419 -0.0720  0.1795
  725TMC3    O110725   3.161   4.304  12.204 -0.5543 -0.1247  0.1374
  725TMC3    O210726   2.848   4.561  12.012  0.2536  0.4381 -0.3819
  726MPD2     C10727   1.336   1.810  11.037 -0.0455 -0.6791 -0.3684
  726MPD2    C110728   1.303   1.865  10.918 -0.0752  0.0354  0.3430
  726MPD2    C210729   1.164   1.862  10.886  0.0720  1.2091 -0.1036
  726MPD2    C310730   1.075   1.773  10.944  0.0941  0.7740  0.0364
  726MPD2    C410731   1.118   1.704  11.052 -0.5077 -0.7190  0.5991
  726MPD2    C510732   1.244   1.729  11.101 -0.2369 -0.2383 -0.1476
  726MPD2     H10733   1.129   1.915  10.798 -2.2816  0.5443  0.4183
  726MPD2    H110734   1.065   1.625  11.106 -1.4412 -1.4582 -1.3996
  726MPD2    H210735   1.432   1.825  11.085 -0.4777 -1.5231  0.7691
  726MPD2    H310736   1.274   1.682  11.194 -1.4611  1.5587  1.1430
  726MPD2     N10737   0.943   1.751  10.902 -0.0237 -0.2226 -0.2494
  726MPD2    H510738   0.897   1.677  10.955  0.8754 -2.2362 -2.2597
  726MPD2    N110739   1.410   1.930  10.854 -0.1182 -0.2298  0.0697
  726MPD2    H710740   1.504   1.918  10.891 -0.8055 -2.3639  1.0945
  727TMC3    C110741   1.509   2.084  10.717 -0.0743  0.0457 -0.5468
  727TMC3    C210742   1.580   2.006  10.629 -0.0859  0.3233  0.4187
  727TMC3    C310743   1.668   2.068  10.548  0.0443  0.0545 -0.2437
  727TMC3    C410744   1.519   2.225  10.703 -0.8093  0.8331  0.3326
  727TMC3    C510745   1.613   2.282  10.623 -0.1656  0.3672  0.3165
  727TMC3    C610746   1.686   2.202  10.542 -0.1687 -0.1085 -0.0414
  727TMC3     C10747   1.381   2.023  10.757  0.7815 -0.3733 -0.2407
  727TMC3     O10748   1.279   2.075  10.719  0.1406  0.8001 -0.7786
  727TMC3     H10749   1.570   1.898  10.632  2.1465  0.0890  0.1385
  727TMC3    H110750   1.461   2.279  10.777 -2.1170 -1.1102  0.7311
  727TMC3    H210751   1.738   2.251  10.461  1.7071 -2.2473 -0.1392
  727TMC3    C710752   1.611   2.425  10.599 -0.2384 -0.4299  0.2417
  727TMC3    C810753   1.725   1.990  10.434  0.2939 -0.4480  0.1172
  727TMC3    O110754   1.644   2.461  10.486  0.1472 -0.3610 -0.7945
  727TMC3    O210755   1.660   1.899  10.380 -0.0450  0.6403 -0.1052
  728TMC3    C110756   3.867   0.293  15.356  0.0609  0.9203  0.2954
  728TMC3    C210757   3.973   0.289  15.266 -0.6302 -0.5254  0.1847
  728TMC3    C310758   3.951   0.378  15.158 -0.2574 -0.1823 -0.1063
  728TMC3    C410759   3.758   0.382  15.349  0.0107  0.2332 -0.1380
  728TMC3    C510760   3.753   0.470  15.243  0.2673 -0.1011  0.3047
  728TMC3    C610761   3.849   0.464  15.144  0.1552  0.5976 -0.2882
  728TMC3     C10762   3.906   0.278  15.490 -0.1593  0.2887 -0.0831
  728TMC3     O10763   4.020   0.325  15.519  0.3232  0.0412  0.0742
  728TMC3     H10764   4.057   0.221  15.265 -1.8686 -2.0339 -1.2371
  728TMC3    H110765   3.686   0.363  15.428  0.4935 -1.7856 -0.1743
  728TMC3    H210766   3.838   0.536  15.064 -2.3595  1.9194  1.2360
  728TMC3    C710767   3.666   0.588  15.253 -0.3609 -0.6684 -0.3782
  728TMC3    C810768   4.077   0.421  15.102  0.0274 -0.0861  0.8405
  728TMC3    O110769   3.587   0.573  15.345  0.7139  0.1708 -0.2727
  728TMC3    O210770   4.083   0.475  14.991 -0.4871  0.6247 -0.0216
  729MPD2     C10771   1.556   1.584  17.052  0.2533  0.8495 -0.8613
  729MPD2    C110772   1.644   1.479  17.047  0.5912 -0.4367  0.6992
  729MPD2    C210773   1.698   1.439  17.169  0.4304 -0.6418  0.4646
  729MPD2    C310774   1.685   1.506  17.288  0.5188 -0.1950  0.1014
  729MPD2    C410775   1.607   1.618  17.285 -0.1628 -0.8264 -0.4720
  729MPD2    C510776   1.540   1.655  17.172 -0.0651  0.3959  0.0782
  729MPD2     H10777   1.752   1.345  17.164 -1.0367 -1.4725 -0.0023
  729MPD2    H110778   1.586   1.676  17.375 -2.1455  3.2457 -3.5565
  729MPD2    H210779   1.508   1.613  16.959 -0.3339 -0.3209 -0.9147
  729MPD2    H310780   1.472   1.739  17.168 -1.3033 -0.5690  0.8228
  729MPD2     N10781   1.756   1.477  17.408  0.0184 -0.5822 -0.6823
  729MPD2    H510782   1.725   1.531  17.488 -1.1314 -1.6831 -0.4004
  729MPD2    N110783   1.670   1.420  16.922 -0.6154 -0.3535 -0.4297
  729MPD2    H710784   1.647   1.479  16.842 -0.7315 -1.2894 -1.0847
  730TMC3    C110785   1.893   1.375  17.559 -0.2389 -0.0029 -0.3756
  730TMC3    C210786   2.033   1.375  17.563  0.3934  0.4388 -0.4508
  730TMC3    C310787   2.100   1.454  17.653 -0.0849 -0.4469  0.8780
  730TMC3    C410788   1.823   1.470  17.632 -0.2754  0.0436  0.2138
  730TMC3    C510789   1.897   1.558   0.008 -0.1190  0.6731 -0.1821
  730TMC3    C610790   2.034   1.550   0.023  0.1915 -0.2656  0.2208
  730TMC3     C10791   1.845   1.372  17.426 -0.1631  0.1326  0.0269
  730TMC3     O10792   1.895   1.302  17.342  0.4732 -0.1139  1.0196
  730TMC3     H10793   2.080   1.317  17.484  0.0550 -1.6603  0.8831
  730TMC3    H110794   1.715   1.466  17.641 -0.0569 -0.0573  2.7843
  730TMC3    H210795   2.091   1.616   0.087  1.1516 -1.7298  0.8759
  730TMC3    C710796   1.854   1.690  17.676 -0.3424  0.0948 -0.0247
  730TMC3    C810797   2.234   1.429  17.682  0.2219  0.1945 -0.5242
  730TMC3    O110798   1.777   1.697  17.588 -0.8340  0.1107  0.1208
  730TMC3    O210799   2.274   1.471   0.091 -0.0840  0.4796 -0.0286
  731MPD2     C10800   2.519   4.521  12.121 -0.0093  0.2841  1.0311
  731MPD2    C110801   2.513   4.397  12.070 -0.0471  0.1003 -1.2625
  731MPD2    C210802   2.407   4.322  12.122 -0.3478  1.0188  0.0704
  731MPD2    C310803   2.317   4.371  12.217 -0.6080 -0.2940  0.5467
  731MPD2    C410804   2.325   4.498  12.259  0.0408  0.2543 -0.1834
  731MPD2    C510805   2.430   4.572  12.212 -0.2416 -0.7730 -0.0777
  731MPD2     H10806   2.400   4.218  12.096 -1.4975  1.2082 -0.3706
  731MPD2    H110807   2.260   4.538  12.336  0.1503  0.6183 -0.2806
  731MPD2    H210808   2.603   4.575  12.078 -1.9985  0.4693 -2.5958
  731MPD2    H310809   2.428   4.676  12.242  0.3996 -0.5666 -0.7285
  731MPD2     N10810   2.207   4.301  12.279 -0.1324 -0.4637 -0.1255
  731MPD2    H510811   2.168   4.351  12.358  0.3806  0.9645 -0.7696
  731MPD2    N110812   2.626   4.352  12.002  0.0933 -0.3095 -0.4395
  731MPD2    H710813   2.705   4.415  11.992 -0.4542  0.7058  1.3830
  732TMC3    C110814   2.735   4.205  11.856 -0.3885 -1.0174 -1.1017
  732TMC3    C210815   2.726   4.090  11.786  0.8863  0.7146  0.2976
  732TMC3    C310816   2.771   4.075  11.660  0.2428  0.1536 -0.4143
  732TMC3    C410817   2.800   4.308  11.798 -0.1506 -0.1063  0.4664
  732TMC3    C510818   2.844   4.298  11.665 -0.6196 -0.0384 -0.0377
  732TMC3    C610819   2.836   4.178  11.596 -0.1493 -0.0789 -0.2804
  732TMC3     C10820   2.623   4.234  11.932  0.1245 -0.3089  0.2639
  732TMC3     O10821   2.538   4.144  11.926 -0.1395  0.0081  0.6055
  732TMC3     H10822   2.681   4.003  11.834  1.8437 -0.8844 -1.7547
  732TMC3    H110823   2.828   4.408  11.830  1.2059 -0.3602  0.0649
  732TMC3    H210824   2.857   4.170  11.490 -0.5871 -0.1732 -0.3610
  732TMC3    C710825   2.960   4.377  11.643 -0.2684  0.0658 -0.3648
  732TMC3    C810826   2.674   4.016  11.574  0.4901  0.3875 -0.7782
  732TMC3    O110827   2.965   4.499  11.658  1.0559  0.1880 -0.1381
  732TMC3    O210828   2.713   3.967  11.469 -0.0209 -0.3681 -0.1675
  733TMC3    C110829   3.291   2.693  13.353 -0.5798  0.6127 -0.5185
  733TMC3    C210830   3.334   2.827  13.368 -0.3787  0.1907  0.4572
  733TMC3    C310831   3.420   2.877  13.277 -0.6382 -0.0316 -0.6882
  733TMC3    C410832   3.336   2.609  13.258  1.2122 -0.4919  0.1679
  733TMC3    C510833   3.421   2.666  13.164 -0.4746 -0.2065  0.1948
  733TMC3    C610834   3.463   2.797  13.178  0.2254  0.4849 -0.2161
  733TMC3     C10835   3.156   2.673  13.397  0.3545 -0.2275  0.5736
  733TMC3     O10836   3.085   2.773  13.401 -0.2180  0.0065 -0.3603
  733TMC3     H10837   3.286   2.889  13.443  0.4167  0.2641  0.9043
  733TMC3    H110838   3.306   2.505  13.250 -1.9091  0.4209  0.2098
  733TMC3    H210839   3.511   2.846  13.094 -1.9726 -0.0111 -1.7487
  733TMC3    C710840   3.466   2.594  13.053 -0.6697  0.3318 -0.1464
  733TMC3    C810841   3.408   3.022  13.250 -0.3379 -0.1568  0.4508
  733TMC3    O110842   3.483   2.471  13.070  0.0837 -0.0171 -0.1516
  733TMC3    O210843   3.421   3.104  13.340  0.0913  0.0410  0.0421
  734MPD2     C10844   0.262   0.391  12.623 -0.3163 -0.1845  0.3758
  734MPD2    C110845   0.292   0.271  12.562  0.1036  0.5577 -0.5221
  734MPD2    C210846   0.351   0.277  12.435 -0.3039  0.1250  0.5312
  734MPD2    C310847   0.371   0.397  12.374 -0.2698  0.2002  0.4013
  734MPD2    C410848   0.344   0.511  12.441 -0.2234 -0.1333 -0.3803
  734MPD2    C510849   0.297   0.510  12.567 -0.3919 -0.3314  0.3757
  734MPD2     H10850   0.381   0.188  12.381 -0.4567 -1.0977  2.4739
  734MPD2    H110851   0.360   0.608  12.396 -2.2258  0.4905  0.2450
  734MPD2    H210852   0.212   0.393  12.719  1.2480  0.7407  1.1658
  734MPD2    H310853   0.276   0.610  12.602  0.2254 -0.4802  1.1619
  734MPD2     N10854   0.432   0.400  12.245  0.8736 -0.4384  0.2014
  734MPD2    H510855   0.477   0.316  12.210 -1.3446 -1.4036 -0.3316
  734MPD2    N110856   0.246   0.146  12.612  0.0525 -0.1140 -0.3441
  734MPD2    H710857   0.206   0.138  12.705 -1.4201  1.3277 -0.8548
  735TMC3    C110858   0.196   4.635  12.613  0.3450 -0.3211  0.4933
  735TMC3    C210859   0.115   4.578  12.523  0.4412  0.5260  0.8558
  735TMC3    C310860   0.128   4.442  12.497  0.1246 -0.3413 -0.7477
  735TMC3    C410861   0.281   4.566  12.686  0.4745 -0.2988  0.2825
  735TMC3    C510862   0.302   4.431  12.663  0.1175  0.9194  0.4625
  735TMC3    C610863   0.222   4.374  12.567  0.0587  0.0751  0.5275
  735TMC3     C10864   0.260   0.023  12.546  0.1535 -0.2853  0.0053
  735TMC3     O10865   0.313   4.720  12.439 -0.6949  0.0755  0.3065
  735TMC3     H10866   0.045   4.636  12.464  0.9311 -0.7291 -0.9188
  735TMC3    H110867   0.350   4.630  12.740  1.0947 -1.3257  0.7094
  735TMC3    H210868   0.246   4.279  12.521  2.6531  1.0759 -0.1738
  735TMC3    C710869   0.435   4.392  12.674 -0.5899 -0.7736  0.1032
  735TMC3    C810870   0.136   4.409  12.356  0.5502  0.7855  0.1878
  735TMC3    O110871   0.513   4.472  12.716 -0.6424  0.0071  0.4515
  735TMC3    O210872   0.089   4.305  12.311  0.1228 -0.1642 -0.5592
  736MPD2     C10873   0.561   4.061  12.600  1.0716 -0.2013 -0.4031
  736MPD2    C110874   0.566   4.197  12.620 -0.0081 -0.7209 -1.1710
  736MPD2    C210875   0.682   4.263  12.593 -0.2854  0.1372  0.3577
  736MPD2    C310876   0.791   4.202  12.530  0.6378  0.0548 -0.3683
  736MPD2    C410877   0.782   4.061  12.506 -0.0030 -0.3474 -0.1202
  736MPD2    C510878   0.665   3.994  12.546  0.7447  0.5669 -0.2556
  736MPD2     H10879   0.677   4.370  12.611  1.1657  0.3145 -0.3430
  736MPD2    H110880   0.864   4.004  12.464  0.9889  0.1667  1.1096
  736MPD2    H210881   0.470   4.006  12.618  0.4281  0.3894 -1.8502
  736MPD2    H310882   0.652   3.888  12.524  0.2138  0.6379 -0.2678
  736MPD2     N10883   0.896   4.275  12.475  0.5776  0.4670  0.0792
  736MPD2    H510884   0.947   4.220  12.407 -2.5368  0.1609 -1.9931
  736MPD2    N110885   0.448   4.257  12.653 -0.3572 -0.6832 -0.0581
  736MPD2    H710886   0.369   4.195  12.660 -1.7269  0.6893 -3.3430
  737TMC3    C110887   1.019   4.459  12.393 -0.0884  0.5477  0.6373
  737TMC3    C210888   0.999   4.582  12.335 -0.5171 -0.2086 -0.6414
  737TMC3    C310889   1.059   4.610  12.213  0.2433 -0.1421  0.7056
  737TMC3    C410890   1.100   4.366  12.328 -0.5059  0.2256 -0.0704
  737TMC3    C510891   1.163   4.406  12.211 -0.1644  0.4964  0.2094
  737TMC3    C610892   1.146   4.524  12.146 -0.1671  0.7727  0.0349
  737TMC3     C10893   0.927   4.404  12.492 -0.4742  0.0911 -0.9276
  737TMC3     O10894   0.875   4.490  12.559  0.0706  0.2652  0.2424
  737TMC3     H10895   0.935   4.657  12.380  0.0964  0.4496 -0.8796
  737TMC3    H110896   1.130   4.270  12.367  0.7795  1.8507  2.9932
  737TMC3    H210897   1.185   4.539  12.046 -2.3250  2.1664 -0.6013
  737TMC3    C710898   1.236   4.305  12.148  0.4714  0.6343 -0.6324
  737TMC3    C810899   1.009   0.005  12.142 -0.0483  0.1016 -0.2593
  737TMC3    O110900   1.214   4.186  12.170  0.1735 -0.0103  0.1045
  737TMC3    O210901   1.009   0.103  12.208 -0.5311 -0.3652 -0.8943
  738MPD2     C10902   1.189   3.708  15.066  0.0029 -0.0787  0.1273
  738MPD2    C110903   1.128   3.612  14.984  0.4298  0.5822 -0.2398
  738MPD2    C210904   1.140   3.626  14.853  0.2487  0.0776  0.1274
  738MPD2    C310905   1.209   3.727  14.790 -1.1366 -0.0089 -0.0292
  738MPD2    C410906   1.273   3.815  14.872 -0.2683  0.8345  0.0806
  738MPD2    C510907   1.260   3.807  15.007  0.0646  0.6702  0.3021
  738MPD2     H10908   1.096   3.552  14.787  2.5274 -2.3801  1.3301
  738MPD2    H110909   1.344   3.883  14.826  1.7137 -0.8027  0.6953
  738MPD2    H210910   1.178   3.707  15.174 -1.7207  1.7295 -0.0404
  738MPD2    H310911   1.305   3.885  15.069  0.2186  2.0301 -1.5313
  738MPD2     N10912   1.223   3.750  14.651 -0.0632 -0.3396 -0.4439
  738MPD2    H510913   1.284   3.823  14.617 -0.6538  0.2132 -0.3141
  738MPD2    N110914   1.063   3.495  15.033 -0.0433  0.3437  0.5089
  738MPD2    H710915   1.013   3.436  14.967  1.5691  1.0913 -1.3784
  739TMC3    C110916   1.216   3.722  14.419 -0.0457 -0.5414  0.3784
  739TMC3    C210917   1.140   3.706  14.303  1.1868  0.7197 -0.2336
  739TMC3    C310918   1.200   3.698  14.179 -0.8114 -0.1665  0.4746
  739TMC3    C410919   1.356   3.740  14.407 -0.6184 -1.2014  0.0111
  739TMC3    C510920   1.413   3.744  14.281  0.7961  0.8004  0.1973
  739TMC3    C610921   1.334   3.728  14.164 -0.5831  0.5211 -0.0601
  739TMC3     C10922   1.163   3.681  14.551 -0.9228 -0.0064 -0.3358
  739TMC3     O10923   1.065   3.610  14.550  0.7766  0.4471 -0.8503
  739TMC3     H10924   1.035   3.679  14.310  1.5273 -0.7845 -0.8804
  739TMC3    H110925   1.417   3.756  14.496 -0.3213 -0.2162 -0.3686
  739TMC3    H210926   1.381   3.737  14.067 -0.7132 -1.6188 -0.3329
  739TMC3    C710927   1.552   3.786  14.271  0.1712 -0.0646  0.1961
  739TMC3    C810928   1.127   3.650  14.058 -0.0501  0.3141  0.1907
  739TMC3    O110929   1.598   3.838  14.372 -0.1143 -0.5667 -0.0009
  739TMC3    O210930   1.011   3.617  14.069 -0.3734  0.3068 -0.6957
  740TMC3    C110931   1.974   0.129  14.756 -0.1328  0.1245  0.8930
  740TMC3    C210932   1.998   0.091  14.889 -0.1753 -0.0584 -0.5803
  740TMC3    C310933   2.129   0.052  14.917 -0.0443  0.4250 -0.1175
  740TMC3    C410934   2.066   0.106  14.657  0.2828 -0.2200  0.9239
  740TMC3    C510935   2.193   0.078  14.693  0.4803  0.1106 -0.2563
  740TMC3    C610936   2.227   0.056  14.825 -0.1910  0.1902  0.3142
  740TMC3     C10937   1.847   0.180  14.707 -0.1348 -0.1740 -0.2913
  740TMC3     O10938   1.846   0.222  14.592 -0.3511  0.0096 -0.2735
  740TMC3     H10939   1.931   0.114  14.971 -2.1291 -1.5021 -1.7767
  740TMC3    H110940   2.043   0.121  14.552 -0.7920  1.5388  1.3993
  740TMC3    H210941   2.327   0.036  14.862 -0.3009  1.1147  1.1170
  740TMC3    C710942   2.307   0.093  14.607 -0.3451 -0.1750 -0.1462
  740TMC3    C810943   2.165   0.043  15.052  0.0286 -0.1135 -0.1626
  740TMC3    O110944   2.411   0.049  14.657  0.0890 -0.0209  0.4880
  740TMC3    O210945   2.274   0.078  15.095  0.3175 -0.1717 -0.6265
  741TMC3    C110946   0.729   3.900  13.575  0.3242  0.5798 -0.7899
  741TMC3    C210947   0.703   3.862  13.704 -0.3595 -0.4898  0.2030
  741TMC3    C310948   0.797   3.889  13.795  0.4549 -0.3402 -0.1726
  741TMC3    C410949   0.848   3.968  13.545 -0.4261 -0.2570 -0.4279
  741TMC3    C510950   0.952   3.976  13.642  0.1336 -0.4547  0.1228
  741TMC3    C610951   0.923   3.944  13.774  0.3632  0.0060 -0.3602
  741TMC3     C10952   0.626   3.879  13.474  0.0981 -0.4970  0.5128
  741TMC3     O10953   0.542   3.799  13.494  0.2046  0.0513 -0.6227
  741TMC3     H10954   0.611   3.810  13.726 -0.3813 -0.3984  0.3275
  741TMC3    H110955   0.874   3.985  13.441 -0.1171 -1.1477 -0.4952
  741TMC3    H210956   1.001   3.945  13.850  0.2673  1.2410 -0.2836
  741TMC3    C710957   1.078   4.045  13.621  0.0686 -0.1118 -0.0691
  741TMC3    C810958   0.768   3.854  13.938 -0.4276  0.0520 -1.0387
  741TMC3    O110959   1.130   4.087  13.724 -0.0112 -0.6171  1.1222
  741TMC3    O210960   0.674   3.775  13.958 -0.2831 -0.0054 -0.2590
  742TMC3    C110961   1.149   2.812  15.288 -0.4640  0.0685 -0.0059
  742TMC3    C210962   1.072   2.736  15.207 -0.1641  0.3581  0.0963
  742TMC3    C310963   1.140   2.682  15.098  0.1457 -0.1293 -0.8037
  742TMC3    C410964   1.274   2.850  15.250 -0.5202  0.2293  0.3741
  742TMC3    C510965   1.342   2.789  15.140  0.2225 -0.1632 -0.1384
  742TMC3    C610966   1.278   2.699  15.068  0.6094 -0.6292  0.1924
  742TMC3     C10967   1.109   2.844  15.428  0.2900  0.0824 -0.5396
  742TMC3     O10968   0.990   2.824  15.450 -0.5161  0.3049 -0.0052
  742TMC3     H10969   0.990   2.685  15.255 -2.1629  4.5614  1.1835
  742TMC3    H110970   1.321   2.941  15.287 -0.0523  0.8980 -1.8185
  742TMC3    H210971   1.323   2.651  14.982  1.7414 -0.3337  0.6238
  742TMC3    C710972   1.479   2.755  15.161  0.2807 -0.3049 -0.1301
  742TMC3    C810973   1.059   2.609  14.997 -0.4925 -0.8860  0.0956
  742TMC3    O110974   1.524   2.649  15.133  0.3388 -0.4973 -0.2733
  742TMC3    O210975   1.116   2.535  14.919  0.1376 -0.0683 -0.3641
  743MPD2     C10976   4.488   3.751   1.867  0.0153  0.3922  0.6357
  743MPD2    C110977   4.457   3.771   1.737 -1.4787  0.4202  0.2580
  743MPD2    C210978   4.543   3.840   1.647 -1.1517  0.3696  0.4067
  743MPD2    C310979   4.654   3.902   1.700  0.6535 -0.1472 -0.1622
  743MPD2    C410980   4.674   3.894   1.836  0.2304 -0.4456  0.0822
  743MPD2    C510981   4.602   3.811   1.922 -0.1615  0.4652  0.3311
  743MPD2     H10982   4.532   3.848   1.539  2.6040 -1.7248 -0.1581
  743MPD2    H110983   0.022   3.955   1.888 -0.6718  2.3160 -1.8663
  743MPD2    H210984   4.421   3.700   1.935 -0.0161 -0.7606 -0.2560
  743MPD2    H310985   4.615   3.806   2.029 -1.0749 -3.3129  0.2472
  743MPD2     N10986   0.008   3.978   1.611 -0.0477 -0.5227  0.1014
  743MPD2    H510987   4.706   3.972   1.513  1.7603 -1.0378 -0.3556
  743MPD2    N110988   4.342   3.701   1.705  0.3765  0.3929  0.0287
  743MPD2    H710989   4.292   3.650   1.778  1.2679 -1.7762 -0.8678
  744TMC3    C110990   4.167   3.620   1.567  0.7614 -0.3358 -0.0618
  744TMC3    C210991   4.121   3.560   1.675  0.5826 -0.3709  0.3130
  744TMC3    C310992   3.998   3.503   1.670 -0.4437 -0.7497  0.1949
  744TMC3    C410993   4.101   3.627   1.452 -0.1362  0.0997 -1.2240
  744TMC3    C510994   3.973   3.574   1.446  0.2302 -0.6034  0.2268
  744TMC3    C610995   3.917   3.516   1.560  0.3925 -0.2457 -1.1455
  744TMC3     C10996   4.293   3.693   1.575 -0.4674 -0.5852 -0.2596
  744TMC3     O10997   4.324   3.751   1.474 -0.3745 -0.5450 -0.1319
  744TMC3     H10998   4.176   3.536   1.765  0.8612  0.4524  0.3625
  744TMC3    H110999   4.134   3.685   1.367  0.1664 -0.0311 -1.1951
  744TMC3    H211000   3.818   3.473   1.569  0.2360  0.9590  2.9768
  744TMC3    C711001   3.886   3.633   1.344  0.0464 -0.4693  0.1748
  744TMC3    C811002   3.943   3.423   1.785 -0.5142 -0.2316 -0.1482
  744TMC3    O111003   3.931   3.734   1.290  0.8102  0.2140  0.4305
  744TMC3    O211004   3.822   3.431   1.793 -0.2207 -0.1067  0.3242
  745TMC3    C111005   1.748   2.167  13.647 -1.0322 -0.2345  0.2262
  745TMC3    C211006   1.635   2.134  13.728 -0.5558  0.2200 -0.4471
  745TMC3    C311007   1.514   2.165  13.679  0.4733  0.0514 -0.8653
  745TMC3    C411008   1.730   2.232  13.530  0.0351 -0.5115  0.2690
  745TMC3    C511009   1.605   2.271  13.490  0.2808  0.3329 -0.9684
  745TMC3    C611010   1.494   2.235  13.561  0.7574 -0.1622  0.0225
  745TMC3     C11011   1.850   2.227  13.742  0.1732 -0.5942 -0.0010
  745TMC3     O11012   1.862   2.180  13.855 -0.3431 -0.5816  0.4686
  745TMC3     H11013   1.639   2.096  13.829  0.0459  0.1150 -0.5109
  745TMC3    H111014   1.822   2.257  13.477 -0.4797  0.4753 -0.1626
  745TMC3    H211015   1.395   2.273  13.541  0.2523 -0.1806  2.5196
  745TMC3    C711016   1.597   2.374  13.389 -0.9323 -0.0524 -0.6954
  745TMC3    C811017   1.425   2.179  13.788  0.2380 -0.2301 -0.7699
  745TMC3    O111018   1.486   2.393  13.337  0.2073 -0.0634 -0.1252
  745TMC3    O211019   1.413   2.080  13.859  0.0398  0.0521  0.4682
  746TMC3    C111020   4.218   4.149  11.355 -0.3411  0.5215  0.3108
  746TMC3    C211021   4.327   4.109  11.279 -0.1799 -1.0508 -0.2306
  746TMC3    C311022   4.316   3.988  11.218 -0.0049 -0.6947  0.5319
  746TMC3    C411023   4.112   4.073  11.383 -0.2593 -0.7108  0.2035
  746TMC3    C511024   4.102   3.953  11.319  0.1271  0.1805  0.4579
  746TMC3    C611025   4.206   3.912  11.232  0.1904 -0.2010 -0.6678
  746TMC3     C11026   4.195   4.287  11.379  0.1205  0.6286 -0.8501
  746TMC3     O11027   4.091   4.314  11.445 -0.2036  0.3073 -0.0370
  746TMC3     H11028   4.404   4.175  11.240 -0.3298 -2.3001 -2.6584
  746TMC3    H111029   4.039   4.109  11.455  1.5833  1.3048  1.0491
  746TMC3    H211030   4.196   3.835  11.156 -4.0893 -1.2967  0.9620
  746TMC3    C711031   3.976   3.904  11.271 -0.3540  0.4727  0.1460
  746TMC3    C811032   4.363   3.980  11.083 -0.2574  0.7457  0.6191
  746TMC3    O111033   3.984   3.799  11.207  0.3171 -0.0189 -0.2494
  746TMC3    O211034   4.480   3.958  11.053  0.1077 -0.4311 -0.5918
  747TMC3    C111035   1.822   4.520  11.302  0.0120  0.4063 -0.4123
  747TMC3    C211036   1.804   4.434  11.405  0.3527 -0.0671 -0.2882
  747TMC3    C311037   1.733   4.479  11.513 -0.3119 -0.1730  0.4159
  747TMC3    C411038   1.785   4.657  11.313 -0.1736  0.1426  0.5994
  747TMC3    C511039   1.717   4.692  11.420  0.0161 -0.7688  0.0740
  747TMC3    C611040   1.673   4.602  11.513 -0.0309  0.2046 -0.5582
  747TMC3     C11041   1.936   4.486  11.215 -1.2164  0.2903 -0.6517
  747TMC3     O11042   1.997   4.584  11.179  0.8918  0.4650 -0.3879
  747TMC3     H11043   1.842   4.332  11.409  0.9287  0.1670  0.3403
  747TMC3    H111044   1.804   4.721  11.228  0.6000 -0.9848 -0.0833
  747TMC3    H211045   1.617   4.635  11.600 -1.8599 -0.6097 -1.4106
  747TMC3    C711046   1.743   0.093  11.473  0.0477 -0.4269 -0.6437
  747TMC3    C811047   1.642   4.372  11.551 -0.7346 -0.1075  0.4881
  747TMC3    O111048   1.656   0.132  11.544  0.0337  0.6694  0.6335
  747TMC3    O211049   1.624   4.274  11.483  0.5142  0.2354  0.4437
  748MPD2     C11050   2.967   0.185   1.558  0.1753 -0.1623  0.4295
  748MPD2    C111051   2.957   0.324   1.574  0.1061  0.2218  0.2459
  748MPD2    C211052   3.065   0.395   1.638 -0.5389  0.2921 -0.7996
  748MPD2    C311053   3.179   0.326   1.666  0.5109 -0.6676 -0.3672
  748MPD2    C411054   3.191   0.187   1.654 -0.3961  0.6320  0.2283
  748MPD2    C511055   3.079   0.124   1.606  0.4681 -0.1346 -0.4087
  748MPD2     H11056   3.059   0.501   1.657  1.8595  0.7522 -2.6477
  748MPD2    H111057   3.281   0.133   1.683 -2.1183 -1.6904  1.2449
  748MPD2    H211058   2.888   0.120   1.523 -0.1389 -0.8189  2.3718
  748MPD2    H311059   3.083   0.016   1.597  2.4481 -0.0890 -0.1111
  748MPD2     N11060   3.283   0.410   1.718 -0.0601  0.4701  0.5368
  748MPD2    H511061   3.256   0.507   1.728 -0.5988  0.4931 -1.1860
  748MPD2    N111062   2.839   0.386   1.527 -0.0426 -0.0514 -0.3195
  748MPD2    H711063   2.762   0.324   1.501 -0.3577  0.0485  0.3661
  749TMC3    C111064   3.493   0.475   1.797  0.6216 -0.2514 -0.5239
  749TMC3    C211065   3.610   0.441   1.864  0.0385  0.3494 -0.5976
  749TMC3    C311066   3.670   0.545   1.942 -0.1306  0.1890  0.3556
  749TMC3    C411067   3.452   0.604   1.797 -0.0061 -0.1633 -0.1294
  749TMC3    C511068   3.520   0.702   1.864 -0.1745  0.0748  0.4103
  749TMC3    C611069   3.625   0.672   1.936  0.5551 -0.5501 -0.5427
  749TMC3     C11070   3.409   0.368   1.751 -0.2641  0.0924 -0.1891
  749TMC3     O11071   3.460   0.259   1.744 -0.2566 -0.1368 -0.0842
  749TMC3     H11072   3.659   0.345   1.855 -0.2968  0.2235 -1.0927
  749TMC3    H111073   3.362   0.627   1.742 -0.2112 -1.0142 -0.1559
  749TMC3    H211074   3.694   0.743   1.980  0.2950  0.1244 -1.2350
  749TMC3    C711075   3.499   0.836   1.813  0.0400  0.7949  0.0443
  749TMC3    C811076   3.814   0.534   1.982  0.0326  0.4040  0.3452
  749TMC3    O111077   3.432   0.861   1.712  0.2713  0.0001 -0.0471
  749TMC3    O211078   3.853   0.591   2.082  0.9217 -0.5486 -0.5596
  750MPD2     C11079   4.602   1.574  11.202 -0.6429  0.0444 -0.1327
  750MPD2    C111080   4.461   1.554  11.203  0.0784 -0.0685  0.5817
  750MPD2    C211081   4.403   1.450  11.130 -0.0406 -0.1076 -0.2424
  750MPD2    C311082   4.485   1.370  11.054  0.0410  0.5185  0.3156
  750MPD2    C411083   4.620   1.394  11.052  0.3209  0.8706 -0.6297
  750MPD2    C511084   4.680   1.495  11.125 -0.1458 -0.1809 -0.1370
  750MPD2     H11085   4.299   1.419  11.135 -0.6139  1.7634 -0.5366
  750MPD2    H111086   4.687   1.336  10.988 -1.6284 -0.7810 -1.1739
  750MPD2    H211087   4.640   1.644  11.275  1.4529 -3.8634  2.5522
  750MPD2    H311088   0.063   1.504  11.125 -0.2146  0.5927 -1.0712
  750MPD2     N11089   4.440   1.259  10.980  0.5256 -0.4214 -0.1019
  750MPD2    H511090   4.506   1.220  10.914  0.5097  0.7094 -0.7796
  750MPD2    N111091   4.385   1.640  11.287 -0.3980  0.6637  0.2361
  750MPD2    H711092   4.434   1.710  11.341 -1.6773  1.6621  0.1083
  751TMC3    C111093   4.283   1.090  10.912 -0.2085 -0.2691 -0.0810
  751TMC3    C211094   4.154   1.045  10.918 -0.0701  0.4661  0.3913
  751TMC3    C311095   4.113   0.955  10.819 -0.6633  0.4206 -0.1278
  751TMC3    C411096   4.376   1.040  10.828 -0.3045 -0.3902 -0.2121
  751TMC3    C511097   4.335   0.939  10.746  0.8488  0.0137 -0.1756
  751TMC3    C611098   4.205   0.898  10.733 -0.1079 -1.1776 -0.1415
  751TMC3     C11099   4.323   1.193  11.010  0.3555  0.3908  0.0420
  751TMC3     O11100   4.252   1.205  11.109  0.1228  0.4770  0.2950
  751TMC3     H11101   4.087   1.082  10.995  0.8216  2.9245 -0.0051
  751TMC3    H111102   4.482   1.057  10.842 -0.1558 -0.1972 -1.5574
  751TMC3    H211103   4.175   0.838  10.648  0.3651 -0.7413 -0.6154
  751TMC3    C711104   4.444   0.887  10.658 -0.2423 -0.2222  0.2659
  751TMC3    C811105   3.983   0.897  10.822  0.0272  0.2233 -0.2633
  751TMC3    O111106   4.545   0.958  10.649 -0.1384 -0.2845  0.3039
  751TMC3    O211107   3.960   0.796  10.758  0.0203 -0.5752  0.5246
  752TMC3    C111108   2.476   0.970  17.437  0.3207  0.4416  0.3226
  752TMC3    C211109   2.535   0.863  17.495 -0.2229 -0.4720  0.0118
  752TMC3    C311110   2.476   0.815  17.607  0.5340 -1.2035  0.1369
  752TMC3    C411111   2.367   1.032  17.493 -0.2711  0.0201 -0.1491
  752TMC3    C511112   2.313   0.977  17.610  0.5631  0.3552 -0.5664
  752TMC3    C611113   2.369   0.868  17.671  0.5593 -0.9952 -0.2866
  752TMC3     C11114   2.526   1.004  17.303  0.2075 -0.2127 -0.8250
  752TMC3     O11115   2.642   0.976  17.278  0.5793  0.1555 -0.6387
  752TMC3     H11116   2.617   0.803  17.458  0.6495  1.4262 -1.0768
  752TMC3    H111117   2.314   1.115  17.449  0.0110 -0.3786 -1.2428
  752TMC3    H211118   2.335   0.835   0.067  3.8877 -4.1650 -0.2101
  752TMC3    C711119   2.190   1.034  17.656  0.3816  0.1138 -0.2871
  752TMC3    C811120   2.508   0.681  17.647  0.0752  0.6627  0.0764
  752TMC3    O111121   2.115   1.081  17.574  0.8854  0.1029  0.0937
  752TMC3    O211122   2.530   0.592  17.567 -0.2678  0.2149  0.4244
  753TMC3    C111123   4.593   2.666  13.662 -0.0982 -0.5332  1.2242
  753TMC3    C211124   4.678   2.645  13.768 -0.1058  0.7569 -0.5113
  753TMC3    C311125   0.007   2.518  13.779  0.2015 -0.1188 -0.2304
  753TMC3    C411126   4.551   2.562  13.580 -0.9816  0.2140  0.1985
  753TMC3    C511127   4.615   2.444  13.600  0.1986  0.3111 -0.0960
  753TMC3    C611128   4.691   2.419  13.700  0.4532 -0.0344 -0.3826
  753TMC3     C11129   4.582   2.800  13.611 -0.2140  0.2906 -0.9220
  753TMC3     O11130   4.570   2.806  13.488  0.0322 -0.1936  0.1203
  753TMC3     H11131   4.711   2.719  13.841  0.0678 -0.5640  0.7595
  753TMC3    H111132   4.488   2.578  13.493  0.5574  2.4793 -0.5092
  753TMC3    H211133   0.032   2.333  13.696 -1.3441 -1.3676 -1.3737
  753TMC3    C711134   4.580   2.340  13.510  0.2353  0.2958 -0.0301
  753TMC3    C811135   0.052   2.479  13.910 -0.0071 -0.4960  0.3136
  753TMC3    O111136   4.462   2.335  13.478 -0.4198 -0.7165  0.5622
  753TMC3    O211137   0.110   2.562  13.981  0.2049 -0.0585 -0.0470
  754MPD2     C11138   3.762   1.274  12.799 -0.2528 -0.6442 -0.0834
  754MPD2    C111139   3.772   1.137  12.784 -0.2910  0.5010 -0.1863
  754MPD2    C211140   3.664   1.061  12.749 -0.5890 -0.8580 -0.5927
  754MPD2    C311141   3.541   1.127  12.725 -0.4368  0.9535 -0.6385
  754MPD2    C411142   3.529   1.261  12.746 -0.4329 -0.3766  0.0782
  754MPD2    C511143   3.637   1.338  12.786  0.2161 -0.2784  0.3547
  754MPD2     H11144   3.671   0.953  12.742  3.1723 -0.6717  0.2076
  754MPD2    H111145   3.439   1.320  12.730 -1.1454 -1.5705 -0.4155
  754MPD2    H211146   3.845   1.336  12.831 -0.4592 -0.1725 -0.4598
  754MPD2    H311147   3.634   1.444  12.809  0.0101 -0.2877  0.3737
  754MPD2     N11148   3.425   1.059  12.678  0.0626  0.2921 -0.1447
  754MPD2    H511149   3.334   1.103  12.689 -0.1135 -0.7616  2.6541
  754MPD2    N111150   3.896   1.079  12.827  0.1259 -0.1680  0.0864
  754MPD2    H711151   3.976   1.133  12.859  0.3763  1.6766 -3.5889
  755MPD2     C11152   2.734   1.273  13.078 -0.1463 -0.3347 -0.3602
  755MPD2    C111153   2.781   1.171  13.152 -0.4502 -0.2013  0.2651
  755MPD2    C211154   2.869   1.078  13.097  0.3599 -0.1106  0.2437
  755MPD2    C311155   2.907   1.097  12.967 -0.2955 -0.2730  0.5324
  755MPD2    C411156   2.866   1.209  12.890 -0.4778 -0.0462  0.1307
  755MPD2    C511157   2.780   1.295  12.951 -0.3895  0.3409  0.0180
  755MPD2     H11158   2.899   0.995  13.160 -0.4492  0.1742  1.0164
  755MPD2    H111159   2.906   1.224  12.791  0.0710  1.1521  0.5366
  755MPD2    H211160   2.684   1.361  13.117  2.3214  0.3165  1.3160
  755MPD2    H311161   2.746   1.382  12.896  0.4003  1.3808  1.1727
  755MPD2     N11162   2.996   1.010  12.894  0.2716 -0.0270 -1.2285
  755MPD2    H511163   3.034   1.036  12.804  1.3516 -0.0432 -0.7726
  755MPD2    N111164   2.746   1.149  13.289 -0.0405  0.4067  0.3422
  755MPD2    H711165   2.792   1.074  13.340  0.0106  0.2468  0.0616
  756MPD2     C11166   4.182   2.784   9.889  0.2229  0.4858 -0.1704
  756MPD2    C111167   4.237   2.650   9.903  0.1308 -0.7792  0.3767
  756MPD2    C211168   4.308   2.598   9.794 -0.1044 -0.0409  0.9253
  756MPD2    C311169   4.314   2.669   9.672  0.3949 -0.2326 -0.0300
  756MPD2    C411170   4.245   2.784   9.660  0.3310 -0.7087  0.0431
  756MPD2    C511171   4.196   2.847   9.770  0.1029 -0.5137 -0.3103
  756MPD2     H11172   4.342   2.496   9.803  1.4144  0.5134  1.3829
  756MPD2    H111173   4.247   2.838   9.566  0.4238 -2.1322 -0.7655
  756MPD2    H211174   4.118   2.819   9.969  0.8969 -0.6503  0.8682
  756MPD2    H311175   4.149   2.945   9.769  1.2016 -0.0111 -1.5834
  756MPD2     N11176   4.390   2.620   9.562  0.1270 -0.3591 -0.1707
  756MPD2    H511177   4.377   2.670   9.475 -0.6226 -0.6848 -0.2424
  756MPD2    N111178   4.213   2.571  10.006  0.2951  0.6220 -0.4606
  756MPD2    H711179   4.257   2.480  10.013  0.0020  0.4432 -0.9311
  757MPD2     C11180   0.036   1.762   9.318  0.2604 -0.0598 -0.1111
  757MPD2    C111181   4.635   1.812   9.342 -0.1058 -0.0645 -0.7412
  757MPD2    C211182   4.626   1.950   9.353  0.3327  0.2622  0.0787
  757MPD2    C311183   4.725   2.039   9.319 -0.2329  0.5436  0.5655
  757MPD2    C411184   0.123   1.980   9.292  0.0401  0.4824 -0.8655
  757MPD2    C511185   0.140   1.848   9.281 -0.2628 -0.4375 -0.1718
  757MPD2     H11186   4.533   1.995   9.384 -0.3410 -0.5066 -0.8244
  757MPD2    H111187   0.210   2.041   9.271  1.0002  0.0491  1.8164
  757MPD2    H211188   0.051   1.656   9.305 -1.8105 -0.3382 -0.1965
  757MPD2    H311189   0.233   1.811   9.240  0.6860  2.2463 -0.4659
  757MPD2     N11190   4.696   2.180   9.330 -0.6062  0.1803  0.0091
  757MPD2    H511191   4.606   2.210   9.366 -1.2268  0.0545 -1.4272
  757MPD2    N111192   4.524   1.730   9.342 -0.6927  0.2444 -0.2319
  757MPD2    H711193   4.539   1.631   9.353  1.1340  0.7161  1.5920
  758MPD2     C11194   3.876   0.512  16.105 -0.1578 -0.3422 -0.2231
  758MPD2    C111195   3.970   0.543  16.205 -1.0010 -0.6339 -0.8689
  758MPD2    C211196   3.918   0.601  16.320  0.6420 -0.2452  0.0653
  758MPD2    C311197   3.777   0.612  16.340 -0.0946  0.1185 -0.3989
  758MPD2    C411198   3.691   0.564  16.246  0.2330  0.2381  0.0003
  758MPD2    C511199   3.743   0.515  16.133  0.1606  0.0934 -0.0186
  758MPD2     H11200   3.984   0.640  16.396  0.5017 -1.7803  0.9733
  758MPD2    H111201   3.583   0.575  16.246  0.2021 -0.0202  3.9397
  758MPD2    H211202   3.907   0.474  16.009  1.9672  0.2029  0.2631
  758MPD2    H311203   3.669   0.494  16.057 -0.1084 -1.9798  0.8393
  758MPD2     N11204   3.719   0.676  16.452  0.6537  0.3024 -0.0271
  758MPD2    H511205   3.619   0.690  16.451  0.5962 -0.1249 -1.1262
  758MPD2    N111206   4.107   0.535  16.188  0.7533  0.2273 -0.1410
  758MPD2    H711207   4.142   0.502  16.099 -0.8772  0.7289 -0.9628
  759MPD2     C11208   3.014   4.339   9.500  0.0063  0.5343  0.1148
  759MPD2    C111209   3.144   4.295   9.492  0.7248  0.5126  0.1625
  759MPD2    C211210   3.222   4.313   9.386 -0.4643 -0.2919 -0.1047
  759MPD2    C311211   3.179   4.388   9.280  0.2796 -1.1166 -0.0773
  759MPD2    C411212   3.048   4.432   9.276  0.0574 -0.0781 -0.2100
  759MPD2    C511213   2.969   4.417   9.394  0.2280  0.5933  0.2003
  759MPD2     H11214   3.329   4.293   9.393 -0.2521  1.5152  1.9243
  759MPD2    H111215   3.010   4.507   9.208 -0.6766 -0.7499 -0.5432
  759MPD2    H211216   2.952   4.336   9.588  0.7160 -2.1357  0.5211
  759MPD2    H311217   2.867   4.453   9.400 -0.5661 -1.2358 -2.4001
  759MPD2     N11218   3.269   4.428   9.179 -1.0145  0.3571  0.6691
  759MPD2    H511219   3.364   4.393   9.183 -1.1427 -0.1600 -0.7495
  759MPD2    N111220   3.199   4.237   9.609 -0.5296 -0.0280  0.2549
  759MPD2    H711221   3.300   4.223   9.605 -1.0182 -2.8626 -1.9294
  760MPD2     C11222   2.268   1.406  11.859 -0.2402 -0.6822  0.0876
  760MPD2    C111223   2.391   1.421  11.803  0.7724 -0.5198 -0.1540
  760MPD2    C211224   2.476   1.312  11.790  0.7130 -0.2992 -0.3147
  760MPD2    C311225   2.435   1.187  11.840 -0.2413  0.2373  0.3561
  760MPD2    C411226   2.306   1.172  11.882 -0.3487  0.6019 -0.0186
  760MPD2    C511227   2.231   1.284  11.907  0.1489  0.1836 -0.0225
  760MPD2     H11228   2.575   1.335  11.753  1.6096 -1.4639  1.3596
  760MPD2    H111229   2.271   1.072  11.901  2.0667 -0.6357 -2.1313
  760MPD2    H211230   2.201   1.488  11.882  0.1455 -0.1260 -0.7796
  760MPD2    H311231   2.135   1.282  11.957  0.2252 -1.9600  0.0476
  760MPD2     N11232   2.512   1.063  11.837 -0.1464  0.6223 -0.4655
  760MPD2    H511233   2.475   0.982  11.885 -0.1609  0.7899 -0.1911
  760MPD2    N111234   2.443   1.534  11.747 -1.0193 -0.3479  0.1072
  760MPD2    H711235   2.537   1.529  11.708 -0.1006 -2.0640  2.5749
  761MPD2     C11236   3.550   0.846  11.084 -0.2530 -0.1822 -0.3230
  761MPD2    C111237   3.636   0.757  11.036  0.0002 -0.0652  0.2537
  761MPD2    C211238   3.746   0.793  10.965 -0.2146 -0.8942  0.5653
  761MPD2    C311239   3.775   0.927  10.951 -0.0090  0.6203 -0.1987
  761MPD2    C411240   3.697   1.017  11.011  0.0356  0.0718 -0.5157
  761MPD2    C511241   3.590   0.975  11.087 -0.6304 -0.1517 -0.4013
  761MPD2     H11242   3.821   0.722  10.932  1.6916  1.9423 -1.2479
  761MPD2    H111243   3.706   1.125  11.005  2.7876 -0.0572  1.5566
  761MPD2    H211244   3.456   0.833  11.137  1.4473  1.2813  3.1050
  761MPD2    H311245   3.533   1.054  11.135  1.6248  0.1205  1.8418
  761MPD2     N11246   3.896   0.974  10.892 -1.0754 -0.5989  0.6170
  761MPD2    H511247   3.924   1.071  10.906  1.1881 -1.6325  3.3313
  761MPD2    N111248   3.608   0.616  11.062 -0.2547  0.3501 -0.0294
  761MPD2    H711249   3.549   0.592  11.140 -1.4020 -1.1066 -1.3474
  762MPD2     C11250   3.487   4.469  10.879 -0.0419  0.1444 -0.2542
  762MPD2    C111251   3.587   4.562  10.849  0.1853  0.1566 -0.7680
  762MPD2    C211252   3.675   4.541  10.746 -0.3108  0.2569 -0.4509
  762MPD2    C311253   3.662   4.427  10.665 -0.5455 -0.1061  0.2291
  762MPD2    C411254   3.560   4.339  10.700 -0.2091 -0.0775  0.5414
  762MPD2    C511255   3.474   4.362  10.799 -0.2365  0.2677  0.5295
  762MPD2     H11256   3.754   4.610  10.720  0.6816 -0.4769  0.6141
  762MPD2    H111257   3.551   4.244  10.647  1.3711 -0.2195  0.5166
  762MPD2    H211258   3.410   4.486  10.953 -0.9411  1.8028 -1.5521
  762MPD2    H311259   3.404   4.284  10.826  0.1946  0.1991  1.4203
  762MPD2     N11260   3.757   4.392  10.561  0.4785 -0.1434 -0.2939
  762MPD2    H511261   3.740   4.308  10.507  1.3601 -1.1953  1.0580
  762MPD2    N111262   3.607   4.669  10.944 -0.1231  0.3769  0.5397
  762MPD2    H711263   3.530   4.673  11.011  0.3530 -0.9536  1.1693
  763MPD2     C11264   0.791   0.430  16.236 -0.3902  0.6803  0.2518
  763MPD2    C111265   0.669   0.498  16.250  0.4149 -0.5209  0.0332
  763MPD2    C211266   0.655   0.596  16.349  0.1833  0.2257  0.1578
  763MPD2    C311267   0.754   0.610  16.443  0.0099 -0.6508  0.6634
  763MPD2    C411268   0.874   0.541  16.432  0.1094 -0.6980 -0.1684
  763MPD2    C511269   0.890   0.441  16.332 -0.1347 -0.4773 -0.4145
  763MPD2     H11270   0.561   0.648  16.363 -0.1064  0.0205 -1.0487
  763MPD2    H111271   0.960   0.553  16.497  0.8492  1.0282 -1.4630
  763MPD2    H211272   0.810   0.362  16.154  2.2653  0.7361  0.8395
  763MPD2    H311273   0.985   0.389  16.323 -0.2506 -0.7148 -0.2423
  763MPD2     N11274   0.753   0.704  16.547  0.2735 -0.0141 -0.7171
  763MPD2    H511275   0.831   0.710  16.612  1.2984  2.6827 -2.2200
  763MPD2    N111276   0.560   0.465  16.172 -0.3425  0.4862 -0.1816
  763MPD2    H711277   0.489   0.537  16.176 -0.7106 -0.0554  2.6673
  764MPD2     C11278   3.639   2.492  17.201 -0.1777  0.1877  0.6588
  764MPD2    C111279   3.533   2.407  17.194  0.9842  0.2601  0.2784
  764MPD2    C211280   3.532   2.306  17.288  0.3877 -0.3837 -0.1017
  764MPD2    C311281   3.624   2.300  17.390 -0.1050 -0.4872 -0.1987
  764MPD2    C411282   3.723   2.392  17.401 -0.0185  0.2842  0.6263
  764MPD2    C511283   3.728   2.480  17.301 -0.4154 -0.2838  0.1501
  764MPD2     H11284   3.457   2.228  17.284  0.1942 -0.2910  1.7043
  764MPD2    H111285   3.797   2.397  17.480 -0.8312  1.5348  1.3175
  764MPD2    H211286   3.650   2.571  17.127  2.5662 -1.5232 -0.7530
  764MPD2    H311287   3.813   2.547  17.307  0.6747 -1.6251 -0.3936
  764MPD2     N11288   3.620   2.191  17.476 -0.0652 -0.4981  0.2447
  764MPD2    H511289   3.551   2.121  17.451 -1.8526  1.0151  0.9561
  764MPD2    N111290   3.430   2.406  17.098  0.3013 -0.0777 -0.0031
  764MPD2    H711291   3.365   2.329  17.106 -0.6804  0.7787  0.2187
  765MPD2     C11292   2.866   4.650  16.475 -0.0797  0.1623  0.3263
  765MPD2    C111293   2.944   0.015  16.398  0.3092  0.1389  0.0771
  765MPD2    C211294   3.052   4.698  16.330  0.7552 -0.3255  0.1401
  765MPD2    C311295   3.092   4.562  16.341  0.4579  0.4546  0.0698
  765MPD2    C411296   3.019   4.470  16.412 -0.1894  0.0505 -0.1815
  765MPD2    C511297   2.908   4.514  16.478 -0.2963 -0.9101  0.2365
  765MPD2     H11298   3.113   0.040  16.271  0.2807  1.2025  1.3915
  765MPD2    H111299   3.036   4.364  16.400 -1.5348 -0.3664  1.7133
  765MPD2    H211300   2.778   4.666  16.537 -0.5447 -0.7594 -0.0968
  765MPD2    H311301   2.840   4.450  16.533 -0.4897 -2.3475 -1.6541
  765MPD2     N11302   3.194   4.525  16.255 -0.2124 -0.2294  0.1232
  765MPD2    H511303   3.241   4.597  16.202 -0.5724  0.4327  0.6976
  765MPD2    N111304   2.900   0.151  16.393  0.4762 -0.2730 -0.0019
  765MPD2    H711305   2.802   0.173  16.408  0.9671  1.0716  1.2335
  766MPD2     C11306   2.659   0.153  15.679  0.2091  0.3136 -0.1658
  766MPD2    C111307   2.782   0.209  15.699  0.1444 -0.0434  0.2655
  766MPD2    C211308   2.881   0.209  15.604 -0.2440  0.3757  0.1061
  766MPD2    C311309   2.852   0.158  15.485 -0.3715 -0.1508  0.4305
  766MPD2    C411310   2.724   0.106  15.456 -1.0028 -0.0945 -0.1910
  766MPD2    C511311   2.625   0.107  15.552 -0.4509  0.1642  0.4720
  766MPD2     H11312   2.976   0.252  15.633 -0.6081  1.6849 -0.6538
  766MPD2    H111313   2.703   0.077  15.354  1.6034  2.2231 -1.3876
  766MPD2    H211314   2.592   0.145  15.763 -1.7630 -2.8487 -2.0516
  766MPD2    H311315   2.522   0.081  15.534 -0.4666 -0.3046  1.2352
  766MPD2     N11316   2.933   0.187  15.375  0.0470 -0.3562 -0.1127
  766MPD2    H511317   2.898   0.165  15.282  0.1928  0.4098 -0.3570
  766MPD2    N111318   2.817   0.278  15.823 -0.1165 -0.1869 -0.1407
  766MPD2    H711319   2.911   0.314  15.818  0.0276 -0.8843 -2.5992
  767MPD2     C11320   2.510   0.389  15.362  0.7037  0.5871 -0.2167
  767MPD2    C111321   2.628   0.436  15.311 -0.4057 -0.3169  1.0537
  767MPD2    C211322   2.663   0.420  15.177  0.0700  0.2997 -1.3457
  767MPD2    C311323   2.577   0.352  15.087  0.7766 -0.8373 -0.3742
  767MPD2    C411324   2.455   0.322  15.133 -0.4854  0.8182  0.3311
  767MPD2    C511325   2.426   0.341  15.270  0.4833 -0.4162 -1.0560
  767MPD2     H11326   2.759   0.457  15.144  0.1605  0.2455 -1.1419
  767MPD2    H111327   2.379   0.280  15.069 -0.2197  0.1540  0.4475
  767MPD2    H211328   2.487   0.401  15.467  1.8685  1.2961 -0.0504
  767MPD2    H311329   2.325   0.312  15.298 -0.1095  0.8236 -1.8955
  767MPD2     N11330   2.625   0.316  14.961  0.2539 -0.3470  0.0893
  767MPD2    H511331   2.726   0.321  14.952  0.1049 -1.0093 -1.8619
  767MPD2    N111332   2.713   0.496  15.407 -0.3784  0.4048 -0.0556
  767MPD2    H711333   2.671   0.496  15.499  0.7715  0.2347  0.4595
  768MPD2     C11334   4.020   3.581  10.644 -0.0255  0.2640 -0.5661
  768MPD2    C111335   3.949   3.592  10.761 -1.0426  0.1956 -0.0875
  768MPD2    C211336   4.015   3.591  10.879  0.0893  0.4427 -0.2009
  768MPD2    C311337   4.156   3.580  10.892 -0.2715  1.0779  0.6014
  768MPD2    C411338   4.226   3.584  10.775  0.1824  0.1499 -0.3650
  768MPD2    C511339   4.155   3.580  10.661  0.5914  0.3461 -0.6467
  768MPD2     H11340   3.950   3.612  10.964  0.9882 -0.2060  0.6436
  768MPD2    H111341   4.333   3.601  10.766  0.2736 -0.2328  0.0098
  768MPD2    H211342   3.980   3.582  10.543 -0.6256  0.6926 -0.3226
  768MPD2    H311343   4.209   3.583  10.567  1.3683  2.0547 -0.1349
  768MPD2     N11344   4.231   3.583  11.011  0.0283 -0.5685 -0.3621
  768MPD2    H511345   4.330   3.607  11.005  0.0935 -0.7693 -0.1135
  768MPD2    N111346   3.806   3.601  10.758  0.1050 -0.0842  0.0084
  768MPD2    H711347   3.761   3.580  10.847 -0.8213  0.8510 -0.2416
  769MPD2     C11348   4.489   1.898  15.178  0.1720  0.2542  0.7166
  769MPD2    C111349   4.394   1.952  15.261  0.2048  0.2208 -0.0949
  769MPD2    C211350   4.427   1.988  15.388 -0.1430 -0.0264 -0.3426
  769MPD2    C311351   4.552   1.965  15.440 -0.1090  0.1304 -0.0913
  769MPD2    C411352   4.646   1.899  15.362 -0.3392 -0.0937  0.7062
  769MPD2    C511353   4.611   1.864  15.237  0.0413  0.0226  0.4204
  769MPD2     H11354   4.360   2.041  15.455  0.0685 -0.6612  0.3687
  769MPD2    H111355   0.010   1.852  15.404 -0.1587 -1.5087 -1.2382
  769MPD2    H211356   4.468   1.862  15.079 -0.4692  1.6564  0.3434
  769MPD2    H311357   4.686   1.799  15.194 -0.6156  1.0773 -2.3221
  769MPD2     N11358   4.575   1.995  15.577  0.1950 -0.6720 -0.1909
  769MPD2    H511359   4.502   2.035  15.635 -0.5842 -2.8162  0.2839
  769MPD2    N111360   4.261   1.942  15.217  0.3722  0.5628 -0.1213
  769MPD2    H711361   4.244   1.881  15.138  1.4195  1.2857 -0.9166
  770MPD2     C11362   3.737   1.309  15.690 -0.0399 -0.3209  0.3968
  770MPD2    C111363   3.801   1.278  15.574  0.7844 -0.3948  0.1936
  770MPD2    C211364   3.836   1.384  15.490  0.1608 -0.8858  1.1173
  770MPD2    C311365   3.824   1.520  15.523  0.6311 -0.5124  0.3680
  770MPD2    C411366   3.770   1.546  15.644  0.2679  0.7710  0.1466
  770MPD2    C511367   3.734   1.445  15.731 -0.0976  0.2938  0.2634
  770MPD2     H11368   3.886   1.368  15.395 -1.7825 -3.5825  0.5381
  770MPD2    H111369   3.754   1.645  15.685  1.9545 -0.2836  3.3766
  770MPD2    H211370   3.709   1.229  15.757 -1.5983  1.8091  2.2920
  770MPD2    H311371   3.686   1.474  15.823 -1.5881 -4.0462  0.8258
  770MPD2     N11372   3.851   1.619  15.422 -0.3002 -0.6213  0.3629
  770MPD2    H511373   3.893   1.584  15.336 -0.3039 -3.1728  1.4126
  770MPD2    N111374   3.816   1.138  15.539 -0.1779 -0.7282 -0.1206
  770MPD2    H711375   3.751   1.074  15.583 -0.1689  0.2055  1.2613
  771MPD2     C11376   0.513   4.047  13.864 -0.0629  0.8716  0.1963
  771MPD2    C111377   0.553   4.146  13.771 -0.9425 -0.1046 -0.1405
  771MPD2    C211378   0.473   4.169  13.658 -0.5835 -0.0807 -0.6985
  771MPD2    C311379   0.360   4.094  13.635  0.6269  0.6513 -0.2713
  771MPD2    C411380   0.328   3.997  13.723 -0.1371  0.2537  0.6150
  771MPD2    C511381   0.405   3.979  13.833  0.0480 -0.0781 -0.0763
  771MPD2     H11382   0.491   4.250  13.588  0.5463 -1.4025 -1.9354
  771MPD2    H111383   0.231   3.949  13.716  0.2140 -0.3701 -0.0531
  771MPD2    H211384   0.554   4.037  13.964  0.4703 -0.2721 -0.1381
  771MPD2    H311385   0.377   3.906  13.909 -0.2114  1.7004  1.5584
  771MPD2     N11386   0.283   4.130  13.518 -0.1313  0.4950  0.0135
  771MPD2    H511387   0.305   4.217  13.471  1.3805  0.6306  0.9561
  771MPD2    N111388   0.671   4.228  13.798 -0.0445  0.4082  0.4432
  771MPD2    H711389   0.696   4.237  13.896 -0.8882  0.8832  0.6221
  772MPD2     C11390   0.586   0.136  14.167 -0.8138 -0.2249 -1.4204
  772MPD2    C111391   0.557   0.015  14.113  0.2049 -0.6238  0.8144
  772MPD2    C211392   0.436   4.677  14.147 -0.6663 -0.2779 -0.7611
  772MPD2    C311393   0.345   0.015  14.234 -0.5652 -0.3906  0.2160
  772MPD2    C411394   0.373   0.142  14.280 -0.0402 -0.1830  1.4835
  772MPD2    C511395   0.495   0.202  14.243  0.3965  0.4255  0.3832
  772MPD2     H11396   0.417   4.578  14.106  1.7878 -0.4916 -1.3964
  772MPD2    H111397   0.307   0.200  14.344 -0.6747  2.6847 -1.7556
  772MPD2    H211398   0.675   0.190  14.138  0.4397 -1.5524 -0.0466
  772MPD2    H311399   0.503   0.309  14.263 -2.6835  0.7507 -0.1510
  772MPD2     N11400   0.230   4.678  14.289 -0.1996  0.2533  0.7465
  772MPD2    H511401   0.180   0.012  14.356  2.0498  1.9991  0.8988
  772MPD2    N111402   0.638   4.666  14.023  0.7042  0.3369 -0.2159
  772MPD2    H711403   0.611   4.571  14.000 -3.4657  1.1609  1.3198
  773MPD2     C11404   4.236   0.877   0.098  0.6040 -0.8450  0.2292
  773MPD2    C111405   4.132   0.788   0.102 -0.0007 -0.4231  0.3132
  773MPD2    C211406   4.138   0.685   0.193  0.1141  0.2220 -0.3238
  773MPD2    C311407   4.240   0.679   0.289 -0.0437  0.3117  0.2498
  773MPD2    C411408   4.341   0.777   0.290  0.6643  0.0055  0.6593
  773MPD2    C511409   4.336   0.868   0.190 -0.2369 -0.3185  0.4861
  773MPD2     H11410   4.061   0.609   0.184  0.8483 -0.3247 -1.8223
  773MPD2    H111411   4.434   0.782   0.345  0.3872 -0.8443  1.2031
  773MPD2    H211412   4.253   0.944   0.016  2.1903 -0.7818  0.6080
  773MPD2    H311413   4.413   0.943   0.174 -0.1409 -0.4511  0.3193
  773MPD2     N11414   4.251   0.569   0.369  0.2389 -0.0204  0.0599
  773MPD2    H511415   4.192   0.487   0.360 -5.0532  3.6640  1.0316
  773MPD2    N111416   4.017   0.791   0.013 -0.0781  0.5973  0.0540
  773MPD2    H711417   3.936   0.735   0.039 -0.1034 -0.4659 -2.3840
  774MPD2     C11418   4.169   0.133  13.283  0.5644  1.0108  0.5910
  774MPD2    C111419   4.096   0.209  13.368 -0.8701  0.5625  0.1914
  774MPD2    C211420   4.070   0.336  13.317 -0.0283 -0.7318  0.2753
  774MPD2    C311421   4.128   0.380  13.203 -0.5546  0.0424  0.9878
  774MPD2    C411422   4.207   0.301  13.126 -0.0529 -0.3958 -0.2441
  774MPD2    C511423   4.229   0.176  13.161 -0.2728 -0.2910  0.1765
  774MPD2     H11424   4.004   0.406  13.366  1.5258 -0.4801  1.9950
  774MPD2    H111425   4.239   0.335  13.028  2.2687  2.5366  1.5083
  774MPD2    H211426   4.190   0.029  13.308 -1.9619  0.1692 -0.7376
  774MPD2    H311427   4.293   0.110  13.104 -0.8255  1.0569 -2.0282
  774MPD2     N11428   4.089   0.506  13.163  0.1057 -0.0637 -0.1070
  774MPD2    H511429   4.018   0.542  13.226  0.8990  0.4323  0.5119
  774MPD2    N111430   4.042   0.154  13.485  0.0948 -0.0089 -0.8465
  774MPD2    H711431   4.024   0.055  13.490  3.2140 -0.3757  2.7696
  775MPD2     C11432   0.173   1.761  16.097  0.2698 -0.0904  0.1453
  775MPD2    C111433   0.185   1.877  16.169  0.1928  0.3319  0.5153
  775MPD2    C211434   0.274   1.973  16.132  0.7067  0.7909 -0.7084
  775MPD2    C311435   0.360   1.953  16.025  0.3791 -0.4794  0.3760
  775MPD2    C411436   0.352   1.838  15.952  0.1400 -0.7033 -0.2762
  775MPD2    C511437   0.266   1.738  15.993  0.2018 -0.7253 -0.7404
  775MPD2     H11438   0.290   2.063  16.191  0.5840  1.1785 -1.2702
  775MPD2    H111439   0.413   1.809  15.867  0.7541 -0.6039  0.1341
  775MPD2    H211440   0.104   1.679  16.116 -3.8818  2.9389 -1.9460
  775MPD2    H311441   0.255   1.644  15.941 -1.1456 -0.8708 -0.1964
  775MPD2     N11442   0.449   2.052  15.976  0.0991 -0.2198 -0.9803
  775MPD2    H511443   0.492   2.031  15.886 -3.3124  1.3051 -2.9695
  775MPD2    N111444   0.101   1.890  16.283 -0.6997  0.3649  0.7064
  775MPD2    H711445   0.050   1.805  16.304  2.1823 -1.3552  0.7541
  776MPD2     C11446   4.242   2.274  11.829  0.2814  0.4698 -0.6605
  776MPD2    C111447   4.308   2.215  11.723 -0.5988  0.5766 -0.5623
  776MPD2    C211448   4.428   2.271  11.685  0.9573 -0.6035 -0.5687
  776MPD2    C311449   4.487   2.376  11.751  0.1271  0.1369 -0.8141
  776MPD2    C411450   4.425   2.430  11.857  0.6941  0.0203 -0.6556
  776MPD2    C511451   4.304   2.381  11.892  0.5432 -0.4899  0.3920
  776MPD2     H11452   4.481   2.234  11.597  2.4762  0.2264  0.0052
  776MPD2    H111453   4.461   2.508  11.923 -0.4094  0.4295 -0.5490
  776MPD2    H211454   4.151   2.240  11.877  1.0466  0.4976  0.7923
  776MPD2    H311455   4.251   2.427  11.974  0.6784  1.2199 -0.4731
  776MPD2     N11456   4.609   2.435  11.720 -0.2687 -0.1932 -0.0989
  776MPD2    H511457   4.650   2.501  11.785  1.8840  0.4520 -2.1067
  776MPD2    N111458   4.255   2.100  11.668  0.0157  0.2609  0.2299
  776MPD2    H711459   4.170   2.060  11.706 -0.1661  0.3043 -0.1347
  777MPD2     C11460   3.896   4.672   0.977  0.5511 -0.2237  0.1379
  777MPD2    C111461   3.995   4.591   1.024  0.1314 -0.3992 -0.6590
  777MPD2    C211462   4.004   4.463   0.968  0.4919 -1.0812  0.7524
  777MPD2    C311463   3.925   4.424   0.866  0.0360 -0.1182  0.0462
  777MPD2    C411464   3.829   4.509   0.816 -0.7606 -0.2610  0.2719
  777MPD2    C511465   3.807   4.639   0.875 -0.4500 -0.1260  0.2948
  777MPD2     H11466   4.073   4.393   1.014  0.2763  0.6142  3.6217
  777MPD2    H111467   3.766   4.489   0.730  1.3792 -0.1967 -1.3326
  777MPD2    H211468   3.882   0.044   1.024  0.3124 -0.1986  0.0205
  777MPD2    H311469   3.721   4.701   0.852 -0.9101 -1.5759 -1.9259
  777MPD2     N11470   3.954   4.297   0.802  0.0638 -0.3718 -0.2971
  777MPD2    H511471   4.010   4.228   0.851  0.7460  0.1840 -0.2915
  777MPD2    N111472   4.077   4.629   1.131 -0.1390  0.2083 -0.1565
  777MPD2    H711473   4.053   4.717   1.176 -0.6013 -0.2962  0.5818
  778MPD2     C11474   0.609   4.606  14.907 -0.2273 -0.3525 -0.1528
  778MPD2    C111475   0.638   4.481  14.841  0.5680 -0.4963 -0.1645
  778MPD2    C211476   0.743   4.472  14.754 -0.3775 -0.4883 -0.2966
  778MPD2    C311477   0.828   4.579  14.739  0.4748  0.1796  0.4526
  778MPD2    C411478   0.803   4.696  14.803 -0.7952  0.3245 -0.1926
  778MPD2    C511479   0.695   4.710  14.891  0.2346  0.7003 -0.0180
  778MPD2     H11480   0.764   4.378  14.704 -0.1197 -1.7279  2.1526
  778MPD2    H111481   0.859   0.064  14.798  2.1185 -1.4868 -1.1965
  778MPD2    H211482   0.522   4.611  14.972 -0.3139  0.9813 -0.3776
  778MPD2    H311483   0.672   0.080  14.938 -4.6208 -0.7373  0.4656
  778MPD2     N11484   0.939   4.565  14.656 -1.0132  0.1627 -0.0073
  778MPD2    H511485   0.943   4.486  14.593 -0.2334 -1.0708  1.5790
  778MPD2    N111486   0.558   4.366  14.862  0.3520 -0.1589  0.4954
  778MPD2    H711487   0.562   4.280  14.808 -1.9145  1.4664 -2.2835
  779MPD2     C11488   0.064   3.013  14.624 -0.0207 -0.8069  0.2908
  779MPD2    C111489   0.190   3.026  14.570  0.0426 -0.2461 -0.5148
  779MPD2    C211490   0.228   3.156  14.528  0.5688 -0.1364 -0.4093
  779MPD2    C311491   0.137   3.267  14.541 -0.5302  0.3107  0.0492
  779MPD2    C411492   0.016   3.246  14.604  0.7553  0.2550 -0.3327
  779MPD2    C511493   4.702   3.120  14.648 -0.6197  1.2611  0.1992
  779MPD2     H11494   0.320   3.175  14.474  0.9024  0.7628  0.4744
  779MPD2    H111495   4.674   3.331  14.611 -0.1932 -0.5136 -0.0931
  779MPD2    H211496   0.018   2.921  14.656 -0.5239 -0.1624  1.4179
  779MPD2    H311497   4.598   3.096  14.666  0.4421 -0.9965  3.1621
  779MPD2     N11498   0.181   3.397  14.506 -0.1568 -0.6572  0.7819
  779MPD2    H511499   0.277   3.412  14.477 -0.8431  2.4054  0.0306
  779MPD2    N111500   0.280   2.917  14.562 -0.9465 -0.4924 -0.4217
  779MPD2    H711501   0.355   2.924  14.493 -0.1161 -3.6144  0.1402
  780MPD2     C11502   3.590   2.774   1.457 -0.3773 -0.1530  0.1883
  780MPD2    C111503   3.718   2.814   1.486 -0.2068  0.7063 -0.5159
  780MPD2    C211504   3.805   2.826   1.381  0.5298  0.2964  0.3017
  780MPD2    C311505   3.773   2.788   1.254  0.1607 -0.8159 -0.5740
  780MPD2    C411506   3.650   2.752   1.222 -0.2532 -0.0164  0.2946
  780MPD2    C511507   3.561   2.740   1.325 -1.5054 -0.1223  0.7415
  780MPD2     H11508   3.907   2.858   1.396  0.7792 -0.9712  1.3366
  780MPD2    H111509   3.610   2.734   1.123 -1.6737  0.7484  0.7273
  780MPD2    H211510   3.514   2.769   1.534 -0.5404  0.6535  0.0761
  780MPD2    H311511   3.466   2.696   1.297  0.9987 -3.9176 -1.8434
  780MPD2     N11512   3.872   2.804   1.147  0.9007  0.2045 -0.5345
  780MPD2    H511513   3.959   2.845   1.179 -1.0936  1.0092  3.9972
  780MPD2    N111514   3.753   2.849   1.621 -0.2959  0.5288 -0.5184
  780MPD2    H711515   3.678   2.826   1.686  0.6403  0.9486  0.7139
  781MPD2     C11516   1.414   0.269  12.575  0.1999 -0.0895 -1.0846
  781MPD2    C111517   1.538   0.257  12.516  0.1666 -0.0163 -0.2629
  781MPD2    C211518   1.572   0.347  12.417 -0.3477  0.0731  0.5303
  781MPD2    C311519   1.496   0.452  12.377 -0.5885  0.3900  0.1585
  781MPD2    C411520   1.364   0.458  12.433  0.7766 -0.0425  0.0614
  781MPD2    C511521   1.332   0.365  12.528  0.6806  0.2120 -0.4813
  781MPD2     H11522   1.676   0.340  12.387 -0.5104 -0.7049  0.1490
  781MPD2    H111523   1.291   0.534  12.405 -2.8504 -1.1995  6.3610
  781MPD2    H211524   1.386   0.197  12.651  1.7732 -1.0370 -1.3979
  781MPD2    H311525   1.236   0.371  12.579  1.9668 -2.4859  2.2471
  781MPD2     N11526   1.538   0.538  12.278 -0.0274  0.2056 -0.7044
  781MPD2    H511527   1.480   0.619  12.259 -3.6169 -1.8125  1.6664
  781MPD2    N111528   1.640   0.167  12.552 -0.3165 -0.2034  0.3369
  781MPD2    H711529   1.715   0.150  12.486 -1.8029 -1.8764 -0.9062
  782MPD2     C11530   0.355   1.375  10.129  0.7340  0.5630 -0.6878
  782MPD2    C111531   0.401   1.301  10.235  0.0151  0.3573 -0.0522
  782MPD2    C211532   0.459   1.360  10.340 -0.3690 -0.6146 -0.4057
  782MPD2    C311533   0.456   1.497  10.357 -0.7727 -0.0698  1.3319
  782MPD2    C411534   0.404   1.578  10.255 -0.6375 -0.5334 -0.5801
  782MPD2    C511535   0.351   1.513  10.145  0.0690 -0.0228 -0.5526
  782MPD2     H11536   0.505   1.301  10.419  1.1060  0.5960 -0.3586
  782MPD2    H111537   0.406   1.685  10.272  1.5066 -0.8311  1.0676
  782MPD2    H211538   0.305   1.339  10.040 -2.6471  0.9413  1.0419
  782MPD2    H311539   0.298   1.571  10.070  0.7486  3.3047  1.5388
  782MPD2     N11540   0.503   1.552  10.478 -0.0815  0.1376  0.2205
  782MPD2    H511541   0.526   1.490  10.556 -0.6156  1.5517  1.5151
  782MPD2    N111542   0.395   1.160  10.239  0.0079  0.3980  0.6351
  782MPD2    H711543   0.434   1.118  10.323 -3.4284  1.0613  2.5769
  783MPD2     C11544   4.425   0.584  10.442  0.2847 -0.0325  0.4735
  783MPD2    C111545   4.475   0.699  10.500 -0.4179 -0.1282 -0.5916
  783MPD2    C211546   4.599   0.740  10.450 -0.0671 -0.1339  0.2217
  783MPD2    C311547   4.674   0.664  10.357 -0.8917  0.6693 -0.4978
  783MPD2    C411548   4.618   0.547  10.313 -0.0837  0.4465 -0.3363
  783MPD2    C511549   4.493   0.514  10.352 -0.4810 -0.3267 -0.4158
  783MPD2     H11550   4.644   0.836  10.473  0.6148 -0.4590  0.2206
  783MPD2    H111551   4.668   0.490  10.235 -1.3862 -3.1713  1.4623
  783MPD2    H211552   4.326   0.550  10.468 -0.1680 -0.2340 -1.4696
  783MPD2    H311553   4.444   0.429  10.306 -0.1077 -2.3045  2.8042
  783MPD2     N11554   0.060   0.722  10.308  0.2524 -0.7942 -0.0815
  783MPD2    H511555   0.068   0.823  10.316  0.1701 -0.8777  1.0675
  783MPD2    N111556   4.400   0.772  10.596  0.1580 -0.0897  0.8076
  783MPD2    H711557   4.310   0.733  10.622  0.4073 -0.3238  1.3058
  784MPD2     C11558   1.792   1.708   0.799 -0.1950  0.0201 -0.2435
  784MPD2    C111559   1.703   1.704   0.910 -0.1164 -1.0044  0.5242
  784MPD2    C211560   1.561   1.700   0.879 -0.5082 -0.0642 -0.0183
  784MPD2    C311561   1.525   1.704   0.748 -0.4559 -0.6909  0.1869
  784MPD2    C411562   1.619   1.723   0.648 -0.1657  0.8080  0.4804
  784MPD2    C511563   1.750   1.726   0.671  0.2051 -0.4454 -0.2874
  784MPD2     H11564   1.487   1.691   0.958 -1.7089  1.3833 -0.9794
  784MPD2    H111565   1.581   1.738   0.548  1.5202 -1.6258 -0.5355
  784MPD2    H211566   1.895   1.716   0.831 -0.5544  0.1335  0.8780
  784MPD2    H311567   1.823   1.738   0.591 -2.1478  0.1852 -2.3454
  784MPD2     N11568   1.389   1.678   0.726  0.3836  0.2946  0.2262
  784MPD2    H511569   1.337   1.654   0.810  0.3297  0.6290  0.2897
  784MPD2    N111570   1.737   1.711   1.048  0.1296 -0.1981 -0.4615
  784MPD2    H711571   1.659   1.718   1.113 -0.7505  1.2276 -1.6508
  785MPD2     C11572   3.813   0.200   9.435 -0.0471 -0.2007 -0.0684
  785MPD2    C111573   3.786   0.173   9.566  0.0131  0.3498 -0.1036
  785MPD2    C211574   3.674   0.091   9.584  0.5434 -0.0621 -0.5667
  785MPD2    C311575   3.589   0.053   9.481  0.0726  0.1248  0.0150
  785MPD2    C411576   3.627   0.085   9.354 -0.1019 -0.1398 -0.5098
  785MPD2    C511577   3.743   0.154   9.330  0.2180  0.0606 -0.4071
  785MPD2     H11578   3.647   0.063   9.685 -0.6013  2.4053 -0.1920
  785MPD2    H111579   3.570   0.072   9.262 -0.6057  1.7519 -0.4609
  785MPD2    H211580   3.897   0.261   9.405 -0.2977  0.0669 -0.2240
  785MPD2    H311581   3.773   0.193   9.234  0.0485 -0.1335 -0.5389
  785MPD2     N11582   3.484   4.693   9.523  0.0450  0.1723  0.0344
  785MPD2    H511583   3.484   4.676   9.623  0.9171  0.3475  0.0621
  785MPD2    N111584   3.854   0.226   9.679  0.0141  0.0429  0.3074
  785MPD2    H711585   3.810   0.204   9.768 -1.6530 -0.7498 -0.7165
  786MPD2     C11586   0.595   2.480  14.819  0.4539  0.4517  0.4325
  786MPD2    C111587   0.713   2.412  14.808 -0.5347 -0.6618  0.1076
  786MPD2    C211588   0.826   2.472  14.864  0.1945  0.2688  0.1784
  786MPD2    C311589   0.817   2.586  14.943  0.7507  0.0130  0.2116
  786MPD2    C411590   0.694   2.644  14.966 -0.1576  0.3167  0.1909
  786MPD2    C511591   0.588   2.587  14.900  0.2613  0.3265 -0.1609
  786MPD2     H11592   0.919   2.420  14.847 -0.3054 -1.1387  1.7485
  786MPD2    H111593   0.669   2.729  15.029 -0.0443  0.0174  0.6396
  786MPD2    H211594   0.505   2.450  14.767  1.5682  0.1642 -1.3266
  786MPD2    H311595   0.491   2.634  14.910  0.3318  0.5528 -0.5601
  786MPD2     N11596   0.926   2.642  15.014 -0.3017 -0.3404  0.0868
  786MPD2    H511597   0.902   2.717  15.079  1.3730  0.1697  0.1344
  786MPD2    N111598   0.738   2.293  14.733  0.3706 -0.5380  0.3699
  786MPD2    H711599   0.832   2.254  14.728  0.6285  0.2607 -1.2167
  787MPD2     C11600   0.808   1.730  15.038  0.2584 -0.6784  0.0788
  787MPD2    C111601   0.882   1.734  14.920  0.1143 -0.0963  1.4224
  787MPD2    C211602   0.997   1.666  14.904 -0.2579  0.9420 -0.3723
  787MPD2    C311603   1.046   1.581  15.005 -1.1978 -0.5340  0.7703
  787MPD2    C411604   0.971   1.568  15.117  0.1182 -0.1824 -1.0806
  787MPD2    C511605   0.849   1.640  15.135 -0.0400 -0.7691  0.5080
  787MPD2     H11606   1.070   1.682  14.825  0.7267 -1.5773  0.0135
  787MPD2    H111607   1.004   1.491  15.187 -0.7393 -0.1270 -0.6083
  787MPD2    H211608   0.720   1.792  15.043 -0.0512 -1.2060  1.0581
  787MPD2    H311609   0.789   1.624  15.224 -0.4930 -1.0392  0.1490
  787MPD2     N11610   1.158   1.498  14.982  0.6016  0.5809  0.6213
  787MPD2    H511611   1.192   1.481  14.888  0.1858  0.8640  0.4152
  787MPD2    N111612   0.842   1.821  14.814  0.0742 -0.1715  0.0108
  787MPD2    H711613   0.757   1.874  14.830 -0.2352 -0.2172 -1.4265
  788MPD2     C11614   2.835   0.217   1.223  0.9709 -0.4841 -0.2771
  788MPD2    C111615   2.725   0.210   1.141  0.2773 -0.0254  0.7083
  788MPD2    C211616   2.697   0.321   1.064  0.1143  0.6208 -0.1444
  788MPD2    C311617   2.782   0.428   1.054 -0.0281 -0.8376  0.3283
  788MPD2    C411618   2.894   0.432   1.133 -0.0279 -0.4824 -0.8754
  788MPD2    C511619   2.920   0.330   1.218 -0.4469  0.4528 -0.0983
  788MPD2     H11620   2.607   0.312   1.005  1.4983 -0.7781 -2.0388
  788MPD2    H111621   2.960   0.518   1.127  0.6917 -1.1469 -2.3321
  788MPD2    H211622   2.875   0.127   1.267 -0.1511 -1.4970 -1.3350
  788MPD2    H311623   3.002   0.339   1.288 -0.1397 -1.5571 -0.2069
  788MPD2     N11624   2.758   0.533   0.963 -0.4106  0.7108 -0.5319
  788MPD2    H511625   2.808   0.620   0.976 -0.6519  0.6416  0.8190
  788MPD2    N111626   2.646   0.096   1.126 -0.3683  0.3308 -0.3032
  788MPD2    H711627   2.574   0.087   1.056  0.3688 -0.0755 -1.0017
  789MPD2     C11628   3.286   0.523  16.514 -0.2747  0.0744 -1.0585
  789MPD2    C111629   3.216   0.435  16.595 -0.4248  0.3177  0.4585
  789MPD2    C211630   3.100   0.476  16.650  0.3406  0.3859 -0.2371
  789MPD2    C311631   3.054   0.611  16.633 -0.0299  0.0825  0.0742
  789MPD2    C411632   3.126   0.694  16.550  0.6035  0.3468 -0.1602
  789MPD2    C511633   3.238   0.647  16.490  0.5192  0.7347  0.4977
  789MPD2     H11634   3.051   0.404  16.715  1.6606 -0.2897  0.0029
  789MPD2    H111635   3.103   0.793  16.512 -0.2581  0.7269  1.3399
  789MPD2    H211636   3.377   0.498  16.460  0.2491  0.6266 -0.4355
  789MPD2    H311637   3.287   0.708  16.414  1.2058  0.4539  0.7158
  789MPD2     N11638   2.930   0.671  16.673 -0.3102  0.9802 -0.2442
  789MPD2    H511639   2.920   0.770  16.651 -0.8684  0.4950 -2.2016
  789MPD2    N111640   3.249   0.294  16.607 -0.0166  0.4841 -0.7980
  789MPD2    H711641   3.182   0.236  16.656 -0.1639 -1.2661 -3.0746
  790MPD2     C11642   3.856   2.079  13.834 -0.1738 -0.0265 -0.5340
  790MPD2    C111643   3.939   1.970  13.809  0.1305  0.6755  0.0481
  790MPD2    C211644   3.942   1.921  13.685  0.0762  0.0280 -0.1740
  790MPD2    C311645   3.858   1.969  13.582 -0.9199  0.1434 -0.1740
  790MPD2    C411646   3.774   2.069  13.609  0.0086  0.7156 -0.4877
  790MPD2    C511647   3.775   2.125  13.733 -0.6080  0.6365 -0.2414
  790MPD2     H11648   4.005   1.836  13.659 -1.3990 -0.7078 -1.3538
  790MPD2    H111649   3.709   2.115  13.535  1.1734 -0.9354 -2.5472
  790MPD2    H211650   3.856   2.123  13.933  1.3752 -0.0540 -0.5234
  790MPD2    H311651   3.724   2.221  13.746  0.3077  1.1499 -0.4849
  790MPD2     N11652   3.864   1.906  13.451 -0.1373  0.0880  0.6032
  790MPD2    H511653   3.931   1.831  13.433  0.0629  0.2271  0.7767
  790MPD2    N111654   4.009   1.915  13.923 -0.2561  0.6821 -0.0319
  790MPD2    H711655   3.991   1.946  14.018  0.9243 -1.0626  0.7481
  791MPD2     C11656   3.358   2.074  12.856  0.2396  0.0139 -0.3919
  791MPD2    C111657   3.432   1.965  12.824 -0.2441  0.5736  0.2274
  791MPD2    C211658   3.412   1.914  12.700  0.2298  0.2870 -0.5372
  791MPD2    C311659   3.332   1.970  12.606  0.1317 -1.0036  0.2760
  791MPD2    C411660   3.275   2.092  12.634 -0.6272  0.2517 -0.1348
  791MPD2    C511661   3.284   2.147  12.761 -0.8397 -0.9066  0.0066
  791MPD2     H11662   3.484   1.835  12.680  1.9077  2.5815 -3.4468
  791MPD2    H111663   3.212   2.138  12.560 -0.0187  0.3949 -0.5653
  791MPD2    H211664   3.370   2.111  12.958  1.3954 -2.4551  0.3683
  791MPD2    H311665   3.238   2.240  12.791  0.5650 -0.7900  1.7994
  791MPD2     N11666   3.315   1.902  12.486 -0.0218  0.8393  0.2908
  791MPD2    H511667   3.371   1.817  12.475  1.5467  1.8946  0.1670
  791MPD2    N111668   3.518   1.911  12.924 -0.3298  0.8571  0.2692
  791MPD2    H711669   3.536   1.966  13.008 -0.0536 -0.2389  0.9238
  792MPD2     C11670   3.938   2.235  11.301 -0.4688 -0.3875  0.4029
  792MPD2    C111671   4.054   2.191  11.243  0.7671 -0.8189 -0.2478
  792MPD2    C211672   4.057   2.062  11.191  0.1152  0.3766  0.1793
  792MPD2    C311673   3.944   1.976  11.191 -0.1504  0.4252 -0.4963
  792MPD2    C411674   3.837   2.014  11.268 -0.9281 -0.4353  0.5400
  792MPD2    C511675   3.839   2.146  11.312 -0.1691 -0.4297  0.1791
  792MPD2     H11676   4.146   2.026  11.142 -1.1408 -2.0223 -0.3339
  792MPD2    H111677   3.751   1.949  11.286  0.8131 -2.1415  2.7024
  792MPD2    H211678   3.935   2.332  11.349 -1.3997 -0.1610 -0.1309
  792MPD2    H311679   3.753   2.187  11.364  0.0750  2.0712 -1.4055
  792MPD2     N11680   3.940   1.842  11.146 -0.4715 -0.3618  0.0624
  792MPD2    H511681   3.859   1.795  11.184 -1.0586  1.1252  0.6846
  792MPD2    N111682   4.167   2.275  11.243  1.2198 -0.3949  0.3601
  792MPD2    H711683   4.148   2.372  11.265  0.7298 -0.4701  0.2661
  793MPD2     C11684   3.618   2.102  10.445 -0.8920  0.4786 -0.0067
  793MPD2    C111685   3.756   2.100  10.478  0.5417 -0.1828 -0.2089
  793MPD2    C211686   3.804   2.012  10.572  0.5038  0.0820 -0.2881
  793MPD2    C311687   3.720   1.925  10.637 -0.5695 -0.1288 -0.3752
  793MPD2    C411688   3.590   1.919  10.597 -0.4323 -0.6894  0.9132
  793MPD2    C511689   3.538   2.015  10.508 -0.8828  0.7201 -0.8360
  793MPD2     H11690   3.909   2.008  10.600  0.4647  1.7429  0.0999
  793MPD2    H111691   3.521   1.840  10.626  0.3863 -1.7059  0.1112
  793MPD2    H211692   3.577   2.169  10.371  0.1384 -0.0243 -1.0265
  793MPD2    H311693   3.432   2.018  10.488 -1.2608  1.1965  1.2377
  793MPD2     N11694   3.783   1.821  10.711 -0.1174 -0.2004 -0.6224
  793MPD2    H511695   3.883   1.809  10.696 -0.2497 -0.1168 -1.5206
  793MPD2    N111696   3.856   2.184  10.423  0.6349  0.2263 -0.5268
  793MPD2    H711697   3.928   2.217  10.486 -0.5268  0.3847  0.7013
  794MPD2     C11698   3.806   1.008  16.890  1.1114 -0.4731  0.0927
  794MPD2    C111699   3.704   1.037  16.979 -0.3090  0.2342 -0.8270
  794MPD2    C211700   3.593   1.104  16.935 -0.1917 -1.1350 -0.4835
  794MPD2    C311701   3.592   1.169  16.806 -0.4955 -0.4301 -0.2387
  794MPD2    C411702   3.690   1.131  16.725 -0.7113  0.1059 -0.1759
  794MPD2    C511703   3.791   1.055  16.767 -0.1193  0.5922  0.1215
  794MPD2     H11704   3.515   1.119  17.009 -0.9744  2.1165 -1.9810
  794MPD2    H111705   3.688   1.168  16.623 -2.2942 -0.9143 -0.5247
  794MPD2    H211706   3.887   0.939  16.911  1.0090 -0.9696 -1.1647
  794MPD2    H311707   3.871   1.029  16.699  0.6315 -1.1751  1.6859
  794MPD2     N11708   3.485   1.254  16.759 -0.4252  0.2139 -0.3710
  794MPD2    H511709   3.491   1.295  16.667  2.9186  0.2581 -0.1271
  794MPD2    N111710   3.701   0.989  17.110  0.1863 -0.1850 -0.4404
  794MPD2    H711711   3.610   0.988  17.155  0.3857  0.1756 -0.0318
  795MPD2     C11712   1.719   3.410  12.936 -0.1788 -0.0738  0.0351
  795MPD2    C111713   1.649   3.320  13.022  0.2439 -0.0713  0.4070
  795MPD2    C211714   1.721   3.255  13.124 -0.2204 -0.2394 -0.2373
  795MPD2    C311715   1.864   3.259  13.126 -0.1871 -0.5718  0.6209
  795MPD2    C411716   1.926   3.345  13.036 -0.1512 -0.6304 -0.5292
  795MPD2    C511717   1.853   3.423  12.943 -0.0815  1.0943  0.2140
  795MPD2     H11718   1.661   3.200  13.195 -0.6517  0.8862  0.2833
  795MPD2    H111719   2.031   3.369  13.051 -0.1115 -0.8817 -0.3910
  795MPD2    H211720   1.669   3.471  12.861  0.0637  0.1370  0.0448
  795MPD2    H311721   1.901   3.502  12.886 -0.3035  1.6349  0.7732
  795MPD2     N11722   1.934   3.186  13.225  0.2741  0.1183 -0.0899
  795MPD2    H511723   1.883   3.139  13.299  2.0930 -0.7020  0.6714
  795MPD2    N111724   1.503   3.299  13.011 -0.1936 -0.3298 -0.5207
  795MPD2    H711725   1.452   3.252  13.085 -0.4293 -0.4652 -0.7699
  796MPD2     C11726   0.916   0.176  15.855  0.1550 -0.7773 -0.5260
  796MPD2    C111727   1.027   0.223  15.929  0.8744  1.3623  0.5533
  796MPD2    C211728   1.034   0.357  15.949 -0.2740  0.0190 -0.4438
  796MPD2    C311729   0.933   0.444  15.912  0.2375 -0.3288 -0.2264
  796MPD2    C411730   0.820   0.391  15.860  0.1545  0.5902  0.3421
  796MPD2    C511731   0.811   0.258  15.826  0.3708 -0.1940 -0.1149
  796MPD2     H11732   1.111   0.404  16.008 -1.7327  0.8283  0.8147
  796MPD2    H111733   0.736   0.451  15.825 -0.5777 -1.3283 -1.2410
  796MPD2    H211734   0.900   0.070  15.842 -1.9216 -0.7229  1.6568
  796MPD2    H311735   0.735   0.214  15.763  2.0038  0.5331 -2.6210
  796MPD2     N11736   0.935   0.571  15.971 -0.5880  0.6310  0.5351
  796MPD2    H511737   1.026   0.602  16.003 -0.0875 -0.2703  0.0046
  796MPD2    N111738   1.132   0.134  15.963 -0.9589 -0.0095 -0.8789
  796MPD2    H711739   1.102   0.036  15.964  0.5830 -0.4557  0.4375
  797MPD2     C11740   1.716   4.344  17.258  0.5041 -0.1828 -0.2582
  797MPD2    C111741   1.802   4.436  17.300  0.2715 -0.5710  0.3351
  797MPD2    C211742   1.819   4.547  17.228  0.7783 -0.0502 -0.0006
  797MPD2    C311743   1.729   4.583  17.126  0.2582 -0.1480  0.5973
  797MPD2    C411744   1.634   4.491  17.093  0.0096  0.1923 -0.3099
  797MPD2    C511745   1.641   4.362  17.142 -0.3698  0.4725  0.4703
  797MPD2     H11746   1.900   4.610  17.264 -1.0908  0.5952  3.0736
  797MPD2    H111747   1.559   4.519  17.020 -0.1997  0.3555 -0.0314
  797MPD2    H211748   1.721   4.245  17.303 -2.6910 -0.3902 -0.3568
  797MPD2    H311749   1.579   4.282  17.105  0.5795  0.0270 -0.1673
  797MPD2     N11750   1.734   4.706  17.061  1.0245 -0.2623  0.1412
  797MPD2    H511751   1.679   4.722  16.977  2.1152 -0.8016 -0.6742
  797MPD2    N111752   1.893   4.418  17.404  0.0168 -0.2786  0.0523
  797MPD2    H711753   1.944   4.503  17.428  0.3260 -0.9212  1.6699
  798MPD2     C11754   2.266   0.304  17.370  0.4314  0.1289 -0.9499
  798MPD2    C111755   2.141   0.252  17.361 -0.0506 -0.1770 -0.5229
  798MPD2    C211756   2.095   0.159  17.449 -0.3231 -0.2971 -0.3767
  798MPD2    C311757   2.180   0.104  17.545 -0.7410  0.1421  0.0950
  798MPD2    C411758   2.303   0.158  17.554 -0.4310  0.3604 -0.5651
  798MPD2    C511759   2.346   0.260  17.472 -0.1511  0.2518 -0.4959
  798MPD2     H11760   1.994   0.122  17.438 -0.2704 -1.1053  1.7115
  798MPD2    H111761   2.368   0.119  17.631 -2.1695 -0.0285  0.7013
  798MPD2    H211762   2.297   0.389  17.309  0.1494  0.6792 -0.3260
  798MPD2    H311763   2.435   0.317  17.498 -1.3184  1.5332  0.6362
  798MPD2     N11764   2.133   4.724  17.615  0.5143 -0.8664  0.3578
  798MPD2    H511765   2.033   4.706  17.611  0.1180  1.1205  1.2428
  798MPD2    N111766   2.056   0.295  17.258 -0.0945  0.2468 -0.1909
  798MPD2    H711767   1.965   0.250  17.261  1.5043 -2.9355  0.6354
  799MPD2     C11768   1.110   0.995  14.970 -0.2102  0.1156 -0.3403
  799MPD2    C111769   1.158   1.005  14.841  0.3453  0.0690  0.0963
  799MPD2    C211770   1.113   1.111  14.763 -0.3601  0.2613 -0.0547
  799MPD2    C311771   1.017   1.194  14.806  0.1602 -0.3449  0.2984
  799MPD2    C411772   0.968   1.173  14.933 -0.3220 -0.0623  0.0398
  799MPD2    C511773   1.013   1.076  15.015  0.3076  0.1869 -0.0740
  799MPD2     H11774   1.124   1.106  14.655 -1.9167 -0.4731 -0.1865
  799MPD2    H111775   0.885   1.233  14.968  1.1807  1.9360  0.1656
  799MPD2    H211776   1.137   0.916  15.040 -3.2786 -1.3989 -0.8510
  799MPD2    H311777   0.975   1.050  15.113  2.0544 -0.9060  0.3208
  799MPD2     N11778   0.963   1.282  14.709 -0.4135  0.8939 -1.1788
  799MPD2    H511779   1.018   1.293  14.624 -0.4542  0.0909 -1.3061
  799MPD2    N111780   1.240   0.906  14.783  0.0905 -0.6057 -0.5591
  799MPD2    H711781   1.245   0.908  14.682  1.6324  0.5190 -0.4681
  800MPD2     C11782   1.577   2.429  14.188 -0.5159  0.1899  0.1079
  800MPD2    C111783   1.610   2.503  14.078 -0.5921 -0.2373  0.6900
  800MPD2    C211784   1.560   2.469  13.961  0.4410  0.0394  0.1369
  800MPD2    C311785   1.485   2.351  13.952 -0.1386 -0.0514  0.8782
  800MPD2    C411786   1.456   2.278  14.064  0.7551 -0.1895  0.3003
  800MPD2    C511787   1.501   2.319  14.187  0.7883  0.1247  0.0758
  800MPD2     H11788   1.588   2.512  13.866  1.2684  1.8345  1.1958
  800MPD2    H111789   1.410   2.180  14.061  2.9406 -1.1856 -0.6307
  800MPD2    H211790   1.625   2.443  14.284 -1.8099  0.2302  0.7550
  800MPD2    H311791   1.500   2.246  14.267 -1.2593  1.6190  1.3964
  800MPD2     N11792   1.456   2.309  13.821 -0.4675 -0.0940 -0.0340
  800MPD2    H511793   1.480   2.370  13.744 -1.2339  1.3662  0.8803
  800MPD2    N111794   1.713   2.600  14.091  0.3324  0.9413  0.0136
  800MPD2    H711795   1.770   2.590  14.174 -0.5859 -2.7227  0.2102
  801MPD2     C11796   1.940   3.340  14.133  0.0635 -0.3414  0.0724
  801MPD2    C111797   1.849   3.236  14.158 -0.1129  0.1236  0.3764
  801MPD2    C211798   1.727   3.257  14.221 -0.2779 -0.4340  1.1411
  801MPD2    C311799   1.709   3.381  14.285 -0.4046  0.0978  0.2912
  801MPD2    C411800   1.803   3.481  14.283  0.1079 -0.1303 -0.2815
  801MPD2    C511801   1.911   3.462  14.200 -0.0143  0.8995 -0.1685
  801MPD2     H11802   1.656   3.178  14.240 -1.3878  0.4962  0.8424
  801MPD2    H111803   1.784   3.580  14.323 -0.1078  0.0135 -0.7380
  801MPD2    H211804   2.039   3.337  14.090 -0.1333 -0.6949 -0.3437
  801MPD2    H311805   1.985   3.540  14.184 -0.3239  1.0373 -0.8901
  801MPD2     N11806   1.593   3.396  14.365  0.2121 -0.2560 -0.1274
  801MPD2    H511807   1.594   3.467  14.438  1.1310  0.0761 -0.4554
  801MPD2    N111808   1.876   3.108  14.108  0.4211 -0.5067 -0.2698
  801MPD2    H711809   1.813   3.033  14.138 -0.5223  0.3758 -0.0435
  802MPD2     C11810   0.365   2.736   0.190  0.0091 -0.2110 -0.1469
  802MPD2    C111811   0.390   2.866   0.139 -0.1840  0.2797 -0.0994
  802MPD2    C211812   0.478   2.876   0.039  1.2350  0.0870  0.1354
  802MPD2    C311813   0.535   2.768  17.682  0.2425 -0.6014  0.2701
  802MPD2    C411814   0.507   2.637   0.029  0.6756 -0.1143 -0.6765
  802MPD2    C511815   0.418   2.627   0.127  0.1097  0.1052  0.8408
  802MPD2     H11816   0.514   2.974   0.011  2.3950  0.1107  1.6917
  802MPD2    H111817   0.570   2.553   0.007 -1.5421 -2.4164  1.7492
  802MPD2    H211818   0.289   2.712   0.264 -1.0704 -2.6836 -2.0556
  802MPD2    H311819   0.392   2.530   0.167  2.3939 -0.8711 -0.0461
  802MPD2     N11820   0.625   2.794  17.575  0.2143 -0.1386  0.1386
  802MPD2    H511821   0.641   2.890  17.547  0.7006 -0.6052 -1.1888
  802MPD2    N111822   0.315   2.974   0.193 -1.0337 -0.3046 -0.1602
  802MPD2    H711823   0.251   2.958   0.271  1.0889  0.0688  1.6492
  803MPD2     C11824   2.494   2.239  11.985  0.3520  0.2130 -0.1903
  803MPD2    C111825   2.563   2.134  12.049  1.0581  0.6271  0.1751
  803MPD2    C211826   2.501   2.010  12.063  0.3349 -0.4986 -0.2516
  803MPD2    C311827   2.379   1.980  12.018 -0.6756 -0.7254  0.2646
  803MPD2    C411828   2.306   2.082  11.963 -0.0462  0.9010  0.1558
  803MPD2    C511829   2.361   2.205  11.944 -0.3546 -0.7452 -0.1576
  803MPD2     H11830   2.558   1.928  12.105  0.3221  0.1095  0.9499
  803MPD2    H111831   2.205   2.058  11.932  0.0192 -2.1732  2.2470
  803MPD2    H211832   2.529   2.338  11.956 -0.6937  1.1068  1.5965
  803MPD2    H311833   2.302   2.284  11.898  1.4771  0.1659 -0.9394
  803MPD2     N11834   2.316   1.857  12.032  0.6026 -0.2380  0.2358
  803MPD2    H511835   2.228   1.843  11.983 -0.4382 -0.0382  2.0391
  803MPD2    N111836   2.691   2.150  12.102 -0.2688  0.5443 -0.5201
  803MPD2    H711837   2.723   2.073  12.160 -0.7916  0.9615  0.3361
  804MPD2     C11838   1.487   3.217  16.679  0.3052 -0.6190 -0.5736
  804MPD2    C111839   1.482   3.188  16.818  0.6769 -0.1397 -0.5387
  804MPD2    C211840   1.564   3.265  16.898  0.6091  0.2162  0.4219
  804MPD2    C311841   1.645   3.365  16.844  0.0993  0.2810 -0.1998
  804MPD2    C411842   1.651   3.383  16.708  0.0781 -0.4266  0.1739
  804MPD2    C511843   1.571   3.310  16.627 -0.4730  0.5112  0.9405
  804MPD2     H11844   1.569   3.246  17.004 -0.1449  0.5420  0.5129
  804MPD2    H111845   1.704   3.466  16.663 -1.6562 -0.8852 -2.7428
  804MPD2    H211846   1.439   3.152  16.606 -0.2752 -0.9616  0.1183
  804MPD2    H311847   1.563   3.343  16.524 -0.0608  0.5723  0.9286
  804MPD2     N11848   1.719   3.437  16.938 -0.1473  0.0020  0.2501
  804MPD2    H511849   1.717   3.399  17.032  0.4960 -2.3186 -0.6755
  804MPD2    N111850   1.404   3.090  16.879  0.0853 -0.0167  0.1069
  804MPD2    H711851   1.417   3.077  16.979 -0.6014  1.1309  0.3483
  805MPD2     C11852   0.507   1.409  15.924 -0.3660  0.3341  0.1577
  805MPD2    C111853   0.566   1.501  15.836  0.0071  0.1026  0.0659
  805MPD2    C211854   0.704   1.537  15.859  0.1011  0.9199  0.5801
  805MPD2    C311855   0.781   1.484  15.969 -0.0515  0.3745 -0.0920
  805MPD2    C411856   0.715   1.399  16.049 -0.1370  0.5510  0.1264
  805MPD2    C511857   0.581   1.371  16.033  0.2266 -0.3213  0.2034
  805MPD2     H11858   0.751   1.603  15.788  0.7874  0.5337  0.6732
  805MPD2    H111859   0.753   1.367  16.146 -0.6425  2.5305  0.9701
  805MPD2    H211860   0.409   1.365  15.912 -0.6216  0.8527  0.3532
  805MPD2    H311861   0.537   1.312  16.113  1.7967 -1.2645  0.3753
  805MPD2     N11862   0.906   1.533  15.999 -0.0612 -0.3764 -0.9809
  805MPD2    H511863   0.946   1.604  15.939  1.5752 -0.3412  0.1290
  805MPD2    N111864   0.501   1.547  15.716 -0.4773 -0.2848 -0.6327
  805MPD2    H711865   0.549   1.609  15.651  1.4521  0.5131  1.5293
  806MPD2     C11866   1.478   1.303   0.692  0.0921  0.4729 -0.8354
  806MPD2    C111867   1.610   1.356   0.677  0.7535 -0.3084  0.0351
  806MPD2    C211868   1.632   1.421   0.558  0.7872  0.2620 -0.4149
  806MPD2    C311869   1.536   1.444   0.467  0.3983 -0.7179 -0.3730
  806MPD2    C411870   1.408   1.395   0.487  0.4338 -0.2753 -0.3388
  806MPD2    C511871   1.377   1.326   0.596 -0.1775 -0.2421 -0.2420
  806MPD2     H11872   1.725   1.472   0.536  1.9061 -1.1136  1.1456
  806MPD2    H111873   1.326   1.416   0.419  1.3459  0.3009 -1.2621
  806MPD2    H211874   1.465   1.257   0.790 -0.8260 -1.5119 -1.8957
  806MPD2    H311875   1.273   1.296   0.606 -0.3030  0.1056 -0.5020
  806MPD2     N11876   1.573   1.520   0.353 -0.2785  0.1204  0.4483
  806MPD2    H511877   1.672   1.539   0.349  0.1064 -1.6970  1.4175
  806MPD2    N111878   1.697   1.336   0.793 -0.3462  0.1241 -0.6145
  806MPD2    H711879   1.655   1.295   0.875  1.9828  0.8827  0.9563
  807MPD2     C11880   1.613   1.384   1.474  0.1641 -0.3057 -0.0555
  807MPD2    C111881   1.609   1.288   1.369 -0.6117  0.5699 -0.0255
  807MPD2    C211882   1.502   1.215   1.350  0.0090  0.6329 -0.2884
  807MPD2    C311883   1.394   1.222   1.441  0.8305  0.0931  0.1143
  807MPD2    C411884   1.395   1.315   1.546 -0.9156  0.4869  0.0624
  807MPD2    C511885   1.503   1.391   1.558 -0.1236  0.0190 -0.3429
  807MPD2     H11886   1.493   1.140   1.273  0.0935  0.2487  0.0712
  807MPD2    H111887   1.317   1.326   1.620  0.1600 -0.8031  1.4142
  807MPD2    H211888   1.696   1.452   1.487 -1.3302  1.1950  1.6309
  807MPD2    H311889   1.505   1.465   1.637  1.5554 -0.3441 -0.0579
  807MPD2     N11890   1.291   1.127   1.425 -0.7572 -0.1991 -0.4816
  807MPD2    H511891   1.296   1.075   1.338  1.3150  0.2574 -0.6246
  807MPD2    N111892   1.701   1.295   1.259  0.0582  0.4084  0.1924
  807MPD2    H711893   1.678   1.239   1.178 -1.1243 -0.9568  1.4784
  808MPD2     C11894   2.469   2.884   9.859 -0.4467 -0.5663 -0.2757
  808MPD2    C111895   2.416   2.927   9.979  0.1256 -0.0830 -0.0963
  808MPD2    C211896   2.421   3.063  10.002  0.3938  0.5153 -0.0705
  808MPD2    C311897   2.495   3.146   9.917  0.0748 -0.1007 -0.0590
  808MPD2    C411898   2.552   3.102   9.796 -0.7477  0.0643 -0.2139
  808MPD2    C511899   2.543   2.967   9.779 -0.0139  0.3793  0.2993
  808MPD2     H11900   2.372   3.097  10.092  0.0974 -0.7091  0.2410
  808MPD2    H111901   2.596   3.161   9.717 -1.7412  0.6381 -0.3288
  808MPD2    H211902   2.461   2.780   9.830 -3.1109 -0.4893  0.1553
  808MPD2    H311903   2.578   2.925   9.685 -0.1241  4.4553 -1.5917
  808MPD2     N11904   2.505   3.283   9.942 -0.0555 -0.2991  0.3566
  808MPD2    H511905   2.541   3.337   9.864 -1.1348 -1.3602 -0.8792
  808MPD2    N111906   2.344   2.840  10.070  0.1509  0.3617  0.5460
  808MPD2    H711907   2.316   2.866  10.164  2.2365 -0.2690  1.3342
  809MPD2     C11908   2.141   4.063   9.528  0.1090  0.6846  0.4450
  809MPD2    C111909   2.230   3.961   9.495 -1.1718 -0.6130 -0.3924
  809MPD2    C211910   2.299   3.892   9.596  0.0344 -0.1759  0.6689
  809MPD2    C311911   2.282   3.929   9.730 -0.1058 -0.4405  0.1387
  809MPD2    C411912   2.202   4.038   9.757  0.0452  0.0764  0.4718
  809MPD2    C511913   2.138   4.108   9.660  1.0347 -0.1813  0.4321
  809MPD2     H11914   2.355   3.805   9.563  1.3147  0.6190  0.7010
  809MPD2    H111915   2.181   4.065   9.860  3.1967 -0.7250  1.3074
  809MPD2    H211916   2.078   4.099   9.447  0.7491 -1.0590 -0.8353
  809MPD2    H311917   2.067   4.186   9.683  1.3299 -0.2271  1.5160
  809MPD2     N11918   2.339   3.861   9.840 -0.5673  0.4122  1.2440
  809MPD2    H511919   2.326   3.886   9.938 -3.0138 -0.8682  1.2513
  809MPD2    N111920   2.243   3.903   9.366 -0.4408 -0.1298  0.7320
  809MPD2    H711921   2.304   3.822   9.367 -0.5590 -0.2452 -1.5711
  810MPD2     C11922   0.962   1.528   9.848  0.4747  0.1875  0.0318
  810MPD2    C111923   1.046   1.551   9.945 -0.0640  0.0876  0.8314
  810MPD2    C211924   1.184   1.543   9.913  0.4349 -0.1867 -0.5656
  810MPD2    C311925   1.231   1.520   9.788 -0.2069 -0.1620 -0.4527
  810MPD2    C411926   1.138   1.507   9.689  0.3752 -0.4953  0.3289
  810MPD2    C511927   1.007   1.510   9.722 -0.5357 -0.5179  0.3507
  810MPD2     H11928   1.252   1.567   9.993 -1.4850 -1.0461  1.3334
  810MPD2    H111929   1.166   1.472   9.590  2.0383  1.3389  0.1449
  810MPD2    H211930   0.856   1.512   9.864  0.6010 -1.2327 -0.5134
  810MPD2    H311931   0.928   1.500   9.649  0.1534  0.6980 -0.5539
  810MPD2     N11932   1.368   1.533   9.750 -1.0126  0.5690  0.0974
  810MPD2    H511933   1.397   1.539   9.653 -1.0947  1.4103  0.1183
  810MPD2    N111934   1.001   1.583  10.071 -0.4962  0.2836  0.7985
  810MPD2    H711935   1.075   1.598  10.140  1.3538  0.7024 -1.2674
  811MPD2     C11936   0.995   2.220  10.680  0.5918  0.3420 -0.1564
  811MPD2    C111937   0.992   2.195  10.541 -0.6286  0.7408 -0.0958
  811MPD2    C211938   0.996   2.300  10.454  0.0698  0.0465 -0.0489
  811MPD2    C311939   1.014   2.428  10.498  0.0159 -0.5085 -0.5891
  811MPD2    C411940   1.014   2.450  10.636  0.4266 -0.2359  0.0193
  811MPD2    C511941   1.006   2.351  10.722 -0.4806  0.3439 -0.2043
  811MPD2     H11942   0.987   2.276  10.349 -3.3120 -0.5297  0.3748
  811MPD2    H111943   1.031   2.549  10.677  1.6037 -0.2993 -0.3087
  811MPD2    H211944   0.996   2.132  10.743  0.6510 -0.2672 -1.0120
  811MPD2    H311945   1.024   2.370  10.827 -0.4256 -3.0489  0.3912
  811MPD2     N11946   1.039   2.538  10.410 -0.5210  0.0293  0.0611
  811MPD2    H511947   1.052   2.510  10.313  3.7422 -0.4411  0.7707
  811MPD2    N111948   0.978   2.061  10.505 -0.7748  0.2267  0.3437
  811MPD2    H711949   0.972   1.999  10.585 -2.8949  0.8279  0.6491
  812MPD2     C11950   0.198   1.811  12.347  0.2829  0.0804  0.3867
  812MPD2    C111951   0.128   1.849  12.460  0.1459  0.3503 -0.4403
  812MPD2    C211952   0.079   1.754  12.547 -0.6140  0.6571 -0.3063
  812MPD2    C311953   0.087   1.620  12.509 -0.1746  0.1672 -0.4908
  812MPD2    C411954   0.151   1.585  12.392  0.6260 -0.3667 -0.3532
  812MPD2    C511955   0.208   1.686  12.319 -0.2819  0.5585  0.0849
  812MPD2     H11956   0.038   1.775  12.645 -1.4653 -0.0056 -0.5297
  812MPD2    H111957   0.169   1.485  12.357  0.3443 -0.4594 -0.2311
  812MPD2    H211958   0.249   1.879  12.279 -0.9988 -0.1852 -0.8553
  812MPD2    H311959   0.272   1.660  12.235 -1.5940 -0.2014 -0.6902
  812MPD2     N11960   0.039   1.525  12.595  0.7180 -0.5037 -0.0732
  812MPD2    H511961   4.710   1.554  12.676 -0.9218 -2.3267 -0.5299
  812MPD2    N111962   0.123   1.983  12.486 -0.1084  0.1108 -0.1284
  812MPD2    H711963   0.170   2.045  12.421 -0.3374  0.8989  0.4513
  813MPD2     C11964   3.532   4.179  12.885  0.1124 -0.2595 -0.4355
  813MPD2    C111965   3.614   4.240  12.975  0.4387  0.5170 -0.0112
  813MPD2    C211966   3.556   4.279  13.094  0.6861 -0.7306  0.2148
  813MPD2    C311967   3.432   4.243  13.143  1.2710  0.8865 -0.1952
  813MPD2    C411968   3.347   4.174  13.054 -0.0307  0.3160  0.3896
  813MPD2    C511969   3.404   4.150  12.928  0.1575 -0.1414  0.4226
  813MPD2     H11970   3.625   4.325  13.164 -0.1737  2.3611 -0.9637
  813MPD2    H111971   3.242   4.155  13.071 -0.4179  1.0331 -1.2088
  813MPD2    H211972   3.554   4.137  12.787  1.5998  0.5452 -0.4527
  813MPD2    H311973   3.335   4.105  12.857 -0.5272  1.6700 -0.0611
  813MPD2     N11974   3.395   4.270  13.276 -0.1169 -0.3325  0.0748
  813MPD2    H511975   3.458   4.325  13.334 -0.0335 -0.0030 -0.3325
  813MPD2    N111976   3.755   4.234  12.952  0.0086  0.2255 -0.0167
  813MPD2    H711977   3.778   4.193  12.862  0.5967  1.0404 -0.2332
  814MPD2     C11978   4.676   0.213  12.487 -0.7006 -0.0658 -0.5758
  814MPD2    C111979   4.658   0.255  12.355  0.3969  0.3187  0.9406
  814MPD2    C211980   4.665   0.394  12.334  0.3762 -0.2589 -0.3162
  814MPD2    C311981   4.688   0.484  12.436  0.3731 -0.4252  0.2541
  814MPD2    C411982   4.698   0.436  12.567 -0.1485 -0.0978 -0.1914
  814MPD2    C511983   4.688   0.304  12.588  0.5745 -0.2276 -0.1777
  814MPD2     H11984   4.648   0.433  12.234 -1.7450  0.9611  0.5349
  814MPD2    H111985   4.718   0.495  12.655  0.8070  1.0342 -1.1653
  814MPD2    H211986   4.670   0.109  12.519 -2.0753  0.3557  0.5305
  814MPD2    H311987   4.698   0.269  12.690  0.4619  0.2785  0.0084
  814MPD2     N11988   4.710   0.624  12.418 -0.7256  0.1936  0.2359
  814MPD2    H511989   0.003   0.684  12.498  0.8824  2.0459 -1.5331
  814MPD2    N111990   4.631   0.167  12.248 -0.1087 -0.1146 -0.2765
  814MPD2    H711991   4.625   0.212  12.157  2.3192 -3.1141 -1.9185
  815MPD2     C11992   0.341   3.796  11.853 -0.3984 -0.4004 -0.6672
  815MPD2    C111993   0.310   3.667  11.855 -0.4639 -0.2346  0.2415
  815MPD2    C211994   0.216   3.619  11.947 -0.2211 -0.6881  0.6018
  815MPD2    C311995   0.164   3.712  12.042  0.4286  0.4781 -0.0006
  815MPD2    C411996   0.208   3.839  12.042  0.0934  0.2589  0.6408
  815MPD2    C511997   0.290   3.888  11.946  0.1450 -0.2254 -0.1300
  815MPD2     H11998   0.176   3.518  11.938  1.9435 -1.5438  0.5134
  815MPD2    H111999   0.173   3.912  12.113  0.8576  3.1916 -1.9983
  815MPD2    H212000   0.416   3.834  11.784 -0.3568 -0.3825 -0.6124
  815MPD2    H312001   0.336   3.986  11.945  0.6365 -0.4620 -1.9521
  815MPD2     N12002   0.067   3.665  12.134 -0.1412  0.7725 -0.4853
  815MPD2    H512003   0.031   3.572  12.119  0.5092  0.2417  1.2690
  815MPD2    N112004   0.381   3.583  11.762  0.1058 -0.3250  0.4922
  815MPD2    H712005   0.440   3.632  11.695  0.5496  0.3253  1.3646
  816MPD2     C12006   4.550   3.019   0.142 -0.1379  0.1275  0.1124
  816MPD2    C112007   4.607   3.123   0.074 -0.5719 -0.0522 -0.1419
  816MPD2    C212008   4.704   3.103  17.680 -0.4127  0.3863 -0.2347
  816MPD2    C312009   0.026   2.975  17.653  0.0790 -0.0743  0.6037
  816MPD2    C412010   4.699   2.869   0.029  0.7245  0.0535 -0.2340
  816MPD2    C512011   4.597   2.894   0.118 -0.1212 -0.4319 -0.7259
  816MPD2     H12012   0.022   3.186  17.624  0.9716  0.5358  1.0609
  816MPD2    H112013   0.014   2.768   0.023  0.5627 -0.0603  0.5331
  816MPD2    H212014   4.495   3.043   0.232 -0.8186 -1.1378  0.0341
  816MPD2    H312015   4.542   2.812   0.162 -0.7916  0.1209 -0.5370
  816MPD2     N12016   0.123   2.960  17.554 -0.1605  0.3010 -0.1487
  816MPD2    H512017   0.154   3.047  17.510 -2.9827  0.9903 -0.7851
  816MPD2    N112018   4.566   3.251   0.117 -0.2618  0.0550  0.0683
  816MPD2    H712019   4.484   3.257   0.177  1.1932  1.3594  1.9198
  817MPD2     C12020   0.096   4.376   9.797 -0.1345 -0.0053  1.0524
  817MPD2    C112021   0.135   4.399   9.660  0.3674 -1.3475 -0.2671
  817MPD2    C212022   0.146   4.526   9.617  0.6865  1.0726 -0.5600
  817MPD2    C312023   0.120   4.635   9.697 -0.3732 -0.4816  0.3042
  817MPD2    C412024   0.099   4.606   9.831  0.0664  0.7364  0.1745
  817MPD2    C512025   0.083   4.480   9.880  0.4324  0.4655  0.1111
  817MPD2     H12026   0.167   4.537   9.511 -0.4723  0.1202 -0.8782
  817MPD2    H112027   0.090   4.684   9.905  0.8492  0.9187  0.0791
  817MPD2    H212028   0.081   4.279   9.844 -1.5686 -0.0673  0.4491
  817MPD2    H312029   0.069   4.471   9.988 -1.2534 -1.7864 -0.3057
  817MPD2     N12030   0.140   0.041   9.654 -0.2701  0.4786 -0.0055
  817MPD2    H512031   0.174   0.052   9.559 -0.6874  1.9741  0.0092
  817MPD2    N112032   0.169   4.292   9.577 -0.5451 -0.1303  0.0489
  817MPD2    H712033   0.183   4.315   9.479  0.6491  0.7195  0.4117
  818MPD2     C12034   3.980   4.621  10.058  0.1310  0.6063  0.1718
  818MPD2    C112035   3.849   4.606  10.023  0.6150  0.3421 -0.3522
  818MPD2    C212036   3.815   4.569   9.890  0.3121  0.5009  0.0297
  818MPD2    C312037   3.905   4.573   9.786 -1.1028 -0.7435  0.0427
  818MPD2    C412038   4.037   4.593   9.819  0.4278  0.1203 -0.3809
  818MPD2    C512039   4.074   4.607   9.956  0.4557  0.4030  0.4180
  818MPD2     H12040   3.711   4.554   9.863  0.2014  1.0471  0.1503
  818MPD2    H112041   4.121   4.590   9.750 -2.0194 -2.3296 -3.2614
  818MPD2    H212042   4.021   4.639  10.157 -1.3392 -2.9945  1.4779
  818MPD2    H312043   4.180   4.609   9.978  0.3654  0.9830  0.8037
  818MPD2     N12044   3.875   4.548   9.652  0.1726  0.3062 -0.3021
  818MPD2    H512045   3.942   4.580   9.583 -0.2848 -0.8088 -1.2538
  818MPD2    N112046   3.740   4.613  10.119  0.6571  0.8270  0.7071
  818MPD2    H712047   3.649   4.582  10.086  1.6355  1.1854 -2.3428
  819MPD2     C12048   1.247   1.245  15.790 -0.0986  0.4240 -0.1994
  819MPD2    C112049   1.249   1.109  15.813  0.8978 -0.2669  0.1511
  819MPD2    C212050   1.345   1.050  15.891  0.3190  0.2551  0.2872
  819MPD2    C312051   1.426   1.128  15.972 -0.0461  0.0374 -0.2617
  819MPD2    C412052   1.414   1.265  15.958  0.1704 -0.5445 -0.2230
  819MPD2    C512053   1.333   1.322  15.864  0.3331  0.3432  0.2599
  819MPD2     H12054   1.365   0.944  15.890  0.8303  0.3551 -0.9393
  819MPD2    H112055   1.486   1.332  16.002 -0.9523 -0.6838  1.8192
  819MPD2    H212056   1.182   1.290  15.715  1.2839  4.4216  1.0180
  819MPD2    H312057   1.314   1.429  15.861 -0.2787  0.2137 -0.4387
  819MPD2     N12058   1.519   1.062  16.050 -0.2476  0.0707 -0.1562
  819MPD2    H512059   1.514   0.961  16.050 -1.3594  0.1203  0.2985
  819MPD2    N112060   1.153   1.035  15.734 -0.4407 -0.7672 -0.3377
  819MPD2    H712061   1.089   1.098  15.685 -0.3655  0.9322  1.7520
  820MPD2     C12062   0.415   1.121  15.069  0.6207  0.3363  0.5045
  820MPD2    C112063   0.474   1.185  15.171  0.1246 -0.1340  0.0356
  820MPD2    C212064   0.568   1.120  15.254 -0.2135 -0.5475  0.4090
  820MPD2    C312065   0.618   0.996  15.220  0.0780 -0.4025 -0.2114
  820MPD2    C412066   0.548   0.929  15.119  0.5998 -0.0662  0.0530
  820MPD2    C512067   0.455   0.995  15.045  0.3991 -0.5586  0.6723
  820MPD2     H12068   0.609   1.176  15.337  0.6420  1.2106 -1.2031
  820MPD2    H112069   0.565   0.823  15.103  0.4735 -0.0758 -0.0190
  820MPD2    H212070   0.345   1.166  15.001  1.5312 -0.2223 -0.8048
  820MPD2    H312071   0.399   0.928  14.981 -1.0094  1.2896 -0.0475
  820MPD2     N12072   0.707   0.924  15.311  0.2198  0.0166 -0.1293
  820MPD2    H512073   0.732   0.826  15.296  0.8097  0.3116 -1.0495
  820MPD2    N112074   0.435   1.317  15.191 -0.1969 -0.2293  0.1805
  820MPD2    H712075   0.355   1.353  15.140 -0.5900  0.7748  1.5136
  821MPD2     C12076   1.653   2.603  13.196 -0.3766  0.2333  0.6943
  821MPD2    C112077   1.741   2.541  13.271  0.6179  0.0562  0.2196
  821MPD2    C212078   1.871   2.598  13.273 -0.1092  0.1444  0.9327
  821MPD2    C312079   1.920   2.685  13.175  0.6337 -0.6102  0.0040
  821MPD2    C412080   1.824   2.751  13.098  0.2975 -0.4815 -0.7229
  821MPD2    C512081   1.696   2.703  13.106 -0.7916  0.3258  0.6227
  821MPD2     H12082   1.938   2.570  13.354  1.7913 -0.7607 -0.9318
  821MPD2    H112083   1.839   2.840  13.038 -1.6541  0.0793 -0.3811
  821MPD2    H212084   1.546   2.587  13.196 -0.1082 -1.5110  2.4874
  821MPD2    H312085   1.625   2.750  13.039 -0.1694 -1.1150 -1.0300
  821MPD2     N12086   2.053   2.719  13.158 -0.3630 -0.2685  0.4743
  821MPD2    H512087   2.062   2.790  13.086  1.4949  0.3952  1.3576
  821MPD2    N112088   1.715   2.444  13.371 -0.1037 -0.3035  0.4307
  821MPD2    H712089   1.800   2.408  13.413  0.7676 -1.1469 -2.0635
  822MPD2     C12090   2.117   2.635  15.894  0.2517 -0.5503 -0.5256
  822MPD2    C112091   2.157   2.608  16.024 -0.2428 -0.5571 -0.3743
  822MPD2    C212092   2.111   2.691  16.125 -0.5240  0.3933  0.2288
  822MPD2    C312093   2.039   2.805  16.099  0.2427  0.2129  0.1697
  822MPD2    C412094   2.010   2.832  15.968 -0.8793  0.4595  0.0503
  822MPD2    C512095   2.051   2.750  15.872 -0.3634  0.4755  0.7679
  822MPD2     H12096   2.137   2.668  16.228  1.5349  1.7048 -0.0149
  822MPD2    H112097   1.944   2.914  15.941 -0.1861  1.0669  0.1923
  822MPD2    H212098   2.155   2.573  15.813  3.0644 -0.4976  0.7293
  822MPD2    H312099   2.015   2.767  15.771 -0.8051  2.1875  1.2172
  822MPD2     N12100   1.994   2.884  16.208 -0.3221 -0.4597 -0.3068
  822MPD2    H512101   2.017   2.853  16.301 -0.1343 -0.5018 -0.3666
  822MPD2    N112102   2.245   2.501  16.059 -0.1636  0.0027  0.0322
  822MPD2    H712103   2.265   2.500  16.158  2.7261 -2.3331 -0.5806
  823MPD2     C12104   1.831   3.053  17.015 -0.4551 -0.0454  0.1261
  823MPD2    C112105   1.820   2.964  16.913  0.1261 -0.5641 -0.7121
  823MPD2    C212106   1.806   2.834  16.938 -0.2752 -0.3731  0.3711
  823MPD2    C312107   1.780   2.787  17.068  0.1312 -0.0409  0.3962
  823MPD2    C412108   1.789   2.878  17.172  0.6114 -0.0686 -0.3172
  823MPD2    C512109   1.817   3.010  17.142 -0.1072  0.0503  0.4019
  823MPD2     H12110   1.796   2.775  16.847  0.1760 -1.5497  1.0724
  823MPD2    H112111   1.770   2.852  17.275 -1.3595 -0.9677 -0.9186
  823MPD2    H212112   1.855   3.155  16.989 -1.5368  0.9706  3.1190
  823MPD2    H312113   1.825   3.085  17.220  2.1509  0.2175 -0.0076
  823MPD2     N12114   1.749   2.654  17.101 -0.1766  0.3731  0.2171
  823MPD2    H512115   1.759   2.627  17.198  3.1244  0.5840 -0.0715
  823MPD2    N112116   1.839   3.023  16.785 -0.5197  0.4587  0.2184
  823MPD2    H712117   1.868   3.120  16.783  0.2615  0.2406  1.3890
  824MPD2     C12118   2.533   1.723  16.152  0.7588  0.7377  0.5524
  824MPD2    C112119   2.642   1.804  16.126 -0.2220  0.2948  0.1740
  824MPD2    C212120   2.764   1.749  16.113 -0.9630 -0.1962  1.1529
  824MPD2    C312121   2.788   1.614  16.092 -0.9590  0.6688  0.0395
  824MPD2    C412122   2.676   1.534  16.110  0.7552 -0.6125 -0.7885
  824MPD2    C512123   2.555   1.589  16.145 -0.8247 -0.3316 -0.3768
  824MPD2     H12124   2.846   1.819  16.109 -0.3080 -1.0678 -0.8300
  824MPD2    H112125   2.673   1.427  16.096  3.9695 -1.0919  2.2067
  824MPD2    H212126   2.429   1.752  16.158  0.3424 -0.4669 -0.7378
  824MPD2    H312127   2.471   1.521  16.157  1.3854 -3.2951 -1.9398
  824MPD2     N12128   2.912   1.572  16.042  0.0765  0.2742  0.0363
  824MPD2    H512129   2.986   1.635  16.015 -0.1782  0.6644  0.2440
  824MPD2    N112130   2.624   1.942  16.138  0.1849 -0.2004 -0.1103
  824MPD2    H712131   2.703   2.006  16.141 -0.0030  0.1228 -2.6627
  825MPD2     C12132   3.470   1.627  15.421 -0.3127 -0.5527  0.0712
  825MPD2    C112133   3.458   1.681  15.547  0.0982 -0.7465  0.4833
  825MPD2    C212134   3.469   1.814  15.566  0.2464 -0.1530 -0.4701
  825MPD2    C312135   3.506   1.895  15.458  0.3982 -1.1555 -0.6044
  825MPD2    C412136   3.519   1.845  15.338 -0.3826 -0.3133 -0.6952
  825MPD2    C512137   3.490   1.710  15.313 -0.0226 -0.1582  0.2608
  825MPD2     H12138   3.448   1.853  15.665  0.4572 -2.3926  0.4634
  825MPD2    H112139   3.543   1.903  15.250 -0.3339 -1.5886 -1.5280
  825MPD2    H212140   3.460   1.523  15.391  1.5716 -0.8834  0.5359
  825MPD2    H312141   3.495   1.671  15.212  2.2500  1.6922 -0.3429
  825MPD2     N12142   3.521   2.035  15.466 -0.0370  0.5650 -0.0471
  825MPD2    H512143   3.527   2.094  15.384  4.5952  1.2440  0.7753
  825MPD2    N112144   3.417   1.592  15.654 -0.3524  0.6163 -0.2689
  825MPD2    H712145   3.426   1.495  15.627  0.7730  0.7318 -0.3106
  826MPD2     C12146   3.041   1.438  13.686  0.1141 -0.0078  0.0363
  826MPD2    C112147   2.969   1.469  13.570  0.2770 -0.2604  0.4082
  826MPD2    C212148   2.847   1.538  13.577  0.1676  0.1929  0.1345
  826MPD2    C312149   2.794   1.587  13.700 -0.9756  0.3277  0.1846
  826MPD2    C412150   2.872   1.566  13.808 -0.5628 -0.0628  0.4954
  826MPD2    C512151   2.992   1.489  13.805  0.0466 -0.0306 -0.2308
  826MPD2     H12152   2.805   1.580  13.487  0.5785 -1.5875 -0.8955
  826MPD2    H112153   2.835   1.610  13.900 -1.3988 -2.6288  1.3855
  826MPD2    H212154   3.134   1.384  13.676 -0.0261 -0.2195 -0.1324
  826MPD2    H312155   3.049   1.485  13.897  0.4311 -0.8827 -0.5025
  826MPD2     N12156   2.669   1.652  13.720 -0.4948  0.1082 -0.2332
  826MPD2    H512157   2.643   1.685  13.813  2.7281 -3.1505  1.8804
  826MPD2    N112158   3.024   1.430  13.444  0.7714  0.1476 -0.0249
  826MPD2    H712159   3.114   1.384  13.442  1.0456  0.7042 -0.3977
  827MPD2     C12160   4.125   3.154  10.113 -0.2054  0.4981 -0.5591
  827MPD2    C112161   4.048   3.072  10.199  0.0248 -0.8657 -0.6236
  827MPD2    C212162   3.950   2.997  10.137  0.0706 -0.7420  0.9359
  827MPD2    C312163   3.907   3.027  10.010  0.1215  0.3386  0.0125
  827MPD2    C412164   3.974   3.124   9.932 -0.4647  0.3103 -0.0572
  827MPD2    C512165   4.086   3.178   9.985  0.1259  0.4788 -0.6622
  827MPD2     H12166   3.898   2.916  10.186 -1.2587 -0.5149 -0.0854
  827MPD2    H112167   3.945   3.163   9.835  1.0285  0.2522 -0.5222
  827MPD2    H212168   4.209   3.200  10.163  0.6716 -0.5642 -1.0672
  827MPD2    H312169   4.138   3.257   9.930 -1.5132  0.8052 -1.7334
  827MPD2     N12170   3.793   2.955   9.963 -0.3154 -0.4198  0.2115
  827MPD2    H512171   3.762   2.888  10.032 -1.4239 -0.7820 -0.6223
  827MPD2    N112172   4.071   3.055  10.339  0.1303 -0.0947  0.6411
  827MPD2    H712173   4.138   3.121  10.378  1.0703 -0.1360 -0.8782
  828MPD2     C12174   2.326   2.470  12.996 -0.9527  0.2621 -0.4014
  828MPD2    C112175   2.326   2.564  12.895 -0.3136  0.2321  0.8059
  828MPD2    C212176   2.445   2.596  12.838  0.3086  0.6426 -0.5111
  828MPD2    C312177   2.564   2.537  12.877 -0.2952 -0.8994 -0.4373
  828MPD2    C412178   2.564   2.451  12.985  0.1712  0.1458 -0.3912
  828MPD2    C512179   2.440   2.419  13.041 -0.4455  0.2648  0.1102
  828MPD2     H12180   2.442   2.652  12.746 -0.4762  1.5185  0.0526
  828MPD2    H112181   2.654   2.404  13.024  0.3917  1.5065  0.7302
  828MPD2    H212182   2.240   2.421  13.041 -0.0638 -0.8987  0.0180
  828MPD2    H312183   2.435   2.342  13.117 -1.0293  0.0267 -0.1722
  828MPD2     N12184   2.695   2.559  12.823 -0.0900  0.1632 -0.1596
  828MPD2    H512185   2.770   2.514  12.873 -0.9599  0.7953  1.7325
  828MPD2    N112186   2.210   2.624  12.839  0.3843  0.3262  0.4928
  828MPD2    H712187   2.215   2.682  12.756  1.9469 -2.3764 -1.2992
  829MPD2     C12188   2.039   3.443  12.577 -0.1282 -0.1761  0.2117
  829MPD2    C112189   1.945   3.369  12.505  0.4161  0.5119  0.7682
  829MPD2    C212190   1.908   3.244  12.543 -0.4556  0.6571 -0.6177
  829MPD2    C312191   1.979   3.179  12.644  1.0994 -0.4062 -0.3259
  829MPD2    C412192   2.079   3.250  12.709 -0.4034  0.6900  0.1396
  829MPD2    C512193   2.106   3.385  12.680  0.4518 -0.1717  0.7186
  829MPD2     H12194   1.836   3.188  12.484  0.0177 -3.0388  2.2978
  829MPD2    H112195   2.141   3.213  12.790 -0.0898  2.2682  0.6330
  829MPD2    H212196   2.059   3.548  12.562 -1.4353  0.4386  2.7446
  829MPD2    H312197   2.178   3.448  12.732 -1.1675  0.1758  2.5530
  829MPD2     N12198   1.958   3.045  12.686 -0.1667  0.0259 -0.6538
  829MPD2    H512199   1.998   3.013  12.774  0.3548  0.6804 -0.6519
  829MPD2    N112200   1.891   3.432  12.397  0.3372 -0.7814 -0.4144
  829MPD2    H712201   1.945   3.504  12.350 -1.8255  0.4670 -1.0110
  830MPD2     C12202   2.241   0.813  15.815  0.5018  0.2358  0.1531
  830MPD2    C112203   2.109   0.851  15.830  0.7318 -0.1148  0.1831
  830MPD2    C212204   2.068   0.946  15.736 -0.1933 -0.4830  0.4741
  830MPD2    C312205   2.163   1.018  15.662  0.4359  0.4670  0.9269
  830MPD2    C412206   2.295   0.989  15.663 -0.4284  0.3452  0.5734
  830MPD2    C512207   2.327   0.877  15.733 -0.2806 -0.3085 -0.3378
  830MPD2     H12208   1.964   0.978  15.727 -0.1358  0.1990  2.2814
  830MPD2    H112209   2.359   1.050  15.600  0.3962  0.1283  1.2090
  830MPD2    H212210   2.281   0.725  15.865 -1.0478  1.3061  3.2593
  830MPD2    H312211   2.425   0.836  15.710  0.6354  0.4441  2.2089
  830MPD2     N12212   2.131   1.137  15.583  0.5100  0.0975  0.3424
  830MPD2    H512213   2.209   1.193  15.551  0.3530  0.5053  0.6838
  830MPD2    N112214   2.028   0.800  15.934  0.2116 -0.3338  1.2390
  830MPD2    H712215   2.083   0.767  16.013  0.6343 -2.9424 -0.1415
  831MPD2     C12216   2.316   2.862  16.585  0.2578  0.6621  0.6464
  831MPD2    C112217   2.371   2.764  16.501  0.1611  0.0993  0.2235
  831MPD2    C212218   2.289   2.661  16.466  0.2931 -0.0125 -0.0318
  831MPD2    C312219   2.164   2.631  16.516  0.4709  0.1515  0.0464
  831MPD2    C412220   2.120   2.726  16.609  0.1028 -0.4313 -0.3723
  831MPD2    C512221   2.191   2.839  16.632 -0.7446 -0.0773 -0.1655
  831MPD2     H12222   2.343   2.589  16.407  0.3221 -0.8268  0.9993
  831MPD2    H112223   2.029   2.713  16.667  0.9880  1.9087  1.5251
  831MPD2    H212224   2.368   2.952  16.614  1.5136  0.4077 -0.8162
  831MPD2    H312225   2.144   2.907  16.702 -2.0200 -0.0292 -1.0498
  831MPD2     N12226   2.090   2.517  16.487  0.0229 -0.1197  0.2017
  831MPD2    H512227   1.998   2.503  16.528  0.6767  0.6246  1.8884
  831MPD2    N112228   2.499   2.771  16.453  0.0074 -0.0017  0.0299
  831MPD2    H712229   2.532   2.691  16.400 -0.2909  0.8017 -1.3859
  832MPD2     C12230   0.598   4.185  17.462 -0.3222 -0.0092 -0.1236
  832MPD2    C112231   0.555   4.279  17.375  0.3263  0.6082 -0.6136
  832MPD2    C212232   0.456   4.248  17.278 -0.4609  0.4812 -1.0612
  832MPD2    C312233   0.404   4.116  17.277  1.0334 -0.3357 -0.5514
  832MPD2    C412234   0.465   4.022  17.360  0.8019  0.4248 -0.4480
  832MPD2    C512235   0.549   4.062  17.457  0.4205  0.2512 -0.3450
  832MPD2     H12236   0.402   4.322  17.221 -1.0312  0.5008 -0.4971
  832MPD2    H112237   0.438   3.917  17.370 -1.8247  1.1091 -0.3846
  832MPD2    H212238   0.676   4.204  17.534  0.6195 -1.4266 -0.7740
  832MPD2    H312239   0.571   3.992  17.537 -1.3784 -1.4599 -1.3433
  832MPD2     N12240   0.290   4.073  17.205 -0.5511 -0.1356  0.2269
  832MPD2    H512241   0.264   3.975  17.214  1.2273 -0.3316  3.2916
  832MPD2    N112242   0.594   4.406  17.390  0.4224  0.1348  0.4858
  832MPD2    H712243   0.644   4.425  17.476  0.7768  1.5274 -0.0243
  833MPD2     C12244   2.719   0.719  12.701  0.1137 -0.3562 -0.6944
  833MPD2    C112245   2.763   0.829  12.629 -0.8972 -0.7465  0.5942
  833MPD2    C212246   2.875   0.803  12.548  0.2879 -0.4183 -0.5829
  833MPD2    C312247   2.946   0.683  12.539 -0.7097  0.1241 -0.1341
  833MPD2    C412248   2.894   0.577  12.612 -0.2574  0.2841  0.6964
  833MPD2    C512249   2.784   0.600  12.695 -0.0987 -0.0476  0.0054
  833MPD2     H12250   2.897   0.883  12.478 -1.9541 -0.0197 -0.8370
  833MPD2    H112251   2.937   0.477  12.616  0.8287  0.7336  0.1913
  833MPD2    H212252   2.631   0.726  12.763 -0.2486 -1.2928 -1.1048
  833MPD2    H312253   2.749   0.522  12.761  0.1557  0.2505  0.4926
  833MPD2     N12254   3.046   0.655  12.450  0.0707 -0.2178 -0.0700
  833MPD2    H512255   3.090   0.564  12.451 -0.8014 -0.6064  1.3520
  833MPD2    N112256   2.687   0.947  12.611  0.5330  0.7905  0.6350
  833MPD2    H712257   2.593   0.952  12.649  0.4303  1.5801  0.2685
  834MPD2     C12258   3.145   4.673  11.905 -0.2250 -0.0017 -0.5658
  834MPD2    C112259   3.118   0.064  11.832 -0.3428 -0.1034 -0.3600
  834MPD2    C212260   3.144   0.190  11.886 -0.1979  0.3502 -1.1987
  834MPD2    C312261   3.180   0.200  12.023 -0.5008  0.6077  0.6526
  834MPD2    C412262   3.219   0.080  12.090  0.6338 -0.0232 -0.0351
  834MPD2    C512263   3.206   4.683  12.027 -0.4279  0.0809  0.1949
  834MPD2     H12264   3.114   0.272  11.822  1.7652  2.3826  0.4824
  834MPD2    H112265   3.275   0.081  12.183 -0.7401 -1.1550  0.7872
  834MPD2    H212266   3.120   4.573  11.870 -1.2046  0.0369  0.0348
  834MPD2    H312267   3.244   4.599  12.082  3.1393  1.8734  0.4224
  834MPD2     N12268   3.203   0.328  12.091  0.1803  0.1058 -0.6489
  834MPD2    H512269   3.229   0.323  12.189  1.1693  0.6410 -0.8842
  834MPD2    N112270   3.066   0.050  11.703  0.8420 -0.4091  0.6544
  834MPD2    H712271   3.047   4.679  11.674  1.0250 -0.0440 -0.6711
  835MPD2     C12272   3.294   3.351  10.842  0.3038  0.4165  0.2662
  835MPD2    C112273   3.158   3.364  10.871 -0.6425 -0.3265 -0.0268
  835MPD2    C212274   3.119   3.368  11.006 -0.0676  0.4263 -0.7049
  835MPD2    C312275   3.210   3.361  11.110 -0.6336 -0.1770 -0.5194
  835MPD2    C412276   3.342   3.340  11.082  0.5086  0.8149  0.8810
  835MPD2    C512277   3.377   3.337  10.946 -0.0542 -0.4793 -0.6129
  835MPD2     H12278   3.015   3.389  11.026 -0.5359 -2.6589  0.2013
  835MPD2    H112279   3.416   3.328  11.161  1.6603  2.0992  0.0034
  835MPD2    H212280   3.326   3.335  10.740 -0.3527  0.0731  0.1126
  835MPD2    H312281   3.479   3.311  10.920 -0.2706 -2.0247  0.0872
  835MPD2     N12282   3.168   3.351  11.248 -0.5747  0.6722 -0.3434
  835MPD2    H512283   3.239   3.359  11.321 -1.0217  1.7866 -0.0209
  835MPD2    N112284   3.061   3.371  10.764  0.4782 -0.2629  0.3191
  835MPD2    H712285   3.096   3.367  10.669 -2.9531  1.4431 -1.0103
  836MPD2     C12286   2.394   3.300  11.482 -0.2311  0.2663  0.6001
  836MPD2    C112287   2.481   3.284  11.589 -0.0993  0.3339  0.2838
  836MPD2    C212288   2.425   3.253  11.714 -0.4583 -0.0790  0.8186
  836MPD2    C312289   2.286   3.240  11.733 -0.6741 -0.3819 -0.1128
  836MPD2    C412290   2.200   3.263  11.622 -0.3554 -0.1230  0.0819
  836MPD2    C512291   2.257   3.286  11.498 -0.5163  0.3324  0.4149
  836MPD2     H12292   2.491   3.257  11.800 -2.2691 -0.7447  2.2161
  836MPD2    H112293   2.093   3.252  11.629 -0.3197 -1.1542 -0.9584
  836MPD2    H212294   2.434   3.332  11.386  1.0937  0.6860  1.2907
  836MPD2    H312295   2.197   3.309  11.411 -0.3780  1.9457  0.7431
  836MPD2     N12296   2.220   3.207  11.857  0.4761 -0.6775  0.0293
  836MPD2    H512297   2.121   3.227  11.865  0.3422 -1.8100  1.3273
  836MPD2    N112298   2.623   3.292  11.562 -0.2281 -0.2269 -0.2516
  836MPD2    H712299   2.652   3.339  11.477 -0.2106  0.3401  0.0711
  837MPD2     C12300   1.039   3.374  10.280 -0.7795  0.1150 -0.4296
  837MPD2    C112301   1.066   3.295  10.167 -0.2448 -0.9636  0.7726
  837MPD2    C212302   1.019   3.337  10.041  0.2033 -0.0697 -0.2084
  837MPD2    C312303   0.943   3.448  10.029 -0.0051  0.3324 -0.0253
  837MPD2    C412304   0.919   3.524  10.138  0.0381  0.1799 -0.3395
  837MPD2    C512305   0.970   3.496  10.262  0.4392 -0.2455  0.1212
  837MPD2     H12306   1.042   3.286   9.949  0.2950  1.3624 -0.9841
  837MPD2    H112307   0.873   3.620  10.122 -0.8270 -0.0395  0.8796
  837MPD2    H212308   1.065   3.335  10.377 -0.3599  0.7765 -0.2849
  837MPD2    H312309   0.951   3.555  10.351 -0.8742  0.8271 -0.8705
  837MPD2     N12310   0.885   3.484   9.908 -0.2248  0.3676  0.5955
  837MPD2    H512311   0.909   3.423   9.830 -2.1491 -0.4683  0.6723
  837MPD2    N112312   1.120   3.172  10.174  0.5370 -0.1894  0.0620
  837MPD2    H712313   1.125   3.128  10.083  1.9281  2.3820 -1.0737
  838MPD2     C12314   4.290   0.716  11.021 -0.1954 -1.3136  0.3122
  838MPD2    C112315   4.298   0.808  11.119  0.2357  0.2719  0.0356
  838MPD2    C212316   4.185   0.831  11.194 -0.1132  0.5021  0.0357
  838MPD2    C312317   4.071   0.762  11.177 -0.4946 -0.2615 -0.4239
  838MPD2    C412318   4.068   0.673  11.074 -1.0922 -0.1848 -0.2282
  838MPD2    C512319   4.179   0.652  10.997  0.2180  0.4682  0.0020
  838MPD2     H12320   4.183   0.905  11.273  1.9913  1.7922 -1.1356
  838MPD2    H112321   3.984   0.606  11.059 -2.5311  1.6791 -0.4793
  838MPD2    H212322   4.378   0.691  10.964 -1.5134  0.2844 -2.4045
  838MPD2    H312323   4.172   0.568  10.929  0.0361 -0.1240  0.7501
  838MPD2     N12324   3.968   0.790  11.268  0.1305  0.0458 -0.5422
  838MPD2    H512325   3.985   0.859  11.340 -0.6478 -1.4413  1.0917
  838MPD2    N112326   4.416   0.875  11.158  0.5513 -0.3151 -0.5777
  838MPD2    H712327   4.403   0.933  11.240  0.8458 -2.0994  0.7254
  839MPD2     C12328   4.475   0.638  11.900  0.3169  0.2973 -0.1634
  839MPD2    C112329   4.451   0.567  11.784 -0.3633  0.6866  0.6647
  839MPD2    C212330   4.515   0.610  11.671  0.7220  0.0402 -0.1723
  839MPD2    C312331   4.599   0.727  11.678 -0.0153 -0.2858  0.7932
  839MPD2    C412332   4.632   0.782  11.801 -0.0679  0.4174 -0.7420
  839MPD2    C512333   4.566   0.735  11.908 -0.1175  0.5838  0.2572
  839MPD2     H12334   4.480   0.569  11.577  1.4337 -0.0154 -0.4115
  839MPD2    H112335   4.703   0.862  11.817  1.3410 -0.9963  0.0008
  839MPD2    H212336   4.434   0.602  11.993  0.2348  1.6885  0.3349
  839MPD2    H312337   4.596   0.748  12.011 -0.5065  0.8645  0.3334
  839MPD2     N12338   4.662   0.771  11.556  0.3998  0.0175 -0.5986
  839MPD2    H512339   4.639   0.728  11.467  0.7291 -2.5322  0.5797
  839MPD2    N112340   4.351   0.464  11.775  0.1424 -0.1691  0.1710
  839MPD2    H712341   4.334   0.426  11.683  0.2097  0.7622 -0.2336
  840MPD2     C12342   4.574   3.310  10.521  0.1063  0.6313  0.1035
  840MPD2    C112343   4.499   3.315  10.634 -0.0663  0.6373  0.4591
  840MPD2    C212344   4.539   3.398  10.738 -0.3111 -0.8648  0.3176
  840MPD2    C312345   4.654   3.475  10.724 -0.5109  0.5069  0.5953
  840MPD2    C412346   4.725   3.467  10.606 -0.0606 -0.4374  0.5762
  840MPD2    C512347   4.688   3.377  10.512  0.7044 -0.8324  0.0975
  840MPD2     H12348   4.492   3.400  10.836  0.8124 -2.8951  0.8983
  840MPD2    H112349   0.092   3.521  10.587 -0.8898 -0.2263 -2.8439
  840MPD2    H212350   4.541   3.254  10.434 -0.2826 -1.2774  1.4776
  840MPD2    H312351   0.012   3.381  10.415  0.4478  2.7509  0.1248
  840MPD2     N12352   4.703   3.568  10.820 -0.3662 -0.4282  0.2897
  840MPD2    H512353   0.055   3.628  10.792 -2.0002  0.5224 -2.0548
  840MPD2    N112354   4.389   3.226  10.642  0.4372 -0.0360  0.0782
  840MPD2    H712355   4.377   3.174  10.555 -1.3758 -0.4404  0.5575
  841MPD2     C12356   4.147   3.097  14.850 -0.0303  0.2485  0.2731
  841MPD2    C112357   4.219   2.989  14.805 -0.0523 -0.3014 -0.1448
  841MPD2    C212358   4.352   2.980  14.839 -0.1838  0.2167 -0.2705
  841MPD2    C312359   4.409   3.071  14.923  0.0618  0.0357 -0.5347
  841MPD2    C412360   4.342   3.181  14.958 -0.2887 -0.0698  0.0206
  841MPD2    C512361   4.209   3.189  14.932  1.0658 -0.0908  0.0910
  841MPD2     H12362   4.410   2.902  14.789 -0.2182  0.6739 -1.0275
  841MPD2    H112363   4.374   3.258  15.028  2.6114 -0.0568 -1.3051
  841MPD2    H212364   4.040   3.103  14.831  0.2217  0.2677 -1.0860
  841MPD2    H312365   4.158   3.274  14.975  1.7140  1.6480 -2.6194
  841MPD2     N12366   4.545   3.071  14.965  0.3532  0.3672 -0.2519
  841MPD2    H512367   4.567   3.156  15.016 -0.6068 -0.7529  2.0342
  841MPD2    N112368   4.165   2.891  14.723 -0.3033 -0.2201 -0.1392
  841MPD2    H712369   4.233   2.818  14.703  0.0715 -0.2281  1.1447
  842MPD2     C12370   4.335   4.312  16.567 -0.3556 -0.1987  0.9788
  842MPD2    C112371   4.262   4.195  16.607 -0.1910  0.0134  0.8947
  842MPD2    C212372   4.254   4.165  16.746 -0.2246 -0.2711  0.0281
  842MPD2    C312373   4.320   4.241  16.845  0.8651 -0.3665 -0.5703
  842MPD2    C412374   4.377   4.362  16.801 -0.8450 -0.4576 -0.2397
  842MPD2    C512375   4.398   4.390  16.668  0.0883  0.1234  0.8690
  842MPD2     H12376   4.208   4.068  16.765 -0.6826  0.0293  0.4656
  842MPD2    H112377   4.417   4.437  16.868 -0.7708 -1.5612  0.9506
  842MPD2    H212378   4.363   4.337  16.466 -2.2529  1.2761  0.8174
  842MPD2    H312379   4.475   4.463  16.648 -1.8343  1.8661 -0.2055
  842MPD2     N12380   4.319   4.218  16.986  0.8354  0.0039  0.0183
  842MPD2    H512381   4.344   4.291  17.052  2.7935 -0.6528 -0.0051
  842MPD2    N112382   4.204   4.126  16.501  0.2661 -0.2003 -0.5480
  842MPD2    H712383   4.231   4.165  16.412  0.6031  1.0965  0.1132
  843MPD2     C12384   1.459   4.469  17.629 -0.1022 -0.9240  0.5595
  843MPD2    C112385   1.549   4.386  17.692 -0.9372  0.3262 -0.1649
  843MPD2    C212386   1.660   4.446   0.053 -0.4965 -0.4666  0.7371
  843MPD2    C312387   1.658   4.585   0.069 -0.0687  0.5288 -1.2980
  843MPD2    C412388   1.564   4.661   0.007  0.2237  0.3837  0.2249
  843MPD2    C512389   1.464   4.601  17.636  0.9664 -0.1162  0.3712
  843MPD2     H12390   1.740   4.393   0.103 -0.6870 -0.4489  1.0557
  843MPD2    H112391   1.567   0.043  17.692 -0.9206  0.0975 -2.0100
  843MPD2    H212392   1.379   4.435  17.565 -0.0548 -1.4347  0.7709
  843MPD2    H312393   1.388   4.660  17.585  0.6005 -0.1379  0.8976
  843MPD2     N12394   1.767   4.663   0.123 -0.0877  0.2954  0.3159
  843MPD2    H512395   1.770   0.039   0.108  0.0518  0.5923  2.3344
  843MPD2    N112396   1.521   4.247  17.681  0.1601 -0.2474  0.7823
  843MPD2    H712397   1.446   4.220  17.618  0.0354  1.7890  0.0555
  844MPD2     C12398   0.141   3.794  16.615  0.3774 -0.0494 -0.6830
  844MPD2    C112399   0.220   3.695  16.580  0.3906  0.2386 -0.2826
  844MPD2    C212400   0.349   3.703  16.626 -0.6298  1.1530  0.6656
  844MPD2    C312401   0.396   3.818  16.691 -0.1016  0.7438  0.8126
  844MPD2    C412402   0.313   3.925  16.706  0.2186 -0.2006  0.3480
  844MPD2    C512403   0.189   3.910  16.664 -0.3747  0.2577 -0.6041
  844MPD2     H12404   0.421   3.623  16.613 -1.5625  0.1202  1.8920
  844MPD2    H112405   0.355   4.019  16.741  3.5806 -1.0831 -1.3099
  844MPD2    H212406   0.034   3.791  16.596  0.5325 -2.4560 -1.2611
  844MPD2    H312407   0.117   3.990  16.674 -1.2203 -0.5263 -0.3948
  844MPD2     N12408   0.529   3.813  16.743 -0.1526  0.0478 -0.0960
  844MPD2    H512409   0.580   3.730  16.717 -0.0557  0.7514 -2.1478
  844MPD2    N112410   0.182   3.582  16.514  0.2658 -0.1884  0.3173
  844MPD2    H712411   0.253   3.514  16.491 -0.0873 -0.1991 -0.7547
  845MPD2     C12412   1.236   4.512  16.955 -0.9553  0.3932  0.0130
  845MPD2    C112413   1.097   4.525  16.935 -0.6513 -0.0713 -0.4817
  845MPD2    C212414   1.015   4.407  16.931  0.2097  0.1464  0.2897
  845MPD2    C312415   1.074   4.274  16.951  0.1969  0.1188 -0.0312
  845MPD2    C412416   1.207   4.268  16.963 -0.4871  0.2197  0.0364
  845MPD2    C512417   1.283   4.388  16.967  0.4958 -0.6190  0.1939
  845MPD2     H12418   0.909   4.427  16.918  0.3218  1.8062  1.8241
  845MPD2    H112419   1.255   4.172  16.979 -0.5245 -0.2010 -2.3663
  845MPD2    H212420   1.301   4.597  16.944 -0.0183 -0.3448 -0.1780
  845MPD2    H312421   1.391   4.375  16.969  0.4152 -1.5107 -1.5228
  845MPD2     N12422   0.982   4.168  16.976 -0.3250 -0.0061  0.6518
  845MPD2    H512423   0.885   4.196  16.985 -0.4270 -0.2889  0.4305
  845MPD2    N112424   1.041   4.655  16.910  0.3511  0.0223 -0.9732
  845MPD2    H712425   1.106   0.006  16.928 -1.4742  1.7648 -1.7614
  846MPD2     C12426   2.542   0.128  14.160 -0.0380 -0.6806  0.9880
  846MPD2    C112427   2.410   0.148  14.142 -0.2158 -0.5947 -0.0739
  846MPD2    C212428   2.317   0.149  14.241  0.1208  0.2025  0.0809
  846MPD2    C312429   2.363   0.121  14.372  0.1153  0.1663  0.2617
  846MPD2    C412430   2.499   0.096  14.393 -0.0768  0.2248 -0.1329
  846MPD2    C512431   2.587   0.110  14.291 -0.1081  0.2291 -0.0173
  846MPD2     H12432   2.213   0.176  14.229  0.4596  1.0636 -0.8279
  846MPD2    H112433   2.548   0.086  14.489 -1.1433  0.6414  0.4579
  846MPD2    H212434   2.616   0.147  14.083  1.0607 -0.2119  2.1537
  846MPD2    H312435   2.694   0.106  14.308  0.0310  1.4131 -0.6015
  846MPD2     N12436   2.275   0.134  14.477  0.1025 -0.2361 -0.2670
  846MPD2    H512437   2.179   0.157  14.455  0.0021  0.6645  1.0928
  846MPD2    N112438   2.364   0.162  14.009  0.7511  0.4892 -0.5582
  846MPD2    H712439   2.264   0.168  13.994  1.0286  2.9504 -1.4628
  847MPD2     C12440   2.114   0.592  14.490  0.3055  0.0414  0.3324
  847MPD2    C112441   2.169   0.714  14.535 -0.2740 -0.4933  0.2336
  847MPD2    C212442   2.252   0.713  14.644 -0.3533  0.1243  0.2893
  847MPD2    C312443   2.285   0.597  14.707 -0.1586 -0.1600 -0.0649
  847MPD2    C412444   2.236   0.480  14.663 -0.3861  0.2643  0.3506
  847MPD2    C512445   2.147   0.477  14.559 -0.2909  0.6456 -0.1670
  847MPD2     H12446   2.286   0.811  14.673  2.5886 -0.7603 -0.1792
  847MPD2    H112447   2.265   0.393  14.721 -1.4215  0.3709  1.0223
  847MPD2    H212448   2.060   0.593  14.396 -2.6909  0.9215  2.0294
  847MPD2    H312449   2.110   0.379  14.532 -0.1734  1.7691 -4.4617
  847MPD2     N12450   2.371   0.588  14.820 -0.7210  0.0981  0.2170
  847MPD2    H512451   2.375   0.495  14.862 -0.0154  0.3665  0.7492
  847MPD2    N112452   2.152   0.842  14.479 -0.5311  0.6406 -0.1341
  847MPD2    H712453   2.181   0.920  14.538 -0.1721  0.2629  0.1819
  848MPD2     C12454   4.589   4.058  16.470 -0.0608  0.3448  0.4397
  848MPD2    C112455   4.639   4.168  16.536 -0.6426  0.2724  0.1345
  848MPD2    C212456   4.688   4.272  16.463  0.4249 -0.0285  0.7481
  848MPD2    C312457   4.676   4.277  16.325  0.3269 -1.1348  0.0656
  848MPD2    C412458   4.625   4.163  16.261 -0.6824  0.2559 -0.1861
  848MPD2    C512459   4.581   4.059  16.331 -0.3819  1.0205  0.0956
  848MPD2     H12460   0.001   4.352  16.525 -1.8900  1.2125  0.5525
  848MPD2    H112461   4.626   4.153  16.153 -2.0555 -0.9897 -0.0925
  848MPD2    H212462   4.555   3.967  16.519  0.0391  0.1231  0.0968
  848MPD2    H312463   4.538   3.980  16.271  1.1670  1.9229 -2.2163
  848MPD2     N12464   4.718   4.388  16.246  0.6074  0.1296  1.7449
  848MPD2    H512465   4.715   4.370  16.147  2.2156  1.4198  1.4722
  848MPD2    N112466   4.659   4.173  16.674  0.3693 -0.3236 -0.4129
  848MPD2    H712467   4.699   4.259  16.711  0.5417 -0.5074 -0.1724
  849MPD2     C12468   4.023   3.809  13.986  0.3087  0.1899 -0.0771
  849MPD2    C112469   4.143   3.766  14.028 -0.1505 -0.0298 -0.7159
  849MPD2    C212470   4.157   3.665  14.123 -0.6763  0.1570  0.0571
  849MPD2    C312471   4.044   3.602  14.163 -0.3436  0.9933  0.3739
  849MPD2    C412472   3.918   3.639  14.119 -0.5159 -0.0463  0.9181
  849MPD2    C512473   3.908   3.747  14.035  0.0105  0.5712  0.1061
  849MPD2     H12474   4.255   3.627  14.149 -0.7684  0.3272  0.6658
  849MPD2    H112475   3.826   3.595  14.156 -0.2545 -2.7873 -1.6556
  849MPD2    H212476   4.017   3.886  13.910 -2.1342  0.0557 -0.0199
  849MPD2    H312477   3.810   3.780  14.002  0.4012  1.4277 -0.2048
  849MPD2     N12478   4.062   3.493  14.258 -0.0189 -0.6493 -0.5000
  849MPD2    H512479   4.159   3.465  14.261  0.5122  0.9974 -1.9818
  849MPD2    N112480   4.267   3.808  13.973 -0.1203 -0.7473  0.2260
  849MPD2    H712481   4.344   3.756  14.014 -2.0636 -1.9365  2.3473
  850MPD2     C12482   1.870   1.881  15.347  0.1321  0.2102  0.6687
  850MPD2    C112483   1.910   1.962  15.447 -0.2498  0.1593 -0.2502
  850MPD2    C212484   2.037   1.989  15.474 -0.2607 -0.4219  0.0111
  850MPD2    C312485   2.138   1.929  15.398  0.3297 -0.1135  0.1229
  850MPD2    C412486   2.097   1.850  15.292  0.3452 -0.4116  0.5016
  850MPD2    C512487   1.964   1.824  15.268  0.4181 -0.4938  0.3833
  850MPD2     H12488   2.058   2.058  15.555 -1.3620  0.0719 -0.1197
  850MPD2    H112489   2.164   1.797  15.225  0.0214 -0.1695 -0.0206
  850MPD2    H212490   1.767   1.858  15.323  0.1295  0.3773  0.5183
  850MPD2    H312491   1.935   1.760  15.186  1.5413  0.8134 -1.0323
  850MPD2     N12492   2.273   1.943  15.427 -0.1948  0.0976  0.5427
  850MPD2    H512493   2.341   1.889  15.374  0.4670  1.8617 -0.4232
  850MPD2    N112494   1.821   2.050  15.520  0.6664  0.3265 -0.2741
  850MPD2    H712495   1.861   2.111  15.590 -0.0958  1.2230 -0.6077
  851MPD2     C12496   2.006   2.076  15.925  0.2565  0.2523 -0.5615
  851MPD2    C112497   1.881   2.028  15.908  0.1936 -0.2318 -0.6640
  851MPD2    C212498   1.859   1.895  15.855  0.1200 -0.3101  0.9092
  851MPD2    C312499   1.972   1.814  15.828 -0.4764 -0.1477  0.0283
  851MPD2    C412500   2.101   1.858  15.862 -0.1083 -0.4505 -0.2587
  851MPD2    C512501   2.113   1.992  15.896 -0.4930  0.5012  0.2805
  851MPD2     H12502   1.760   1.851  15.843 -0.1511  0.8004 -0.9063
  851MPD2    H112503   2.188   1.801  15.831 -1.0697 -2.3634  0.6165
  851MPD2    H212504   2.034   2.175  15.959 -0.4875 -0.0520  0.9349
  851MPD2    H312505   2.214   2.027  15.915 -1.1739  2.3850  0.4416
  851MPD2     N12506   1.948   1.690  15.764 -0.1613  0.0180  0.1155
  851MPD2    H512507   1.853   1.659  15.749  0.1942 -1.8692  1.7820
  851MPD2    N112508   1.769   2.113  15.933  1.1908  0.6820 -0.6619
  851MPD2    H712509   1.802   2.208  15.925 -1.2282  1.7046  1.3824
  852MPD2     C12510   2.839   0.391   9.480 -0.1957  0.5235  0.3838
  852MPD2    C112511   2.965   0.379   9.539  0.3237  0.4215  0.7053
  852MPD2    C212512   3.036   0.494   9.577  0.7639  0.5196  0.4636
  852MPD2    C312513   2.981   0.617   9.556 -0.1699 -0.2096  0.1711
  852MPD2    C412514   2.857   0.624   9.493  0.2708 -0.1473 -0.3014
  852MPD2    C512515   2.788   0.515   9.452 -0.3168 -0.4559  0.3052
  852MPD2     H12516   3.132   0.476   9.623  3.7755  3.8048 -4.6872
  852MPD2    H112517   2.818   0.721   9.463  0.7943  0.3034  0.4490
  852MPD2    H212518   2.779   0.303   9.458  2.3247 -1.3859  1.1679
  852MPD2    H312519   2.696   0.526   9.395 -0.0807 -0.5120 -0.0803
  852MPD2     N12520   3.054   0.734   9.583 -0.1612 -0.4172  0.2700
  852MPD2    H512521   3.150   0.706   9.605 -0.9889 -1.4704  2.4990
  852MPD2    N112522   3.030   0.259   9.570  0.0543  0.2573 -0.1601
  852MPD2    H712523   3.113   0.262   9.629  0.5018 -0.3524 -0.7503
  853MPD2     C12524   3.733   4.398  12.626 -0.3347  0.1029 -0.2164
  853MPD2    C112525   3.785   4.514  12.572  0.1230  0.6755  0.8112
  853MPD2    C212526   3.816   4.523  12.437 -0.0253 -0.8082  0.1222
  853MPD2    C312527   3.798   4.407  12.363 -0.2375 -0.5605  0.7466
  853MPD2    C412528   3.740   4.296  12.418  0.2451  0.2717 -0.0161
  853MPD2    C512529   3.706   4.286  12.549  0.2687 -1.3494 -0.2459
  853MPD2     H12530   3.858   4.613  12.392  0.4932 -1.1831 -0.1302
  853MPD2    H112531   3.710   4.215  12.352  0.2363 -0.4833  0.9240
  853MPD2    H212532   3.712   4.389  12.732  2.8049  1.1753  0.4821
  853MPD2    H312533   3.674   4.192  12.590  0.6885 -0.7272  1.5008
  853MPD2     N12534   3.837   4.406  12.231 -0.2329 -0.0315 -0.4744
  853MPD2    H512535   3.843   4.498  12.187 -0.3951  0.3168  0.2407
  853MPD2    N112536   3.800   4.612  12.669 -0.2099  0.6079  0.5222
  853MPD2    H712537   3.760   4.595  12.760 -3.4927 -1.6279 -1.3260
  854MPD2     C12538   1.170   4.393  12.890 -0.8055  0.7727 -0.1189
  854MPD2    C112539   1.040   4.358  12.875 -1.0431  0.3713  0.4354
  854MPD2    C212540   1.006   4.233  12.825 -0.7603 -0.4221  0.3011
  854MPD2    C312541   1.103   4.142  12.786 -0.0019  0.2694 -0.0696
  854MPD2    C412542   1.235   4.179  12.803  0.1125 -0.3489 -0.8030
  854MPD2    C512543   1.264   4.302  12.858 -0.0328 -0.4880 -0.0314
  854MPD2     H12544   0.903   4.212  12.796 -1.0863  1.7422 -0.1039
  854MPD2    H112545   1.312   4.103  12.793  2.2672  1.7391  0.0365
  854MPD2    H212546   1.204   4.489  12.927  1.7760 -1.2041  2.6029
  854MPD2    H312547   1.366   4.325  12.885  0.5847 -0.3877 -2.4739
  854MPD2     N12548   1.058   4.017  12.734 -0.6034  0.5550 -0.0618
  854MPD2    H512549   0.959   3.994  12.746 -0.2078 -1.8081 -1.2105
  854MPD2    N112550   0.950   4.452  12.913  0.1668  0.6549  0.3846
  854MPD2    H712551   0.973   4.550  12.922  0.0684  0.8155 -1.1935
  855MPD2     C12552   0.428   3.525  12.976 -0.1971 -0.3343 -0.3182
  855MPD2    C112553   0.550   3.521  13.044 -0.5178 -0.1282  0.2313
  855MPD2    C212554   0.663   3.543  12.970 -0.1048  0.4343  0.1458
  855MPD2    C312555   0.657   3.576  12.835 -0.3809 -0.2565 -0.2747
  855MPD2    C412556   0.531   3.580  12.771  0.6024 -0.0446 -0.1945
  855MPD2    C512557   0.420   3.552  12.842 -0.3117 -0.6545 -0.0558
  855MPD2     H12558   0.761   3.527  13.012  0.4274  0.2407 -1.1536
  855MPD2    H112559   0.513   3.591  12.664  0.6359  0.2505 -0.1717
  855MPD2    H212560   0.330   3.510  13.020  0.3400  0.0352  1.0074
  855MPD2    H312561   0.324   3.548  12.793  0.5363  2.1242 -1.9511
  855MPD2     N12562   0.769   3.605  12.758 -0.0770  0.6183  0.5778
  855MPD2    H512563   0.854   3.634  12.806 -0.9703  1.2213  1.7884
  855MPD2    N112564   0.572   3.494  13.180  0.1868 -0.4167  0.3178
  855MPD2    H712565   0.668   3.495  13.212  0.7181  1.2116 -1.3117
  856MPD2     C12566   3.205   0.353  13.838 -0.8281 -0.2098 -0.4229
  856MPD2    C112567   3.265   0.482  13.843 -0.1315 -1.1646 -0.6286
  856MPD2    C212568   3.197   0.591  13.903  0.2056 -0.2106  0.7634
  856MPD2    C312569   3.068   0.563  13.953  0.9530 -0.5913  0.0423
  856MPD2    C412570   3.021   0.428  13.955  0.4525 -0.3654  0.2081
  856MPD2    C512571   3.083   0.325  13.891  0.2846  0.6666 -0.6471
  856MPD2     H12572   3.240   0.690  13.905 -0.6306  0.1758 -0.9097
  856MPD2    H112573   2.933   0.406  14.015  1.5568 -2.2616  1.1300
  856MPD2    H212574   3.252   0.268  13.789  1.0651  0.5370  0.1188
  856MPD2    H312575   3.052   0.222  13.886  1.2889  0.1699  2.7208
  856MPD2     N12576   2.993   0.649  14.025  0.1306  0.0498 -0.5449
  856MPD2    H512577   2.895   0.625  14.037  0.3158 -0.7823 -0.6800
  856MPD2    N112578   3.385   0.516  13.784  0.0792 -0.3576 -0.2038
  856MPD2    H712579   3.419   0.610  13.803 -1.0627  0.1930 -0.8707
  857MPD2     C12580   4.435   2.410  12.859 -0.1379 -0.4074  0.4979
  857MPD2    C112581   4.571   2.416  12.876  0.7026  0.7682  0.9916
  857MPD2    C212582   4.638   2.539  12.875 -0.1843  0.1341 -1.3389
  857MPD2    C312583   4.568   2.663  12.871  0.1455  0.3101  0.7621
  857MPD2    C412584   4.435   2.653  12.856  0.5285 -0.0472 -0.1197
  857MPD2    C512585   4.370   2.534  12.834 -0.2679 -0.6315  1.3668
  857MPD2     H12586   0.020   2.539  12.889 -0.4580 -1.8289  0.8705
  857MPD2    H112587   4.371   2.739  12.873  0.1345 -0.5204  0.7194
  857MPD2    H212588   4.382   2.318  12.881  2.7328 -2.4963 -1.3215
  857MPD2    H312589   4.262   2.527  12.830 -0.2946  0.3508  0.4772
  857MPD2     N12590   4.638   2.782  12.907 -0.1338 -0.1299  0.2814
  857MPD2    H512591   0.011   2.761  12.922 -0.7093 -2.3765  0.8706
  857MPD2    N112592   4.633   2.296  12.916  0.0961  0.0599 -0.0454
  857MPD2    H712593   4.569   2.217  12.909 -1.0029  0.7447  2.1401
  858MPD2     C12594   0.272   1.152  16.936 -0.5573  0.4298  0.5400
  858MPD2    C112595   0.395   1.210  16.935  0.6453  0.0483 -0.0865
  858MPD2    C212596   0.417   1.329  16.997  0.5106  0.1745 -0.1978
  858MPD2    C312597   0.315   1.395  17.061 -0.0923  0.0298  0.4531
  858MPD2    C412598   0.193   1.327  17.077  0.2617  0.0573 -0.3580
  858MPD2    C512599   0.172   1.201  17.014  0.7488  0.5391 -0.1920
  858MPD2     H12600   0.519   1.364  16.990  0.3325  0.7249 -0.0968
  858MPD2    H112601   0.112   1.371  17.133 -0.2063 -1.7442  0.4111
  858MPD2    H212602   0.252   1.052  16.898 -3.1555  1.4023 -0.6688
  858MPD2    H312603   0.085   1.142  17.038  2.2660 -1.2747  0.9126
  858MPD2     N12604   0.338   1.525  17.112 -0.3320 -1.1238 -1.2425
  858MPD2    H512605   0.266   1.570  17.167 -0.1178  2.0768 -3.5270
  858MPD2    N112606   0.488   1.147  16.856  0.2209  0.3453  1.0911
  858MPD2    H712607   0.466   1.051  16.832 -1.7873  0.6710  1.6664
  859MPD2     C12608   3.887   3.765  15.511  0.0242 -0.2335 -0.5737
  859MPD2    C112609   4.021   3.754  15.540  0.3316 -0.8153  0.5151
  859MPD2    C212610   4.063   3.657  15.625  0.2306 -0.2715 -0.3519
  859MPD2    C312611   3.979   3.566  15.680 -0.0611 -0.1815 -0.2338
  859MPD2    C412612   3.843   3.574  15.655  0.0005  0.3352  0.1055
  859MPD2    C512613   3.801   3.673  15.569 -0.3654 -0.8609  0.0402
  859MPD2     H12614   4.164   3.648  15.663 -0.2497 -0.9506  0.7689
  859MPD2    H112615   3.776   3.503  15.703 -0.8746  0.9171 -0.2432
  859MPD2    H212616   3.853   3.842  15.443  0.6264 -0.7792 -1.4971
  859MPD2    H312617   3.695   3.669  15.547 -0.5971  1.4322  0.7823
  859MPD2     N12618   4.020   3.463  15.762 -0.2295  0.1735  1.1722
  859MPD2    H512619   3.951   3.402  15.805 -0.7082 -0.6751 -0.7708
  859MPD2    N112620   4.108   3.851  15.489  0.5689 -0.3528  0.4737
  859MPD2    H712621   4.065   3.932  15.444 -0.8484 -1.4395 -0.1566
  860MPD2     C12622   2.432   3.998  11.403  0.7923  0.7870  0.0678
  860MPD2    C112623   2.432   4.012  11.540 -0.0104 -0.2816 -0.9092
  860MPD2    C212624   2.310   4.000  11.607 -0.0190 -1.0036  0.2571
  860MPD2    C312625   2.191   3.976  11.536  0.0013  0.2220 -0.3060
  860MPD2    C412626   2.201   3.964  11.397 -0.9060  0.2845  0.7988
  860MPD2    C512627   2.320   3.971  11.335  0.6758  0.1262 -0.7417
  860MPD2     H12628   2.308   4.017  11.714  2.4304 -1.5323  0.3740
  860MPD2    H112629   2.122   3.959  11.324  0.6843  1.8813 -1.0335
  860MPD2    H212630   2.522   4.005  11.342  2.2255  3.1015  2.4624
  860MPD2    H312631   2.325   3.949  11.229  1.0983  1.5693 -1.0147
  860MPD2     N12632   2.073   3.985  11.610 -0.0334  0.1238 -0.2235
  860MPD2    H512633   2.085   4.009  11.708 -0.8992  2.0827 -0.5896
  860MPD2    N112634   2.546   4.035  11.620  0.4770 -0.5293 -0.4422
  860MPD2    H712635   2.534   4.070  11.714  1.1608 -0.7467 -0.2774
  861MPD2     C12636   1.170   2.609  11.082 -0.6198  0.0119  0.0893
  861MPD2    C112637   1.057   2.548  11.117  0.2403  0.1010 -0.3347
  861MPD2    C212638   0.945   2.567  11.039 -0.0134 -0.0464 -0.3765
  861MPD2    C312639   0.940   2.657  10.934  0.2430  0.5185  0.6212
  861MPD2    C412640   1.059   2.727  10.907  0.1334 -0.5758  0.2892
  861MPD2    C512641   1.167   2.704  10.988 -0.6097  0.6020  0.2717
  861MPD2     H12642   0.864   2.508  11.081  0.0071 -0.2444 -0.6142
  861MPD2    H112643   1.065   2.804  10.830  1.5315 -0.8295  0.1508
  861MPD2    H212644   1.265   2.604  11.134 -0.9861 -2.8473  0.4634
  861MPD2    H312645   1.245   2.777  10.971  0.0728  0.2287  1.8592
  861MPD2     N12646   0.822   2.678  10.855 -0.5206 -0.1231 -0.2443
  861MPD2    H512647   0.808   2.770  10.815 -0.2376 -0.0769 -0.2342
  861MPD2    N112648   1.048   2.484  11.242 -0.4557 -0.0792 -0.6972
  861MPD2    H712649   0.958   2.456  11.279 -0.6563 -0.5345 -1.5330
  862MPD2     C12650   0.727   2.548  10.246  0.2434  0.1338  0.2119
  862MPD2    C112651   0.651   2.615  10.335 -0.6052 -0.2266 -0.0453
  862MPD2    C212652   0.561   2.545  10.411 -0.7887 -0.3586  0.2980
  862MPD2    C312653   0.573   2.407  10.427 -0.0429 -0.8490  0.3868
  862MPD2    C412654   0.661   2.343  10.345  0.8720 -0.7374  0.4510
  862MPD2    C512655   0.731   2.406  10.248 -0.1072 -0.0659  0.2796
  862MPD2     H12656   0.487   2.602  10.466 -0.2215 -0.7335  1.4343
  862MPD2    H112657   0.686   2.238  10.354  0.7220 -0.8783 -0.6550
  862MPD2    H212658   0.794   2.605  10.183  0.1671 -0.8059 -0.7330
  862MPD2    H312659   0.802   2.349  10.189 -0.6795 -0.3579 -0.1239
  862MPD2     N12660   0.501   2.338  10.524  0.6998  0.5887  0.2161
  862MPD2    H512661   0.526   2.243  10.548 -0.1342  0.8123  1.9358
  862MPD2    N112662   0.662   2.753  10.334  0.0370 -0.2696  0.2268
  862MPD2    H712663   0.709   2.801  10.258  3.6462  0.0918  2.7097
  863MPD2     C12664   3.459   0.357  17.160 -0.3977 -0.7484 -0.2930
  863MPD2    C112665   3.560   0.442  17.145  0.5999  0.6507 -0.1748
  863MPD2    C212666   3.650   0.443  17.252  0.1500 -0.0013 -0.0859
  863MPD2    C312667   3.646   0.361  17.356 -0.0044 -0.4880 -0.1831
  863MPD2    C412668   3.537   0.275  17.372 -0.1144 -0.6619 -0.2895
  863MPD2    C512669   3.444   0.279  17.269  0.0173  0.5848 -0.5092
  863MPD2     H12670   3.720   0.525  17.253  1.9042 -1.5538  3.2084
  863MPD2    H112671   3.528   0.217  17.463 -1.9295 -0.4813 -0.3539
  863MPD2    H212672   3.380   0.358  17.086 -2.6892  0.9014  2.1551
  863MPD2    H312673   3.353   0.220  17.275 -1.1217  1.9156 -4.2415
  863MPD2     N12674   3.748   0.357  17.456 -0.1917  0.0720 -0.2089
  863MPD2    H512675   3.738   0.295  17.536 -1.5550  0.1745 -0.3068
  863MPD2    N112676   3.568   0.516  17.027 -0.1579 -0.3221 -0.0495
  863MPD2    H712677   3.477   0.517  16.982  0.3597 -0.0639 -1.0957
  864MPD2     C12678   4.047   2.197  17.521  0.1135  0.6949  1.0178
  864MPD2    C112679   4.131   2.110  17.448 -0.5031  0.5725 -0.7487
  864MPD2    C212680   4.228   2.163  17.370 -0.2071 -0.3241 -0.8145
  864MPD2    C312681   4.246   2.296  17.346  0.0398 -0.0099  0.4241
  864MPD2    C412682   4.170   2.384  17.422  0.0662 -0.1284 -0.1178
  864MPD2    C512683   4.077   2.331  17.514 -0.3583 -1.2120 -0.6132
  864MPD2     H12684   4.281   2.100  17.300  0.5096  0.9636 -1.4413
  864MPD2    H112685   4.186   2.491  17.427 -0.3572  0.0111 -1.9248
  864MPD2    H212686   3.968   2.167  17.589 -1.3538  1.3749 -0.3810
  864MPD2    H312687   4.028   2.405  17.576  1.0429  0.3982 -1.4261
  864MPD2     N12688   4.348   2.347  17.259  0.7473  0.0177 -0.0936
  864MPD2    H512689   4.382   2.441  17.275 -1.2059  0.7677 -0.3244
  864MPD2    N112690   4.117   1.965  17.449 -0.1869 -0.4514  0.2502
  864MPD2    H712691   4.186   1.905  17.405 -1.2979 -1.5134 -0.0303
  865MPD2     C12692   4.609   2.566  16.506 -0.3740  0.0434 -0.1320
  865MPD2    C112693   4.583   2.482  16.611 -0.2005 -0.2373 -0.2338
  865MPD2    C212694   4.598   2.532  16.739  0.0550  0.9747  0.0294
  865MPD2    C312695   4.615   2.664  16.768 -0.4463  0.6695 -0.5755
  865MPD2    C412696   4.626   2.755  16.659  0.7994  0.0862 -0.1233
  865MPD2    C512697   4.621   2.701  16.531  0.2816  0.0150  0.3481
  865MPD2     H12698   4.598   2.460  16.820  1.3590  0.2373 -0.6208
  865MPD2    H112699   4.642   2.860  16.680 -1.8142  0.1122  1.6228
  865MPD2    H212700   4.609   2.531  16.403  0.9196  1.3799 -0.5843
  865MPD2    H312701   4.630   2.770  16.447 -2.7759 -2.7148 -2.1838
  865MPD2     N12702   4.602   2.733  16.892  0.3042 -0.2720 -0.8489
  865MPD2    H512703   4.596   2.834  16.885 -0.0344 -0.2348 -0.0412
  865MPD2    N112704   4.583   2.343  16.582 -0.2648  0.1418  0.2728
  865MPD2    H712705   4.588   2.319  16.484  0.4242 -0.8705  0.5644
  866MPD2     C12706   1.356   2.659  11.533  0.1572 -0.0250 -0.0813
  866MPD2    C112707   1.374   2.704  11.396  0.1441 -0.2710  0.2704
  866MPD2    C212708   1.284   2.795  11.346  0.3398 -0.9886 -0.1964
  866MPD2    C312709   1.169   2.832  11.417  0.2597  0.2894  0.1691
  866MPD2    C412710   1.152   2.783  11.547 -0.1567  0.0278 -0.0979
  866MPD2    C512711   1.249   2.699  11.610 -0.1155  0.4898 -0.1258
  866MPD2     H12712   1.290   2.837  11.246 -0.8399  1.9105  0.9454
  866MPD2    H112713   1.064   2.810  11.605  0.7339  3.6571 -0.4476
  866MPD2    H212714   1.442   2.618  11.584 -0.0064  0.2541  0.4143
  866MPD2    H312715   1.245   2.688  11.717 -0.4957  1.2729 -0.0631
  866MPD2     N12716   1.053   2.910  11.361 -0.3935  0.3742 -0.9015
  866MPD2    H512717   0.980   2.934  11.428 -0.4083  2.3921 -1.6456
  866MPD2    N112718   1.491   2.665  11.329 -0.2687 -0.4443  0.0756
  866MPD2    H712719   1.556   2.598  11.368 -0.1281 -0.1431  0.3645
  867MPD2     C12720   2.821   1.857  16.592  0.3307  0.6757  0.5527
  867MPD2    C112721   2.942   1.841  16.656  0.1339 -0.1995  0.1500
  867MPD2    C212722   3.001   1.939  16.731 -0.6954  0.1772  0.1996
  867MPD2    C312723   2.918   2.053  16.754  0.0724 -0.1174  0.1444
  867MPD2    C412724   2.793   2.066  16.695 -0.0841  0.1866  0.9036
  867MPD2    C512725   2.743   1.970  16.617 -0.0042  0.2616 -0.6733
  867MPD2     H12726   3.093   1.924  16.788  0.1190 -0.0230 -1.1765
  867MPD2    H112727   2.732   2.154  16.712 -0.1728  0.1976  0.5282
  867MPD2    H212728   2.772   1.774  16.542 -0.5303  0.7312  1.2989
  867MPD2    H312729   2.654   1.980  16.555 -2.3101 -2.2959  2.2095
  867MPD2     N12730   2.971   2.168  16.820 -0.4331  0.7785 -0.0963
  867MPD2    H512731   2.913   2.250  16.830 -0.3170  0.8752 -0.2086
  867MPD2    N112732   2.996   1.708  16.641 -0.0280  0.5030  0.0240
  867MPD2    H712733   2.956   1.642  16.575  1.0910 -0.6440  0.5049
  868MPD2     C12734   0.246   0.512  13.233 -0.1239 -0.4037  0.0492
  868MPD2    C112735   0.305   0.636  13.271 -0.1366 -0.4310 -1.4799
  868MPD2    C212736   0.223   0.737  13.313 -1.0915  0.2695  0.5886
  868MPD2    C312737   0.093   0.715  13.340  0.0216 -0.1520 -0.4689
  868MPD2    C412738   0.036   0.595  13.312 -0.0818  0.5492 -0.3162
  868MPD2    C512739   0.114   0.494  13.258  0.0104  0.0344  0.0084
  868MPD2     H12740   0.262   0.836  13.335  0.0197  0.0954 -0.5513
  868MPD2    H112741   4.654   0.576  13.308 -0.3773  2.1761  0.0368
  868MPD2    H212742   0.302   0.428  13.194  0.2423  0.0769 -0.4611
  868MPD2    H312743   0.065   0.397  13.258  0.0153  0.0298 -1.3309
  868MPD2     N12744   0.018   0.827  13.388  0.7076  0.0499 -0.2969
  868MPD2    H512745   0.075   0.908  13.412  1.0592 -0.5810  1.0384
  868MPD2    N112746   0.440   0.644  13.238  0.1297  0.7247  0.2790
  868MPD2    H712747   0.485   0.556  13.215  0.6841  1.4750 -1.5257
  869MPD2     C12748   1.017   3.233   1.388 -0.1002 -0.8269 -0.0003
  869MPD2    C112749   0.947   3.349   1.417  0.5958  0.5257  0.5228
  869MPD2    C212750   0.946   3.450   1.323 -0.1853 -0.9240 -0.1783
  869MPD2    C312751   1.005   3.442   1.199  0.0992 -0.7909 -1.0150
  869MPD2    C412752   1.085   3.330   1.180 -0.6215 -0.0083  0.2808
  869MPD2    C512753   1.085   3.225   1.269 -0.1734 -0.0711 -0.5482
  869MPD2     H12754   0.877   3.532   1.340 -1.2720 -2.1637  1.5189
  869MPD2    H112755   1.139   3.315   1.088  1.0625  2.7029  0.8164
  869MPD2    H212756   1.011   3.142   1.446 -0.4461  0.0873  1.3957
  869MPD2    H312757   1.136   3.132   1.248  0.0389  0.2124 -1.2993
  869MPD2     N12758   0.987   3.538   1.095  0.2275  0.3897 -0.1764
  869MPD2    H512759   1.049   3.527   1.016 -1.9696  0.0606 -1.8527
  869MPD2    N112760   0.879   3.348   1.545  0.0659 -0.3139  0.3776
  869MPD2    H712761   0.915   3.277   1.608 -1.9116 -0.3648  1.4784
  870MPD2     C12762   0.431   3.304   1.627  0.0535 -0.6937  1.0986
  870MPD2    C112763   0.380   3.177   1.605 -0.0766  0.2981  0.9605
  870MPD2    C212764   0.333   3.146   1.474 -1.0541 -0.5458 -0.7104
  870MPD2    C312765   0.326   3.244   1.371  0.2585 -0.8172 -0.8141
  870MPD2    C412766   0.385   3.360   1.398  0.5092  0.0975  0.5569
  870MPD2    C512767   0.430   3.393   1.524 -0.0113  0.0236  0.8421
  870MPD2     H12768   0.277   3.055   1.462 -2.0382 -0.0439  0.0910
  870MPD2    H112769   0.380   3.446   1.331  0.5519 -2.2211 -2.3923
  870MPD2    H212770   0.458   3.337   1.727  0.8465 -0.9641  0.9754
  870MPD2    H312771   0.485   3.484   1.547  2.9293 -1.2298 -1.2383
  870MPD2     N12772   0.262   3.222   1.245 -0.1737 -0.6446 -0.3344
  870MPD2    H512773   0.239   3.125   1.227 -0.4056 -0.3674 -1.5098
  870MPD2    N112774   0.381   3.083   1.711 -0.1702 -0.2076  0.3718
  870MPD2    H712775   0.431   3.110   1.794 -1.5922 -0.8839  1.4463
  871MPD2     C12776   2.076   2.086  16.694 -0.2373  0.6489  0.0202
  871MPD2    C112777   1.957   2.035  16.752  0.3182 -0.0878  0.1170
  871MPD2    C212778   1.929   1.902  16.729 -0.1480  0.0014  0.2042
  871MPD2    C312779   2.002   1.827  16.633 -0.3796  0.1977  0.0867
  871MPD2    C412780   2.115   1.882  16.571 -0.0333 -0.1783  0.2468
  871MPD2    C512781   2.153   2.008  16.612 -0.1810  0.3588  0.1538
  871MPD2     H12782   1.839   1.858  16.770  0.0006 -2.7180 -2.4022
  871MPD2    H112783   2.181   1.820  16.511  0.4014  1.6261 -1.1243
  871MPD2    H212784   2.126   2.178  16.722  0.1607 -0.2073  2.1071
  871MPD2    H312785   2.241   2.052  16.566 -0.4170 -0.4043 -1.0297
  871MPD2     N12786   1.970   1.692  16.596 -0.3158 -0.3783 -0.0338
  871MPD2    H512787   2.035   1.640  16.539 -1.4636 -0.4553 -1.2804
  871MPD2    N112788   1.901   2.120  16.855 -0.6228 -0.0935 -0.1288
  871MPD2    H712789   1.946   2.210  16.869  0.2546 -0.3549 -1.2506
  872MPD2     C12790   3.463   0.305  14.138 -0.0955  0.1107 -0.0842
  872MPD2    C112791   3.438   0.188  14.056  0.3882  0.6007  0.6014
  872MPD2    C212792   3.325   0.108  14.078  0.2034 -0.3305 -0.4665
  872MPD2    C312793   3.242   0.139  14.183 -0.8279 -0.4763 -0.4137
  872MPD2    C412794   3.263   0.249  14.255  0.0262  0.0563  0.0015
  872MPD2    C512795   3.370   0.333  14.236 -0.6174  0.2977 -0.2720
  872MPD2     H12796   3.301   0.020  14.020 -1.7402  0.5661 -1.0294
  872MPD2    H112797   3.208   0.272  14.346 -1.4075 -2.2965 -0.2646
  872MPD2    H212798   3.558   0.357  14.143 -0.0442  0.1181 -0.9891
  872MPD2    H312799   3.376   0.420  14.300 -1.5793 -0.0188  0.2534
  872MPD2     N12800   3.129   0.061  14.221  0.1602 -0.1790 -0.0515
  872MPD2    H512801   3.087   0.091  14.308  0.5898  2.4408 -0.7525
  872MPD2    N112802   3.531   0.146  13.958 -0.1849 -0.3328 -0.2699
  872MPD2    H712803   3.508   0.058  13.913  2.1722 -0.8539 -0.4586
  873MPD2     C12804   4.090   0.418   0.785  0.1222  0.2516 -0.0570
  873MPD2    C112805   4.151   0.336   0.880 -0.2303  0.4938 -0.4916
  873MPD2    C212806   4.189   0.210   0.837 -0.1998 -0.9066 -0.0091
  873MPD2    C312807   4.140   0.158   0.718  0.3473 -0.0098 -0.3631
  873MPD2    C412808   4.074   0.242   0.630 -0.1171 -0.5470 -1.0281
  873MPD2    C512809   4.071   0.375   0.662  0.4507 -0.8642  0.2702
  873MPD2     H12810   4.228   0.139   0.909  1.9978  0.9159  0.6155
  873MPD2    H112811   4.062   0.217   0.525 -1.1550  1.7832 -1.4639
  873MPD2    H212812   4.078   0.525   0.801 -1.7750  0.0920 -0.3704
  873MPD2    H312813   4.042   0.450   0.588 -1.0014 -1.0136  0.6794
  873MPD2     N12814   4.158   0.024   0.680 -0.3945 -0.0807 -0.5887
  873MPD2    H512815   4.095   0.001   0.603  1.2739 -0.0363 -1.9692
  873MPD2    N112816   4.183   0.391   1.005 -0.5109 -0.0162 -0.1144
  873MPD2    H712817   4.156   0.485   1.031 -1.0441  0.1294 -1.2124
  874MPD2     C12818   4.042   4.505  15.945 -0.1350 -0.2371  0.0768
  874MPD2    C112819   4.124   4.436  16.034  0.8378 -0.1380 -0.0756
  874MPD2    C212820   4.244   4.483  16.071 -0.0955  0.0471 -0.4639
  874MPD2    C312821   4.284   4.604  16.024  0.7972 -0.0962  1.1846
  874MPD2    C412822   4.207   4.676  15.933 -0.0186  0.0973  0.2366
  874MPD2    C512823   4.085   4.626  15.899 -0.1905  0.1667 -0.4970
  874MPD2     H12824   4.301   4.427  16.145 -2.0943  0.2834  1.2700
  874MPD2    H112825   4.236   0.045  15.887  0.0857 -0.3864 -0.6772
  874MPD2    H212826   3.954   4.455  15.908  0.9539 -0.4888 -2.1630
  874MPD2    H312827   4.029   4.675  15.820  0.2639  2.5146  0.6503
  874MPD2     N12828   4.421   4.634  16.058  0.3918 -0.2711  0.1185
  874MPD2    H512829   4.473   4.572  16.120 -0.0442  0.6995  1.4693
  874MPD2    N112830   4.088   4.309  16.071  0.4042 -0.5343  0.4241
  874MPD2    H712831   4.017   4.263  16.015 -0.2046 -0.5340  1.1893
  875MPD2     C12832   0.997   2.754  14.592  0.5880 -0.5009  0.2591
  875MPD2    C112833   0.884   2.774  14.661  0.2859  0.5068  0.4774
  875MPD2    C212834   0.887   2.861  14.774 -0.6904  0.2718  0.3894
  875MPD2    C312835   1.002   2.927  14.811 -0.1756 -0.7181 -0.3304
  875MPD2    C412836   1.121   2.899  14.745 -0.1923  0.1613 -0.5226
  875MPD2    C512837   1.116   2.820  14.630  0.0366  0.3618 -0.3256
  875MPD2     H12838   0.796   2.892  14.824 -2.0804 -0.8591 -1.4092
  875MPD2    H112839   1.206   2.964  14.762  0.2339 -0.4835 -0.2209
  875MPD2    H212840   0.986   2.703  14.496 -3.5354 -0.3594  0.6637
  875MPD2    H312841   1.202   2.810  14.565 -0.2191 -3.5673 -0.0954
  875MPD2     N12842   1.006   3.012  14.929 -0.3201  0.0347  0.3688
  875MPD2    H512843   1.092   3.064  14.944 -0.0286 -0.5977  0.8746
  875MPD2    N112844   0.756   2.722  14.624 -0.2681  0.3808  0.1001
  875MPD2    H712845   0.685   2.730  14.696  1.3810 -1.0291  1.8645
  876MPD2     C12846   4.006   4.215  15.711 -0.1279  0.7355 -0.3444
  876MPD2    C112847   4.139   4.211  15.737  0.3872  0.3991  0.0735
  876MPD2    C212848   4.191   4.103  15.810 -0.9576  0.2456  0.6317
  876MPD2    C312849   4.103   3.991  15.837  0.0938  0.1022  0.4169
  876MPD2    C412850   3.975   3.990  15.790 -0.0235 -0.6402 -0.2251
  876MPD2    C512851   3.934   4.098  15.715  0.1536  0.4430 -0.2416
  876MPD2     H12852   4.297   4.087  15.824 -0.5053  0.9806 -1.9619
  876MPD2    H112853   3.911   3.904  15.807  0.6804 -1.4835 -1.8164
  876MPD2    H212854   3.952   4.303  15.676  2.1860  1.8906 -1.0266
  876MPD2    H312855   3.833   4.097  15.677 -0.0089 -0.4838  0.2252
  876MPD2     N12856   4.164   3.883  15.911 -0.0537  0.2607 -0.2141
  876MPD2    H512857   4.266   3.889  15.912 -0.0915  0.4976  2.5786
  876MPD2    N112858   4.206   4.331  15.704 -0.4194  0.1300  1.2530
  876MPD2    H712859   4.160   4.408  15.657  3.7765  2.4275  0.9974
  877MPD2     C12860   4.405   0.090  15.150  0.3427  0.6680  0.1736
  877MPD2    C112861   4.377   4.686  15.205  0.0995 -0.4339  0.0783
  877MPD2    C212862   4.374   4.572  15.122 -0.2777  0.5785 -0.2620
  877MPD2    C312863   4.402   4.590  14.984 -0.3933  0.4637  0.1671
  877MPD2    C412864   4.427   4.717  14.936  0.3953  0.0721  0.3624
  877MPD2    C512865   4.414   0.105  15.017  0.5053 -0.4279  0.4032
  877MPD2     H12866   4.349   4.475  15.162  1.3202 -0.5742 -2.0600
  877MPD2    H112867   4.426   0.011  14.829  2.2479  0.8049  0.4891
  877MPD2    H212868   4.406   0.183  15.204  0.2062  0.4840  0.4950
  877MPD2    H312869   4.428   0.204  14.973 -0.9096 -0.2445  0.3673
  877MPD2     N12870   4.422   4.483  14.900  0.5688 -0.1014 -0.1740
  877MPD2    H512871   4.439   4.498  14.801  0.4382  0.0777 -0.1699
  877MPD2    N112872   4.355   4.662  15.345 -0.0948 -0.4129  0.4448
  877MPD2    H712873   4.330   4.566  15.368 -2.0622  0.1478  0.6292
  878MPD2     C12874   4.453   3.838  13.059  0.3814  0.2315  0.3861
  878MPD2    C112875   4.432   3.954  13.140  0.5303 -0.5611  0.4350
  878MPD2    C212876   4.465   3.949  13.279  0.0886 -0.0370 -0.3630
  878MPD2    C312877   4.521   3.839  13.331  0.2704 -0.3036 -0.4891
  878MPD2    C412878   4.546   3.723  13.255  0.5156 -0.4880  0.7047
  878MPD2    C512879   4.521   3.731  13.120 -0.0928 -0.4414  0.8533
  878MPD2     H12880   4.456   4.034  13.346 -0.8533  0.7008 -1.4150
  878MPD2    H112881   4.597   3.637  13.298 -0.9821 -1.1636  1.1237
  878MPD2    H212882   4.438   3.838  12.951 -3.6895  1.1955  0.9546
  878MPD2    H312883   4.545   3.652  13.050 -0.1104  0.9429 -0.7044
  878MPD2     N12884   4.539   3.851  13.471  0.4244  0.1513  0.2089
  878MPD2    H512885   4.511   3.939  13.512  1.1179  0.5321 -0.1357
  878MPD2    N112886   4.367   4.063  13.078  0.0559 -0.1153  0.4575
  878MPD2    H712887   4.353   4.063  12.978 -2.0644 -1.7455  0.7539
  879MPD2     C12888   0.341   0.690  17.624 -0.0193  0.3725 -0.6163
  879MPD2    C112889   0.298   0.559  17.644 -0.0082 -0.0780 -1.1370
  879MPD2    C212890   0.187   0.509  17.574 -0.1954  1.1338  0.4247
  879MPD2    C312891   0.121   0.583  17.480  1.1690 -0.2399  0.9303
  879MPD2    C412892   0.173   0.714  17.457  0.2151 -0.1695  0.1465
  879MPD2    C512893   0.274   0.767  17.531 -0.2875 -0.8275 -0.7850
  879MPD2     H12894   0.166   0.403  17.582 -2.8308  1.7755  2.3172
  879MPD2    H112895   0.116   0.767  17.381 -1.4247 -1.6248  0.3728
  879MPD2    H212896   0.422   0.728  17.685  0.3842  0.1424 -1.0044
  879MPD2    H312897   0.299   0.872  17.516 -1.4411 -0.9632 -3.7429
  879MPD2     N12898   0.004   0.551  17.416 -0.4696 -0.0082  0.0883
  879MPD2    H512899   4.688   0.623  17.357 -0.0023  1.0903  1.1088
  879MPD2    N112900   0.366   0.485   0.049 -0.6811 -0.9164  0.4180
  879MPD2    H712901   0.442   0.534   0.096 -2.0172  1.4970  0.0670
  880MPD2     C12902   0.791   2.370   0.700  1.1052 -0.0350 -0.4187
  880MPD2    C112903   0.823   2.345   0.571  0.1998 -0.3902  0.2431
  880MPD2    C212904   0.849   2.214   0.536  0.2297  0.6654 -0.2701
  880MPD2    C312905   0.844   2.108   0.625 -0.3128  0.2663  0.4689
  880MPD2    C412906   0.819   2.144   0.755  0.3003  0.0357  1.0358
  880MPD2    C512907   0.794   2.272   0.793 -0.3366  0.3882 -0.0713
  880MPD2     H12908   0.859   2.207   0.428  0.1974  0.4095 -0.2565
  880MPD2    H112909   0.826   2.077   0.840  2.4978 -0.6829  0.3045
  880MPD2    H212910   0.773   2.470   0.740 -1.9994 -0.6410 -0.2502
  880MPD2    H312911   0.771   2.299   0.896 -1.7763  1.4905 -0.6840
  880MPD2     N12912   0.891   1.976   0.595 -0.1761  0.2333  0.0673
  880MPD2    H512913   0.933   1.965   0.503  0.0918  0.5430  0.1533
  880MPD2    N112914   0.807   2.453   0.482 -0.0388 -0.0550  0.3090
  880MPD2    H712915   0.796   2.542   0.529  0.1454  0.8619 -1.4081
  881MPD2     C12916   1.226   3.133  17.451 -0.4868  0.8690 -0.4887
  881MPD2    C112917   1.182   3.003  17.423  0.0103 -0.0457 -0.2539
  881MPD2    C212918   1.110   2.939  17.517  0.1886  0.0356  0.5722
  881MPD2    C312919   1.079   2.995  17.641 -0.1116  0.2718 -0.0427
  881MPD2    C412920   1.124   3.127  17.666  0.4522 -0.1656  0.1664
  881MPD2    C512921   1.193   3.196  17.569  0.1301 -0.3148 -0.0197
  881MPD2     H12922   1.068   2.842  17.494  0.0359  0.8881 -2.7788
  881MPD2    H112923   1.099   3.170   0.061 -0.9136 -0.8456  0.1079
  881MPD2    H212924   1.274   3.200  17.380  2.7240 -2.2414 -1.2942
  881MPD2    H312925   1.204   3.303  17.578 -1.5234  0.2028 -3.8853
  881MPD2     N12926   0.990   2.927   0.029  0.4953  0.2781 -0.4899
  881MPD2    H512927   0.954   2.982   0.106 -0.4475 -1.1430  0.0763
  881MPD2    N112928   1.192   2.962  17.289 -0.0490 -0.6130  0.5077
  881MPD2    H712929   1.250   3.018  17.226 -1.8755  0.7369  0.0114
  882MPD2     C12930   4.093   4.038  14.298 -1.0849 -0.4308 -0.5524
  882MPD2    C112931   4.130   4.163  14.338  0.0921  0.7542 -0.5039
  882MPD2    C212932   4.042   4.272  14.316  0.0957  0.3211  0.3944
  882MPD2    C312933   3.922   4.243  14.248  0.3454 -0.2792 -0.1755
  882MPD2    C412934   3.895   4.113  14.205  0.5659 -0.3996 -0.3017
  882MPD2    C512935   3.981   4.010  14.230  0.4417 -0.0522 -0.0888
  882MPD2     H12936   4.083   4.372  14.329  2.0053 -0.5688  1.2432
  882MPD2    H112937   3.796   4.084  14.172 -0.0485  1.1840  0.1308
  882MPD2    H212938   4.163   3.958  14.322 -1.1580  0.0218  1.1752
  882MPD2    H312939   3.957   3.906  14.212 -0.5261  0.1926 -0.1895
  882MPD2     N12940   3.833   4.346  14.209 -0.2781 -0.1124 -0.0530
  882MPD2    H512941   3.739   4.324  14.177 -0.3601 -0.7997  0.6723
  882MPD2    N112942   4.255   4.173  14.409 -0.1947  0.7785 -0.2334
  882MPD2    H712943   4.305   4.086  14.424  1.7305  1.6847 -1.4568
  883MPD2     C12944   1.946   4.420  16.795 -0.2539 -0.3212 -0.3952
  883MPD2    C112945   2.027   4.509  16.724 -0.6783  0.8920 -0.2437
  883MPD2    C212946   2.101   4.600  16.793  0.2933  0.2108  0.8190
  883MPD2    C312947   2.111   4.586  16.932 -0.3143 -0.3379  0.2476
  883MPD2    C412948   2.030   4.504  17.004 -0.2765  0.5239 -0.6630
  883MPD2    C512949   1.947   4.421  16.934  0.2934 -0.8180 -0.2586
  883MPD2     H12950   2.161   4.670  16.736  1.0906 -0.0913  1.2767
  883MPD2    H112951   2.040   4.501  17.112  1.6562 -0.5753 -0.8776
  883MPD2    H212952   1.882   4.350  16.744 -0.7970  0.0677 -0.2512
  883MPD2    H312953   1.892   4.343  16.986 -0.1981  1.1395  2.1269
  883MPD2     N12954   2.207   4.668  17.004 -0.9088  0.2209 -0.5606
  883MPD2    H512955   2.255   4.723  16.933 -1.4317  0.7034 -0.5358
  883MPD2    N112956   2.028   4.512  16.580  0.2425  0.4308 -0.1750
  883MPD2    H712957   2.094   4.578  16.539 -1.1681  2.3192  0.5768
  884MPD2     C12958   3.625   0.466  15.764 -0.0494 -0.2605 -0.3450
  884MPD2    C112959   3.600   0.579  15.690 -0.5080  1.1852 -0.1975
  884MPD2    C212960   3.472   0.622  15.672  0.0154 -0.4648 -0.2252
  884MPD2    C312961   3.364   0.549  15.727  0.8857  0.2282  0.2188
  884MPD2    C412962   3.392   0.437  15.800 -0.0495 -0.0495 -0.1233
  884MPD2    C512963   3.528   0.393  15.819  1.0395 -0.2437  0.3873
  884MPD2     H12964   3.440   0.711  15.618 -0.8996  0.1148  1.2754
  884MPD2    H112965   3.316   0.382  15.855 -1.3759 -0.0253 -1.9174
  884MPD2    H212966   3.728   0.433  15.776 -0.2262 -1.2822 -1.6103
  884MPD2    H312967   3.543   0.307  15.883  1.4182 -0.8656 -0.5540
  884MPD2     N12968   3.232   0.595  15.703  0.7992  0.1092  0.4882
  884MPD2    H512969   3.229   0.684  15.653  1.5989  1.0439  2.0955
  884MPD2    N112970   3.700   0.655  15.625  0.0070 -0.5619  0.4018
  884MPD2    H712971   3.674   0.736  15.570 -0.6846  0.7363  2.6450
  885MPD2     C12972   1.608   0.936   0.407 -0.1636  0.1069  0.3249
  885MPD2    C112973   1.686   0.846   0.339  0.8845 -1.3240  0.2952
  885MPD2    C212974   1.713   0.871   0.204 -0.0971  0.2805  0.1705
  885MPD2    C312975   1.658   0.989   0.146  0.1179  0.1945  0.4727
  885MPD2    C412976   1.575   1.073   0.219  0.9402  0.1588 -0.1703
  885MPD2    C512977   1.554   1.047   0.351  0.5814  0.8730 -0.0620
  885MPD2     H12978   1.782   0.807   0.150 -0.0250 -0.4314  1.0928
  885MPD2    H112979   1.531   1.164   0.181 -2.6655 -1.3666  0.4196
  885MPD2    H212980   1.583   0.923   0.511 -0.5983 -0.4200  0.1570
  885MPD2    H312981   1.488   1.112   0.408 -0.3099 -0.0215 -0.0786
  885MPD2     N12982   1.691   1.003   0.009 -0.5062  0.6207 -0.6594
  885MPD2    H512983   1.751   0.930  17.671 -1.0637  0.4481 -1.1939
  885MPD2    N112984   1.749   0.739   0.410  0.5194 -0.1382 -0.0140
  885MPD2    H712985   1.732   0.731   0.510 -0.2484  2.9499  0.0739
  886MPD2     C12986   3.113   3.719  15.122 -0.2550  0.1505  0.1346
  886MPD2    C112987   3.070   3.758  15.246  0.2916 -0.2113  0.3683
  886MPD2    C212988   3.083   3.891  15.278  0.6472  0.6686 -0.1491
  886MPD2    C312989   3.154   3.981  15.196  0.6543  0.8944  0.2974
  886MPD2    C412990   3.202   3.934  15.077 -0.1786 -0.4413  0.3815
  886MPD2    C512991   3.189   3.801  15.049 -0.1531 -0.2535 -0.1422
  886MPD2     H12992   3.029   3.933  15.362 -0.0981 -0.3355 -0.1265
  886MPD2    H112993   3.254   3.993  15.003  0.3755  0.9026  1.8547
  886MPD2    H212994   3.110   3.614  15.095  1.2785  0.6293 -1.8320
  886MPD2    H312995   3.227   3.764  14.954  4.1775  0.9674  1.1078
  886MPD2     N12996   3.191   4.116  15.234  0.3553  0.5351 -0.2769
  886MPD2    H512997   3.262   4.164  15.180  0.1228 -0.7369 -1.7240
  886MPD2    N112998   3.011   3.670  15.344  0.4094 -0.2855  0.7685
  886MPD2    H712999   2.979   3.709  15.432 -1.2949 -1.3396  0.6056
  887MPD2     C13000   3.361   3.871  15.523 -0.0823  0.0204  0.0322
  887MPD2    C113001   3.303   3.842  15.645  0.4169  0.5814 -0.8088
  887MPD2    C213002   3.337   3.918  15.755 -0.1038  0.3471 -0.3589
  887MPD2    C313003   3.413   4.030  15.747 -0.8508 -0.0001 -1.0208
  887MPD2    C413004   3.460   4.066  15.624  0.1076  0.6573 -0.9276
  887MPD2    C513005   3.445   3.975  15.521 -0.2346 -0.4529 -0.8690
  887MPD2     H13006   3.303   3.886  15.853 -0.7008 -2.2721 -1.4149
  887MPD2    H113007   3.511   4.160  15.606 -0.0502  0.9252  0.0549
  887MPD2    H213008   3.334   3.816  15.434 -0.9763  0.0582  0.2763
  887MPD2    H313009   3.489   3.990  15.423 -0.9042 -1.2652 -1.2958
  887MPD2     N13010   3.421   4.107  15.861  0.1585  0.0856 -0.6407
  887MPD2    H513011   3.385   4.077  15.951  0.1187  0.4637 -0.5282
  887MPD2    N113012   3.219   3.727  15.644 -0.5681  0.5103  0.2878
  887MPD2    H713013   3.196   3.675  15.561 -0.4557  2.0456 -0.7074
  888MPD2     C13014   0.940   3.917  14.787  0.2591  0.3771 -0.6019
  888MPD2    C113015   0.869   3.950  14.908  0.0152  0.1149  0.2001
  888MPD2    C213016   0.882   4.079  14.951  0.1371  0.0670 -0.5833
  888MPD2    C313017   0.947   4.179  14.888  0.2946 -0.2417 -0.1517
  888MPD2    C413018   1.007   4.144  14.770  0.0704  0.4228  0.2060
  888MPD2    C513019   1.018   4.016  14.722  1.0443  0.0250  0.2866
  888MPD2     H13020   0.840   4.101  15.049 -0.4740 -0.6095 -0.6921
  888MPD2    H113021   1.036   4.227  14.706  0.7249 -1.6748 -2.1824
  888MPD2    H213022   0.928   3.818  14.745 -1.2274  1.2999 -2.3717
  888MPD2    H313023   1.063   4.000  14.625  1.7480  0.9301  0.4620
  888MPD2     N13024   0.961   4.305  14.954  0.3160  0.2829  0.6476
  888MPD2    H513025   0.901   4.326  15.032  0.2798  1.9202  0.1744
  888MPD2    N113026   0.800   3.861  14.987  0.2600  0.3706 -0.4571
  888MPD2    H713027   0.760   3.892  15.075 -0.2891  1.3731 -1.0670
  889MPD2     C13028   0.042   3.623  12.697  0.0136 -0.1383  0.2300
  889MPD2    C113029   0.041   3.581  12.831  0.3412 -0.5480  0.2606
  889MPD2    C213030   0.052   3.680  12.926 -0.0849  0.6644  0.3203
  889MPD2    C313031   0.043   3.812  12.905  0.5572 -0.7892  0.4591
  889MPD2    C413032   0.015   3.853  12.774  0.1689  0.3736  0.7317
  889MPD2    C513033   0.016   3.759  12.677 -0.5091  0.4284  0.5270
  889MPD2     H13034   0.064   3.646  13.028 -1.2928 -0.1995  0.1676
  889MPD2    H113035   4.707   3.951  12.742  0.6936  0.0028 -0.9706
  889MPD2    H213036   0.042   3.556  12.612  1.2049 -0.0872  0.1891
  889MPD2    H313037   4.709   3.806  12.584 -0.4330  2.3348  1.4494
  889MPD2     N13038   0.061   3.906  13.011 -0.9178 -0.3029 -0.4845
  889MPD2    H513039   0.087   3.860  13.098 -1.9317 -0.5450 -0.3091
  889MPD2    N113040   0.067   3.451  12.871 -0.0825  0.4808 -0.1434
  889MPD2    H713041   0.092   3.437  12.969 -0.5473 -0.9181 -0.2150
  890MPD2     C13042   3.587   1.095  15.228  0.3311 -0.0848  0.4857
  890MPD2    C113043   3.686   1.064  15.131  0.4253  0.0025 -1.0178
  890MPD2    C213044   3.694   0.930  15.097 -0.5959 -0.0690 -0.4259
  890MPD2    C313045   3.648   0.829  15.184  0.1466  0.1370 -0.0596
  890MPD2    C413046   3.568   0.863  15.295 -0.0212  0.5893 -0.0761
  890MPD2    C513047   3.533   0.995  15.300 -0.2724  0.7435  0.0132
  890MPD2     H13048   3.755   0.902  15.012 -1.5490 -0.2634 -1.0443
  890MPD2    H113049   3.536   0.789  15.368 -0.6131  0.7852 -0.1373
  890MPD2    H213050   3.556   1.196  15.249  1.7015  0.6032 -0.7963
  890MPD2    H313051   3.475   1.023  15.387  0.3336  1.1093  0.2984
  890MPD2     N13052   3.698   0.697  15.167  0.8739 -0.5146 -0.2779
  890MPD2    H513053   3.749   0.677  15.082  2.7673  2.9624  0.0368
  890MPD2    N113054   3.753   1.173  15.070 -0.5585 -0.4597 -0.1066
  890MPD2    H713055   3.736   1.261  15.118  2.0908  1.0550 -1.9351
  891MPD2     C13056   2.405   4.214  16.181 -0.0995 -0.0799  0.7322
  891MPD2    C113057   2.345   4.165  16.296 -0.0841  0.3471 -0.0258
  891MPD2    C213058   2.419   4.150  16.414  0.4620 -0.7014 -0.1732
  891MPD2    C313059   2.552   4.182  16.420  0.0592  0.4633 -0.5138
  891MPD2    C413060   2.602   4.250  16.308  0.4426 -0.3921  0.0106
  891MPD2    C513061   2.536   4.248  16.189  0.2394 -0.1245 -0.3776
  891MPD2     H13062   2.370   4.096  16.495  0.2384 -0.1497  0.0552
  891MPD2    H113063   2.706   4.279  16.296  0.8713 -1.7922  0.3468
  891MPD2    H213064   2.351   4.218  16.087  2.3988 -2.1554 -0.7732
  891MPD2    H313065   2.587   4.286  16.101  0.4537 -1.6910 -0.9217
  891MPD2     N13066   2.625   4.148  16.542  0.1821 -0.3162 -0.5428
  891MPD2    H513067   2.574   4.101  16.616 -1.2668 -0.8587 -1.8923
  891MPD2    N113068   2.208   4.131  16.286  0.3252 -0.2364 -0.0437
  891MPD2    H713069   2.178   4.120  16.190 -0.2707  0.0291  0.1092
  892MPD2     C13070   3.674   0.106  14.985  0.0738  0.1036  0.0014
  892MPD2    C113071   3.565   0.145  14.906  1.1847 -0.6551 -0.3807
  892MPD2    C213072   3.575   0.127  14.770  0.5411  0.1759 -0.6047
  892MPD2    C313073   3.681   0.055  14.709 -0.6873 -0.1113 -0.3236
  892MPD2    C413074   3.789   0.020  14.795  0.5886  0.0943 -0.9865
  892MPD2    C513075   3.781   0.053  14.928 -0.5086  0.1140  0.6085
  892MPD2     H13076   3.488   0.154  14.711  0.7274 -0.5531 -1.2295
  892MPD2    H113077   3.865   4.673  14.768  1.9955  0.6782  1.3389
  892MPD2    H213078   3.693   0.122  15.090 -0.9161  1.2288  0.0153
  892MPD2    H313079   3.865   0.013  14.983 -1.7734 -0.6637  1.9536
  892MPD2     N13080   3.691   0.010  14.577 -0.2872 -0.1382  0.1172
  892MPD2    H513081   3.778   4.686  14.560  0.9250  2.4483 -1.0254
  892MPD2    N113082   3.458   0.215  14.965 -0.1199  0.5133 -0.2647
  892MPD2    H713083   3.376   0.243  14.912  1.2799  3.1463 -1.0207
  893MPD2     C13084   4.313   3.746   0.911 -0.8407  0.7683 -0.1742
  893MPD2    C113085   4.335   3.674   1.023 -1.0018 -0.3039  0.6603
  893MPD2    C213086   4.246   3.571   1.058 -0.5187 -0.3380  0.2580
  893MPD2    C313087   4.141   3.531   0.974  0.3614  0.0482  0.1614
  893MPD2    C413088   4.122   3.606   0.864 -0.0919 -0.7852 -0.0828
  893MPD2    C513089   4.204   3.714   0.835  0.3147  0.1743 -0.1525
  893MPD2     H13090   4.264   3.509   1.146  1.2930 -1.2646 -0.7803
  893MPD2    H113091   4.032   3.599   0.804 -0.4359  1.7984  0.1257
  893MPD2    H213092   4.369   3.836   0.887 -0.4136  0.8588  1.1707
  893MPD2    H313093   4.183   3.769   0.745  2.1540  0.7735 -0.2208
  893MPD2     N13094   4.059   3.415   0.994  0.1776  0.1759  0.0095
  893MPD2    H513095   3.985   3.394   0.928  0.0058 -0.5195  0.4221
  893MPD2    N113096   4.452   3.704   1.094  0.1331 -0.1289  0.8613
  893MPD2    H713097   4.503   3.787   1.067 -1.5502 -0.3206 -2.9905
  894MPD2     C13098   3.257   2.472   1.092 -0.4178  0.2998 -0.3963
  894MPD2    C113099   3.236   2.356   1.169 -0.2878 -0.3529 -0.5361
  894MPD2    C213100   3.329   2.255   1.173  0.4016  0.1139  0.1061
  894MPD2    C313101   3.444   2.269   1.092  0.4931 -0.2944  0.6137
  894MPD2    C413102   3.463   2.383   1.012 -0.3003 -0.0832  0.0141
  894MPD2    C513103   3.369   2.480   1.017 -0.5740 -0.6280 -0.5003
  894MPD2     H13104   3.301   2.169   1.233 -0.1769 -0.9801 -1.7153
  894MPD2    H113105   3.545   2.397   0.942  0.2281 -1.7301  0.3046
  894MPD2    H213106   3.177   2.545   1.084  0.0642  0.9201  0.3855
  894MPD2    H313107   3.395   2.563   0.952 -0.8627  0.3233  0.6124
  894MPD2     N13108   3.533   2.161   1.096 -0.1631  0.3545 -0.4561
  894MPD2    H513109   3.514   2.089   1.166 -0.2111  0.5747 -0.2452
  894MPD2    N113110   3.116   2.330   1.243  0.2397 -0.4727  0.2390
  894MPD2    H713111   3.103   2.244   1.295  0.8079 -1.2841 -0.9515
  895MPD2     C13112   2.443   4.184  13.617 -0.2422  0.4710 -0.3501
  895MPD2    C113113   2.433   4.081  13.525  0.3403  0.0951 -0.1200
  895MPD2    C213114   2.542   4.000  13.501  0.0332 -0.1022 -0.3131
  895MPD2    C313115   2.658   4.015  13.576  0.3002 -0.1494 -0.0762
  895MPD2    C413116   2.663   4.112  13.671  0.6085 -0.2796 -0.1149
  895MPD2    C513117   2.558   4.192  13.702 -0.5265 -0.2083 -0.4792
  895MPD2     H13118   2.552   3.929  13.419 -2.4396 -0.1759 -0.5327
  895MPD2    H113119   2.751   4.125  13.734  1.3211  1.4426 -1.4590
  895MPD2    H213120   2.366   4.256  13.643 -1.4959 -1.8250  2.2815
  895MPD2    H313121   2.563   4.267  13.780  2.3605 -0.7729 -0.1170
  895MPD2     N13122   2.767   3.934  13.544  0.1813 -0.1796 -0.1044
  895MPD2    H513123   2.752   3.861  13.476  2.6671 -0.6377 -0.1588
  895MPD2    N113124   2.316   4.064  13.443 -0.5255  0.4860  0.3393
  895MPD2    H713125   2.332   4.011  13.357  1.8471  1.7402  0.0187
  896MPD2     C13126   0.604   1.432   1.141  0.3247  0.5332  0.1831
  896MPD2    C113127   0.527   1.489   1.242  0.4328 -0.2847  0.3509
  896MPD2    C213128   0.419   1.410   1.289  0.8958  0.0353 -0.3581
  896MPD2    C313129   0.402   1.278   1.249 -0.5412 -0.3236 -0.3689
  896MPD2    C413130   0.492   1.221   1.154 -0.0473 -0.1334  0.3942
  896MPD2    C513131   0.589   1.298   1.099  0.7410 -0.2128 -0.2163
  896MPD2     H13132   0.344   1.441   1.362  0.4753 -0.4982 -0.5602
  896MPD2    H113133   0.495   1.115   1.129 -0.0523 -0.5133  1.9478
  896MPD2    H213134   0.684   1.494   1.101  1.2252 -0.5424  0.3368
  896MPD2    H313135   0.657   1.256   1.026  0.8686  1.3691 -1.0043
  896MPD2     N13136   0.296   1.213   1.314 -0.1108 -0.0641  0.7192
  896MPD2    H513137   0.243   1.278   1.372 -1.9290 -1.0255  0.1321
  896MPD2    N113138   0.549   1.621   1.282 -1.0104  0.5860 -0.4050
  896MPD2    H713139   0.618   1.674   1.230 -0.2352  0.1328  0.1580
  897MPD2     C13140   1.541   3.576  10.625 -0.7270  0.1728  0.4112
  897MPD2    C113141   1.601   3.549  10.742 -0.1726 -0.2462 -0.3599
  897MPD2    C213142   1.532   3.508  10.856 -0.3208 -0.4561  0.0451
  897MPD2    C313143   1.399   3.473  10.844 -0.2090 -0.3385 -0.1306
  897MPD2    C413144   1.334   3.501  10.732  0.2919  0.4662  0.5481
  897MPD2    C513145   1.404   3.548  10.628  0.7577  0.4083 -0.1141
  897MPD2     H13146   1.589   3.476  10.942 -0.6575 -0.6340  0.1985
  897MPD2    H113147   1.227   3.486  10.728 -0.0271  2.3075  2.4580
  897MPD2    H213148   1.591   3.617  10.538 -2.6339 -0.8155 -1.1470
  897MPD2    H313149   1.344   3.595  10.551  0.5122  3.0234  1.6801
  897MPD2     N13150   1.323   3.428  10.953 -0.4691 -0.6225  0.8086
  897MPD2    H513151   1.229   3.401  10.925 -1.7704  2.4445  2.1934
  897MPD2    N113152   1.738   3.583  10.740 -0.1273 -0.3982 -0.2558
  897MPD2    H713153   1.772   3.622  10.652 -2.1652  2.6181  0.2701
  898MPD2     C13154   3.592   4.057   0.106 -0.7614 -0.2422  0.1272
  898MPD2    C113155   3.527   4.171   0.149 -0.2082 -0.6304 -0.3690
  898MPD2    C213156   3.489   4.265   0.060  0.5939 -0.0790 -0.8947
  898MPD2    C313157   3.504   4.243  17.632 -0.5020  0.3069  0.5211
  898MPD2    C413158   3.557   4.126  17.581  0.0380  0.6635  0.6460
  898MPD2    C513159   3.602   4.032  17.669 -0.3502  1.1464 -0.6603
  898MPD2     H13160   3.445   4.361   0.087 -0.7111 -1.1015  0.5799
  898MPD2    H113161   3.560   4.106  17.475  1.8440 -2.2722  1.2504
  898MPD2    H213162   3.622   3.978   0.174  0.8924  0.8602  0.6696
  898MPD2    H313163   3.635   3.940  17.622  0.6609  0.9748  0.3651
  898MPD2     N13164   3.456   4.345  17.556  1.1664  0.4608  0.1817
  898MPD2    H513165   3.428   4.431  17.601 -1.4939  0.4061 -1.3218
  898MPD2    N113166   3.505   4.197   0.287  0.4218  0.1616  0.1470
  898MPD2    H713167   3.471   4.292   0.301 -0.6799 -0.4386  1.6492
  899MPD2     C13168   3.670   0.130   0.330  0.1047  0.6951  0.0182
  899MPD2    C113169   3.760   0.236   0.333  0.0301 -0.5197 -0.5370
  899MPD2    C213170   3.748   0.334   0.433  0.0397 -0.3741  0.3377
  899MPD2    C313171   3.655   0.321   0.533  0.7857 -0.5064  0.3855
  899MPD2    C413172   3.581   0.205   0.542  0.2268 -0.0531  0.1475
  899MPD2    C513173   3.589   0.113   0.438  0.4941  1.1616  0.0516
  899MPD2     H13174   3.811   0.421   0.420  1.4670 -1.1699  1.9458
  899MPD2    H113175   3.526   0.175   0.631  1.1134  0.4993  0.8824
  899MPD2    H213176   3.667   0.067   0.243 -0.4755  0.5307  0.1571
  899MPD2    H313177   3.539   0.016   0.439  0.9520  0.9125 -0.9868
  899MPD2     N13178   3.632   0.418   0.633  1.0188  0.4918  0.0584
  899MPD2    H513179   3.553   0.396   0.692  0.4229  0.3640 -0.7765
  899MPD2    N113180   3.837   0.246   0.220 -0.5804  0.0201  0.0670
  899MPD2    H713181   3.816   0.188   0.139 -1.1095 -0.1117  0.3044
  900MPD2     C13182   3.734   2.075  12.661  0.2395  0.1518  0.7908
  900MPD2    C113183   3.798   2.010  12.555 -0.0275 -0.5787 -0.5972
  900MPD2    C213184   3.755   2.046  12.431  0.5069 -0.2378  0.0859
  900MPD2    C313185   3.654   2.140  12.408 -0.2858  0.5558  0.3793
  900MPD2    C413186   3.601   2.200  12.515  0.2471 -0.4393 -0.0905
  900MPD2    C513187   3.639   2.169  12.639 -0.6927  0.0344  0.4981
  900MPD2     H13188   3.796   1.985  12.351 -1.4598 -0.9645 -0.3830
  900MPD2    H113189   3.520   2.270  12.497 -0.5793 -1.3123  0.1779
  900MPD2    H213190   3.754   2.065  12.767 -1.7572  2.7596  1.3905
  900MPD2    H313191   3.605   2.222  12.727 -1.3734  0.8692 -0.2665
  900MPD2     N13192   3.620   2.162  12.272  0.0397  0.3659 -0.4983
  900MPD2    H513193   3.675   2.108  12.206  1.2234  0.0563  0.7373
  900MPD2    N113194   3.895   1.917  12.584  0.5685  0.6753 -0.1271
  900MPD2    H713195   3.904   1.891  12.682 -0.4403  0.5321 -0.0724
  901MPD2     C13196   3.809   0.968  12.360  0.2081 -0.0869 -0.3758
  901MPD2    C113197   3.921   0.947  12.439  0.0143  0.0347 -0.3896
  901MPD2    C213198   3.999   1.050  12.489  0.5982 -0.6981  0.2924
  901MPD2    C313199   3.956   1.184  12.462  0.8404 -0.0963 -0.3902
  901MPD2    C413200   3.846   1.202  12.375 -0.0330  0.0012  0.8274
  901MPD2    C513201   3.769   1.099  12.325  0.2495  0.1188 -0.7584
  901MPD2     H13202   4.086   1.034  12.552  0.2429  0.9944  1.2290
  901MPD2    H113203   3.806   1.301  12.356  0.6990  0.1410 -0.0136
  901MPD2    H213204   3.762   0.878  12.322 -0.0973 -0.7257  1.4779
  901MPD2    H313205   3.689   1.125  12.257 -0.9119 -1.2510  0.0765
  901MPD2     N13206   4.013   1.292  12.530 -0.0725 -0.7011 -0.4890
  901MPD2    H513207   4.102   1.278  12.577  0.7398 -3.0997 -2.7362
  901MPD2    N113208   3.957   0.811  12.456 -0.3412  0.4918  0.6435
  901MPD2    H713209   3.884   0.743  12.440 -0.3719  0.3531  1.3799
  902MPD2     C13210   3.316   4.143  12.563 -0.0670 -0.2487  0.3659
  902MPD2    C113211   3.304   4.195  12.440  0.6392 -0.5148 -0.7737
  902MPD2    C213212   3.376   4.149  12.336 -0.1993 -0.1784 -0.2301
  902MPD2    C313213   3.456   4.035  12.348 -0.1042 -0.3263 -0.1972
  902MPD2    C413214   3.472   3.982  12.476  0.0698  0.3433 -0.1518
  902MPD2    C513215   3.399   4.037  12.576  0.1288  0.0948  0.5392
  902MPD2     H13216   3.354   4.194  12.240  0.6572 -0.4661 -0.5553
  902MPD2    H113217   3.524   3.893  12.510  0.1339  0.3894 -0.1293
  902MPD2    H213218   3.250   4.167  12.645 -0.7494  0.7432 -0.4697
  902MPD2    H313219   3.380   3.989  12.671  1.0600  0.7311  1.0498
  902MPD2     N13220   3.522   3.983  12.238 -0.6801  0.1587  0.0605
  902MPD2    H513221   3.547   3.884  12.244  0.5752  0.5601  1.2851
  902MPD2    N113222   3.206   4.301  12.432 -0.3651  0.2463 -1.0258
  902MPD2    H713223   3.163   4.324  12.521  0.3787 -4.0932  0.4520
  903MPD2     C13224   3.489   4.357  11.574  0.0691  0.2689 -0.2046
  903MPD2    C113225   3.434   4.233  11.607  0.1207 -0.2197 -0.4238
  903MPD2    C213226   3.297   4.217  11.627 -0.7314  0.1372 -0.1817
  903MPD2    C313227   3.208   4.320  11.604 -0.1392 -0.0843 -0.0650
  903MPD2    C413228   3.262   4.442  11.563 -0.5976 -0.1594  0.5023
  903MPD2    C513229   3.395   4.459  11.557 -0.3217 -0.2714  0.2179
  903MPD2     H13230   3.264   4.124  11.672 -1.2381  0.2295 -0.3576
  903MPD2    H113231   3.187   4.519  11.551 -1.2308 -0.5351  2.0080
  903MPD2    H213232   3.593   4.384  11.560  0.0559  0.2447 -0.3474
  903MPD2    H313233   3.436   4.555  11.529  1.0467 -1.4200 -1.7268
  903MPD2     N13234   3.069   4.290  11.631 -0.5810  0.0033 -0.4451
  903MPD2    H513235   3.054   4.193  11.655  3.1149 -0.7195 -1.0469
  903MPD2    N113236   3.526   4.132  11.646  0.1777  0.1881 -0.1925
  903MPD2    H713237   3.621   4.156  11.674 -0.0951  0.4314  0.5187
  904MPD2     C13238   2.443   3.547  13.624  0.3179 -0.2208  0.9070
  904MPD2    C113239   2.421   3.458  13.724  0.8160  0.8452 -0.4336
  904MPD2    C213240   2.512   3.462  13.831  0.2656 -0.4261  0.4378
  904MPD2    C313241   2.612   3.558  13.850  0.5195  0.0330  0.1509
  904MPD2    C413242   2.619   3.650  13.742  0.1108 -0.0183 -0.3224
  904MPD2    C513243   2.537   3.646  13.631 -0.0351 -0.1004 -0.0954
  904MPD2     H13244   2.507   3.387  13.908  1.3931  0.9656  1.8740
  904MPD2    H113245   2.692   3.730  13.749  0.8058 -0.6851  0.0135
  904MPD2    H213246   2.385   3.547  13.533  2.4909  2.4886 -0.4955
  904MPD2    H313247   2.533   3.724  13.556  1.0996 -0.0382 -0.0900
  904MPD2     N13248   2.701   3.546  13.959 -0.1337 -1.1257 -0.1653
  904MPD2    H513249   2.699   3.458  14.010 -3.3548 -1.0759 -0.2259
  904MPD2    N113250   2.319   3.357  13.728 -0.2627  0.0678  0.1169
  904MPD2    H713251   2.339   3.289  13.800  1.1506  0.4505  0.0963
  905MPD2     C13252   2.430   3.365  13.033 -0.2674  0.0541  0.7981
  905MPD2    C113253   2.409   3.466  13.129 -0.1824 -0.0881  0.7367
  905MPD2    C213254   2.521   3.540  13.170  0.9131 -0.1832  0.8992
  905MPD2    C313255   2.653   3.500  13.128 -0.2138 -0.6029  0.1670
  905MPD2    C413256   2.665   3.402  13.035 -0.3671  0.7475 -0.8158
  905MPD2    C513257   2.553   3.336  12.991 -0.3182 -0.2628  0.1783
  905MPD2     H13258   2.521   3.605  13.256  1.6505 -0.1751  0.8996
  905MPD2    H113259   2.767   3.377  13.005 -1.0662 -1.0905 -1.7034
  905MPD2    H213260   2.356   3.304  12.982  0.6381 -0.3158 -0.0740
  905MPD2    H313261   2.565   3.257  12.918 -3.3104  1.4543 -2.1714
  905MPD2     N13262   2.774   3.551  13.183  0.1479  0.2297  0.2892
  905MPD2    H513263   2.857   3.501  13.155 -0.4376 -1.1805  1.0764
  905MPD2    N113264   2.281   3.481  13.188  0.1266  0.8150 -0.0128
  905MPD2    H713265   2.229   3.394  13.191 -1.5749  1.8521  0.3821
  906MPD2     C13266   4.724   3.529  11.628 -0.4401  0.2374 -0.3979
  906MPD2    C113267   4.721   3.455  11.511 -0.0131  0.4588  0.3153
  906MPD2    C213268   4.683   3.320  11.517 -0.2628 -0.6775  0.4493
  906MPD2    C313269   4.657   3.266  11.642  0.6863 -0.8486  0.1239
  906MPD2    C413270   4.663   3.343  11.751  0.0195  0.2592  0.6481
  906MPD2    C513271   4.690   3.475  11.749 -0.1466  0.0391 -0.1661
  906MPD2     H13272   4.672   3.259  11.428  0.5606  0.6792 -0.6063
  906MPD2    H113273   4.635   3.301  11.847 -3.3877  0.0877 -0.4273
  906MPD2    H213274   0.017   3.636  11.623 -0.0447  0.2404  1.1217
  906MPD2    H313275   4.685   3.525  11.845 -1.0408  0.6714 -0.5352
  906MPD2     N13276   4.625   3.127  11.655  0.0311 -0.1475  0.2054
  906MPD2    H513277   4.624   3.100  11.753 -0.4304  0.7009  0.4332
  906MPD2    N113278   0.019   3.517  11.390  0.0666  0.4102  0.0976
  906MPD2    H713279   4.718   3.470  11.304 -1.1279 -0.3188  0.8645
  907MPD2     C13280   3.532   2.664  16.047 -0.1298  0.2946  0.0384
  907MPD2    C113281   3.562   2.532  16.026  0.1127  0.6391  0.2563
  907MPD2    C213282   3.612   2.462  16.134 -0.3507 -0.3860  0.0714
  907MPD2    C313283   3.629   2.509  16.262 -0.2633 -0.2112 -0.8623
  907MPD2    C413284   3.589   2.646  16.286  0.4350  0.0346 -0.1189
  907MPD2    C513285   3.548   2.719  16.175  0.4791  0.2261 -0.2244
  907MPD2     H13286   3.642   2.360  16.114  0.1684 -0.0800 -0.6878
  907MPD2    H113287   3.596   2.688  16.385  0.3485 -0.1779 -0.0217
  907MPD2    H213288   3.496   2.733  15.971  1.3208  3.0228  1.8146
  907MPD2    H313289   3.519   2.823  16.178  0.8902  0.2903  1.4503
  907MPD2     N13290   3.667   2.411  16.355  0.4676 -0.6208 -0.3408
  907MPD2    H513291   3.693   2.320  16.318 -0.3052 -1.1704  0.4589
  907MPD2    N113292   3.551   2.480  15.895  0.2573  0.7587  0.2336
  907MPD2    H713293   3.558   2.379  15.893 -1.3786  0.5956  4.0859
  908MPD2     C13294   2.158   3.487  10.039 -0.1813 -0.1414  0.1264
  908MPD2    C113295   2.135   3.378  10.122  0.5190  0.0195  0.3166
  908MPD2    C213296   2.144   3.395  10.260  0.2280 -0.4729 -0.1444
  908MPD2    C313297   2.167   3.515  10.316 -0.0853  0.1637 -0.0596
  908MPD2    C413298   2.161   3.625  10.233  0.6888  0.0743  0.1393
  908MPD2    C513299   2.170   3.609  10.097  0.2362  0.4411 -0.2787
  908MPD2     H13300   2.116   3.311  10.323 -0.8731 -0.3766 -0.5012
  908MPD2    H113301   2.153   3.724  10.275 -0.1136 -0.0039  0.1681
  908MPD2    H213302   2.147   3.471   9.932 -2.1524  1.0816  0.1461
  908MPD2    H313303   2.162   3.693  10.029  0.3278 -0.0983 -0.9572
  908MPD2     N13304   2.142   3.530  10.457 -0.3101  0.3016  0.0690
  908MPD2    H513305   2.096   3.454  10.504  0.0075  0.2648  0.3187
  908MPD2    N113306   2.101   3.246  10.083 -0.1741 -0.7802 -0.2954
  908MPD2    H713307   2.084   3.175  10.154 -0.8756  0.1244  0.4576
  909MPD2     C13308   1.949   1.448  11.692 -0.6980 -0.1526  0.1041
  909MPD2    C113309   1.925   1.585  11.692  0.0330  0.0177 -1.0831
  909MPD2    C213310   1.848   1.639  11.795 -0.0196  0.4715  0.7024
  909MPD2    C313311   1.788   1.560  11.892 -0.3552 -0.8933 -0.3076
  909MPD2    C413312   1.817   1.427  11.890  0.5569  0.1727 -0.2548
  909MPD2    C513313   1.900   1.375  11.793 -0.3369 -0.4883  0.5558
  909MPD2     H13314   1.838   1.747  11.795  3.1105  0.7831  1.2030
  909MPD2    H113315   1.768   1.359  11.959 -0.2021  1.7635  0.7557
  909MPD2    H213316   2.025   1.392  11.639 -0.9416 -0.5617  0.1885
  909MPD2    H313317   1.904   1.267  11.781 -0.4257 -0.2935 -1.2162
  909MPD2     N13318   1.699   1.621  11.988  0.0908 -0.0366  0.2789
  909MPD2    H513319   1.677   1.715  11.959  0.4250 -0.8926 -2.7546
  909MPD2    N113320   1.983   1.670  11.588 -0.2675  0.1940  0.3707
  909MPD2    H713321   1.963   1.769  11.594 -1.7384  0.0470 -1.7239
  910MPD2     C13322   2.773   3.042  15.673 -0.2442 -0.4866 -0.1845
  910MPD2    C113323   2.904   3.009  15.655  0.5564 -0.0917 -0.8613
  910MPD2    C213324   2.955   3.025  15.529 -0.1559  0.6812  0.4249
  910MPD2    C313325   2.887   3.087  15.424 -0.4512 -0.4928 -0.1759
  910MPD2    C413326   2.754   3.113  15.440 -0.6179  0.2749  0.0571
  910MPD2    C513327   2.698   3.078  15.564 -0.1593 -0.3864  0.4941
  910MPD2     H13328   3.061   3.012  15.512 -0.2616 -0.4958  0.6302
  910MPD2    H113329   2.687   3.145  15.361 -0.3740 -2.3031 -1.1905
  910MPD2    H213330   2.710   3.032  15.760 -1.1215 -0.8577 -0.8707
  910MPD2    H313331   2.592   3.096  15.577 -0.0809  0.1230  0.4077
  910MPD2     N13332   2.932   3.097  15.290  0.3843 -0.1811 -0.6751
  910MPD2    H513333   2.860   3.112  15.220  1.0804  1.3466 -1.0608
  910MPD2    N113334   2.983   2.960  15.763 -0.0256  0.1834 -0.8745
  910MPD2    H713335   3.077   2.932  15.738 -0.5057 -1.7313 -0.4981
  911MPD2     C13336   0.569   3.719  16.312  0.5508  0.3216  0.5781
  911MPD2    C113337   0.651   3.828  16.329  0.1675  0.2427 -0.5045
  911MPD2    C213338   0.622   3.946  16.269 -0.7619  0.2028  0.4971
  911MPD2    C313339   0.509   3.958  16.192 -0.3454 -0.3036 -0.2792
  911MPD2    C413340   0.422   3.852  16.182  0.0506 -0.3628 -0.5596
  911MPD2    C513341   0.452   3.734  16.245  0.9048  0.6845 -0.2300
  911MPD2     H13342   0.694   4.027  16.275  0.2691 -0.5666 -1.6299
  911MPD2    H113343   0.329   3.865  16.127  0.1257  1.5299 -0.2531
  911MPD2    H213344   0.598   3.624  16.358  0.5718 -1.3505 -2.9294
  911MPD2    H313345   0.386   3.648  16.252  1.2915  0.3595 -0.6079
  911MPD2     N13346   0.483   4.078  16.122  0.8008  0.2593  0.7065
  911MPD2    H513347   0.391   4.084  16.079  0.7242  1.3238  1.0155
  911MPD2    N113348   0.767   3.796  16.408  0.4185 -0.0445 -0.9158
  911MPD2    H713349   0.794   3.699  16.415  0.0284 -0.1105 -0.2623
  912MPD2     C13350   0.371   3.750  15.723 -0.0579  0.4828 -0.0105
  912MPD2    C113351   0.305   3.827  15.820  0.2945  0.4935  0.1770
  912MPD2    C213352   0.241   3.754  15.922  0.5789 -0.1098 -0.1334
  912MPD2    C313353   0.252   3.619  15.924 -0.8213  0.8611 -0.2231
  912MPD2    C413354   0.320   3.545  15.828  0.7750  0.3708 -0.0822
  912MPD2    C513355   0.371   3.614  15.719 -0.2680  0.6050  0.0116
  912MPD2     H13356   0.190   3.804  16.004  1.7196  1.6973 -0.5252
  912MPD2    H113357   0.320   3.436  15.826  1.7167  0.3565  0.5093
  912MPD2    H213358   0.424   3.810  15.649  0.6631  0.7039  0.6920
  912MPD2    H313359   0.407   3.557  15.634 -1.6795  0.4253 -0.4627
  912MPD2     N13360   0.187   3.545  16.032 -0.6009  0.9380 -0.0186
  912MPD2    H513361   0.121   3.595  16.091 -0.1469  1.0133  0.4284
  912MPD2    N113362   0.309   3.966  15.802 -0.1305  0.4618 -0.0180
  912MPD2    H713363   0.366   3.997  15.723 -0.5095  0.9769 -0.0900
  913MPD2     C13364   1.333   4.574  11.477 -0.3270  0.0926  0.2555
  913MPD2    C113365   1.302   4.704  11.486 -0.1130  0.2024 -0.1954
  913MPD2    C213366   1.280   0.055  11.374 -0.1324 -0.4902  0.6258
  913MPD2    C313367   1.286   0.002  11.249  0.4575 -0.4502  0.5873
  913MPD2    C413368   1.324   4.595  11.234  0.1037 -0.4020  0.0578
  913MPD2    C513369   1.352   4.521  11.352 -0.5115 -0.3895  0.5350
  913MPD2     H13370   1.246   0.156  11.390 -0.6220 -0.5969  0.2738
  913MPD2    H113371   1.325   4.543  11.139  1.0618 -1.0482  0.4151
  913MPD2    H213372   1.340   4.509  11.564  0.9812 -1.2700 -0.8935
  913MPD2    H313373   1.377   4.416  11.345 -0.3764 -0.3548  0.5042
  913MPD2     N13374   1.249   0.070  11.132  0.2718 -0.3104  0.2707
  913MPD2    H513375   1.256   0.021  11.044  0.2789 -0.3317  0.2831
  913MPD2    N113376   1.308   0.034  11.614 -0.0520 -0.4103 -0.1244
  913MPD2    H713377   1.317   4.704  11.699  0.9293  0.6232  0.4314
  914MPD2     C13378   3.740   0.351  11.811  0.3190  0.4110  0.2654
  914MPD2    C113379   3.796   0.479  11.826 -0.4820 -0.8030 -0.2329
  914MPD2    C213380   3.861   0.516  11.947  0.3308  0.5536 -0.3684
  914MPD2    C313381   3.881   0.411  12.044 -0.3498  0.6728 -0.0893
  914MPD2    C413382   3.820   0.288  12.027  0.3419  0.0615  0.6693
  914MPD2    C513383   3.748   0.260  11.916 -0.7368 -0.0622  0.0314
  914MPD2     H13384   3.899   0.616  11.966  2.5913 -0.8276  2.3250
  914MPD2    H113385   3.827   0.202  12.093 -0.9212 -1.1688 -0.7829
  914MPD2    H213386   3.694   0.338  11.714 -0.2446 -0.0377  0.5983
  914MPD2    H313387   3.707   0.163  11.892 -0.9904 -0.1036  0.6336
  914MPD2     N13388   3.963   0.436  12.154  0.5388 -0.2250  0.0844
  914MPD2    H513389   4.007   0.527  12.163  1.5468 -0.3939 -2.9451
  914MPD2    N113390   3.760   0.577  11.726  0.0698  0.0843 -0.6897
  914MPD2    H713391   3.698   0.548  11.651 -0.4177 -3.0789  0.9586
  915MPD2     C13392   2.086   0.449  15.955 -0.2848 -0.5742 -0.0517
  915MPD2    C113393   1.952   0.443  15.954  0.2634 -0.3065 -0.0297
  915MPD2    C213394   1.880   0.472  16.064  0.5606  0.8426 -0.9325
  915MPD2    C313395   1.931   0.511  16.181 -0.0416  0.5423 -0.5976
  915MPD2    C413396   2.073   0.515  16.181 -0.4087  0.5360 -0.1152
  915MPD2    C513397   2.144   0.493  16.070  0.7055 -0.3283  0.0977
  915MPD2     H13398   1.775   0.454  16.045  0.5694 -1.5707  1.2707
  915MPD2    H113399   2.140   0.547  16.260 -0.2453  0.7201 -0.3312
  915MPD2    H213400   2.154   0.422  15.875 -1.5890 -0.8870 -1.0532
  915MPD2    H313401   2.252   0.497  16.066  0.7260 -2.1531 -1.4486
  915MPD2     N13402   1.847   0.551  16.287  0.5483 -0.2914 -0.6363
  915MPD2    H513403   1.747   0.556  16.270  0.1061  1.0783  2.4015
  915MPD2    N113404   1.899   0.398  15.833  0.4862  0.0288  0.2529
  915MPD2    H713405   1.962   0.395  15.753 -1.5964  0.2916 -1.3801
  916MPD2     C13406   4.640   3.652  15.652  0.2848 -0.7674  0.1845
  916MPD2    C113407   4.627   3.565  15.760  0.0645 -0.3193  0.1648
  916MPD2    C213408   4.693   3.447  15.778 -0.0394  0.1127 -0.1628
  916MPD2    C313409   0.059   3.415  15.676  0.2500 -0.3777 -0.6743
  916MPD2    C413410   0.085   3.505  15.575 -0.1926  0.8270  0.2134
  916MPD2    C513411   0.014   3.627  15.564  0.5373 -0.5692 -0.5856
  916MPD2     H13412   4.676   3.376  15.857 -0.4009  0.2543 -0.1120
  916MPD2    H113413   0.160   3.472  15.503 -0.1253  2.6382 -0.5451
  916MPD2    H213414   4.586   3.746  15.647 -0.5378 -1.0596  3.2359
  916MPD2    H313415   0.062   3.706  15.508  0.8595 -0.4010 -0.0717
  916MPD2     N13416   0.119   3.283  15.680 -0.4854 -0.6478 -0.2019
  916MPD2    H513417   0.083   3.219  15.750 -0.3950  0.2533  0.6625
  916MPD2    N113418   4.530   3.599  15.857  0.0101 -0.5702  0.4875
  916MPD2    H713419   4.481   3.686  15.842  2.0789  0.1977 -1.9180
  917MPD2     C13420   0.484   0.950  11.235 -0.1374  0.0477  0.2139
  917MPD2    C113421   0.547   0.980  11.352 -0.8736  0.3309 -0.1580
  917MPD2    C213422   0.642   1.078  11.356 -0.5004  0.3850  0.0181
  917MPD2    C313423   0.658   1.167  11.250  0.0506 -0.4610 -0.4238
  917MPD2    C413424   0.594   1.144  11.133 -0.6411 -0.1122  0.4910
  917MPD2    C513425   0.514   1.028  11.129  0.1401 -0.5650  0.5304
  917MPD2     H13426   0.697   1.094  11.448 -1.9056 -0.1886  0.9481
  917MPD2    H113427   0.605   1.207  11.046 -0.9007  0.6026  0.9701
  917MPD2    H213428   0.408   0.872  11.234 -2.1518  2.0311 -1.8678
  917MPD2    H313429   0.463   1.008  11.035 -0.0404 -0.5787  0.6322
  917MPD2     N13430   0.755   1.269  11.246  0.4542 -0.1462 -0.0924
  917MPD2    H513431   0.756   1.330  11.165 -1.4386 -0.2571 -0.2059
  917MPD2    N113432   0.511   0.907  11.466  0.4061 -0.0266  0.4583
  917MPD2    H713433   0.457   0.822  11.454 -0.1100 -0.0696  2.8988
  918MPD2     C13434   0.428   1.427  12.208 -0.3261  0.2210 -0.3254
  918MPD2    C113435   0.515   1.330  12.253  0.1785 -0.4011  0.3854
  918MPD2    C213436   0.506   1.207  12.205 -0.1221  0.1268 -0.0906
  918MPD2    C313437   0.407   1.173  12.117  0.6229 -0.9653  0.2090
  918MPD2    C413438   0.327   1.268  12.059  0.1015 -0.5077 -0.1862
  918MPD2    C513439   0.332   1.392  12.113  0.2178 -0.6105  0.3548
  918MPD2     H13440   0.579   1.128  12.218 -0.2905  0.4356  2.6869
  918MPD2    H113441   0.257   1.238  11.982  2.9186  1.4950 -3.5453
  918MPD2    H213442   0.434   1.531  12.236  1.2285 -0.0458  0.3178
  918MPD2    H313443   0.253   1.458  12.081 -1.9752 -3.3068  0.2317
  918MPD2     N13444   0.418   1.049  12.063  0.4735 -0.5492 -0.9101
  918MPD2    H513445   0.499   0.989  12.075 -0.6513 -2.0306 -0.7137
  918MPD2    N113446   0.621   1.361  12.341 -0.0198  0.6327  0.0773
  918MPD2    H713447   0.669   1.273  12.361 -0.3004  0.7447  1.2628
  919MPD2     C13448   0.957   0.211  11.919  0.1206 -0.1186 -0.3604
  919MPD2    C113449   0.965   0.072  11.898 -1.0135  0.4585 -0.0254
  919MPD2    C213450   0.934   0.016  11.775  0.3292 -0.6289 -0.2075
  919MPD2    C313451   0.902   0.101  11.673  0.0124 -0.2442  0.4016
  919MPD2    C413452   0.900   0.240  11.695  0.0795  0.7017  0.8238
  919MPD2    C513453   0.933   0.290  11.816 -0.3881  0.4944 -0.2792
  919MPD2     H13454   0.940   4.635  11.751  2.6761 -0.9848  1.8798
  919MPD2    H113455   0.885   0.313  11.617  1.1662 -0.7301 -0.7152
  919MPD2    H213456   1.008   0.260  12.001 -0.8640 -1.2462  0.9245
  919MPD2    H313457   0.936   0.397  11.833  0.4831  0.3643  0.4144
  919MPD2     N13458   0.887   0.057  11.541 -0.3159 -0.2147 -0.3220
  919MPD2    H513459   0.883   0.128  11.469 -0.7692  2.3132  2.1975
  919MPD2    N113460   0.992   4.707  12.007 -0.1883 -0.3715 -0.4125
  919MPD2    H713461   0.981   4.608  11.988 -1.0770 -0.0921 -1.4146
  920MPD2     C13462   0.597   0.406  10.664  0.1410  0.4889 -0.5536
  920MPD2    C113463   0.552   0.272  10.653  0.0659 -0.0127 -0.3861
  920MPD2    C213464   0.567   0.185  10.757  0.6407 -0.4826  0.3121
  920MPD2    C313465   0.653   0.215  10.867  0.3825 -0.2420  0.1068
  920MPD2    C413466   0.695   0.346  10.870 -0.0175  0.2475  0.3513
  920MPD2    C513467   0.663   0.442  10.779 -0.2814 -0.0994  0.2161
  920MPD2     H13468   0.540   0.080  10.746  1.1309 -0.3773 -1.8403
  920MPD2    H113469   0.748   0.377  10.960 -1.4424 -0.7034  1.5185
  920MPD2    H213470   0.584   0.484  10.590  0.0315  0.9297 -0.0770
  920MPD2    H313471   0.708   0.538  10.801 -1.1339 -0.3580  3.1005
  920MPD2     N13472   0.684   0.107  10.958 -0.6248 -0.3803 -0.5781
  920MPD2    H513473   0.656   0.013  10.931 -2.3045  0.3641 -1.4614
  920MPD2    N113474   0.478   0.232  10.542 -0.3446  0.7787  0.2826
  920MPD2    H713475   0.449   0.136  10.556 -1.0642  0.9825  0.2036
  921MPD2     C13476   1.454   4.352  16.537  0.0992  0.1409  0.0149
  921MPD2    C113477   1.486   4.219  16.518 -0.2931 -0.0882 -0.0119
  921MPD2    C213478   1.398   4.125  16.566 -1.2008 -0.8305 -0.4539
  921MPD2    C313479   1.281   4.164  16.638 -0.1639 -0.2020  0.7564
  921MPD2    C413480   1.243   4.294  16.622 -0.1418  0.5817 -0.4972
  921MPD2    C513481   1.332   4.391  16.567  0.1967 -0.5367 -0.9753
  921MPD2     H13482   1.422   4.020  16.550  0.8881 -0.6276  1.4726
  921MPD2    H113483   1.146   4.327  16.657  0.3020  0.0470  1.2243
  921MPD2    H213484   1.522   4.428  16.501  2.6785 -1.7678  0.8261
  921MPD2    H313485   1.299   4.493  16.576 -1.4223 -1.2542  1.1924
  921MPD2     N13486   1.191   4.065  16.685 -0.7987 -0.1569  0.0300
  921MPD2    H513487   1.094   4.093  16.679 -0.9586 -1.0003 -1.2510
  921MPD2    N113488   1.608   4.183  16.456 -0.7409 -0.1394  0.4429
  921MPD2    H713489   1.672   4.262  16.450 -0.6515 -0.2486 -0.0985
  922MPD2     C13490   2.682   1.213  17.551 -0.0200  0.0609 -0.5419
  922MPD2    C113491   2.641   1.287  17.440  0.0078  0.1699 -0.0232
  922MPD2    C213492   2.526   1.366  17.449  0.5730  0.1373 -0.2911
  922MPD2    C313493   2.448   1.374  17.566  0.6498  0.0857 -0.4476
  922MPD2    C413494   2.501   1.314  17.677 -0.5999 -0.3071  0.8442
  922MPD2    C513495   2.608   1.239  17.668 -1.2791 -0.4477  0.2652
  922MPD2     H13496   2.494   1.427  17.365  0.6274 -1.9482 -1.8096
  922MPD2    H113497   2.451   1.303   0.071  1.0122  2.7597  2.0644
  922MPD2    H213498   2.762   1.140  17.554 -1.8533 -1.9137 -0.0591
  922MPD2    H313499   2.637   1.192   0.060 -1.3214 -0.2596  0.3742
  922MPD2     N13500   2.315   1.436  17.571  0.4282 -0.0366 -0.2693
  922MPD2    H513501   2.279   1.470  17.482  1.4776  0.6805 -0.4186
  922MPD2    N113502   2.720   1.302  17.327  0.3994  0.4587  0.0694
  922MPD2    H713503   2.691   1.372  17.260  0.6326 -0.0174 -0.5262
  923MPD2     C13504   4.428   3.440   9.147  0.0310  0.4904 -0.1877
  923MPD2    C113505   4.400   3.568   9.186 -0.0529 -0.4287  0.4649
  923MPD2    C213506   4.473   3.626   9.287 -0.0479  0.6497  0.6213
  923MPD2    C313507   4.558   3.555   9.363  0.5320  0.4884  0.2016
  923MPD2    C413508   4.585   3.423   9.324 -0.3794 -0.1174  0.4563
  923MPD2    C513509   4.530   3.374   9.208 -0.0823  0.1678  0.3513
  923MPD2     H13510   4.447   3.727   9.316  0.7259  1.0915 -0.2329
  923MPD2    H113511   4.638   3.349   9.384  1.1977  2.1087  1.8171
  923MPD2    H213512   4.366   3.388   9.074  2.6495  0.6174 -2.5077
  923MPD2    H313513   4.545   3.269   9.189 -1.7132 -0.0441  0.1624
  923MPD2     N13514   4.629   3.597   9.473  0.0688 -0.3438 -0.0077
  923MPD2    H513515   4.689   3.528   9.516 -1.0382  0.1099  2.2406
  923MPD2    N113516   4.312   3.642   9.107 -0.2673  0.1565  0.6592
  923MPD2    H713517   4.286   3.596   9.021  2.0010  0.7084 -0.3463
  924MPD2     C13518   3.806   1.639  16.208 -0.6535  1.1985  0.1967
  924MPD2    C113519   3.758   1.646  16.338  0.2068 -0.0935  0.3818
  924MPD2    C213520   3.781   1.757  16.419  0.6699 -0.1709  0.7521
  924MPD2    C313521   3.851   1.863  16.363 -0.4165  0.1715 -0.5343
  924MPD2    C413522   3.894   1.855  16.232 -0.4259  0.0809 -0.2906
  924MPD2    C513523   3.879   1.739  16.155  0.3226 -0.1479  0.5840
  924MPD2     H13524   3.769   1.753  16.527  1.0745 -0.4958  0.7876
  924MPD2    H113525   3.963   1.923  16.184 -0.7704 -0.5761 -1.7147
  924MPD2    H213526   3.806   1.545  16.155 -2.5919  1.3474 -0.0633
  924MPD2    H313527   3.921   1.731  16.056 -1.8738 -1.3180 -0.2753
  924MPD2     N13528   3.876   1.984  16.434  0.3428 -0.1545  0.3711
  924MPD2    H513529   3.906   2.072  16.392 -1.5696 -0.7332 -2.2743
  924MPD2    N113530   3.697   1.532  16.396 -0.4794  0.5627 -0.0366
  924MPD2    H713531   3.718   1.444  16.351 -0.2817  0.3451  0.4840
  925MPD2     C13532   2.928   4.464  14.854 -0.2597  0.2453  0.0663
  925MPD2    C113533   2.812   4.477  14.774 -0.6045  0.2657  0.0368
  925MPD2    C213534   2.686   4.476  14.840 -0.4650 -0.5172 -0.2767
  925MPD2    C313535   2.677   4.464  14.978 -0.5667 -0.0999 -0.3087
  925MPD2    C413536   2.786   4.450  15.053 -0.4816 -0.1813 -0.4630
  925MPD2    C513537   2.912   4.448  14.991  0.5454 -0.2672 -0.6633
  925MPD2     H13538   2.603   4.500  14.774  0.7097 -1.7202 -2.2218
  925MPD2    H113539   2.781   4.438  15.161  1.8276  2.4632 -0.0779
  925MPD2    H213540   3.027   4.470  14.811  0.0370  0.2486  0.7611
  925MPD2    H313541   3.005   4.439  15.047 -0.1901  0.4431  0.6738
  925MPD2     N13542   2.556   4.469  15.049  0.0571 -0.2888 -0.0707
  925MPD2    H513543   2.568   4.470  15.150 -0.8520  0.9643  0.0213
  925MPD2    N113544   2.816   4.492  14.633 -0.1674 -0.0976 -0.5950
  925MPD2    H713545   2.731   4.507  14.579  0.0789 -1.7030 -1.4390
  926MPD2     C13546   1.086   2.529  13.757 -0.2052  0.0391  0.1030
  926MPD2    C113547   0.961   2.581  13.723  0.1546  0.5124  0.6152
  926MPD2    C213548   0.944   2.620  13.591 -0.3608 -1.0393  0.3285
  926MPD2    C313549   1.053   2.609  13.493  0.6323  0.0427  0.0505
  926MPD2    C413550   1.171   2.546  13.534 -0.7995 -0.2489 -0.1920
  926MPD2    C513551   1.182   2.511  13.669  0.1177 -0.1037 -0.2579
  926MPD2     H13552   0.847   2.665  13.574 -0.7622 -0.9331  2.8693
  926MPD2    H113553   1.250   2.534  13.461 -3.3204  1.0731 -3.1333
  926MPD2    H213554   1.111   2.498  13.858  0.7167 -2.4286 -0.8762
  926MPD2    H313555   1.271   2.466  13.711  0.6093  1.2925  0.1724
  926MPD2     N13556   1.047   2.648  13.358  0.0867 -0.1123  0.3522
  926MPD2    H513557   1.119   2.616  13.294  1.1082  0.9137  0.9954
  926MPD2    N113558   0.852   2.602  13.809 -0.4381 -0.0711 -1.0676
  926MPD2    H713559   0.766   2.640  13.771 -1.6881 -2.4253 -0.6354
  927MPD2     C13560   1.412   0.275   0.552  0.5430 -0.2991  0.0607
  927MPD2    C113561   1.429   0.410   0.531  0.1673  1.0805  0.3825
  927MPD2    C213562   1.497   0.456   0.414 -0.0695  1.2532  0.1687
  927MPD2    C313563   1.549   0.361   0.326  0.0217 -0.0824  0.0065
  927MPD2    C413564   1.531   0.225   0.351  0.1630  0.5582  0.1281
  927MPD2    C513565   1.464   0.184   0.463  0.3647 -0.9746  0.2569
  927MPD2     H13566   1.507   0.563   0.397  2.3171  1.0314  0.1951
  927MPD2    H113567   1.572   0.151   0.283  0.8161  1.0701 -0.0286
  927MPD2    H213568   1.361   0.234   0.638 -2.1982 -0.7013 -1.7423
  927MPD2    H313569   1.465   0.078   0.485 -1.2893 -1.4501 -1.9039
  927MPD2     N13570   1.587   0.406   0.203 -0.1278  0.0610  0.1058
  927MPD2    H513571   1.581   0.504   0.178  2.0413  0.4291  1.0058
  927MPD2    N113572   1.349   0.488   0.617  0.5552 -0.6746  0.5324
  927MPD2    H713573   1.294   0.440   0.688  3.3588 -1.8379  1.9445
  928MPD2     C13574   3.587   3.494   1.170 -0.3887 -0.2125  1.0406
  928MPD2    C113575   3.700   3.574   1.189 -0.8845  0.5273  0.9275
  928MPD2    C213576   3.738   3.661   1.086 -0.7295  0.1737 -0.1930
  928MPD2    C313577   3.669   3.667   0.966 -0.7349 -0.1779  0.4866
  928MPD2    C413578   3.561   3.583   0.950 -0.0194  0.8414 -0.0391
  928MPD2    C513579   3.519   3.504   1.053  0.4285  0.1668 -0.0903
  928MPD2     H13580   3.829   3.719   1.098 -0.7550 -0.1654  1.6860
  928MPD2    H113581   3.496   3.579   0.863 -1.1438  2.3611  0.7420
  928MPD2    H213582   3.565   3.416   1.242  1.5569 -1.8475 -0.1532
  928MPD2    H313583   3.426   3.450   1.040  0.7690 -0.5792  0.5898
  928MPD2     N13584   3.711   3.756   0.864  0.3755 -0.9338 -0.3963
  928MPD2    H513585   3.675   3.748   0.770 -0.5113 -1.6571  0.0130
  928MPD2    N113586   3.773   3.558   1.316 -0.8655 -0.3040 -0.1434
  928MPD2    H713587   3.747   3.487   1.385  1.7841 -0.5831  0.5795
  929MPD2     C13588   4.181   4.035   9.975 -0.5517  0.2980  0.0214
  929MPD2    C113589   4.117   3.940   9.896 -0.2518  0.0052 -0.1089
  929MPD2    C213590   4.063   3.988   9.781 -0.5909 -0.2361  0.3548
  929MPD2    C313591   4.074   4.122   9.748  0.4085  0.3909 -0.1914
  929MPD2    C413592   4.138   4.218   9.830  0.0028  0.1554 -0.0712
  929MPD2    C513593   4.201   4.167   9.944 -0.3803  0.3090  0.0653
  929MPD2     H13594   3.978   3.937   9.737 -0.8456  2.2880 -2.0902
  929MPD2    H113595   4.145   4.323   9.805 -1.2012  0.0976 -0.6709
  929MPD2    H213596   4.220   4.006  10.071  0.1687 -1.8611 -0.9177
  929MPD2    H313597   4.273   4.224  10.001 -0.0271 -0.8815  0.8091
  929MPD2     N13598   4.017   4.180   9.631 -0.0352 -0.4077 -0.1028
  929MPD2    H513599   4.018   4.281   9.625  0.8821 -0.4561 -0.7113
  929MPD2    N113600   4.090   3.817   9.947 -0.1669  0.6009  0.1469
  929MPD2    H713601   4.116   3.803  10.044  0.6629  3.4115  0.3072
  930MPD2     C13602   0.901   1.001  14.497 -0.1512 -0.5498  0.1383
  930MPD2    C113603   0.960   0.957  14.383  0.4742  0.2318 -0.0847
  930MPD2    C213604   0.936   0.824  14.343  0.1698 -0.5434 -0.0095
  930MPD2    C313605   0.864   0.740  14.419  0.9005  0.1105 -0.0554
  930MPD2    C413606   0.806   0.783  14.536  0.0508  0.2425 -0.1167
  930MPD2    C513607   0.825   0.910  14.570 -0.2323 -0.3640 -0.0150
  930MPD2     H13608   0.972   0.797  14.244  2.3013 -0.9978  0.8888
  930MPD2    H113609   0.751   0.716  14.601  1.6968 -1.7930 -0.8383
  930MPD2    H213610   0.924   1.095  14.545  0.4627 -0.6476  0.0300
  930MPD2    H313611   0.797   0.945  14.669 -0.9709 -1.6992  0.2553
  930MPD2     N13612   0.820   0.614  14.375 -0.8375  0.5517 -0.3282
  930MPD2    H513613   0.739   0.585  14.430 -1.0455 -1.5148 -1.6894
  930MPD2    N113614   1.043   1.036  14.306  0.1842  0.1008 -0.3199
  930MPD2    H713615   1.079   0.990  14.223 -1.4607 -2.3078  0.3065
  931MPD2     C13616   0.553   0.717   0.673  0.3745  0.2436  0.1591
  931MPD2    C113617   0.651   0.630   0.718 -0.7493 -0.2325 -0.6112
  931MPD2    C213618   0.618   0.508   0.765  0.1620  0.2695  0.5747
  931MPD2    C313619   0.490   0.470   0.779 -0.1036 -0.2426 -0.4650
  931MPD2    C413620   0.390   0.563   0.753  0.1677  0.7573  0.0474
  931MPD2    C513621   0.425   0.679   0.696 -0.5131  0.3226 -0.6069
  931MPD2     H13622   0.688   0.438   0.810  0.8674  0.3002 -0.4961
  931MPD2    H113623   0.290   0.539   0.788  0.4434 -1.3078 -0.6211
  931MPD2    H213624   0.576   0.816   0.638 -0.4566  0.4291  0.1247
  931MPD2    H313625   0.344   0.747   0.672  0.1323  0.7926 -1.4328
  931MPD2     N13626   0.458   0.347   0.841 -0.0637  0.0597 -0.1679
  931MPD2    H513627   0.362   0.332   0.869  0.3017 -0.7894  0.6405
  931MPD2    N113628   0.781   0.686   0.726  0.0217  0.5082 -0.3795
  931MPD2    H713629   0.797   0.779   0.688 -1.9212  0.9200 -0.2263
  932MPD2     C13630   2.606   4.346  11.249  0.2927  0.0539 -0.1739
  932MPD2    C113631   2.745   4.349  11.231  0.1796 -0.1356 -0.3113
  932MPD2    C213632   2.807   4.258  11.154  0.1826 -0.0314  0.5393
  932MPD2    C313633   2.727   4.161  11.092  0.7221 -0.9070 -0.5439
  932MPD2    C413634   2.589   4.155  11.108  0.1970  0.7056 -0.3478
  932MPD2    C513635   2.530   4.245  11.190 -0.4758  0.0265  0.3118
  932MPD2     H13636   2.915   4.255  11.139 -0.0101 -1.0297 -0.7127
  932MPD2    H113637   2.520   4.094  11.051  1.3286 -0.0933 -0.8751
  932MPD2    H213638   2.550   4.428  11.292 -1.7792 -0.4521 -1.9298
  932MPD2    H313639   2.423   4.261  11.192 -0.3260  1.1199 -0.2412
  932MPD2     N13640   2.781   4.050  11.030 -0.5957 -0.6093  0.0732
  932MPD2    H513641   2.729   3.963  11.030 -0.9056 -0.4191  2.2516
  932MPD2    N113642   2.834   4.450  11.279 -0.1650 -0.2185 -0.1361
  932MPD2    H713643   2.932   4.450  11.252 -0.6837 -2.1880 -2.0749
  933MPD2     C13644   4.111   3.289   2.082  0.3250 -1.0418  0.1625
  933MPD2    C113645   4.009   3.305   1.996 -0.6616 -0.0752  0.3413
  933MPD2    C213646   3.882   3.254   2.025  0.4506 -0.5964  0.1902
  933MPD2    C313647   3.860   3.187   2.140 -0.2364 -0.3001  0.0475
  933MPD2    C413648   3.965   3.166   2.233 -0.0362 -0.8519 -0.1573
  933MPD2    C513649   4.093   3.216   2.199  0.6047  0.2390  0.5478
  933MPD2     H13650   3.806   3.253   1.948 -0.5659  1.7929  1.1611
  933MPD2    H113651   3.945   3.121   2.329  0.9787  2.5480  1.6259
  933MPD2    H213652   4.215   3.313   2.063  0.0614 -0.1117 -0.1000
  933MPD2    H313653   4.182   3.200   2.259  0.0806 -3.2181  0.4135
  933MPD2     N13654   3.731   3.124   2.146 -0.3061  0.8693  0.9304
  933MPD2    H513655   3.668   3.155   2.073 -1.9005  1.5752  2.6012
  933MPD2    N113656   4.039   3.374   1.877  0.0066  0.6074 -0.1962
  933MPD2    H713657   4.134   3.393   1.848 -0.0974  1.0293 -0.2633
  934MPD2     C13658   4.399   1.216   2.402  0.3949  0.8852  0.0246
  934MPD2    C113659   4.474   1.124   2.324 -0.9035 -0.2052  0.0783
  934MPD2    C213660   4.438   1.109   2.188  0.0221  0.3130 -0.4849
  934MPD2    C313661   4.322   1.171   2.137  0.2437 -0.3980 -0.1979
  934MPD2    C413662   4.248   1.258   2.222 -0.6253 -0.7372  1.0593
  934MPD2    C513663   4.289   1.270   2.355  0.1690  0.0502  0.2055
  934MPD2     H13664   4.497   1.051   2.118 -1.7444 -1.0324 -0.8682
  934MPD2    H113665   4.152   1.299   2.193 -0.1800 -0.1037  0.4816
  934MPD2    H213666   4.409   1.229   2.510  2.5399 -2.0412  0.1755
  934MPD2    H313667   4.236   1.340   2.419 -0.3372 -0.0553 -0.0928
  934MPD2     N13668   4.265   1.144   2.011  0.6712 -0.8721  0.0082
  934MPD2    H513669   4.179   1.189   1.981  0.6977 -0.5521  0.4095
  934MPD2    N113670   4.588   1.048   2.368 -0.5288  0.5312 -0.4448
  934MPD2    H713671   4.641   0.992   2.302  0.6220 -1.1328  1.8910
  935MPD2     C13672   4.722   0.645   1.291  0.0539  0.0797 -0.8132
  935MPD2    C113673   4.612   0.685   1.219  0.1061  0.1943  0.4085
  935MPD2    C213674   4.506   0.743   1.284 -0.0607  0.2041  0.0715
  935MPD2    C313675   4.505   0.769   1.416  0.3595 -0.6144 -0.2281
  935MPD2    C413676   4.610   0.713   1.491  0.0753 -0.0283 -0.4931
  935MPD2    C513677   4.717   0.655   1.429  0.0823 -1.0607  0.0840
  935MPD2     H13678   4.422   0.777   1.224  1.8811  2.9509 -1.0777
  935MPD2    H113679   4.602   0.718   1.599  0.9402  2.4658 -0.5387
  935MPD2    H213680   0.078   0.599   1.237  2.4164  0.9539  2.0089
  935MPD2    H313681   0.062   0.606   1.496  0.1484  0.0777  0.8340
  935MPD2     N13682   4.404   0.841   1.495  0.3275  0.4089 -0.0542
  935MPD2    H513683   4.401   0.826   1.595 -0.4924  2.5394  0.2363
  935MPD2    N113684   4.616   0.679   1.075 -0.2201  0.5457  0.6648
  935MPD2    H713685   4.545   0.736   1.031 -0.2331 -1.4201 -1.9057
  936MPD2     C13686   3.571   2.537  12.783  0.2430  0.4475 -0.6351
  936MPD2    C113687   3.503   2.658  12.817 -0.3841  0.2576  0.0963
  936MPD2    C213688   3.486   2.768  12.734 -0.5241 -0.0120  0.5819
  936MPD2    C313689   3.549   2.767  12.611  0.3483 -0.0644 -0.7513
  936MPD2    C413690   3.614   2.645  12.576  0.0285  0.3016 -0.0470
  936MPD2    C513691   3.631   2.538  12.658 -0.9452  0.0573 -0.0563
  936MPD2     H13692   3.427   2.852  12.767 -1.6366  0.3361 -2.2977
  936MPD2    H113693   3.663   2.637  12.479  1.8116  1.9621  0.7266
  936MPD2    H213694   3.585   2.450  12.847  3.7173  1.0398 -0.5911
  936MPD2    H313695   3.690   2.459  12.614 -1.4728  0.6570 -1.8391
  936MPD2     N13696   3.527   2.874  12.521  0.3977  0.0708 -0.0311
  936MPD2    H513697   3.465   2.949  12.550 -0.8371 -0.2720 -1.7982
  936MPD2    N113698   3.445   2.668  12.939 -0.1879 -0.0499  0.4480
  936MPD2    H713699   3.392   2.752  12.959 -3.6641 -1.9235 -0.8803
  937MPD2     C13700   1.323   4.193  11.896  0.4306  0.1357 -0.0618
  937MPD2    C113701   1.389   4.296  11.957 -0.1943 -0.1266 -0.1919
  937MPD2    C213702   1.469   4.377  11.879  0.6603  0.2140  0.3978
  937MPD2    C313703   1.492   4.333  11.753 -0.6452 -0.3663 -0.2307
  937MPD2    C413704   1.427   4.226  11.693 -1.1183 -0.7735 -0.3980
  937MPD2    C513705   1.348   4.153  11.768 -0.4607  0.1034 -0.2114
  937MPD2     H13706   1.519   4.462  11.924  0.5757 -0.2637  1.3904
  937MPD2    H113707   1.454   4.192  11.593  1.7450  0.5522 -0.1002
  937MPD2    H213708   1.252   4.132  11.951  1.8512 -2.2667 -0.8854
  937MPD2    H313709   1.297   4.073  11.716  0.6072 -1.2074  0.7761
  937MPD2     N13710   1.588   4.399  11.678  0.0094 -0.0633 -0.2382
  937MPD2    H513711   1.633   4.475  11.728  0.5248  1.7399 -3.4201
  937MPD2    N113712   1.340   4.358  12.076  0.5687  0.3066 -0.6630
  937MPD2    H713713   1.370   4.454  12.092  0.2438  0.3331 -0.2258
  938MPD2     C13714   3.520   1.346   1.782  0.2852  0.1458 -0.6443
  938MPD2    C113715   3.547   1.242   1.694  0.4659  0.5979  0.9670
  938MPD2    C213716   3.559   1.112   1.730  0.0027  0.2110 -0.4741
  938MPD2    C313717   3.544   1.074   1.860 -0.0037 -0.0953  0.2316
  938MPD2    C413718   3.525   1.175   1.954  0.6381  0.2864 -0.1392
  938MPD2    C513719   3.505   1.307   1.913 -0.6920  0.1292 -0.7599
  938MPD2     H13720   3.574   1.032   1.659  1.4768  0.6212 -0.6314
  938MPD2    H113721   3.509   1.147   2.057  1.5120 -3.8634 -1.1270
  938MPD2    H213722   3.530   1.447   1.746 -1.5986  1.0671  1.3607
  938MPD2    H313723   3.482   1.384   1.986 -1.4796 -0.4573 -0.3796
  938MPD2     N13724   3.540   0.936   1.898  0.2555 -0.7513 -0.2148
  938MPD2    H513725   3.556   0.913   1.996 -0.6782  1.6645  0.5217
  938MPD2    N113726   3.580   1.266   1.564  0.1821 -0.4486 -0.8133
  938MPD2    H713727   3.627   1.192   1.513  0.2533 -0.9864  0.0391
  939MPD2     C13728   0.103   1.917   1.382  0.2522 -0.2202 -0.8528
  939MPD2    C113729   0.076   2.027   1.314  0.2789 -0.7312  0.3454
  939MPD2    C213730   0.092   2.031   1.175  0.3739  0.5623 -0.0983
  939MPD2    C313731   0.133   1.913   1.115 -0.7813  0.0993  0.1868
  939MPD2    C413732   0.173   1.804   1.185 -0.0773  0.2631 -0.4086
  939MPD2    C513733   0.155   1.809   1.320 -0.8782 -0.1364 -0.0430
  939MPD2     H13734   0.073   2.120   1.115  0.3717 -0.7689 -2.0627
  939MPD2    H113735   0.194   1.712   1.132  0.6549  0.7579 -0.9646
  939MPD2    H213736   0.085   1.900   1.487 -0.2755  0.5473 -0.8237
  939MPD2    H313737   0.170   1.717   1.376  0.5363  0.2216  0.1465
  939MPD2     N13738   0.119   1.908   0.972  0.6534  0.1160 -0.0583
  939MPD2    H513739   0.061   1.980   0.932  0.7805  0.5432  0.5219
  939MPD2    N113740   0.028   2.142   1.378  0.2115 -0.1787 -0.0003
  939MPD2    H713741   0.024   2.230   1.327 -0.1176  0.0467  0.4200
  940MPD2     C13742   3.737   3.063  12.875  0.1762 -0.1578 -0.1628
  940MPD2    C113743   3.782   2.959  12.959 -0.6935  0.1613 -0.0489
  940MPD2    C213744   3.841   2.846  12.905 -0.7234 -0.2235  0.0611
  940MPD2    C313745   3.874   2.846  12.770 -0.0457 -0.2741 -0.1929
  940MPD2    C413746   3.839   2.957  12.692 -0.2944  0.6549 -1.1981
  940MPD2    C513747   3.764   3.060  12.742  0.5154 -0.2799  0.2698
  940MPD2     H13748   3.869   2.765  12.971 -2.3611 -0.6205  0.2616
  940MPD2    H113749   3.856   2.964  12.585  0.8109 -0.0564 -1.0641
  940MPD2    H213750   3.685   3.153  12.908 -0.7710 -0.5268 -0.6326
  940MPD2    H313751   3.735   3.136  12.670  2.0255  0.6930  0.6900
  940MPD2     N13752   3.933   2.737  12.708 -0.0843  0.2901 -0.3454
  940MPD2    H513753   3.943   2.742  12.607  0.3530 -0.5022 -0.3353
  940MPD2    N113754   3.772   2.956  13.102  0.3365 -0.1818  0.4267
  940MPD2    H713755   3.794   2.867  13.146  0.2283  1.0987  3.0260
  941MPD2     C13756   3.776   2.999   8.969  0.0513 -0.6061  0.4364
  941MPD2    C113757   3.881   2.941   9.035  0.2105  0.1552 -0.8700
  941MPD2    C213758   3.854   2.825   9.113  0.5712  0.0855 -0.9879
  941MPD2    C313759   3.730   2.763   9.108 -0.0603  0.6180  0.2539
  941MPD2    C413760   3.631   2.827   9.038  0.9348  0.4935  0.9952
  941MPD2    C513761   3.650   2.938   8.965 -0.1964  0.0845 -0.2995
  941MPD2     H13762   3.934   2.791   9.178  1.4487  2.8786 -0.5877
  941MPD2    H113763   3.528   2.797   9.030  0.9077  0.9585 -0.4918
  941MPD2    H213764   3.786   3.084   8.903  1.4772 -0.6004  0.6567
  941MPD2    H313765   3.565   2.981   8.912  0.2947  1.8258  0.3273
  941MPD2     N13766   3.703   2.638   9.171 -0.3569 -0.0899 -0.5769
  941MPD2    H513767   3.619   2.584   9.153 -1.5593  0.2214  4.3068
  941MPD2    N113768   4.014   2.989   9.036  0.0187 -0.2470  0.5265
  941MPD2    H713769   4.072   2.933   9.097  1.7909  1.0424 -0.0056
  942MPD2     C13770   3.656   3.576   9.184 -0.4470 -0.5834 -0.0053
  942MPD2    C113771   3.734   3.483   9.252 -0.4243  0.2306 -0.4442
  942MPD2    C213772   3.836   3.539   9.328  0.9563 -0.7895 -0.7372
  942MPD2    C313773   3.866   3.678   9.327 -0.6382  0.7915 -0.4087
  942MPD2    C413774   3.782   3.766   9.256 -0.2471  0.1910 -0.6285
  942MPD2    C513775   3.678   3.711   9.185  0.1814 -0.4980 -0.7064
  942MPD2     H13776   3.878   3.471   9.401  1.9846  2.4764  1.7243
  942MPD2    H113777   3.813   3.869   9.251  0.6964 -0.1411 -1.5073
  942MPD2    H213778   3.573   3.541   9.124 -1.2945 -0.4621  1.1098
  942MPD2    H313779   3.620   3.770   9.115 -1.1635  2.2885  2.7167
  942MPD2     N13780   3.974   3.737   9.394 -0.5922 -0.3282  0.5732
  942MPD2    H513781   3.984   3.836   9.414 -2.6471 -0.2071  1.0195
  942MPD2    N113782   3.695   3.352   9.265  0.6885  0.3441  0.2468
  942MPD2    H713783   3.735   3.290   9.334  3.8353  3.2850  1.0731
  943MPD2     C13784   0.743   1.209  10.072  0.0440  0.6546 -0.4910
  943MPD2    C113785   0.876   1.185  10.039 -0.6254  0.4067 -0.4672
  943MPD2    C213786   0.909   1.160   9.908  0.1278  0.4734 -0.2610
  943MPD2    C313787   0.814   1.138   9.813 -0.6415 -0.2423  0.1572
  943MPD2    C413788   0.675   1.138   9.852 -0.1790 -0.3042  0.5063
  943MPD2    C513789   0.644   1.182   9.979  0.7038 -0.1802 -0.1325
  943MPD2     H13790   1.012   1.170   9.873 -0.5211  3.0363 -1.4350
  943MPD2    H113791   0.602   1.130   9.772  0.4936 -0.3512 -0.1036
  943MPD2    H213792   0.706   1.232  10.172 -0.3332 -1.5693 -0.1060
  943MPD2    H313793   0.539   1.189  10.005  0.4387 -1.1665 -0.9411
  943MPD2     N13794   0.839   1.107   9.679 -0.2089  0.2084 -0.2473
  943MPD2    H513795   0.755   1.097   9.623 -0.9675 -0.7064  1.0400
  943MPD2    N113796   0.975   1.222  10.144  0.2672 -0.0388  0.3189
  943MPD2    H713797   0.936   1.237  10.237  2.5587  0.2245  1.2339
  944MPD2     C13798   1.645   0.621  11.326  0.2563 -0.9827  0.4679
  944MPD2    C113799   1.631   0.728  11.242 -0.4514  0.0816 -0.3522
  944MPD2    C213800   1.626   0.861  11.296  0.5162 -0.5174  0.5128
  944MPD2    C313801   1.638   0.883  11.440  0.8738 -0.0274 -0.0606
  944MPD2    C413802   1.654   0.768  11.521  0.2161  0.4266 -0.3013
  944MPD2    C513803   1.663   0.643  11.462 -0.3710  0.1924  0.0904
  944MPD2     H13804   1.598   0.941  11.228  3.6380 -1.1824 -1.5716
  944MPD2    H113805   1.653   0.766  11.630 -2.7202 -0.6001 -0.3721
  944MPD2    H213806   1.651   0.519  11.291  0.7195 -0.9865  0.5480
  944MPD2    H313807   1.682   0.558  11.526  1.5123 -0.3477 -1.1953
  944MPD2     N13808   1.624   1.013  11.491  0.2449 -0.0047  0.0265
  944MPD2    H513809   1.591   1.086  11.428 -1.3315 -2.0884 -1.5412
  944MPD2    N113810   1.620   0.701  11.108 -0.2193 -0.4835  0.0727
  944MPD2    H713811   1.623   0.603  11.081  0.8061 -0.3137 -0.4273
    1TCq1    O113812   0.562   1.867  15.509 -0.3958  0.0328  0.2622
    1TCq1    C113813   0.573   1.857  15.372 -0.3047 -0.2542  0.2167
    1TCq1    O213814   0.640   1.769  15.319  0.0956  0.1520 -0.4635
    1TCq1    C213815   0.452   1.912  15.314 -0.1493  0.5981 -0.8251
    1TCq1    C313816   0.394   2.023  15.372  1.3648 -0.5317  0.6716
    1TCq1    C413817   0.277   2.066  15.318 -0.1023  0.3362  0.7370
    1TCq1    C513818   0.216   2.000  15.215 -0.1600  0.3341 -0.1413
    1TCq1    C613819   0.281   1.895  15.154  0.0131  0.4628  0.6074
    1TCq1    C713820   0.397   1.848  15.209 -0.5896 -0.0067  0.0211
    1TCq1    C813821   0.226   1.826  15.042 -0.2651 -1.0147 -0.0897
    1TCq1    O413822   0.280   1.725  15.002  0.5768 -0.2547 -0.0479
    1TCq1    C913823   0.206   2.166  15.384  0.0440  0.3474  0.4827
    1TCq1    O513824   0.264   2.213  15.483 -0.3313  0.0688  0.1746
    1TCq1    O613825   0.107   2.213  15.330 -0.0056  0.8352  0.2791
    1TCq1    H113826   0.477   1.909  15.532 -0.6883 -0.1901 -0.4072
    1TCq1    H213827   0.448   2.078  15.448 -0.1506 -0.2381  1.5325
    1TCq1    H313828   0.116   2.032  15.187 -0.6544 -1.7946 -0.8002
    1TCq1    H413829   0.455   1.765  15.171 -1.2180 -0.0519 -0.8564
    2MPD2     C13830   4.614   1.836  14.658  0.6565 -0.1176  0.0512
    2MPD2    C113831   4.621   1.958  14.715 -0.0265  0.0508 -0.1328
    2MPD2    C213832   4.698   1.967  14.829 -0.0038 -0.0513 -0.8140
    2MPD2    C313833   0.060   1.871  14.869 -0.3073  0.2068 -0.4304
    2MPD2    C413834   0.057   1.751  14.805  0.3269  0.3977 -0.1219
    2MPD2    C513835   4.697   1.734  14.698  0.8422  0.1724  0.6897
    2MPD2     H13836   4.697   2.060  14.885 -2.0904 -0.2634 -0.4756
    2MPD2    H113837   0.123   1.676  14.847  0.4283 -0.1548 -1.2789
    2MPD2    H213838   4.560   1.813  14.566 -2.1354  0.5514  1.5469
    2MPD2    H313839   4.703   1.643  14.639  0.0976  0.1324  0.6736
    2MPD2     N13840   0.132   1.901  14.984  0.3303 -0.2893 -0.0464
    2MPD2    H513841   0.102   1.986  15.030  0.6231  0.3726 -1.0829
    2MPD2    N113842   4.546   2.071  14.663 -0.3968 -0.7489  0.0589
    2MPD2    H713843   4.476   2.048  14.594 -0.4735 -1.3872  0.3461
    3TMC2    C113844   4.446   2.286  14.642 -0.0323  0.4457 -0.1390
    3TMC2    C213845   4.458   2.420  14.665 -0.4912 -0.6621 -0.0675
    3TMC2    C313846   4.391   2.507  14.584 -0.2676 -0.3832 -0.1699
    3TMC2    C413847   4.373   2.237  14.535  0.0352 -0.0443  0.7231
    3TMC2    C513848   4.306   2.329  14.454  0.4931 -0.5903  0.4160
    3TMC2    C613849   4.321   2.468  14.474  0.4645  0.3687 -0.2453
    3TMC2     C13850   4.545   2.203  14.706  0.1640  0.6182 -0.2550
    3TMC2     O13851   4.621   2.255  14.791 -0.3718 -0.0991 -0.0062
    3TMC2     H13852   4.523   2.446  14.747 -1.0472 -0.6839  0.3781
    3TMC2    H113853   4.365   2.132  14.507  0.5476 -0.1385  0.9079
    3TMC2    H213854   4.292   2.541  14.399 -0.1550 -1.0484 -1.3709
    3TMC2    C713855   4.281   2.278  14.321 -0.0384  0.5551 -0.7701
    3TMC2    C813856   4.388   2.652  14.614  0.5829  0.2863 -0.3525
    3TMC2    O113857   4.232   2.166  14.314  0.0078  0.4681  0.4705
    3TMC2    O213858   4.352   2.728  14.522 -0.3950  0.1533  0.4756
    3TMC2    O513859   4.337   2.650  14.743 -0.2966 -0.2926 -0.0340
    3TMC2    H513860   4.338   2.568  14.797  0.9745 -0.9096 -1.0020
    4MPD2     C13861   4.094   3.619  13.648 -0.6243  0.1951 -0.7289
    4MPD2    C113862   4.003   3.543  13.573  0.4996  0.1372 -0.2120
    4MPD2    C213863   4.033   3.414  13.535  0.1107  0.4646  0.0450
    4MPD2    C313864   4.146   3.361  13.593 -0.6537 -0.0054  0.1262
    4MPD2    C413865   4.238   3.423  13.676  0.6466 -0.2823 -0.2230
    4MPD2    C513866   4.207   3.553  13.710  0.3118 -0.0702 -0.0811
    4MPD2     H13867   3.960   3.352  13.483  0.2239  2.8129 -2.8689
    4MPD2    H113868   4.331   3.380  13.712 -0.0337 -0.2716  1.5555
    4MPD2    H213869   4.076   3.725  13.663  0.2624  0.2911 -0.3668
    4MPD2    H313870   4.283   3.610  13.762  0.4383 -0.2380 -0.0827
    4MPD2     N13871   4.165   3.221  13.573 -0.5853 -0.0138  0.0764
    4MPD2    H513872   4.120   3.173  13.496 -1.4723 -1.7799  1.6878
    4MPD2    N113873   3.886   3.611  13.530  0.1842 -1.2472 -0.0462
    4MPD2    H713874   3.887   3.708  13.558 -2.0590 -0.9459 -1.0281
    5TCq2    C113875   4.237   3.140  13.658 -0.6441  0.3383  0.7424
    5TCq2    O213876   4.303   3.165  13.759  0.5386  0.1121 -0.2222
    5TCq2    C213877   4.215   2.995  13.636 -1.5308 -0.4865 -0.0231
    5TCq2    C313878   4.172   2.959  13.511  0.3893 -0.5006  0.2093
    5TCq2    C413879   4.181   2.830  13.474  0.3966  0.3107 -0.6014
    5TCq2    C513880   4.221   2.737  13.568  0.6693 -0.0357 -0.0713
    5TCq2    C613881   4.246   2.780  13.697  0.5341  0.7605 -0.2280
    5TCq2    C713882   4.240   2.911  13.737  0.6304 -0.1058  0.0473
    5TCq2    C813883   4.295   2.682  13.795  0.4494  0.4030 -0.7717
    5TCq2    O413884   4.324   2.730  13.903  0.4832 -0.0367  0.2624
    5TCq2    C913885   4.160   2.783  13.337 -0.3469  0.6447 -0.4961
    5TCq2    O513886   4.155   2.656  13.316  0.3192 -0.6474 -0.0669
    5TCq2    O613887   4.127   2.871  13.251 -0.5105  0.0579 -0.0382
    5TCq2    H213888   4.147   3.027  13.430 -0.8073 -1.3070 -0.1027
    5TCq2    H313889   4.229   2.633  13.538 -0.0976 -0.1596  0.1542
    5TCq2    H413890   4.292   2.939  13.828 -0.6797 -3.9258  1.9696
    6MPD1     C13891   2.507   3.347  12.237  0.2640  1.0263 -0.1193
    6MPD1    C113892   2.629   3.336  12.176 -0.1946 -0.1650 -0.2641
    6MPD1    C213893   2.742   3.359  12.249 -0.8972  0.3956 -0.8793
    6MPD1    C313894   2.732   3.378  12.389 -0.5910  0.3188 -0.0332
    6MPD1    C413895   2.603   3.392  12.454 -0.1540 -0.2393 -0.1807
    6MPD1    C513896   2.489   3.375  12.374  0.6131 -0.4908 -0.6069
    6MPD1     H13897   2.831   3.341  12.190 -0.1429 -1.8892  0.9997
    6MPD1    H113898   2.599   3.412  12.560  1.5740 -2.1951  0.2540
    6MPD1    H213899   2.412   3.344  12.184  1.1999  0.7907 -1.7757
    6MPD1    H313900   2.387   3.382  12.409  0.7966 -0.8132 -0.0057
    6MPD1     N13901   2.843   3.386  12.469 -0.5718 -0.2534 -0.1438
    6MPD1    H513902   2.823   3.393  12.568  0.3881 -0.6883  0.0875
    6MPD1    N113903   2.623   3.330  12.030 -0.2141 -0.0405  0.0763
    6MPD1    H613904   2.545   3.269  12.007 -0.3335 -0.1519  0.7623
    6MPD1    H713905   2.695   3.282  11.976 -0.9220 -0.4568 -0.5024
    7MPD2     C13906   3.099   3.246  13.152 -0.4767  0.1427 -0.0147
    7MPD2    C113907   3.115   3.385  13.127 -0.1981 -0.1941  0.4619
    7MPD2    C213908   3.179   3.476  13.216  0.0808  0.2525 -0.4833
    7MPD2    C313909   3.230   3.421  13.331  0.2950  0.8526 -0.1149
    7MPD2    C413910   3.216   3.287  13.356 -0.1677  0.1194 -0.4295
    7MPD2    C513911   3.147   3.207  13.271 -0.0463  0.6446 -0.3419
    7MPD2     H13912   3.182   3.583  13.201 -1.6152  0.5024  1.0588
    7MPD2    H113913   3.256   3.238  13.443  1.9854  2.9177  0.1531
    7MPD2    H213914   3.054   3.172  13.088  0.1328 -0.3644  0.1490
    7MPD2    H313915   3.141   3.102  13.299  0.9204  0.4595 -0.8235
    7MPD2     N13916   3.308   3.491  13.419  0.2266 -0.3173  0.4007
    7MPD2    H513917   3.362   3.436  13.484  2.2873  0.1718 -0.9167
    7MPD2    N113918   3.082   3.437  13.002 -0.1102 -0.2348 -0.3211
    7MPD2    H713919   3.114   3.531  12.983 -0.4753 -0.3552 -1.5151
    8TMC3    C113920   3.440   3.690  13.472  0.1957  0.0175 -0.6118
    8TMC3    C213921   3.547   3.609  13.492 -0.1728 -0.6971 -0.3655
    8TMC3    C313922   3.669   3.651  13.447  0.0037 -0.1122  0.1302
    8TMC3    C413923   3.460   3.814  13.412  1.0219 -0.1619 -0.7403
    8TMC3    C513924   3.578   3.853  13.352 -0.7377  0.2638  0.3665
    8TMC3    C613925   3.691   3.767  13.377 -0.1774  0.2698  0.6573
    8TMC3     C13926   3.318   3.630  13.422 -0.3261  0.1157 -0.5964
    8TMC3     O13927   3.238   3.714  13.379  0.0345  0.0774  0.0204
    8TMC3     H13928   3.541   3.517  13.550  0.6223  0.5964  1.7755
    8TMC3    H113929   3.375   3.879  13.394  1.0371  0.4735  1.5216
    8TMC3    H213930   3.791   3.773  13.335  0.0821 -0.0181  1.2310
    8TMC3    C713931   3.557   3.893  13.213 -0.2167 -0.7297  0.0948
    8TMC3    C813932   3.784   3.560  13.459 -0.1839 -0.7802  0.2765
    8TMC3    O113933   3.444   3.925  13.182  0.1324 -1.0578 -0.0052
    8TMC3    O213934   3.754   3.453  13.415 -0.1759 -0.0552 -0.2348
    9TMC3    C113935   3.068   3.404  12.536 -0.3410 -0.7171  0.2889
    9TMC3    C213936   3.174   3.488  12.531 -0.0057 -0.1142  0.5117
    9TMC3    C313937   3.225   3.553  12.641 -0.2972  0.4988 -0.1421
    9TMC3    C413938   3.019   3.372  12.659  0.5262  0.2196  0.0110
    9TMC3    C513939   3.084   3.420  12.770 -0.2236  0.4720 -0.1502
    9TMC3    C613940   3.177   3.519  12.767  0.0350 -0.5728 -0.0656
    9TMC3     C13941   2.971   3.395  12.429  0.8638  0.4982  0.0108
    9TMC3     O13942   3.014   3.423  12.318  0.6586  0.0577 -0.0862
    9TMC3     H13943   3.214   3.515  12.434  1.1386 -0.9153  0.7673
    9TMC3    H113944   2.953   3.286  12.657  0.8820 -0.0931  1.6676
    9TMC3    H213945   3.233   3.539  12.858  0.1830  0.4466 -0.3823
    9TMC3    C713946   3.044   3.357  12.895  0.5695  0.6358  0.1137
    9TMC3    C813947   3.353   3.624  12.635  0.0753 -0.3683 -0.1853
    9TMC3    O113948   3.000   3.243  12.882  0.2126 -0.0497 -0.3392
    9TMC3    O213949   3.433   3.578  12.559 -0.2723  0.0934  0.0070
   10MPD2     C13950   3.746   3.820  12.911 -0.5836 -0.2719 -0.8818
   10MPD2    C113951   3.633   3.821  12.990 -0.0756  0.3135  0.0269
   10MPD2    C213952   3.510   3.783  12.933  0.2913  0.0048  0.4056
   10MPD2    C313953   3.500   3.745  12.800  0.5032  0.4590 -0.5977
   10MPD2    C413954   3.616   3.743  12.726  0.5592 -0.1349  0.1901
   10MPD2    C513955   3.736   3.791  12.779  0.2671  0.0045  0.9308
   10MPD2     H13956   3.415   3.797  12.983 -0.8903 -1.5650 -1.3801
   10MPD2    H113957   3.613   3.713  12.622  1.8900  1.9684 -0.4525
   10MPD2    H213958   3.840   3.857  12.949 -0.9995 -0.6788  0.5776
   10MPD2    H313959   3.820   3.802  12.711  0.4969 -1.9407  0.8995
   10MPD2     N13960   3.374   3.695  12.751  0.1379  0.1140  0.3070
   10MPD2    H513961   3.299   3.706  12.818  1.3069 -1.0033  1.8082
   10MPD2    N113962   3.653   3.861  13.125  0.9208  0.7676  0.3876
   10MPD2    H713963   3.749   3.850  13.155  0.9612  1.8957  0.6586
   11MPD2     C13964   4.272   2.223  14.015 -0.8419  0.2579 -0.3398
   11MPD2    C113965   4.291   2.349  14.076  0.4600 -1.1792  0.0589
   11MPD2    C213966   4.306   2.456  13.987 -0.4236 -0.1260 -0.8500
   11MPD2    C313967   4.284   2.439  13.851  0.1084  0.2388  0.0237
   11MPD2    C413968   4.246   2.316  13.800 -0.4955  0.0067  1.0181
   11MPD2    C513969   4.243   2.208  13.882 -0.4400  0.4751 -0.2844
   11MPD2     H13970   4.334   2.547  14.038  0.7035 -0.7748 -0.3109
   11MPD2    H113971   4.221   2.304  13.695 -1.8192  3.3275  0.9424
   11MPD2    H213972   4.278   2.138  14.081  0.3353  1.3006  0.9046
   11MPD2    H313973   4.205   2.111  13.851  0.0932  0.8064 -1.9445
   11MPD2     N13974   4.275   2.551  13.758  0.2631  0.4354  0.1153
   11MPD2    H513975   4.243   2.512  13.670  1.2750  1.9411 -0.9242
   11MPD2    N113976   4.298   2.373  14.221 -0.8497  0.2708 -0.2086
   11MPD2    H713977   4.313   2.471  14.244  2.5213 -0.7900  2.2606
    1MPD1     C13978   1.638   3.988  16.879  0.0575  0.3185  0.5694
    1MPD1    C113979   1.629   3.985  17.018 -0.2916  0.1776  0.8653
    1MPD1    C213980   1.750   4.007  17.082 -0.2535  0.1118 -0.0160
    1MPD1    C313981   1.865   4.031  17.012 -0.4527  0.1117 -0.9547
    1MPD1    C413982   1.867   4.027  16.872  0.7219  0.3436 -0.5244
    1MPD1    C513983   1.747   4.019  16.809 -0.0779 -0.1813 -0.0291
    1MPD1     H13984   1.745   4.021  17.190 -2.2206  0.5412 -0.1452
    1MPD1    H113985   1.952   4.040  16.807  0.3039 -1.2476 -1.4051
    1MPD1    H213986   1.549   3.961  16.823  1.2895 -1.3042 -0.5893
    1MPD1    H313987   1.736   4.021  16.701 -2.1079  0.1060  0.1905
    1MPD1     N13988   1.980   4.071  17.081  0.4062  0.3246 -0.0206
    1MPD1    H513989   2.056   4.102  17.021 -1.5352  2.8367 -1.2104
    1MPD1    N113990   1.517   3.930  17.085  0.7583  0.2949 -0.3430
    1MPD1    H613991   1.432   3.964  17.041  0.5419 -1.2663 -1.1281
    1MPD1    H713992   1.519   3.952  17.185  1.0188 -2.4916  0.2733
    2MPD1     C13993   2.548   4.179   0.311 -0.3197 -0.4568 -0.2055
    2MPD1    C113994   2.544   4.303   0.253  0.2698 -0.2804 -0.0908
    2MPD1    C213995   2.484   4.314   0.130  0.3699 -0.8542  0.2403
    2MPD1    C313996   2.420   4.207   0.078  0.1069 -0.5255  0.3260
    2MPD1    C413997   2.428   4.081   0.137  0.4068 -1.2171  0.1528
    2MPD1    C513998   2.493   4.069   0.249 -0.1354 -0.0669  0.3472
    2MPD1     H13999   2.475   4.412   0.083 -0.6656  0.2570  2.7283
    2MPD1    H114000   2.400   3.985   0.096 -2.3128 -0.5256  0.3845
    2MPD1    H214001   2.591   4.168   0.410 -2.0219  0.8534  0.6831
    2MPD1    H314002   2.509   3.972   0.294  0.0218 -0.4668 -0.5869
    2MPD1     N14003   2.371   4.227  17.650 -0.7099 -0.0506  0.1062
    2MPD1    H514004   2.395   4.317  17.608 -0.0025 -0.6565 -0.7872
    2MPD1    N114005   2.626   4.405   0.313  0.3895  0.0800 -0.2105
    2MPD1    H614006   2.615   4.409   0.414  0.5588  0.3189 -0.2020
    2MPD1    H714007   2.611   4.500   0.280  0.1093 -0.2581 -1.0779
    3TMC3    C114008   2.247   4.166  17.455 -0.5465  0.0953  1.0943
    3TMC3    C214009   2.329   4.231  17.371 -0.4100  0.6443  0.2575
    3TMC3    C314010   2.291   4.266  17.243 -0.8195  0.2525  0.6871
    3TMC3    C414011   2.134   4.103  17.406 -0.4728  0.2781 -0.1956
    3TMC3    C514012   2.104   4.133  17.275  0.3698  0.2204 -0.0404
    3TMC3    C614013   2.174   4.221  17.194 -0.1405  0.2602  0.0240
    3TMC3     C14014   2.288   4.129  17.594 -0.5074  0.0825  0.0841
    3TMC3     O14015   2.232   4.031  17.639 -0.1158 -0.0736 -0.1719
    3TMC3     H14016   2.428   4.259  17.404 -1.4653  0.3126  3.7664
    3TMC3    H114017   2.070   4.048  17.475  0.6355 -0.7529  0.0214
    3TMC3    H214018   2.135   4.254  17.098  2.5697 -0.3909 -1.3157
    3TMC3    C714019   1.995   4.055  17.219 -0.1401  0.3410  0.2614
    3TMC3    C814020   2.400   4.336  17.174 -0.2872  0.2220  0.1958
    3TMC3    O114021   1.937   3.982  17.297 -0.0044 -0.1822 -0.0471
    3TMC3    O214022   2.487   4.388  17.243 -0.4308  0.3749  0.1067
    4MPD1     C14023   2.601   4.487  16.714  0.6835 -0.3983  0.4242
    4MPD1    C114024   2.473   4.428  16.696  0.4386 -0.1989  0.8352
    4MPD1    C214025   2.407   4.391  16.813  0.1890 -0.0294  0.4940
    4MPD1    C314026   2.461   4.392  16.940 -0.1763  0.4488  0.4591
    4MPD1    C414027   2.588   4.442  16.958  0.0754  0.2356  0.5107
    4MPD1    C514028   2.650   4.497  16.840 -0.1725  0.2125  0.3912
    4MPD1     H14029   2.304   4.361  16.801 -0.1328  0.2586  2.5016
    4MPD1    H114030   2.642   4.441  17.052 -0.9802 -1.5456  1.0957
    4MPD1    H214031   2.665   4.527  16.636  0.2886 -1.3131 -0.3600
    4MPD1    H314032   2.739   4.556  16.859 -1.6077  2.1597  1.0592
    4MPD1     N14033   2.382   4.336  17.039 -0.1625  0.3616  0.3439
    4MPD1    H514034   2.307   4.274  17.010 -1.2848  1.7553  0.2769
    4MPD1    N114035   2.409   4.450  16.570 -0.3141  0.1056 -0.2434
    4MPD1    H614036   2.477   4.435  16.495 -0.7407  3.2542 -1.2539
    4MPD1    H714037   2.337   4.384  16.540 -0.9146  1.2141 -1.2484
    1TCq1    O114038   3.959   2.801  12.402  1.1484  0.0114  0.3977
    1TCq1    C114039   4.049   2.877  12.334  0.0586 -0.0500 -0.7565
    1TCq1    O214040   4.135   2.945  12.381  0.4492  0.2343 -0.3006
    1TCq1    C214041   3.988   2.920  12.213 -0.4858 -0.2367 -0.1838
    1TCq1    C314042   3.912   2.825  12.152 -0.0352  0.1360  0.0678
    1TCq1    C414043   3.862   2.844  12.032 -0.1357  0.3273  0.6590
    1TCq1    C514044   3.876   2.969  11.974 -0.5188  0.2070  0.2380
    1TCq1    C614045   3.939   3.070  12.042  0.6102  0.0106  0.1574
    1TCq1    C714046   4.010   3.046  12.155  0.2458 -0.8069  0.0208
    1TCq1    C814047   3.910   3.210  11.988  0.8522  0.1233 -0.6585
    1TCq1    O414048   3.828   3.214  11.895 -0.0687 -0.0391 -0.2566
    1TCq1    C914049   3.819   2.740  11.942  0.0590  0.2186  0.2522
    1TCq1    O514050   3.723   2.670  11.987  0.0810 -0.1855  0.2515
    1TCq1    O614051   3.840   2.760  11.817  0.0213 -0.7931 -0.2599
    1TCq1    H114052   3.872   2.797  12.357  1.9246 -0.5219 -1.0296
    1TCq1    H214053   3.914   2.719  12.176  3.9943 -0.1971 -1.9074
    1TCq1    H314054   3.839   2.984  11.874 -2.0922 -1.7982  0.5135
    1TCq1    H414055   4.052   3.117  12.226 -0.0538  1.3113 -1.9126
    2MPD1     C14056   4.009   3.712  11.885  0.0872 -0.2555 -0.6267
    2MPD1    C114057   4.093   3.670  11.987  0.0341  0.1768  0.4809
    2MPD1    C214058   4.088   3.539  12.037 -0.3546 -0.4040  0.7335
    2MPD1    C314059   3.998   3.445  11.986  0.1889  0.3133 -0.1895
    2MPD1    C414060   3.913   3.488  11.880 -1.0685  0.3152 -0.3260
    2MPD1    C514061   3.922   3.619  11.832 -0.3122 -0.0012 -0.8753
    2MPD1     H14062   4.164   3.514  12.110  2.2680  1.4739 -1.3397
    2MPD1    H114063   3.831   3.428  11.844 -2.4745  0.4141  2.7509
    2MPD1    H214064   4.004   3.814  11.848  0.2716  0.4647  1.2926
    2MPD1    H314065   3.860   3.656  11.751  1.8054  0.7924 -2.1113
    2MPD1     N14066   3.997   3.310  12.031 -0.1715 -0.6937 -0.1051
    2MPD1    H514067   4.066   3.274  12.096  0.8869  1.1212 -0.2364
    2MPD1    N114068   4.189   3.762  12.032 -0.2017 -0.2936 -0.2148
    2MPD1    H614069   4.218   3.735  12.126 -1.6388  0.9549  0.5793
    2MPD1    H714070   4.157   3.855  12.008  2.4876  1.6000  3.6751
    1TCq1    O114071   4.637   1.610   1.019 -0.4421  0.8983  0.2775
    1TCq1    C114072   4.612   1.507   1.100 -0.2506  0.2199  1.0001
    1TCq1    O214073   4.651   1.398   1.057 -0.2350 -0.0919 -0.7173
    1TCq1    C214074   4.611   1.549   1.240  1.1780  1.0487 -0.7034
    1TCq1    C314075   4.685   1.470   1.322  0.1438  0.2868  0.2246
    1TCq1    C414076   4.695   1.512   1.452  0.4339  0.1336 -0.0499
    1TCq1    C514077   4.629   1.624   1.501  0.3791  0.4654  0.1043
    1TCq1    C614078   4.540   1.687   1.411 -0.5007  0.4109 -0.0832
    1TCq1    C714079   4.532   1.653   1.277  0.0839  0.0955 -0.0527
    1TCq1    C814080   4.482   1.815   1.455 -0.4256 -0.2610 -0.6264
    1TCq1    O414081   4.468   1.835   1.576  1.0706 -0.0692 -0.2579
    1TCq1    C914082   0.087   1.484   1.525 -0.1626  0.4008 -0.0024
    1TCq1    O514083   0.130   1.571   1.603 -0.2300 -0.3336 -0.8347
    1TCq1    O614084   0.162   1.391   1.490 -0.5155  0.0934 -0.4312
    1TCq1    H114085   4.596   1.693   1.050 -1.5662  0.4363  0.0153
    1TCq1    H214086   0.036   1.408   1.277  0.0276 -0.1942  0.7010
    1TCq1    H314087   4.645   1.669   1.598  1.8816 -2.8758  1.4033
    1TCq1    H414088   4.463   1.695   1.205  0.8784 -0.8932 -1.4020
    2MPD1     C14089   4.348   2.290   1.333  0.1875  0.0201  0.0705
    2MPD1    C114090   4.350   2.226   1.211 -0.1889  0.5138  0.4756
    2MPD1    C214091   4.388   2.093   1.226  0.3104  0.1889  0.1617
    2MPD1    C314092   4.415   2.031   1.345  0.0285  0.3968  0.0454
    2MPD1    C414093   4.400   2.101   1.461  0.2775  0.4301  0.4615
    2MPD1    C514094   4.359   2.232   1.451 -0.3400 -0.6384  0.1583
    2MPD1     H14095   4.398   2.046   1.128  1.5803 -0.1621  0.4599
    2MPD1    H114096   4.417   2.066   1.562  1.1953 -1.7470 -0.4550
    2MPD1    H214097   4.337   2.398   1.338 -2.4043 -0.1893 -0.7458
    2MPD1    H314098   4.353   2.292   1.542  3.1363  1.1639 -0.8000
    2MPD1     N14099   4.460   1.896   1.350  0.5326  0.2917  0.1593
    2MPD1    H514100   4.488   1.862   1.258  1.3078 -2.8186  1.5478
    2MPD1    N114101   4.367   2.298   1.092  0.4501  0.6813  0.1074
    2MPD1    H614102   4.309   2.382   1.089 -1.3394 -0.6317 -2.4504
    2MPD1    H714103   4.325   2.239   1.020 -0.3953  2.5677 -0.9441
    1MPD1     C14104   0.470   3.096  12.733  0.4214  0.0961 -0.3528
    1MPD1    C114105   0.581   3.154  12.701  0.7146 -0.2066 -0.5566
    1MPD1    C214106   0.583   3.254  12.610 -0.1599  0.5198  0.1893
    1MPD1    C314107   0.461   3.296  12.557  0.0532  0.1857  0.7032
    1MPD1    C414108   0.347   3.230  12.589  0.2618 -0.1495  0.3015
    1MPD1    C514109   0.350   3.133  12.680 -0.4393  0.7223  0.0823
    1MPD1     H14110   0.675   3.301  12.577 -2.0962  2.9374 -1.7931
    1MPD1    H114111   0.254   3.267  12.549  2.0119  2.9288 -0.9520
    1MPD1    H214112   0.475   3.018  12.808 -0.8337 -0.0397 -0.4142
    1MPD1    H314113   0.259   3.080  12.706 -0.0147  1.1727  2.4042
    1MPD1     N14114   0.462   3.397  12.459 -0.1554 -0.3524  0.5530
    1MPD1    H514115   0.549   3.439  12.427 -1.7867  1.5904 -1.3382
    1MPD1    N114116   0.696   3.132  12.779  0.0982  0.7944 -0.4545
    1MPD1    H614117   0.778   3.170  12.731  0.5543  2.0414  1.3037
    1MPD1    H714118   0.712   3.032  12.783 -0.6742  0.6451 -1.1277
    2MPD1     C14119   4.046   4.518  10.834 -1.1137  0.1038 -0.2910
    2MPD1    C114120   4.094   4.456  10.953 -0.1743 -0.0730  1.1779
    2MPD1    C214121   4.206   4.385  10.947 -0.0584  0.1791 -0.6081
    2MPD1    C314122   4.286   4.379  10.834  0.2564  0.6156 -0.7578
    2MPD1    C414123   4.250   4.452  10.722  0.8886  0.4050 -0.4415
    2MPD1    C514124   4.131   4.521  10.724 -0.3805 -0.3816 -0.1816
    2MPD1     H14125   4.235   4.310  11.019  0.6248 -0.5284 -1.6201
    2MPD1    H114126   4.311   4.458  10.632  0.1147 -0.2170 -1.0035
    2MPD1    H214127   3.961   4.585  10.830 -0.2113  1.1769 -1.3842
    2MPD1    H314128   4.108   4.583  10.638  0.9618  1.3797  0.7292
    2MPD1     N14129   4.414   4.317  10.834 -0.4600  0.5184  0.0290
    2MPD1    H514130   4.469   4.316  10.749  0.3267  0.0356  0.5494
    2MPD1    N114131   4.006   4.441  11.057 -0.2182 -0.4771  0.0937
    2MPD1    H614132   3.940   4.517  11.073  0.8759  1.0732 -2.8953
    2MPD1    H714133   4.054   4.423  11.146 -1.9089  0.7088  1.2481
    3MPD1     C14134   4.611   3.743  10.195 -0.5595 -0.4928 -0.2143
    3MPD1    C114135   4.551   3.872  10.195 -0.4958 -0.2968 -0.1382
    3MPD1    C214136   4.569   3.951  10.313  0.2205 -0.4668  0.8378
    3MPD1    C314137   4.646   3.911  10.415 -0.1795 -0.4516  0.7534
    3MPD1    C414138   4.708   3.795  10.408 -0.0812 -0.1325 -0.0467
    3MPD1    C514139   4.695   3.709  10.301 -0.1035  1.1930 -0.4596
    3MPD1     H14140   4.504   4.038  10.322  1.3998  0.6264 -1.1836
    3MPD1    H114141   0.046   3.755  10.487 -0.1393  1.3145  0.7284
    3MPD1    H214142   4.605   3.678  10.108  1.3069 -1.3759  0.3223
    3MPD1    H314143   0.021   3.614  10.305 -2.3370  0.0718  1.2629
    3MPD1     N14144   4.651   3.994  10.531  0.4973 -0.3917  0.5505
    3MPD1    H514145   4.604   4.084  10.527  0.2555 -0.6345 -2.0646
    3MPD1    N114146   4.443   3.901  10.112 -0.0810 -0.7667 -0.2607
    3MPD1    H614147   4.457   3.858  10.020 -1.4513  2.0499 -1.7822
    3MPD1    H714148   4.421   3.998  10.092  0.9641 -0.5721 -0.4513
    4MPD2     C14149   0.476   4.156  12.185 -0.3774  0.6377 -0.3360
    4MPD2    C114150   0.523   4.039  12.130 -0.9093 -0.8186  0.2219
    4MPD2    C214151   0.606   4.045  12.018  0.2829 -0.4415 -0.2278
    4MPD2    C314152   0.620   4.162  11.948  0.5593 -0.1140 -0.4035
    4MPD2    C414153   0.557   4.275  11.993  0.0205  0.7057 -0.2561
    4MPD2    C514154   0.489   4.269  12.110 -0.0324  0.4635  0.3287
    4MPD2     H14155   0.652   3.955  11.977  0.4903 -0.8844  0.9767
    4MPD2    H114156   0.567   4.374  11.949 -1.2492  0.0474 -2.0199
    4MPD2    H214157   0.421   4.157  12.278 -0.7957 -0.6587 -0.5695
    4MPD2    H314158   0.448   4.355  12.162 -0.4319 -0.1894  1.0975
    4MPD2     N14159   0.704   4.174  11.831  0.3883 -0.3724 -0.4095
    4MPD2    H514160   0.705   4.264  11.783 -0.9196  1.3670  2.9014
    4MPD2    N114161   0.511   3.915  12.190 -0.0387  0.4215 -0.7226
    4MPD2    H714162   0.565   3.846  12.140  3.2698  0.8456  2.2507
    5TMC3    C114163   0.496   3.744  12.349  0.2572 -0.8756 -0.1921
    5TMC3    C214164   0.389   3.667  12.374  0.6603 -0.0110  0.6001
    5TMC3    C314165   0.384   3.552  12.304  0.1326 -0.0251  0.3314
    5TMC3    C414166   0.599   3.715  12.264 -0.4903 -0.5050  0.2421
    5TMC3    C514167   0.590   3.594  12.199 -0.2902 -0.9536 -0.2660
    5TMC3    C614168   0.483   3.508  12.217  0.5561 -0.5858  0.1767
    5TMC3     C14169   0.453   3.878  12.309 -0.3794  0.3204  0.1983
    5TMC3     O14170   0.358   3.931  12.363  0.5023 -0.5551  0.1517
    5TMC3     H14171   0.304   3.700  12.433 -1.4004  1.1430 -2.9869
    5TMC3    H114172   0.689   3.775  12.264 -0.9690  0.2051 -1.2340
    5TMC3    H214173   0.475   3.411  12.170 -0.0863 -0.7588  0.6462
    5TMC3    C714174   0.639   3.615  12.065 -0.8889 -0.2278  0.0752
    5TMC3    C814175   0.347   3.450  12.399  0.0414 -0.4203 -0.4811
    5TMC3    O114176   0.634   3.729  12.031 -0.2264 -0.4400 -0.3476
    5TMC3    O214177   0.227   3.436  12.428 -0.2806  0.3217 -0.3475
    6TMC3    C114178   4.603   4.207  10.896 -0.7089  0.0194  0.2418
    6TMC3    C214179   4.608   4.131  10.778 -0.3474  0.7066 -0.0824
    6TMC3    C314180   4.725   4.070  10.745  0.2476 -0.1723  0.4023
    6TMC3    C414181   4.715   4.215  10.978  0.1020  0.2439  0.1145
    6TMC3    C514182   0.102   4.152  10.940  0.5258  0.0068 -0.5471
    6TMC3    C614183   0.105   4.069  10.827  0.0634  0.0085  0.1147
    6TMC3     C14184   4.479   4.267  10.945  0.8210 -0.0247  0.2343
    6TMC3     O14185   4.469   4.299  11.062  0.0420 -0.3702 -0.5050
    6TMC3     H14186   4.532   4.129  10.701  1.8469  0.1199 -2.2628
    6TMC3    H114187   4.717   4.285  11.060 -2.1491 -1.2589  1.4632
    6TMC3    H214188   0.190   4.006  10.805 -0.2409 -0.7455  1.0487
    6TMC3    C714189   0.228   4.186  11.000  0.6753  0.1401  0.4081
    6TMC3    C814190   4.712   3.963  10.652 -0.7700 -0.1669 -0.0426
    6TMC3    O114191   0.222   4.248  11.104  0.2915 -0.7697  0.2095
    6TMC3    O214192   0.060   3.868  10.679  0.4117  0.5728  0.1163
    7MPD2     C14193   0.872   3.523  11.621  0.5324  0.7480  0.3178
    7MPD2    C114194   0.839   3.637  11.676 -0.6333  0.9886 -0.6406
    7MPD2    C214195   0.769   3.630  11.792  0.7646  0.0129  0.3158
    7MPD2    C314196   0.729   3.512  11.855 -0.1807 -0.2846  0.4849
    7MPD2    C414197   0.759   3.392  11.791 -0.2222 -0.3524 -0.7682
    7MPD2    C514198   0.828   3.407  11.676 -0.1456  0.0728 -0.4687
    7MPD2     H14199   0.739   3.725  11.834  1.7289 -0.5285  2.2233
    7MPD2    H114200   0.769   3.296  11.841  0.0967  0.1171  0.0583
    7MPD2    H214201   0.929   3.516  11.529 -0.3874 -1.0429 -0.1213
    7MPD2    H314202   0.859   3.310  11.638 -2.2594 -0.1412 -1.6487
    7MPD2     N14203   0.665   3.502  11.985  0.2567 -0.5639 -0.4561
    7MPD2    H514204   0.651   3.411  12.026 -2.5123  0.0601  0.0289
    7MPD2    N114205   0.872   3.763  11.628  0.4702 -0.2146 -0.0773
    7MPD2    H714206   0.834   3.838  11.685  0.0213  1.0651 -2.0650
    8TMC3    C114207   0.931   3.944  11.498 -0.8099  0.1477 -0.0152
    8TMC3    C214208   0.835   3.979  11.402 -0.1398 -0.0739  0.3034
    8TMC3    C314209   0.739   4.070  11.434  0.4791 -0.1254 -0.0947
    8TMC3    C414210   0.931   4.008  11.621 -0.3218 -0.2085 -0.4461
    8TMC3    C514211   0.838   4.107  11.646 -0.3280 -0.0005  0.4471
    8TMC3    C614212   0.742   4.139  11.551  0.1183 -0.0471  0.1122
    8TMC3     C14213   0.944   3.798  11.515  0.5613 -1.0980  0.5709
    8TMC3     O14214   0.964   3.737  11.415 -0.1525 -0.4859 -0.1316
    8TMC3     H14215   0.827   3.925  11.308  0.1939  0.1069  0.1745
    8TMC3    H114216   0.999   3.976  11.699  0.1623 -0.8494 -1.1182
    8TMC3    H214217   0.671   4.214  11.584  0.2298  0.1293 -0.0464
    8TMC3    C714218   0.787   4.079  11.784 -0.2592 -0.0720 -0.2974
    8TMC3    C814219   0.652   4.119  11.330 -0.5753 -0.8926 -0.3011
    8TMC3    O114220   0.821   3.971  11.830  0.4638 -0.1670  0.0109
    8TMC3    O214221   0.548   4.175  11.358 -0.4052 -0.1144  0.1296
    9MPD2     C14222   0.743   4.177  10.991 -0.2238 -0.0548 -0.4835
    9MPD2    C114223   0.652   4.161  11.093 -0.1942 -0.1039 -0.6910
    9MPD2    C214224   0.515   4.168  11.070 -0.3852  0.1401 -0.1549
    9MPD2    C314225   0.474   4.200  10.941 -0.3426 -0.1655 -0.0929
    9MPD2    C414226   0.565   4.219  10.843  0.1057 -0.1584  0.0840
    9MPD2    C514227   0.699   4.221  10.868 -0.4283 -0.2081  0.0723
    9MPD2     H14228   0.452   4.156  11.157  1.7352 -0.5223  1.2645
    9MPD2    H114229   0.528   4.228  10.742 -1.0575 -0.7225  0.4535
    9MPD2    H214230   0.849   4.158  10.999  0.0373  2.5287  2.4045
    9MPD2    H314231   0.765   4.231  10.782  0.5480  1.1471  0.9743
    9MPD2     N14232   0.333   4.185  10.912 -0.2500 -0.3608 -0.8909
    9MPD2    H514233   0.309   4.171  10.814  0.4136  0.8301 -1.2312
    9MPD2    N114234   0.712   4.105  11.211 -0.8234  0.1872  0.3710
    9MPD2    H714235   0.811   4.086  11.213 -0.5052  1.8559  1.4303
    1MPD1     C14236   0.217   3.569  16.949  0.3907  0.3011  0.6507
    1MPD1    C114237   0.183   3.440  16.992 -0.1580  0.4447 -0.5236
    1MPD1    C214238   0.049   3.409  16.999 -0.8722  0.4465 -0.0866
    1MPD1    C314239   4.678   3.499  16.954  0.5329 -0.5007 -0.5444
    1MPD1    C414240   4.712   3.623  16.918  0.8105 -0.3507 -0.4005
    1MPD1    C514241   0.122   3.655  16.907 -0.0265 -0.8178  0.2612
    1MPD1     H14242   0.014   3.313  17.036  1.6035 -0.1371  0.7347
    1MPD1    H114243   4.636   3.700  16.909  0.6630 -0.6578 -1.8211
    1MPD1    H214244   0.319   3.605  16.940 -0.0424  1.0625 -1.2040
    1MPD1    H314245   0.154   3.753  16.874 -1.3731 -0.3392  0.3514
    1MPD1     N14246   4.542   3.463  16.945 -0.4710 -0.6790 -0.3700
    1MPD1    H514247   4.479   3.534  16.910 -1.7417 -1.6811 -0.1363
    1MPD1    N114248   0.278   3.356  17.049  0.0347  0.4115  0.7999
    1MPD1    H614249   0.368   3.372  17.004 -0.1082 -1.5557 -0.2176
    1MPD1    H714250   0.266   3.255  17.057 -1.6655  0.3979 -1.9150
    2MPD1     C14251   3.970   2.834  17.490 -0.5288  0.1074  0.3868
    2MPD1    C114252   4.105   2.865  17.477 -0.1420 -0.3771 -0.3888
    2MPD1    C214253   4.149   2.958  17.385 -0.1611 -0.2942  0.3739
    2MPD1    C314254   4.058   3.031  17.310 -0.1703 -0.1857  0.8769
    2MPD1    C414255   3.921   3.018  17.337  0.0400 -0.0149 -0.3704
    2MPD1    C514256   3.886   2.912  17.426 -0.0951  0.4712  0.3754
    2MPD1     H14257   4.252   2.991  17.388 -1.0274  2.5590 -1.1508
    2MPD1    H114258   3.845   3.082  17.293 -0.8247 -0.4664  0.4852
    2MPD1    H214259   3.930   2.761  17.559 -0.0818  0.2968  0.8421
    2MPD1    H314260   3.781   2.900  17.449 -0.4017  0.8812 -0.7781
    2MPD1     N14261   4.112   3.120  17.213 -0.8333  0.0211 -0.2929
    2MPD1    H514262   4.212   3.112  17.198 -0.8663  0.8779 -0.9811
    2MPD1    N114263   4.197   2.822  17.577  0.7708  0.4389  0.4810
    2MPD1    H614264   4.282   2.800  17.525  1.1029  0.2458  1.1051
    2MPD1    H714265   4.164   2.743  17.631  0.1809  0.9960  0.9345
    3TCq2    C114266   4.040   3.194  17.121  0.3005 -0.1345  0.2354
    3TCq2    O214267   3.919   3.195  17.107 -0.3959 -0.1256 -0.1477
    3TCq2    C214268   4.123   3.267  17.033  0.6219 -0.3960  0.1038
    3TCq2    C314269   4.061   3.371  16.951  0.4237  1.0652  0.1477
    3TCq2    C414270   4.143   3.459  16.887  0.3637 -0.2227  0.7243
    3TCq2    C514271   4.277   3.454  16.907 -0.1169  0.3101 -0.5135
    3TCq2    C614272   4.332   3.353  16.981  0.4955  0.5667  0.2763
    3TCq2    C714273   4.258   3.251  17.035  0.0924 -0.3948 -0.0436
    3TCq2    C814274   4.477   3.344  16.984 -0.3010  0.1358  0.5404
    3TCq2    O414275   4.523   3.236  17.033  0.2719  0.0628 -1.0423
    3TCq2    C914276   4.089   3.572  16.811  0.2791  0.8723 -0.3637
    3TCq2    O514277   3.964   3.585  16.812 -0.1010  0.5181 -0.0509
    3TCq2    O614278   4.156   3.671  16.771 -0.2153  0.3858 -0.8296
    3TCq2    H214279   3.954   3.382  16.962  0.2471 -1.2160  0.6519
    3TCq2    H314280   4.339   3.533  16.864  0.9963 -1.9332 -3.0054
    3TCq2    H414281   4.311   3.176  17.092  1.8917  0.8348 -0.0896
    1TCq1    O114282   2.152   2.010  12.537  0.3110 -0.4305 -0.1144
    1TCq1    C114283   2.212   1.929  12.446 -0.4603 -0.9471 -0.8772
    1TCq1    O214284   2.259   1.951  12.339 -0.1909  0.4996  0.3157
    1TCq1    C214285   2.287   1.844  12.537 -1.0288 -0.4291 -0.3752
    1TCq1    C314286   2.224   1.768  12.627  0.4965  0.5402 -0.4406
    1TCq1    C414287   2.294   1.696  12.717  0.0264  0.3952  0.1679
    1TCq1    C514288   2.429   1.707  12.730  0.3975  0.1998  0.6087
    1TCq1    C614289   2.492   1.803  12.650  0.1317  0.0419 -0.3258
    1TCq1    C714290   2.423   1.860  12.544 -0.6251 -0.7034 -0.0098
    1TCq1    C814291   2.629   1.825  12.673 -0.2172 -0.1685 -0.3710
    1TCq1    O414292   2.691   1.872  12.581 -0.4939  0.1283 -0.1672
    1TCq1    C914293   2.220   1.603  12.807 -0.9912  0.2204 -0.7071
    1TCq1    O514294   2.264   1.560  12.917 -0.2229 -0.4399 -0.0058
    1TCq1    O614295   2.112   1.570  12.763  0.3261 -0.4286  0.1052
    1TCq1    H114296   2.158   1.971  12.627  0.3853 -1.1106 -0.4172
    1TCq1    H214297   2.118   1.745  12.615  0.1606  2.1807 -0.5678
    1TCq1    H314298   2.476   1.665  12.818  0.8817 -0.7091 -0.0799
    1TCq1    H414299   2.474   1.939  12.490 -3.9703  1.8346  0.5547
    2MPD2     C14300   2.922   1.815  12.742 -0.7081 -0.0750  0.0470
    2MPD2    C114301   2.820   1.797  12.830 -0.6906  0.1713 -0.3998
    2MPD2    C214302   2.856   1.802  12.966 -0.0583 -0.3192 -0.4868
    2MPD2    C314303   2.983   1.812  13.013 -0.5232 -0.4592  0.4207
    2MPD2    C414304   3.085   1.806  12.922 -0.1581 -0.3507  0.3919
    2MPD2    C514305   3.054   1.814  12.788 -0.2651 -0.1229 -0.4782
    2MPD2     H14306   2.774   1.804  13.037 -1.1604 -0.6359 -1.7494
    2MPD2    H114307   3.190   1.818  12.947 -0.5207  1.0178  1.2455
    2MPD2    H214308   2.907   1.818  12.634  0.0753  0.8727 -0.0322
    2MPD2    H314309   3.122   1.833  12.706 -0.6900  0.0081 -0.8013
    2MPD2     N14310   2.998   1.814  13.154 -0.3202 -0.1951 -0.9315
    2MPD2    H514311   2.912   1.829  13.206  0.3071  2.5543 -0.6798
    2MPD2    N114312   2.679   1.789  12.800 -0.0278 -0.2444 -0.1518
    2MPD2    H714313   2.610   1.761  12.870  1.1574 -1.1686  0.6418
    3TCq1    O114314   2.877   1.996  13.714 -0.1137 -0.0144 -0.0950
    3TCq1    C114315   2.858   1.961  13.587 -0.3695 -0.1842  0.4685
    3TCq1    O214316   2.756   1.977  13.522 -0.2682  0.2722 -0.2916
    3TCq1    C214317   2.987   1.900  13.542  0.6983 -0.9605 -0.1259
    3TCq1    C314318   3.073   1.842  13.631  0.1175 -0.4604  0.6247
    3TCq1    C414319   3.176   1.761  13.587 -0.4164  0.4524  0.5133
    3TCq1    C514320   3.179   1.733  13.453 -0.1325  0.5839  0.7354
    3TCq1    C614321   3.098   1.809  13.368 -0.8334 -0.0599 -0.8084
    3TCq1    C714322   2.991   1.886  13.408 -0.6860  0.5603  0.0114
    3TCq1    C814323   3.115   1.792  13.222  0.3063  0.0179 -0.7294
    3TCq1    O414324   3.225   1.755  13.181  0.1530 -0.1661 -0.4431
    3TCq1    C914325   3.253   1.679  13.686  0.7308  0.2695  0.1970
    3TCq1    O514326   3.254   1.726  13.803 -0.1828  0.5224 -0.0380
    3TCq1    O614327   3.325   1.578  13.656 -0.5796 -0.1489  0.2434
    3TCq1    H114328   2.970   2.021  13.729 -0.4229  0.5263  0.9287
    3TCq1    H214329   3.051   1.831  13.737 -2.5902 -1.5085 -0.0384
    3TCq1    H314330   3.255   1.668  13.412 -0.6830  2.3558 -3.1817
    3TCq1    H414331   2.927   1.951  13.349  0.3224  0.1963 -1.4702
    1MPD2     C14332   2.332   2.057  15.088  0.3013  0.3907 -0.0472
    1MPD2    C114333   2.229   2.079  14.998 -0.8235  0.7229  0.1747
    1MPD2    C214334   2.198   1.980  14.905  0.7932 -0.6645  0.9741
    1MPD2    C314335   2.272   1.869  14.884 -0.5611  0.1927  0.2475
    1MPD2    C414336   2.371   1.849  14.978  0.7038 -0.1726  0.4258
    1MPD2    C514337   2.398   1.939  15.077 -0.3743 -0.5686  0.1350
    1MPD2     H14338   2.113   1.987  14.838  1.2273 -0.0878  0.4789
    1MPD2    H114339   2.431   1.759  14.975  0.9421 -0.0151  0.4679
    1MPD2    H214340   2.347   2.123  15.173  1.9702 -2.3949  1.8340
    1MPD2    H314341   2.482   1.911  15.140 -0.7765 -1.2349  0.3713
    1MPD2     N14342   2.243   1.767  14.785 -0.0371 -0.0475 -0.2600
    1MPD2    H514343   2.161   1.788  14.729  0.6581 -2.1500 -2.0204
    1MPD2    N114344   2.148   2.193  15.014 -0.4917  0.0763 -0.2126
    1MPD2    H714345   2.171   2.245  15.098  0.4791 -0.1356 -0.3415
    2TMC3    C114346   1.965   2.338  14.982  0.7028  0.4473  0.1210
    2TMC3    C214347   1.852   2.338  14.899  0.2498  0.2800 -0.1758
    2TMC3    C314348   1.842   2.422  14.796 -0.4995 -0.4382 -0.6685
    2TMC3    C414349   2.060   2.442  14.967  0.1110 -0.3111  0.3853
    2TMC3    C514350   2.049   2.518  14.853  0.5688 -0.3083 -0.0288
    2TMC3    C614351   1.939   2.511  14.772 -0.1739  0.2387 -0.1701
    2TMC3     C14352   2.022   2.207  14.959 -0.7096 -0.5833 -0.3211
    2TMC3     O14353   1.956   2.131  14.893  0.3784  0.1081  0.3909
    2TMC3     H14354   1.775   2.263  14.906 -0.8868  1.2217 -2.5342
    2TMC3    H114355   2.147   2.447  15.031 -0.6097  0.8003  1.3000
    2TMC3    H214356   1.939   2.561  14.675 -1.1995 -0.8023 -0.7036
    2TMC3    C714357   2.159   2.586  14.799  0.4475  0.5230 -0.3588
    2TMC3    C814358   1.799   2.361  14.674 -0.5653 -0.0875  0.2797
    2TMC3    O114359   2.147   2.635  14.688  0.0622 -0.2564 -0.3887
    2TMC3    O214360   1.754   2.429  14.581 -0.1042 -0.1630 -0.2015
    3TCq1    O114361   2.923   2.633  15.606 -0.0471  0.2622  0.4563
    3TCq1    C114362   2.845   2.678  15.504 -0.2691 -0.9713 -0.3209
    3TCq1    O214363   2.725   2.700  15.506 -0.3000 -0.3822 -0.9007
    3TCq1    C214364   2.918   2.711  15.389  0.1740 -0.2361  0.9896
    3TCq1    C314365   3.051   2.728  15.391 -0.0146 -0.1348  0.3768
    3TCq1    C414366   3.127   2.746  15.277  0.3207  0.3834 -0.8831
    3TCq1    C514367   3.062   2.755  15.152 -0.9450 -0.1153  0.5199
    3TCq1    C614368   2.924   2.727  15.151  0.7644  0.1690 -0.2415
    3TCq1    C714369   2.855   2.709  15.270 -0.3189  0.1225  0.3734
    3TCq1    C814370   2.846   2.722  15.023 -0.1401  0.2166 -0.3304
    3TCq1    O414371   2.907   2.747  14.916 -0.1549  0.4093 -0.1700
    3TCq1    C914372   3.269   2.745  15.287 -0.5223  0.9630  0.2469
    3TCq1    O514373   3.340   2.703  15.192  0.0397 -0.0872 -0.4759
    3TCq1    O614374   3.323   2.792  15.394 -0.0629 -0.4646 -0.2340
    3TCq1    H114375   3.008   2.599  15.570  0.4406  0.6598  1.2504
    3TCq1    H214376   3.094   2.731  15.491  0.7967  0.0182  0.0294
    3TCq1    H314377   3.121   2.750  15.061 -2.2926  0.6185 -0.3882
    3TCq1    H414378   2.757   2.665  15.278 -0.2359 -0.1067  0.1140
    4MPD2     C14379   2.673   2.644  14.789  0.6959  0.0111 -0.5039
    4MPD2    C114380   2.628   2.659  14.921 -0.3200  0.4832 -0.7995
    4MPD2    C214381   2.487   2.655  14.948  0.3980 -0.1247 -0.3728
    4MPD2    C314382   2.398   2.642  14.846  0.9434  0.5809 -0.6374
    4MPD2    C414383   2.442   2.643  14.715  0.2213 -0.8107  0.2597
    4MPD2    C514384   2.579   2.638  14.690 -0.2655 -0.4249 -0.4917
    4MPD2     H14385   2.448   2.655  15.049 -0.4074  1.0659 -0.6829
    4MPD2    H114386   2.372   2.625  14.635  1.2983  0.9052 -1.0574
    4MPD2    H214387   2.779   2.644  14.765  0.7864 -1.9214 -0.1014
    4MPD2    H314388   2.612   2.627  14.587 -2.3649 -3.8303 -0.8192
    4MPD2     N14389   2.265   2.604  14.886  0.4146 -0.5523  0.1087
    4MPD2    H514390   2.247   2.594  14.986  0.2022 -4.3763 -0.3179
    4MPD2    N114391   2.714   2.674  15.032  0.0403  0.1806  0.1406
    4MPD2    H714392   2.680   2.681  15.128 -1.1601 -0.1057 -0.2695
    5TMC2    C114393   2.034   1.626  14.551 -0.2130 -0.0107  0.2945
    5TMC2    C214394   1.966   1.520  14.614  0.1332 -0.4086  0.7304
    5TMC2    C314395   2.039   1.438  14.694 -0.3060  0.4233 -0.2361
    5TMC2    C414396   2.171   1.643  14.573 -1.3512 -0.1002  0.2359
    5TMC2    C514397   2.233   1.567  14.665 -0.1354  0.9060  0.7196
    5TMC2    C614398   2.169   1.456  14.717 -0.2199 -0.6146 -0.0073
    5TMC2     C14399   1.967   1.750  14.566  0.0307  0.1768 -0.2229
    5TMC2     O14400   1.981   1.798  14.682 -0.0720 -0.2342  0.3873
    5TMC2     H14401   1.858   1.513  14.620 -0.0659 -0.5445 -2.9634
    5TMC2    H114402   2.211   1.733  14.529 -0.0506 -0.3105  0.9655
    5TMC2    H214403   2.231   1.379  14.761 -0.1823 -1.3276 -1.3034
    5TMC2    C714404   2.305   1.645  14.764 -0.6433 -0.0819  0.3715
    5TMC2    C814405   1.967   1.320  14.737  0.8468 -0.0351 -0.5813
    5TMC2    O114406   2.405   1.599  14.820  0.1989 -0.4729  0.3939
    5TMC2    O214407   1.924   1.245  14.648  0.1906 -0.2065 -0.2720
    5TMC2    O514408   2.033   1.273  14.846 -0.6469 -0.0870  0.1137
    5TMC2    H514409   2.041   1.342  14.916  1.3504 -0.6551  0.4354
    6MPD2     C14410   1.805   2.201  14.423 -1.0318  0.0488 -0.5471
    6MPD2    C114411   1.834   2.153  14.549  0.8657  0.1754  0.3952
    6MPD2    C214412   1.870   2.020  14.558  0.6984  0.2671  0.2680
    6MPD2    C314413   1.884   1.942  14.442 -1.1104  0.0123 -0.1754
    6MPD2    C414414   1.873   2.005  14.322 -0.5484 -0.4292  0.1166
    6MPD2    C514415   1.827   2.129  14.308 -0.2711  0.1683 -1.1322
    6MPD2     H14416   1.889   1.986  14.659 -1.0666  0.0070  0.4962
    6MPD2    H114417   1.885   1.946  14.232  1.0739 -1.2886  0.8940
    6MPD2    H214418   1.766   2.300  14.404 -1.5066  0.1159  0.7575
    6MPD2    H314419   1.787   2.166  14.215  0.2026  0.3495 -1.2646
    6MPD2     N14420   1.928   1.813  14.448 -0.1260  0.2761  0.1328
    6MPD2    H514421   1.935   1.768  14.357 -0.9608  1.7828 -0.6743
    6MPD2    N114422   1.828   2.227  14.668  0.4541 -0.6955  0.3084
    6MPD2    H714423   1.865   2.180  14.750  0.8180  1.4582  1.3783
  945NH3     N114424   0.995   0.877  13.469  0.5690 -0.0861 -0.5731
  945NH3     H214425   0.933   0.798  13.488 -0.6505  0.6108 -1.7380
  945NH3     H314426   1.013   0.892  13.568 -1.1151  2.1932 -0.6244
  945NH3     H414427   0.932   0.953  13.448  2.1067  2.0783  2.5875
  946SOD     NA14428   3.045   3.049  14.412 -0.0182  0.0625  0.2146
  947SOD     NA14429   3.860   1.898  14.516  0.0093  0.1577 -0.6112
  948SOD     NA14430   3.983   0.562  17.152  0.2005  0.0428 -0.3460
  949SOD     NA14431   1.281   0.346   1.344 -0.5062  0.2242 -0.1717
  950SOD     NA14432   0.863   4.396   1.367  0.5465  0.1283  0.0385
  951SOD     NA14433   4.681   2.662   0.662 -0.3033  0.2085  0.0472
  952SOD     NA14434   3.533   2.482  11.025 -0.0640 -0.1939  0.1538
  953SOD     NA14435   1.063   1.690   3.039 -0.1532 -0.8370 -0.1276
  954SOD     NA14436   1.563   1.549  10.178 -0.0379  0.6588 -0.5592
  955SOD     NA14437   4.568   0.556  13.872 -0.2090 -0.1846  0.0145
  956SOD     NA14438   0.005   1.267   0.882 -0.0489 -0.1568  0.0210
  957SOD     NA14439   0.446   3.866  10.025  0.0389  0.6436  0.1553
  958SOD     NA14440   1.707   0.863  15.243  0.0200 -0.8110 -0.0957
  959SOD     NA14441   1.874   1.226  12.482 -0.2296 -0.6106  0.1825
  960SOD     NA14442   2.969   1.800   1.326  0.1065  0.1475  0.0729
  961SOD     NA14443   0.836   4.172   4.851  0.2185 -0.3100 -0.8948
  962SOD     NA14444   1.586   3.066  11.168 -0.1134 -0.4785 -0.1336
  963SOD     NA14445   3.965   3.782  16.716  0.6425 -0.1681  0.2710
  964SOD     NA14446   2.385   2.209   3.227  0.0290  0.0001 -0.2591
  965SOD     NA14447   1.977   0.874   1.427  0.1726 -0.2873 -0.0253
  966SOD     NA14448   3.352   3.001  15.375 -0.1628 -0.3123  0.2254
  967SOD     NA14449   3.412   1.857  13.860 -0.2451 -0.4455 -0.0646
  968SOD     NA14450   3.394   1.928   0.668  0.5989 -0.3496  0.0340
  969SOD     NA14451   1.199   2.730   8.942  0.0163 -0.3914 -0.4156
  970SOD     NA14452   2.646   1.259  11.267 -0.0126  0.2123 -0.2953
  971SOD     NA14453   0.853   1.219  13.228  0.3252 -0.0733 -0.0657
  972SOD     NA14454   2.394   2.831  10.727  0.5726 -0.0157 -0.0593
  973SOD     NA14455   3.194   2.600  11.986 -0.7995 -0.0413 -0.3191
  974SOD     NA14456   2.106   1.393  12.910 -0.3792 -0.6945  0.0081
  975SOD     NA14457   2.940   4.162   5.741 -0.4932  0.1740 -0.8384
  976SOD     NA14458   4.636   4.090  11.925 -0.2990 -0.1348 -0.4046
  977SOD     NA14459   1.891   2.833  10.663  0.5752  0.2266 -0.1482
  978SOD     NA14460   3.009   3.150   1.121  0.1217 -0.1658  0.0528
  979SOD     NA14461   3.367   2.631  14.722 -0.2131 -0.3411  0.3719
  980SOD     NA14462   4.684   2.379  14.967  0.3697 -0.0820 -0.1251
  981SOD     NA14463   0.539   0.857   3.214  0.1693 -0.0424  0.2931
  982SOD     NA14464   1.400   4.208   7.981 -0.4788 -0.4180  0.3384
  983SOD     NA14465   0.595   4.537  16.331  0.0646  0.0415 -0.5292
  984SOD     NA14466   0.061   2.162  11.458  0.0091  0.0137  0.7562
  985SOD     NA14467   3.888   2.797  16.751  0.2152 -0.0547  0.2258
  986SOD     NA14468   0.330   1.487   1.626  0.4814 -0.4194 -0.1864
  987SOD     NA14469   1.055   2.224  16.480  0.0346  0.1890 -0.1499
  988SOD     NA14470   4.618   3.104  11.225  0.5722  0.0764 -0.1781
  989SOD     NA14471   3.252   2.245   7.863 -0.8691 -0.4363  0.1881
  990SOD     NA14472   0.006   1.177   0.541  0.0382  0.3258  0.1220
  991SOD     NA14473   3.816   3.422  15.035  0.2684  0.4351  0.4266
  992SOD     NA14474   4.285   3.050  12.858 -0.0265  0.2284  0.1459
  993SOD     NA14475   3.364   2.293  11.243  0.4275  0.3502 -0.0961
  994SOD     NA14476   0.006   1.999  11.153  0.1844 -0.2104 -0.3625
  995SOD     NA14477   4.371   0.803  12.611 -0.3521 -0.1801 -0.6261
  996SOD     NA14478   2.764   3.290  11.087  0.2215 -0.1592  0.5440
  997SOD     NA14479   3.407   2.556  12.276 -0.2001  0.2653  0.0533
  998SOD     NA14480   4.654   0.301   3.694  0.0434 -0.4085 -0.0880
  999SOD     NA14481   2.544   1.179   9.901 -0.1264  0.5051 -0.1564
 1000SOD     NA14482   2.199   4.467   9.838 -0.0260  0.6635 -0.0769
 1001SOD     NA14483   2.514   4.641   9.355  0.0925 -0.3364  0.0786
 1002SOD     NA14484   0.603   2.682  13.328 -0.0640 -0.3766 -0.1270
 1003SOD     NA14485   3.672   1.542  12.401  0.7361 -0.0650 -0.2361
 1004SOD     NA14486   1.692   3.428  11.649 -0.0371 -0.2201 -0.0541
 1005SOD     NA14487   1.695   3.488   8.966 -0.2632 -0.2803  0.1374
 1006SOD     NA14488   3.558   2.130   9.754  0.2797  0.2979  0.0477
 1007SOD     NA14489   3.433   2.277   8.737 -0.6544 -0.5049  0.1359
 1008SOD     NA14490   4.287   0.092  14.416  0.4283  0.1856 -0.4898
 1009SOD     NA14491   0.868   0.172   2.262 -0.0604  0.1106 -0.0193
 1010SOD     NA14492   0.560   2.617  15.372  0.1226  0.0149  0.3499
 1011SOD     NA14493   3.541   2.753  15.310  0.1957 -0.1326  0.5256
 1012SOL     OW14494   0.070   3.873   8.440  0.1442 -0.3906 -0.1766
 1012SOL    HW114495   0.099   3.788   8.473  1.2972 -0.5997 -1.7653
 1012SOL    HW214496   4.700   3.857   8.437  0.2820 -1.4499  1.1060
 1013SOL     OW14497   4.644   0.421   5.164  0.9415  0.6167 -0.0562
 1013SOL    HW114498   4.722   0.403   5.111  0.1108 -3.5020  0.0516
 1013SOL    HW214499   4.615   0.335   5.197 -0.9914  1.4464  0.4262
 1014SOL     OW14500   1.545   1.163   2.298 -0.6807  0.2468 -0.2614
 1014SOL    HW114501   1.536   1.097   2.368 -0.8197 -0.6159 -1.0929
 1014SOL    HW214502   1.623   1.125   2.256 -1.6189 -2.2605  0.2520
 1015SOL     OW14503   2.680   3.688   8.800  0.2012  0.3662  0.4065
 1015SOL    HW114504   2.760   3.706   8.751  0.8122  2.8913  2.4055
 1015SOL    HW214505   2.708   3.616   8.857 -2.5554 -0.4277  0.7668
 1016SOL     OW14506   1.083   3.639   9.642  0.1177 -0.0099 -0.3862
 1016SOL    HW114507   1.055   3.654   9.552  0.1164 -3.0454 -0.8766
 1016SOL    HW214508   1.032   3.706   9.688 -0.1877 -1.6537  1.6324
 1017SOL     OW14509   0.544   0.107   7.452 -0.1267  0.1634  0.3140
 1017SOL    HW114510   0.537   0.034   7.513 -1.0257 -0.4412 -0.5126
 1017SOL    HW214511   0.495   0.070   7.379  1.9459 -2.2341  0.1436
 1018SOL     OW14512   4.502   2.465   8.066  0.3572 -0.1617  0.4826
 1018SOL    HW114513   4.543   2.441   8.149  1.0379 -0.9829 -0.0922
 1018SOL    HW214514   4.538   2.411   7.995  1.1279  0.7118  0.2117
 1019SOL     OW14515   1.628   4.222   7.115  0.3651 -0.2965 -0.0874
 1019SOL    HW114516   1.571   4.146   7.128  0.3092 -0.2278  0.0668
 1019SOL    HW214517   1.655   4.234   7.206 -0.7363 -2.9072  0.6052
 1020SOL     OW14518   3.805   3.559   5.424 -0.3252  0.9670  0.5652
 1020SOL    HW114519   3.891   3.516   5.422  0.0770  1.6671  3.0999
 1020SOL    HW214520   3.755   3.510   5.489  0.5784  1.5986  1.7353
 1021SOL     OW14521   0.186   0.956   8.584  0.6279  0.2360 -0.2260
 1021SOL    HW114522   0.120   0.980   8.519  0.0446 -0.9054 -0.0659
 1021SOL    HW214523   0.234   0.887   8.540  0.3184 -0.5613  0.6795
 1022SOL     OW14524   2.185   4.686   3.427 -0.8349 -0.5508 -0.2652
 1022SOL    HW114525   2.208   0.050   3.399 -1.0399  0.2789  2.1502
 1022SOL    HW214526   2.228   4.671   3.511 -2.0234  1.6539  0.7445
 1023SOL     OW14527   0.481   2.952   8.458 -0.2714 -0.5136  0.6679
 1023SOL    HW114528   0.559   3.007   8.464  0.2766 -1.4853  2.3377
 1023SOL    HW214529   0.415   2.992   8.515 -0.9984  0.1018 -0.6117
 1024SOL     OW14530   1.981   3.176   5.971 -0.7648  0.4152  0.3398
 1024SOL    HW114531   1.906   3.120   5.951 -0.1968 -0.1693 -0.1410
 1024SOL    HW214532   1.973   3.239   5.899  0.6534  0.2354  0.0369
 1025SOL     OW14533   1.426   2.017   6.309  0.0752  0.1265  0.0227
 1025SOL    HW114534   1.494   2.070   6.268  0.8716  0.8978  2.3224
 1025SOL    HW214535   1.415   2.059   6.394 -0.9842 -0.1093  0.0040
 1026SOL     OW14536   1.807   4.333   1.626 -0.4095 -0.4634 -0.2358
 1026SOL    HW114537   1.843   4.338   1.537 -1.6350  0.3599 -0.6864
 1026SOL    HW214538   1.750   4.409   1.625  1.7539  1.1641  1.0081
 1027SOL     OW14539   2.130   0.380  10.906 -0.4014 -0.3757  0.1151
 1027SOL    HW114540   2.105   0.459  10.954 -0.8799  0.5008 -1.5771
 1027SOL    HW214541   2.046   0.334  10.906 -0.7327  0.2235  0.4012
 1028SOL     OW14542   3.079   0.100  13.352  0.8556  0.4326  0.4504
 1028SOL    HW114543   2.999   0.090  13.299  0.8895  0.1313  0.4550
 1028SOL    HW214544   3.049   0.168  13.412  2.9279  1.2212  0.5981
 1029SOL     OW14545   4.668   2.953   7.048 -0.4336  0.9719 -0.6539
 1029SOL    HW114546   4.588   2.937   7.098 -0.9383 -1.7478 -2.3203
 1029SOL    HW214547   0.011   2.943   7.115  1.0882  0.6733 -2.2290
 1030SOL     OW14548   3.720   3.442   3.653 -0.2471  0.4513 -0.4519
 1030SOL    HW114549   3.801   3.463   3.607  0.7378 -0.4628  0.8516
 1030SOL    HW214550   3.672   3.396   3.585  1.6648 -0.2927 -1.3205
 1031SOL     OW14551   2.354   3.064   3.055 -0.0040  0.4475  0.5401
 1031SOL    HW114552   2.398   3.111   3.126  0.9214  0.2934  0.0721
 1031SOL    HW214553   2.264   3.059   3.088  0.6798 -0.4385  2.2575
 1032SOL     OW14554   2.193   0.333  15.593  0.7320 -0.4240  0.1554
 1032SOL    HW114555   2.207   0.239  15.583  1.6580 -0.2413 -0.1964
 1032SOL    HW214556   2.137   0.343  15.516 -1.3404 -1.2160  1.5611
 1033SOL     OW14557   3.461   1.928   9.089 -0.1287 -0.2047 -0.0751
 1033SOL    HW114558   3.462   2.016   9.126  0.0316  0.1413 -0.8964
 1033SOL    HW214559   3.372   1.898   9.103 -0.3239  0.4186  0.0128
 1034SOL     OW14560   3.543   2.044   5.795  0.2494 -0.1651  0.6316
 1034SOL    HW114561   3.471   2.075   5.850 -0.8623  1.0785 -1.5194
 1034SOL    HW214562   3.561   1.960   5.838 -0.0967 -1.7878 -2.4139
 1035SOL     OW14563   1.767   0.991   3.421 -0.4581 -0.2215  0.1088
 1035SOL    HW114564   1.780   0.997   3.515  0.7860 -0.8166 -0.0241
 1035SOL    HW214565   1.813   1.071   3.395 -1.7520  0.3768 -0.3197
 1036SOL     OW14566   1.356   0.704   1.047 -0.2247 -0.0507 -0.6151
 1036SOL    HW114567   1.330   0.682   1.136 -1.5910  0.7665 -0.7997
 1036SOL    HW214568   1.379   0.618   1.014  1.7398  0.0296  0.5509
 1037SOL     OW14569   3.476   1.019   5.130 -0.0402  0.2415  0.1032
 1037SOL    HW114570   3.533   0.944   5.146 -0.6784  0.0697  1.5311
 1037SOL    HW214571   3.445   1.003   5.041  0.0673  0.9647 -0.0622
 1038SOL     OW14572   0.758   4.412   0.115 -0.1184  0.2813 -0.0625
 1038SOL    HW114573   0.763   4.323   0.149 -1.1285  0.7552  1.3889
 1038SOL    HW214574   0.770   4.460   0.197 -0.5750  0.0480  0.1466
 1039SOL     OW14575   3.356   1.604   2.684 -0.1383  0.6876 -0.4063
 1039SOL    HW114576   3.432   1.642   2.641  0.4928  0.9041  0.8928
 1039SOL    HW214577   3.391   1.524   2.722 -0.5351  0.8113  0.2328
 1040SOL     OW14578   0.186   1.997  11.314 -0.3120  0.6317  0.3474
 1040SOL    HW114579   0.182   1.902  11.322  0.9562  0.6626  1.3417
 1040SOL    HW214580   0.281   1.999  11.325 -0.3301  0.2405  0.5765
 1041SOL     OW14581   1.165   2.260   3.535  0.0931  0.0019 -0.6477
 1041SOL    HW114582   1.227   2.195   3.504  0.2999 -0.3089  0.4074
 1041SOL    HW214583   1.217   2.304   3.603 -1.5191  0.9778 -0.0249
 1042SOL     OW14584   2.225   0.513   7.824  0.5534  0.2598  0.2616
 1042SOL    HW114585   2.230   0.420   7.805 -1.1190  0.6382 -2.0131
 1042SOL    HW214586   2.248   0.507   7.917 -1.2862  0.6961  0.7579
 1043SOL     OW14587   0.658   3.138   3.892 -0.4434 -0.0929  0.5007
 1043SOL    HW114588   0.651   3.060   3.837  1.6160 -0.2682  0.4944
 1043SOL    HW214589   0.738   3.110   3.936  0.2001  1.3372  0.2373
 1044SOL     OW14590   4.678   0.821   5.715  0.0709  0.3516  0.3437
 1044SOL    HW114591   0.035   0.787   5.750 -0.3407 -1.1960 -0.1901
 1044SOL    HW214592   4.645   0.733   5.695  1.8430 -0.2943  0.2723
 1045SOL     OW14593   3.707   3.858   2.092 -0.1522 -0.2386  0.1761
 1045SOL    HW114594   3.740   3.807   2.019 -0.0117 -0.7818  0.6162
 1045SOL    HW214595   3.615   3.830   2.092  0.0458 -0.8406 -0.8164
 1046SOL     OW14596   4.122   0.133  10.883 -0.1390 -0.2205 -0.9425
 1046SOL    HW114597   4.054   0.196  10.907 -0.6863 -1.2362  0.2016
 1046SOL    HW214598   4.117   0.128  10.787 -1.2670 -0.8769 -0.8560
 1047SOL     OW14599   2.575   3.385   7.448 -0.2414  0.0624  0.5672
 1047SOL    HW114600   2.494   3.396   7.497 -0.5723  0.2350 -0.0235
 1047SOL    HW214601   2.624   3.328   7.508 -0.0676  0.6543  0.9895
 1048SOL     OW14602   1.421   2.062   5.952  0.5866 -0.0568  0.3923
 1048SOL    HW114603   1.443   2.112   6.030  1.7154  2.5027 -1.5586
 1048SOL    HW214604   1.472   1.982   5.964  1.3726 -0.0191 -2.6962
 1049SOL     OW14605   3.586   2.636   8.048 -0.2132  0.0718  0.1553
 1049SOL    HW114606   3.518   2.666   8.108 -1.5048 -2.0088 -0.2889
 1049SOL    HW214607   3.628   2.721   8.037 -0.1681 -0.0808 -0.8401
 1050SOL     OW14608   3.649   2.226   5.248 -0.1763  0.1781  0.8608
 1050SOL    HW114609   3.721   2.280   5.216 -0.0437  0.0405  0.9268
 1050SOL    HW214610   3.703   2.168   5.301  0.7250  1.0012  0.8372
 1051SOL     OW14611   4.465   2.488  15.290 -0.1327  0.1081 -0.5216
 1051SOL    HW114612   4.393   2.433  15.323  1.5812 -0.5961  2.1204
 1051SOL    HW214613   4.415   2.563  15.259  0.2229  0.8265  0.6294
 1052SOL     OW14614   1.027   0.457   3.649  0.6541  0.3013  0.7163
 1052SOL    HW114615   1.033   0.528   3.712  0.2156  1.0054 -0.0297
 1052SOL    HW214616   1.042   0.377   3.699  0.4444  0.0703  0.4127
 1053SOL     OW14617   1.155   0.672   3.879  0.0901  0.1598 -0.1644
 1053SOL    HW114618   1.196   0.736   3.937  0.5233  0.7015 -1.0658
 1053SOL    HW214619   1.147   0.596   3.936 -1.2382 -0.9582 -1.8413
 1054SOL     OW14620   4.700   2.849  10.283 -0.5849  0.0414 -0.4946
 1054SOL    HW114621   4.676   2.889  10.366 -1.7014 -0.8914 -0.3806
 1054SOL    HW214622   4.646   2.910  10.232 -1.1592  0.4028  0.5460
 1055SOL     OW14623   2.499   3.027   0.865 -0.0867 -0.6386 -0.6207
 1055SOL    HW114624   2.428   2.988   0.814 -1.3004 -1.6548  1.8259
 1055SOL    HW214625   2.488   3.116   0.833  0.9991  1.3758  4.5160
 1056SOL     OW14626   3.349   3.734   7.996 -0.4338  0.3654 -0.5280
 1056SOL    HW114627   3.334   3.828   7.996 -4.9694 -0.3742 -0.0532
 1056SOL    HW214628   3.438   3.727   7.961 -0.4581  0.9779 -0.6971
 1057SOL     OW14629   4.701   2.476   0.061  0.0860  0.2917 -0.4073
 1057SOL    HW114630   0.039   2.437   0.000  1.5620  3.8360 -1.1555
 1057SOL    HW214631   4.633   2.509   0.002  0.8378  0.6397 -1.0765
 1058SOL     OW14632   0.904   4.270   2.982 -0.7064  0.0857 -0.1341
 1058SOL    HW114633   0.922   4.352   2.937 -2.0594  0.0734 -0.6996
 1058SOL    HW214634   0.861   4.304   3.060  0.7869  4.7530 -1.3214
 1059SOL     OW14635   3.615   1.507   5.778 -0.8901 -0.1005 -0.2493
 1059SOL    HW114636   3.666   1.427   5.768  0.1549  0.1702  3.1583
 1059SOL    HW214637   3.573   1.511   5.692 -0.7457 -2.5209 -0.4216
 1060SOL     OW14638   4.274   3.126  17.654 -0.0312 -1.2093 -0.2194
 1060SOL    HW114639   4.258   3.104   0.045 -2.7060 -0.1248 -0.4129
 1060SOL    HW214640   4.230   3.054  17.607 -1.1651 -1.3204  1.0002
 1061SOL     OW14641   0.940   2.568   4.776  0.0089  0.7601  0.0948
 1061SOL    HW114642   0.894   2.495   4.735 -0.1037  1.1359 -0.4522
 1061SOL    HW214643   0.998   2.514   4.829  1.1939  1.0011 -0.9467
 1062SOL     OW14644   1.398   2.675  15.886  0.3961  0.3877 -0.2022
 1062SOL    HW114645   1.399   2.767  15.860  2.2244  1.0629  2.2972
 1062SOL    HW214646   1.304   2.666  15.903  1.2072 -0.3438  3.9181
 1063SOL     OW14647   2.459   2.138   4.050 -0.4088  0.2052 -0.4877
 1063SOL    HW114648   2.518   2.207   4.080 -0.5263 -0.5318  1.4405
 1063SOL    HW214649   2.386   2.147   4.112  1.7477 -2.5574  2.4959
 1064SOL     OW14650   1.774   0.479   9.046 -0.3864  0.5126  0.4730
 1064SOL    HW114651   1.718   0.502   8.972  0.1920 -3.1310 -1.0986
 1064SOL    HW214652   1.747   0.545   9.109 -0.8027  0.9383 -0.1513
 1065SOL     OW14653   0.244   2.393   7.084 -0.4419 -0.4661  0.1491
 1065SOL    HW114654   0.247   2.424   6.994 -2.1421  0.6641  0.4810
 1065SOL    HW214655   0.287   2.462   7.135 -1.8879  1.3280 -1.0581
 1066SOL     OW14656   3.847   0.601  14.288 -0.7417  0.6903  0.0958
 1066SOL    HW114657   3.898   0.529  14.324 -0.1227  1.5777  0.9902
 1066SOL    HW214658   3.820   0.564  14.205 -0.5727 -0.2369  0.4537
 1067SOL     OW14659   4.453   4.725   4.033  0.3491  0.1354 -0.3898
 1067SOL    HW114660   4.537   4.694   4.067  0.9200  2.3117  0.1467
 1067SOL    HW214661   4.463   0.095   4.029 -1.5524  0.3429 -0.3280
 1068SOL     OW14662   1.696   0.825   7.569 -0.4912 -0.3990  0.5049
 1068SOL    HW114663   1.651   0.905   7.545 -0.8017  0.0890  2.6582
 1068SOL    HW214664   1.683   0.760   7.500  1.2551 -0.5232  0.2954
 1069SOL     OW14665   3.820   1.900   6.839 -0.2813  0.3329 -0.5582
 1069SOL    HW114666   3.902   1.853   6.832 -0.8961 -1.1079  1.7122
 1069SOL    HW214667   3.823   1.950   6.758 -0.9316  3.1317  1.1452
 1070SOL     OW14668   2.660   2.958   4.835 -0.0046  0.0735 -0.1164
 1070SOL    HW114669   2.652   3.044   4.877  2.9733  0.8187 -1.0825
 1070SOL    HW214670   2.741   2.967   4.785 -0.0553 -2.1019 -0.5856
 1071SOL     OW14671   3.506   0.666   7.090  0.0732 -0.3297  0.0039
 1071SOL    HW114672   3.434   0.650   7.029  1.1104 -1.1400 -1.0202
 1071SOL    HW214673   3.467   0.740   7.137  0.3443 -1.6998  2.3545
 1072SOL     OW14674   0.992   0.428   1.839  0.1987  0.2902 -1.0743
 1072SOL    HW114675   0.935   0.426   1.762 -1.2367  0.9276 -0.0120
 1072SOL    HW214676   1.079   0.415   1.801  0.8978 -0.6609  0.8371
 1073SOL     OW14677   2.147   3.160   4.976 -0.0783 -0.2062  0.0047
 1073SOL    HW114678   2.189   3.080   4.943  0.6654 -0.4791  1.6071
 1073SOL    HW214679   2.215   3.184   5.040 -1.0985  0.7505  0.7141
 1074SOL     OW14680   0.598   4.265   4.234  0.1176 -0.3815  0.5755
 1074SOL    HW114681   0.538   4.207   4.282 -1.5286 -0.6729 -1.8212
 1074SOL    HW214682   0.563   4.348   4.267 -0.5009 -0.5503  0.3450
 1075SOL     OW14683   2.782   4.194   7.331  0.0786  0.2901  0.2389
 1075SOL    HW114684   2.825   4.278   7.315 -0.9416  0.9972  1.1421
 1075SOL    HW214685   2.704   4.213   7.383 -0.7613  1.9441 -1.5949
 1076SOL     OW14686   3.629   2.589  12.203  0.7458 -0.1574 -0.3131
 1076SOL    HW114687   3.664   2.616  12.118  0.0023 -0.2590 -0.6529
 1076SOL    HW214688   3.712   2.587  12.251  0.9294 -0.9236 -0.6529
 1077SOL     OW14689   3.069   1.639   1.950 -0.5870  0.2400  0.0852
 1077SOL    HW114690   3.013   1.610   2.021 -0.6897 -0.9611 -0.4968
 1077SOL    HW214691   3.128   1.701   1.992  1.2606 -2.1515  1.0046
 1078SOL     OW14692   4.535   2.836  14.055 -0.9542  0.1945 -0.0742
 1078SOL    HW114693   4.517   2.927  14.029 -1.2030  0.1643 -0.0077
 1078SOL    HW214694   4.447   2.800  14.047 -0.2258 -1.3768 -0.9022
 1079SOL     OW14695   4.510   0.180   6.836 -0.0041 -0.0008  0.1097
 1079SOL    HW114696   4.419   0.150   6.841 -0.2364  0.9119  1.4570
 1079SOL    HW214697   4.532   0.225   6.918  1.5210  0.5234 -0.5801
 1080SOL     OW14698   2.539   1.157   7.471  0.3247  0.4364  0.2316
 1080SOL    HW114699   2.456   1.108   7.474 -0.6123  2.1243  2.0027
 1080SOL    HW214700   2.552   1.172   7.377 -1.1046 -1.2669 -0.2367
 1081SOL     OW14701   1.295   0.056   4.286 -0.3024 -0.3138  0.1662
 1081SOL    HW114702   1.308   0.007   4.367 -0.9096  0.1931  0.5664
 1081SOL    HW214703   1.388   0.058   4.264 -0.2475 -0.2100  0.4120
 1082SOL     OW14704   2.720   1.588   7.742  0.0521  0.2722 -0.0884
 1082SOL    HW114705   2.746   1.658   7.682 -1.2083  1.4047  0.6773
 1082SOL    HW214706   2.737   1.642   7.819 -1.0570  2.5372 -1.4141
 1083SOL     OW14707   3.716   1.112  14.458 -0.4099  0.4374 -0.0083
 1083SOL    HW114708   3.706   1.041  14.394 -0.8435  1.2405 -0.8449
 1083SOL    HW214709   3.730   1.073  14.544  0.2985  0.5196 -0.0841
 1084SOL     OW14710   0.287   1.402   6.006 -0.0781  0.0718  0.5215
 1084SOL    HW114711   0.350   1.348   5.959 -0.8509  0.2639 -0.7256
 1084SOL    HW214712   0.200   1.366   5.986  1.6277 -2.7256 -1.7144
 1085SOL     OW14713   4.438   2.170   9.498  0.2616 -0.3942 -0.2338
 1085SOL    HW114714   4.355   2.121   9.503  0.6728 -1.1717 -0.9504
 1085SOL    HW214715   4.416   2.254   9.537  1.0105 -0.0992 -0.4555
 1086SOL     OW14716   4.263   4.065   3.523  0.1365  0.5843 -0.1592
 1086SOL    HW114717   4.272   3.976   3.488 -0.7380 -0.5395  2.4100
 1086SOL    HW214718   4.182   4.054   3.573 -0.0404 -1.4420 -0.9011
 1087SOL     OW14719   3.425   1.107   2.288  0.6535 -0.1480 -0.4769
 1087SOL    HW114720   3.427   1.184   2.345 -0.9879 -0.3186 -0.2091
 1087SOL    HW214721   3.352   1.120   2.228  0.0288  1.6951  0.7017
 1088SOL     OW14722   3.167   2.678   6.031 -0.2474 -0.3941 -0.0763
 1088SOL    HW114723   3.201   2.639   5.950 -0.6182 -1.0895  0.1041
 1088SOL    HW214724   3.098   2.616   6.054  0.0168 -1.4772 -2.1612
 1089SOL     OW14725   3.152   1.954   2.687 -0.2316  0.1535  0.0312
 1089SOL    HW114726   3.066   1.974   2.723 -0.0460 -0.0652  0.5933
 1089SOL    HW214727   3.177   1.900   2.762  0.4805 -0.3480 -0.5607
 1090SOL     OW14728   2.724   1.486  11.642  0.3913 -0.5122  0.1910
 1090SOL    HW114729   2.819   1.483  11.635  0.3429  2.3304 -1.5238
 1090SOL    HW214730   2.695   1.451  11.558  1.7018 -0.9014 -0.0995
 1091SOL     OW14731   1.514   0.445   3.027 -0.5744  0.4971 -0.3937
 1091SOL    HW114732   1.593   0.484   3.066  0.5416 -0.5311 -1.6373
 1091SOL    HW214733   1.492   0.390   3.103 -2.9483  1.2419 -0.5445
 1092SOL     OW14734   1.856   2.387   0.721 -0.2864  1.0742  0.0041
 1092SOL    HW114735   1.860   2.323   0.650  0.8339  1.5136 -0.3276
 1092SOL    HW214736   1.920   2.452   0.692 -2.3383  2.0098 -2.4899
 1093SOL     OW14737   0.585   2.132  10.026 -0.0422  0.2893 -0.2964
 1093SOL    HW114738   0.678   2.148  10.038 -0.2739  0.8885  0.7076
 1093SOL    HW214739   0.575   2.058  10.086 -0.4744  0.7831  0.2471
 1094SOL     OW14740   0.844   3.222  16.515  1.2213  0.2727 -0.5184
 1094SOL    HW114741   0.914   3.167  16.549  0.1558 -0.2268  0.8953
 1094SOL    HW214742   0.791   3.154  16.473  2.3031 -0.7499 -0.2418
 1095SOL     OW14743   4.246   2.398   2.063 -0.1895  0.0540 -0.7015
 1095SOL    HW114744   4.261   2.420   1.971 -0.2058  0.5643 -0.5843
 1095SOL    HW214745   4.306   2.454   2.113  0.0387 -1.1878  0.4134
 1096SOL     OW14746   1.651   2.543   8.090  0.3769 -0.1179  0.0765
 1096SOL    HW114747   1.622   2.520   8.001  0.9417 -0.3569 -0.0476
 1096SOL    HW214748   1.600   2.480   8.141  0.5600 -0.6161 -0.3535
 1097SOL     OW14749   2.489   2.705   6.484  0.2877  0.7259 -0.2746
 1097SOL    HW114750   2.566   2.693   6.539 -1.1637 -2.0532  1.1243
 1097SOL    HW214751   2.417   2.703   6.547  0.9076 -0.6864  0.3864
 1098SOL     OW14752   4.555   1.652   5.250  0.0086  0.2950  0.1683
 1098SOL    HW114753   4.504   1.707   5.191 -1.4965 -1.3303 -0.0167
 1098SOL    HW214754   4.556   1.700   5.333  0.3692  2.6360 -1.1880
 1099SOL     OW14755   4.575   3.627   3.987 -0.6472  0.0767  0.2383
 1099SOL    HW114756   4.576   3.531   3.990  0.2772 -0.0084 -2.7273
 1099SOL    HW214757   4.625   3.654   4.063 -0.8107  1.0289  0.0000
 1100SOL     OW14758   1.111   0.293   9.417  0.1181 -0.3396 -0.2870
 1100SOL    HW114759   1.112   0.385   9.444 -0.3921 -0.3587 -0.1996
 1100SOL    HW214760   1.017   0.277   9.416 -0.0359  0.3906  1.2168
 1101SOL     OW14761   1.065   2.345   4.424 -0.6064  0.1710  0.3103
 1101SOL    HW114762   1.001   2.366   4.355  0.6977 -0.3461 -1.0575
 1101SOL    HW214763   1.045   2.251   4.432  1.3210 -0.0991  1.8435
 1102SOL     OW14764   4.681   2.726   4.628 -0.3747 -0.3645  0.4018
 1102SOL    HW114765   0.044   2.694   4.608 -0.2463 -0.4108  1.0363
 1102SOL    HW214766   4.698   2.817   4.604  0.0046 -0.4399  0.3796
 1103SOL     OW14767   2.986   4.415   7.218 -0.3490 -0.0372  0.2662
 1103SOL    HW114768   3.007   4.338   7.165  0.5669 -0.4485  1.2340
 1103SOL    HW214769   3.075   4.436   7.247 -1.8713  3.2925  2.4656
 1104SOL     OW14770   4.250   2.927   4.179  0.3261 -0.0677  1.0069
 1104SOL    HW114771   4.308   2.911   4.254  0.9734 -1.3246  0.2408
 1104SOL    HW214772   4.308   2.979   4.124  0.8327 -0.1683  1.4391
 1105SOL     OW14773   4.370   3.047  10.389  0.4601 -0.1277  0.1999
 1105SOL    HW114774   4.350   3.030  10.296  1.4044 -1.2229  0.1883
 1105SOL    HW214775   4.452   2.999  10.398  0.3075  0.1784  3.1556
 1106SOL     OW14776   1.643   0.511   3.789  0.3583  0.1818 -0.1052
 1106SOL    HW114777   1.552   0.541   3.785  0.4854  0.3734 -1.3754
 1106SOL    HW214778   1.685   0.570   3.853 -0.4741  0.0612  0.5556
 1107SOL     OW14779   3.186   1.945   4.589  0.3391 -0.2659  0.2247
 1107SOL    HW114780   3.267   1.992   4.570 -0.1022  0.8316  1.0711
 1107SOL    HW214781   3.151   1.995   4.663 -0.8557 -0.9113  0.0853
 1108SOL     OW14782   2.309   1.824   5.184  0.5465  0.9133 -0.2809
 1108SOL    HW114783   2.275   1.866   5.263  2.3799 -0.8386  1.4348
 1108SOL    HW214784   2.338   1.739   5.216 -2.2290  1.1395  2.8152
 1109SOL     OW14785   0.967   1.901   1.680  0.5572  0.2173  0.0822
 1109SOL    HW114786   1.035   1.907   1.613  0.3922 -1.7660 -0.2757
 1109SOL    HW214787   0.948   1.807   1.675 -1.7263  0.7569 -1.4690
 1110SOL     OW14788   2.643   4.526   7.883  0.3011 -0.3904  0.0749
 1110SOL    HW114789   2.685   4.587   7.823 -0.2900  1.1934  1.2522
 1110SOL    HW214790   2.650   4.437   7.850  0.7395  0.0801 -1.0905
 1111SOL     OW14791   1.218   4.140   6.545  0.8395 -0.1141 -0.1476
 1111SOL    HW114792   1.264   4.186   6.474 -0.6388  0.9706 -0.3766
 1111SOL    HW214793   1.295   4.115   6.596  1.4660  1.6196 -0.2377
 1112SOL     OW14794   2.260   1.602   3.749 -0.3630 -0.1697  0.3643
 1112SOL    HW114795   2.171   1.572   3.733 -0.8416 -0.4529  3.5812
 1112SOL    HW214796   2.288   1.616   3.658 -3.3072  1.3003 -0.3162
 1113SOL     OW14797   2.931   2.113  12.860 -0.2443 -0.2690  0.1139
 1113SOL    HW114798   2.951   2.031  12.814  3.6244  0.3615  0.6743
 1113SOL    HW214799   2.901   2.171  12.790 -0.5356 -1.1590 -0.5079
 1114SOL     OW14800   3.657   2.504  15.372  0.2367 -1.1612 -0.8582
 1114SOL    HW114801   3.730   2.488  15.431 -1.4182  1.7104  1.9698
 1114SOL    HW214802   3.630   2.418  15.340 -2.0644 -1.1830  1.1540
 1115SOL     OW14803   0.810   4.437  14.255  0.1402 -0.6109  0.1102
 1115SOL    HW114804   0.898   4.452  14.220  0.4291  0.0029  1.0960
 1115SOL    HW214805   0.801   4.531  14.267 -1.6199 -0.9611  1.6940
 1116SOL     OW14806   2.955   1.716  17.310  0.2284 -0.0738 -0.2169
 1116SOL    HW114807   2.958   1.658  17.386  1.4505  0.8245  0.4134
 1116SOL    HW214808   2.871   1.685  17.277 -0.4507  1.3354  0.2144
 1117SOL     OW14809   1.127   0.631   4.472 -0.2240 -0.1283 -0.1420
 1117SOL    HW114810   1.140   0.720   4.439  1.1029 -1.0780 -2.1805
 1117SOL    HW214811   1.217   0.603   4.488  0.2953  1.1447 -0.8672
 1118SOL     OW14812   2.352   3.472   8.328  0.7412 -0.3551  0.2559
 1118SOL    HW114813   2.299   3.549   8.306  0.1313 -1.0332 -0.6380
 1118SOL    HW214814   2.340   3.418   8.250  1.9687 -2.0380  1.2261
 1119SOL     OW14815   1.497   1.026   2.535  0.2023 -0.1779  0.1506
 1119SOL    HW114816   1.405   1.020   2.562 -0.0803  0.5386 -0.6319
 1119SOL    HW214817   1.524   0.934   2.540  0.0923 -0.2702 -1.0359
 1120SOL     OW14818   0.557   1.262   8.128 -0.3375  0.8220  0.4516
 1120SOL    HW114819   0.477   1.303   8.158 -1.5048 -1.1564  0.0688
 1120SOL    HW214820   0.611   1.263   8.207 -0.5429 -0.4819  0.6104
 1121SOL     OW14821   4.121   2.861   1.270 -0.1886 -0.1131 -0.3536
 1121SOL    HW114822   4.146   2.936   1.325  1.3771 -0.9140  0.0430
 1121SOL    HW214823   4.200   2.833   1.224 -0.9085 -0.0835 -1.5886
 1122SOL     OW14824   0.539   0.092   8.405  0.7060  0.0735  0.3282
 1122SOL    HW114825   0.506   0.144   8.331  1.6102  0.9854  0.5643
 1122SOL    HW214826   0.522   0.152   8.478  1.4222  0.9781 -0.2550
 1123SOL     OW14827   4.392   4.626  17.085 -0.4373 -0.2014  0.7232
 1123SOL    HW114828   4.315   4.614  17.030  0.0556  0.9285 -0.2353
 1123SOL    HW214829   4.367   4.582  17.166  2.9260 -2.1466  0.7309
 1124SOL     OW14830   4.400   0.228  10.933 -0.4045 -0.1231  0.1599
 1124SOL    HW114831   4.307   0.204  10.931  0.1186 -2.0579 -1.5755
 1124SOL    HW214832   4.405   0.269  11.019 -1.1551 -0.7196  0.4908
 1125SOL     OW14833   0.546   4.376   6.171 -0.0290 -0.3927 -0.3285
 1125SOL    HW114834   0.636   4.408   6.185 -0.5114 -0.2286  2.5005
 1125SOL    HW214835   0.526   4.337   6.257  2.2244  0.1486  0.4420
 1126SOL     OW14836   4.126   0.436  15.872  0.8561  0.3059  0.7173
 1126SOL    HW114837   4.113   0.519  15.827 -1.2286 -1.8224 -2.6071
 1126SOL    HW214838   4.162   0.381  15.802  0.5556 -0.1329  0.9069
 1127SOL     OW14839   4.318   4.629   7.263 -0.3668 -0.5032  0.6629
 1127SOL    HW114840   4.380   4.700   7.278  0.3202 -0.8856 -0.2871
 1127SOL    HW214841   4.259   4.683   7.211  0.1172 -0.4944  0.1166
 1128SOL     OW14842   4.025   1.782   7.945  0.4583  0.2646 -0.2892
 1128SOL    HW114843   3.969   1.727   7.999  2.0306 -1.8950 -0.8332
 1128SOL    HW214844   3.960   1.814   7.883 -0.4998 -1.1456 -0.0080
 1129SOL     OW14845   1.328   1.558   3.424  0.0746 -0.2738  0.1103
 1129SOL    HW114846   1.248   1.506   3.417 -0.3670  0.2205  1.3968
 1129SOL    HW214847   1.363   1.566   3.335 -1.2450 -1.7613 -0.5319
 1130SOL     OW14848   4.151   4.638   3.095 -0.3159 -0.8288  0.2463
 1130SOL    HW114849   4.059   4.662   3.096  0.2255  1.2976 -0.0472
 1130SOL    HW214850   4.191   4.663   3.011 -0.4764 -2.2015 -0.2329
 1131SOL     OW14851   3.381   2.976   4.870  0.0710 -0.4425 -0.1251
 1131SOL    HW114852   3.346   3.053   4.916  2.1323  0.1450  0.4464
 1131SOL    HW214853   3.470   3.002   4.846 -0.8037  2.8755  0.1305
 1132SOL     OW14854   3.604   2.835   5.568 -0.3067 -0.6304  0.6807
 1132SOL    HW114855   3.680   2.783   5.592  0.0829 -0.2889  0.1856
 1132SOL    HW214856   3.634   2.918   5.606  0.0184  0.3631 -1.7779
 1133SOL     OW14857   4.216   4.118   7.475  0.0931 -0.1369  0.2939
 1133SOL    HW114858   4.142   4.172   7.504 -1.3073 -1.5296 -0.6688
 1133SOL    HW214859   4.285   4.182   7.460 -0.4088 -0.0259 -1.4666
 1134SOL     OW14860   3.399   2.067   8.636 -0.4907  0.1302 -0.6701
 1134SOL    HW114861   3.336   2.055   8.565 -2.1119 -1.2351  0.9928
 1134SOL    HW214862   3.434   1.979   8.650 -2.1892 -0.2695  1.0594
 1135SOL     OW14863   0.783   1.341   4.564 -0.4720  0.0431  0.0631
 1135SOL    HW114864   0.805   1.328   4.656  0.9112  1.7625 -0.0216
 1135SOL    HW214865   0.695   1.303   4.557 -0.6526  0.5607 -0.4699
 1136SOL     OW14866   2.449   4.313   8.919  0.0219  0.3186  0.0244
 1136SOL    HW114867   2.506   4.241   8.892  1.7810  1.1894  1.3609
 1136SOL    HW214868   2.487   4.376   8.857  0.0990 -0.6635 -0.9181
 1137SOL     OW14869   3.129   2.218  13.045 -0.0541  0.1156 -0.0179
 1137SOL    HW114870   3.165   2.282  12.984  0.1665  0.5726  0.6025
 1137SOL    HW214871   3.067   2.174  12.986 -0.5932 -0.3752  0.9034
 1138SOL     OW14872   1.340   0.968   8.497 -0.6024 -0.8053  0.3239
 1138SOL    HW114873   1.419   0.915   8.508 -0.5699 -1.1043 -1.3751
 1138SOL    HW214874   1.317   0.994   8.586  0.8556 -1.7698  0.9811
 1139SOL     OW14875   2.999   1.398   7.248 -0.2735  0.0466 -0.2038
 1139SOL    HW114876   3.019   1.467   7.312  2.2427 -1.2204  0.4154
 1139SOL    HW214877   2.983   1.325   7.308 -1.0213  0.2332 -0.1811
 1140SOL     OW14878   1.258   1.998   3.612 -0.5547  0.1498 -0.2429
 1140SOL    HW114879   1.164   2.014   3.626 -0.8227  0.2397 -2.0910
 1140SOL    HW214880   1.265   1.938   3.687  0.9706  0.4853 -0.1144
 1141SOL     OW14881   4.216   4.551   6.722 -0.7237  0.3248 -0.1945
 1141SOL    HW114882   4.139   4.591   6.682 -1.0975  1.0794  1.2838
 1141SOL    HW214883   4.276   4.542   6.648  1.2166  1.1026  1.2839
 1142SOL     OW14884   4.057   1.122   7.250 -0.3285 -0.2340 -0.4775
 1142SOL    HW114885   4.015   1.207   7.250  0.1808  0.0182  0.3831
 1142SOL    HW214886   4.118   1.136   7.178  0.3670 -2.2858 -0.2998
 1143SOL     OW14887   1.097   0.055   2.944  0.2284  0.4680 -0.1594
 1143SOL    HW114888   1.060   0.130   2.990 -0.6188  1.1803 -2.0271
 1143SOL    HW214889   1.192   0.065   2.955  0.2184 -0.2930  0.7026
 1144SOL     OW14890   0.861   3.788   1.533 -0.5753 -0.4717  0.0151
 1144SOL    HW114891   0.830   3.698   1.527  0.2223 -0.7169 -0.3996
 1144SOL    HW214892   0.901   3.791   1.621  2.3492  1.0501 -1.3558
 1145SOL     OW14893   0.117   1.301   7.733  0.3830  0.1938 -0.2340
 1145SOL    HW114894   0.040   1.319   7.679  0.5526  1.1499 -0.1611
 1145SOL    HW214895   0.177   1.285   7.661  2.9750 -1.5750  2.3041
 1146SOL     OW14896   4.662   3.662   5.369 -0.2579 -0.0859 -0.3025
 1146SOL    HW114897   4.571   3.693   5.371 -0.5609 -0.8589 -1.7027
 1146SOL    HW214898   4.661   3.644   5.275  0.0435  4.6338 -1.2335
 1147SOL     OW14899   2.977   2.793   2.895  0.0120  0.5194  0.0926
 1147SOL    HW114900   2.969   2.707   2.854  0.3263  0.7126 -0.3789
 1147SOL    HW214901   3.016   2.844   2.823  1.4587  0.5915  0.9338
 1148SOL     OW14902   3.237   0.516  14.478 -1.1626 -0.0185 -0.4218
 1148SOL    HW114903   3.149   0.519  14.439 -2.8998  0.2755  3.4697
 1148SOL    HW214904   3.247   0.611  14.468  0.9462  0.0017  2.1796
 1149SOL     OW14905   3.590   4.557  12.891 -0.6580 -0.0075  0.5415
 1149SOL    HW114906   3.553   4.641  12.866 -2.7415 -1.2277 -0.4353
 1149SOL    HW214907   3.555   4.548  12.980  0.0087  1.2302  0.9349
 1150SOL     OW14908   2.516   2.646   8.579  0.0814  0.0096  0.3581
 1150SOL    HW114909   2.448   2.646   8.512  1.2688  2.2112 -0.8533
 1150SOL    HW214910   2.569   2.572   8.549  1.1808  1.0173 -0.1954
 1151SOL     OW14911   3.138   3.563   9.997  0.3064  0.5289 -0.1550
 1151SOL    HW114912   3.099   3.611  10.069  0.0312  0.7225 -0.4331
 1151SOL    HW214913   3.193   3.500  10.044  1.3334  0.8387 -0.9358
 1152SOL     OW14914   3.469   2.603  14.236 -0.4220 -0.2530 -0.1816
 1152SOL    HW114915   3.526   2.670  14.199 -0.7532  0.6008  0.8761
 1152SOL    HW214916   3.521   2.524  14.221 -0.1542 -0.5423  2.3230
 1153SOL     OW14917   4.341   3.217  17.412  0.4873  0.0014  0.7895
 1153SOL    HW114918   4.418   3.161  17.410 -0.1590 -0.8688  0.6194
 1153SOL    HW214919   4.334   3.205  17.507 -0.6144  3.0067  1.1058
 1154SOL     OW14920   4.522   2.219   4.684 -0.5183  0.4995  0.3733
 1154SOL    HW114921   4.591   2.285   4.689 -0.9103  1.0023 -0.9619
 1154SOL    HW214922   4.521   2.213   4.588 -3.6255  1.4490  0.3399
 1155SOL     OW14923   4.667   0.323  10.019 -0.1025  0.2171  0.3559
 1155SOL    HW114924   4.692   0.259   9.952 -0.9263  1.5041 -1.1988
 1155SOL    HW214925   0.028   0.337  10.058  1.6665 -2.4553 -2.6548
 1156SOL     OW14926   1.390   0.115  12.962  0.3885  1.2712  0.0452
 1156SOL    HW114927   1.410   0.207  12.975 -3.9857  1.8398  2.8619
 1156SOL    HW214928   1.454   0.088  12.895  3.0055  0.0214  3.0783
 1157SOL     OW14929   3.680   1.120   3.529  0.1705  0.1416 -0.3943
 1157SOL    HW114930   3.641   1.056   3.469 -1.2172  1.2832 -0.7040
 1157SOL    HW214931   3.621   1.126   3.605  1.6686  1.0103  0.6986
 1158SOL     OW14932   0.755   2.788   2.852  0.1590  0.2480  0.5927
 1158SOL    HW114933   0.829   2.741   2.813  1.1819  1.6690  0.8129
 1158SOL    HW214934   0.757   2.766   2.945 -0.1264  1.0005  0.7754
 1159SOL     OW14935   1.730   0.353   8.450  0.0718  0.1267  0.0119
 1159SOL    HW114936   1.786   0.287   8.410 -0.5715 -0.1623 -0.4159
 1159SOL    HW214937   1.699   0.396   8.370 -4.4586 -3.1146  0.0408
 1160SOL     OW14938   0.828   0.523   3.112 -0.1322  0.2619  0.0460
 1160SOL    HW114939   0.792   0.537   3.025  1.4562  1.2071 -0.4745
 1160SOL    HW214940   0.909   0.574   3.113  0.3665 -0.5254 -0.1577
 1161SOL     OW14941   2.573   3.344   4.333 -0.5544  0.0004  0.1156
 1161SOL    HW114942   2.621   3.316   4.412 -0.1325  0.4827  0.0334
 1161SOL    HW214943   2.627   3.314   4.260 -1.5964 -3.4250  0.7442
 1162SOL     OW14944   0.483   3.083   6.903  0.4609  0.2902 -0.1163
 1162SOL    HW114945   0.390   3.061   6.909  0.4293  0.7097  1.0757
 1162SOL    HW214946   0.510   3.018   6.838  0.4973  0.9425 -0.7486
 1163SOL     OW14947   1.739   0.458   3.512 -0.2906  0.0544  0.1953
 1163SOL    HW114948   1.697   0.465   3.598 -1.3631  0.2778 -0.3449
 1163SOL    HW214949   1.807   0.526   3.515  1.1916 -1.4354  0.2673
 1164SOL     OW14950   0.700   2.217   6.808  0.1419 -0.3045 -0.4579
 1164SOL    HW114951   0.629   2.192   6.749  0.3744 -0.6360 -0.6001
 1164SOL    HW214952   0.661   2.212   6.895 -0.5282  1.6215 -0.6523
 1165SOL     OW14953   4.039   2.856  16.602  0.3878  0.0588 -0.1338
 1165SOL    HW114954   4.122   2.811  16.589  0.4593  0.0434  0.4035
 1165SOL    HW214955   4.037   2.895  16.514 -2.4712  1.3517  0.5117
 1166SOL     OW14956   2.375   0.604   9.353 -0.1422 -0.2166  0.1207
 1166SOL    HW114957   2.407   0.638   9.436 -1.2508  0.8493  0.1122
 1166SOL    HW214958   2.279   0.605   9.350 -0.1927 -0.7367  1.9330
 1167SOL     OW14959   4.451   3.731   4.738 -0.1976 -0.6056 -0.3363
 1167SOL    HW114960   4.356   3.732   4.724 -0.1617 -0.8864 -0.6000
 1167SOL    HW214961   4.473   3.824   4.731 -0.5796 -0.4200  1.0335
 1168SOL     OW14962   3.212   0.258  16.922  0.2544  0.1909 -0.2994
 1168SOL    HW114963   3.118   0.240  16.927  0.6135 -1.5181  0.3272
 1168SOL    HW214964   3.252   0.172  16.933  1.1850  0.5893 -0.5886
 1169SOL     OW14965   4.688   0.336  14.883 -0.3493 -0.6101  0.0567
 1169SOL    HW114966   4.714   0.291  14.964 -0.2352  1.0988  0.9902
 1169SOL    HW214967   4.651   0.415  14.923  1.6716  0.7417 -0.7649
 1170SOL     OW14968   1.040   2.638   1.100  0.4595 -0.0103 -0.4137
 1170SOL    HW114969   0.978   2.579   1.143 -0.4481  0.3768 -1.1776
 1170SOL    HW214970   0.988   2.713   1.070 -3.0688 -1.2514  2.6166
 1171SOL     OW14971   4.117   0.688   7.035  0.4012  0.1860 -0.1628
 1171SOL    HW114972   4.182   0.754   7.063  1.2016 -0.9594  0.6800
 1171SOL    HW214973   4.034   0.735   7.040 -0.2629 -1.2611  2.2588
 1172SOL     OW14974   1.810   0.425  14.437 -0.0327 -0.2550  0.3282
 1172SOL    HW114975   1.820   0.509  14.483  0.5249 -0.5720  0.7935
 1172SOL    HW214976   1.825   0.365  14.510 -1.6332 -0.4325  0.5035
 1173SOL     OW14977   3.763   2.976  15.175  0.6204  0.0921  0.4047
 1173SOL    HW114978   3.759   2.940  15.264 -0.6501  0.0117  0.3086
 1173SOL    HW214979   3.798   2.893  15.142 -1.3334  0.1516 -1.7964
 1174SOL     OW14980   0.902   1.022   7.570  0.1384  0.1631  0.1508
 1174SOL    HW114981   0.851   0.985   7.642 -2.9578  0.5505 -1.8216
 1174SOL    HW214982   0.865   0.973   7.497  1.3106  0.5773 -0.7245
 1175SOL     OW14983   3.356   4.241   8.436 -0.5525 -0.0394 -0.0235
 1175SOL    HW114984   3.349   4.300   8.361  1.7864 -1.0956 -1.0485
 1175SOL    HW214985   3.287   4.176   8.423 -0.2521 -0.4136  0.2648
 1176SOL     OW14986   2.245   0.789   7.891 -0.2243 -0.1023 -0.0691
 1176SOL    HW114987   2.241   0.694   7.880 -0.9884 -0.2268  1.2794
 1176SOL    HW214988   2.305   0.803   7.964  1.1617 -0.0207 -1.2214
 1177SOL     OW14989   1.583   3.866   5.988 -0.5446  0.1043  0.5002
 1177SOL    HW114990   1.546   3.779   5.972  3.4751 -1.6704  0.7805
 1177SOL    HW214991   1.518   3.923   5.947 -1.0515 -0.2735  0.7716
 1178SOL     OW14992   2.922   2.792  14.183  0.0837  0.0712 -0.2084
 1178SOL    HW114993   3.015   2.771  14.188  0.3503  1.5440  1.1810
 1178SOL    HW214994   2.885   2.710  14.217 -0.4057  0.1907 -0.4585
 1179SOL     OW14995   3.093   1.140  11.298 -0.5542  0.2446  0.1077
 1179SOL    HW114996   3.114   1.147  11.391  1.5984  1.7103 -0.4907
 1179SOL    HW214997   3.046   1.221  11.280  0.7513  0.7517 -1.0826
 1180SOL     OW14998   3.478   0.094   4.144 -0.2093 -0.1537  0.3174
 1180SOL    HW114999   3.564   0.076   4.107  1.0266  1.7491  2.2289
 1180SOL    HW215000   3.451   0.174   4.099 -0.3201 -1.0597 -1.2117
 1181SOL     OW15001   2.363   1.020   8.476 -0.5340 -0.2333 -0.3336
 1181SOL    HW115002   2.450   1.018   8.516 -1.4532 -0.4807  1.6400
 1181SOL    HW215003   2.377   0.945   8.417  0.0814 -2.8458  3.1060
 1182SOL     OW15004   1.388   1.356   4.529 -0.0656  0.0354 -0.1875
 1182SOL    HW115005   1.356   1.416   4.595 -2.6488 -1.8569  0.2564
 1182SOL    HW215006   1.323   1.286   4.532  0.2271 -0.2072  0.4584
 1183SOL     OW15007   0.964   0.179   1.652  0.1094  0.2213 -0.4894
 1183SOL    HW115008   0.949   0.085   1.649 -0.6359  0.3162  0.4552
 1183SOL    HW215009   0.899   0.195   1.583 -1.3047 -0.3286  0.7004
 1184SOL     OW15010   2.123   3.143   3.543  0.1961 -0.1200  0.7318
 1184SOL    HW115011   2.178   3.215   3.513 -0.4262 -0.0320 -0.2124
 1184SOL    HW215012   2.183   3.069   3.551  1.5010  1.0526  1.7038
 1185SOL     OW15013   2.233   0.885   2.158 -0.1592  0.2431 -0.3936
 1185SOL    HW115014   2.252   0.855   2.248 -0.9687  0.7410 -0.0577
 1185SOL    HW215015   2.320   0.908   2.125  0.8659 -0.5560  1.7318
 1186SOL     OW15016   0.195   3.525   6.607  0.3234  0.4151  0.2091
 1186SOL    HW115017   0.182   3.433   6.628  1.5417 -0.3494 -2.2729
 1186SOL    HW215018   0.128   3.525   6.539  1.6151 -0.4590 -1.0788
 1187SOL     OW15019   0.500   0.386   6.729  0.3985 -0.7537  0.0253
 1187SOL    HW115020   0.509   0.458   6.792 -0.6085 -0.9574  0.3914
 1187SOL    HW215021   0.572   0.410   6.670 -0.4862  1.1053 -0.3007
 1188SOL     OW15022   4.282   2.881   7.737 -0.0765 -1.0233  0.5148
 1188SOL    HW115023   4.270   2.787   7.753 -1.4794 -0.9782 -0.2409
 1188SOL    HW215024   4.207   2.917   7.690 -0.4753 -2.4384  0.0563
 1189SOL     OW15025   2.692   1.127   3.856  0.2601 -0.3939 -0.4448
 1189SOL    HW115026   2.639   1.141   3.934 -1.5839  1.5460 -2.0455
 1189SOL    HW215027   2.759   1.064   3.881 -1.3412 -1.3626  1.4168
 1190SOL     OW15028   0.895   1.835  11.830 -0.4642  0.3968 -0.0847
 1190SOL    HW115029   0.975   1.848  11.779 -0.2967 -0.0387  0.0619
 1190SOL    HW215030   0.835   1.826  11.756 -2.4424  0.8406  1.4623
 1191SOL     OW15031   2.209   4.066   1.576 -0.1829 -0.7622  0.4574
 1191SOL    HW115032   2.246   4.126   1.641 -0.1400 -2.5044  2.0351
 1191SOL    HW215033   2.146   4.117   1.525 -0.7165 -0.5202  1.3543
 1192SOL     OW15034   0.473   3.216   7.899  0.2367  0.4391  0.3451
 1192SOL    HW115035   0.468   3.308   7.875  0.7053  0.0151 -1.3886
 1192SOL    HW215036   0.472   3.225   7.994 -0.7405 -1.2815  0.5091
 1193SOL     OW15037   1.851   1.886   6.980 -0.6232 -0.2159  0.1373
 1193SOL    HW115038   1.785   1.845   6.924 -1.0432  0.8524 -0.1706
 1193SOL    HW215039   1.794   1.941   7.034  1.0717  1.8692 -0.1924
 1194SOL     OW15040   2.577   1.009   2.856  1.0843 -0.1424 -0.2971
 1194SOL    HW115041   2.663   1.033   2.889 -0.2797  3.7114  0.5092
 1194SOL    HW215042   2.572   0.915   2.873 -0.1178 -0.2221 -1.0448
 1195SOL     OW15043   4.168   4.122   3.044 -0.0939 -0.0405  0.1088
 1195SOL    HW115044   4.192   4.124   2.952 -1.3317  2.2449 -0.1553
 1195SOL    HW215045   4.127   4.207   3.058  0.7072 -0.1621  3.4512
 1196SOL     OW15046   3.488   1.553   0.237 -0.1938 -0.1420  0.2795
 1196SOL    HW115047   3.429   1.601   0.296 -0.2529 -0.4035  0.4363
 1196SOL    HW215048   3.435   1.482   0.201  0.5552 -0.7032  0.2996
 1197SOL     OW15049   1.049   0.131   7.886  0.4843  0.3829 -0.0367
 1197SOL    HW115050   0.972   0.185   7.904  1.4183  1.2140  1.4523
 1197SOL    HW215051   1.092   0.182   7.818  0.3452 -0.6072 -0.8614
 1198SOL     OW15052   4.044   2.943  15.642  0.3172 -0.5687  0.7360
 1198SOL    HW115053   4.124   2.995  15.643 -0.1831  0.1618  1.9311
 1198SOL    HW215054   4.016   2.937  15.551  2.3347 -0.7320  0.1131
 1199SOL     OW15055   4.046   3.754  14.800  0.0239  0.5186 -0.2252
 1199SOL    HW115056   4.009   3.811  14.733  2.7642  1.7485 -0.7168
 1199SOL    HW215057   4.069   3.678  14.745  0.6014  0.4268  0.1359
 1200SOL     OW15058   4.339   3.716   0.521  0.4788 -0.1609 -0.1361
 1200SOL    HW115059   4.415   3.669   0.486  0.5499 -0.4758  0.4399
 1200SOL    HW215060   4.287   3.729   0.442  1.6978  0.1751 -0.8873
 1201SOL     OW15061   3.153   2.223  13.316 -0.1553  0.4098 -0.6169
 1201SOL    HW115062   3.150   2.204  13.223 -0.7081 -0.6065 -0.3918
 1201SOL    HW215063   3.077   2.280  13.328 -0.9793 -1.4570  3.0420
 1202SOL     OW15064   1.680   4.534   9.325 -0.5308  0.4117  0.7736
 1202SOL    HW115065   1.681   4.449   9.281  2.0676  0.4239  0.8319
 1202SOL    HW215066   1.621   4.519   9.400 -0.7107 -0.1891  0.5111
 1203SOL     OW15067   0.659   3.341   2.297  0.6430 -0.1204 -0.1258
 1203SOL    HW115068   0.753   3.354   2.294  0.3580  2.2784  1.3917
 1203SOL    HW215069   0.649   3.287   2.218  1.2547  0.0894 -0.3413
 1204SOL     OW15070   0.175   2.017  10.521 -0.0741  0.3707  0.2898
 1204SOL    HW115071   0.207   2.015  10.431  0.3623 -1.3549  0.4932
 1204SOL    HW215072   0.103   2.078  10.507 -0.3372  0.1462  0.6649
 1205SOL     OW15073   4.153   2.390   5.624  0.4826 -0.1564 -0.5486
 1205SOL    HW115074   4.245   2.381   5.602  0.1900  1.2260 -2.2793
 1205SOL    HW215075   4.120   2.300   5.625  0.5723 -0.1828  0.0620
 1206SOL     OW15076   1.627   1.674   4.179 -0.4223 -0.1301 -0.3741
 1206SOL    HW115077   1.608   1.596   4.231  0.8003  0.5099  1.0084
 1206SOL    HW215078   1.628   1.631   4.093  3.8289 -2.4601  0.8392
 1207SOL     OW15079   3.369   4.293  11.200  0.4050 -0.2334 -0.1359
 1207SOL    HW115080   3.354   4.238  11.123 -1.4522  0.0510  0.0246
 1207SOL    HW215081   3.401   4.225  11.260 -1.6278 -0.2359  0.9177
 1208SOL     OW15082   0.876   1.772   8.790 -0.2191  0.4783  0.7574
 1208SOL    HW115083   0.895   1.680   8.770  2.1870  1.1511  0.0479
 1208SOL    HW215084   0.846   1.803   8.705  0.8334  1.7781  0.8629
 1209SOL     OW15085   0.135   1.912   9.608 -0.1906  0.2760 -0.2072
 1209SOL    HW115086   0.061   1.933   9.665  0.7084 -0.1202  1.0986
 1209SOL    HW215087   0.099   1.854   9.541 -0.0955  1.2510 -1.0940
 1210SOL     OW15088   2.214   3.070   6.149  1.2036 -1.0759 -0.3053
 1210SOL    HW115089   2.261   3.056   6.067  3.9797  0.3037  1.0705
 1210SOL    HW215090   2.140   3.125   6.123  0.7487 -1.1323  0.8584
 1211SOL     OW15091   4.695   0.720   6.593 -0.0732  0.0296  0.1838
 1211SOL    HW115092   0.031   0.683   6.656 -0.0122  0.5871  0.4484
 1211SOL    HW215093   4.632   0.762   6.651  0.4901 -0.0628  0.8577
 1212SOL     OW15094   2.301   1.141   9.181  0.2698 -0.8099  0.5615
 1212SOL    HW115095   2.255   1.205   9.235 -0.5160 -1.9010  1.1881
 1212SOL    HW215096   2.390   1.161   9.210  0.1930 -0.1913  0.3707
 1213SOL     OW15097   3.821   4.239  10.862  0.9424  0.5483 -0.2354
 1213SOL    HW115098   3.813   4.225  10.956  1.7499 -2.4898 -0.6332
 1213SOL    HW215099   3.811   4.334  10.858  3.3683  0.7554 -1.0818
 1214SOL     OW15100   0.235   4.052   5.354 -0.1227  0.1520  0.3832
 1214SOL    HW115101   0.211   3.978   5.410  1.7367 -1.3044 -0.7255
 1214SOL    HW215102   0.227   4.015   5.266 -1.1603  0.1497  0.4803
 1215SOL     OW15103   3.856   2.421   4.220 -0.0108  0.2639  0.8579
 1215SOL    HW115104   3.943   2.394   4.190 -0.5047  0.1738 -0.5091
 1215SOL    HW215105   3.840   2.368   4.297 -1.0749 -0.0723  0.4038
 1216SOL     OW15106   4.581   0.083   6.339 -0.3388 -0.0404  0.1343
 1216SOL    HW115107   4.658   0.113   6.387 -0.3726  1.8792 -1.0302
 1216SOL    HW215108   4.507   0.131   6.377  0.0123  1.1406 -0.6941
 1217SOL     OW15109   3.940   0.449   6.690 -0.0059  0.1985 -0.0193
 1217SOL    HW115110   3.977   0.487   6.611  1.5976 -0.3076  0.4873
 1217SOL    HW215111   3.981   0.364   6.702 -0.2662  0.2820  1.4313
 1218SOL     OW15112   4.443   3.452   6.302  0.4665  0.4170  0.5833
 1218SOL    HW115113   4.395   3.374   6.276 -1.8993  1.7706  0.9028
 1218SOL    HW215114   4.381   3.475   6.371 -0.7152  0.3854 -0.4653
 1219SOL     OW15115   2.494   4.005   7.229 -0.4072  0.0839 -0.1202
 1219SOL    HW115116   2.499   4.067   7.157  0.1097 -1.1304 -1.1387
 1219SOL    HW215117   2.581   3.965   7.230  0.3736  1.7609 -0.5322
 1220SOL     OW15118   3.389   1.011   4.875 -0.2465 -0.0028  0.2597
 1220SOL    HW115119   3.430   0.978   4.795  0.4633  0.4641  0.4333
 1220SOL    HW215120   3.322   0.943   4.877 -0.5989  0.2329 -3.4102
 1221SOL     OW15121   1.251   2.486   7.371 -0.5730  0.0285  0.2974
 1221SOL    HW115122   1.176   2.430   7.353  0.4358 -1.3882  0.4092
 1221SOL    HW215123   1.292   2.430   7.437  0.0030 -0.6304 -0.6004
 1222SOL     OW15124   1.419   4.402   4.444  0.0309 -0.1347 -0.3523
 1222SOL    HW115125   1.374   4.483   4.470 -0.5885 -0.8755  0.8435
 1222SOL    HW215126   1.428   4.417   4.350  3.9350 -1.3944 -0.1779
 1223SOL     OW15127   3.395   4.345   5.192 -0.0165  0.6635 -0.0189
 1223SOL    HW115128   3.339   4.315   5.120 -1.3980  0.6181  1.0578
 1223SOL    HW215129   3.410   4.259   5.232 -1.6721  0.4072  0.0797
 1224SOL     OW15130   3.411   2.453   0.116 -0.3315 -0.4844  0.2745
 1224SOL    HW115131   3.426   2.365   0.151 -1.4316 -0.7583  0.0625
 1224SOL    HW215132   3.328   2.463   0.162 -0.6185 -1.2700 -0.0768
 1225SOL     OW15133   0.757   4.281   7.224  0.3058  0.0201 -0.0473
 1225SOL    HW115134   0.762   4.358   7.167 -0.6261  1.2534  1.5576
 1225SOL    HW215135   0.780   4.319   7.308  1.7867 -0.8159 -0.0773
 1226SOL     OW15136   1.881   4.208  14.452  0.6427  0.3116 -0.6475
 1226SOL    HW115137   1.921   4.282  14.497 -1.3473  0.3894  0.9608
 1226SOL    HW215138   1.876   4.146  14.525 -2.9398  1.9558  0.4661
 1227SOL     OW15139   1.805   4.428   7.788  0.2895 -0.3250  0.6847
 1227SOL    HW115140   1.828   4.507   7.837  3.0015 -0.7572  0.1050
 1227SOL    HW215141   1.890   4.386   7.779  0.2475  0.0857 -1.5691
 1228SOL     OW15142   3.712   0.296   8.822  0.5986 -0.5557  0.6421
 1228SOL    HW115143   3.621   0.301   8.853  0.6565 -1.1716  0.9166
 1228SOL    HW215144   3.692   0.275   8.731 -1.2930 -3.4570  1.7103
 1229SOL     OW15145   0.842   1.867   3.400  0.0505  0.0287 -0.3555
 1229SOL    HW115146   0.791   1.943   3.430  0.2073 -0.0549  0.1103
 1229SOL    HW215147   0.775   1.823   3.347  0.7023 -1.9550  0.4871
 1230SOL     OW15148   2.944   1.158   6.865 -0.6033  0.3073  0.0485
 1230SOL    HW115149   2.979   1.129   6.781 -0.8607 -0.8102  0.3241
 1230SOL    HW215150   3.027   1.183   6.906 -1.8364 -1.4802  3.6218
 1231SOL     OW15151   4.722   1.776   6.797  0.4355 -0.0800 -0.3142
 1231SOL    HW115152   0.082   1.740   6.772  0.7494  0.1138  0.4809
 1231SOL    HW215153   4.656   1.727   6.748  1.7750  0.4446 -2.6420
 1232SOL     OW15154   1.893   3.007   5.568 -0.3275  1.0017 -0.0760
 1232SOL    HW115155   1.833   3.065   5.616  0.2259  0.3400  1.4243
 1232SOL    HW215156   1.856   2.920   5.586 -1.3385  1.6245  0.8975
 1233SOL     OW15157   0.555   4.124   0.675  0.0862  0.5891 -0.3195
 1233SOL    HW115158   0.597   4.041   0.696 -1.3186  0.1763  0.9176
 1233SOL    HW215159   0.586   4.145   0.587  2.2120  0.9562  0.5353
 1234SOL     OW15160   0.371   0.962   8.149 -0.2194  0.0638  0.2655
 1234SOL    HW115161   0.310   1.026   8.186 -1.9848 -0.2440 -2.1343
 1234SOL    HW215162   0.435   1.022   8.110 -1.2008  1.6013  1.0160
 1235SOL     OW15163   1.393   0.880   6.628  0.2557  0.2028  0.4249
 1235SOL    HW115164   1.404   0.874   6.534  0.6876  0.4433  0.4611
 1235SOL    HW215165   1.334   0.806   6.638  1.8266 -0.9359  1.3538
 1236SOL     OW15166   3.436   2.217   6.295 -0.2339 -0.2323  0.2204
 1236SOL    HW115167   3.473   2.142   6.342 -3.1315 -0.7134  1.7012
 1236SOL    HW215168   3.468   2.296   6.338 -0.5627 -0.4020  0.7731
 1237SOL     OW15169   2.039   0.558   8.048  0.3501 -0.2553 -0.0727
 1237SOL    HW115170   2.115   0.568   8.105  1.2962 -0.4485 -1.3089
 1237SOL    HW215171   1.975   0.620   8.084  1.0559 -0.6736  1.8902
 1238SOL     OW15172   3.553   0.405   8.368  0.4761 -0.1546 -0.3260
 1238SOL    HW115173   3.571   0.345   8.440  3.2612  0.9168 -0.1244
 1238SOL    HW215174   3.635   0.399   8.318  0.3558 -0.9832 -0.4098
 1239SOL     OW15175   2.174   3.873  15.623 -0.0279  0.8349 -0.8410
 1239SOL    HW115176   2.142   3.858  15.535 -0.7174  2.7536 -0.9222
 1239SOL    HW215177   2.138   3.960  15.637  1.2099  1.1635  0.4088
 1240SOL     OW15178   1.592   2.407  11.456  0.0679 -1.2794 -0.2780
 1240SOL    HW115179   1.603   2.344  11.527  0.1555 -0.2174  0.6341
 1240SOL    HW215180   1.551   2.342  11.398 -1.3210 -1.5590  1.0248
 1241SOL     OW15181   3.185   1.078   2.138  0.6440 -0.2098 -0.1445
 1241SOL    HW115182   3.102   1.106   2.100  1.8133  2.5037 -0.7280
 1241SOL    HW215183   3.151   1.040   2.218  1.4616 -0.3897  0.1184
 1242SOL     OW15184   2.071   3.494   1.221 -0.0122  0.1553 -0.0160
 1242SOL    HW115185   2.042   3.583   1.237  0.6207  0.3459  0.0747
 1242SOL    HW215186   2.017   3.441   1.280  1.0769 -0.2937  0.5762
 1243SOL     OW15187   1.124   2.949   5.616  0.4318 -0.5278  0.3193
 1243SOL    HW115188   1.120   2.908   5.703 -0.7804 -1.8114 -0.3553
 1243SOL    HW215189   1.035   2.954   5.584  0.9245  0.3558 -0.9114
 1244SOL     OW15190   2.856   1.257   1.591  0.3496 -0.3505  0.1868
 1244SOL    HW115191   2.789   1.189   1.585 -0.3937  0.3006  1.1073
 1244SOL    HW215192   2.811   1.311   1.656  0.9538  0.8315 -0.3769
 1245SOL     OW15193   4.001   2.081  15.806 -0.2455  0.3219 -0.2814
 1245SOL    HW115194   3.957   1.996  15.805 -0.9861  0.6867  1.1949
 1245SOL    HW215195   4.055   2.055  15.881 -2.2118  0.8359  1.3178
 1246SOL     OW15196   2.138   0.087   9.132  0.0904  0.1982 -0.5829
 1246SOL    HW115197   2.072   0.034   9.177 -0.5711  1.9760  0.5437
 1246SOL    HW215198   2.100   0.174   9.118  2.7942  1.3557 -0.6731
 1247SOL     OW15199   4.111   1.137   5.616  0.0408  0.2432  0.2629
 1247SOL    HW115200   4.125   1.073   5.686 -0.3290 -1.4115 -1.1578
 1247SOL    HW215201   4.200   1.148   5.582 -0.1313  2.0674  0.4497
 1248SOL     OW15202   2.086   1.363   6.276  0.0949  0.6342 -0.3586
 1248SOL    HW115203   2.051   1.281   6.310 -0.2663  1.3837  1.0904
 1248SOL    HW215204   2.056   1.436   6.331 -2.5490 -1.4343  0.9355
 1249SOL     OW15205   2.518   0.559   5.223  0.2269 -0.6777 -0.0377
 1249SOL    HW115206   2.529   0.524   5.135 -2.2663  0.9293 -0.9747
 1249SOL    HW215207   2.515   0.480   5.278 -1.1928 -0.8966 -0.4475
 1250SOL     OW15208   0.437   2.344  11.570 -0.1990 -0.4178  0.1456
 1250SOL    HW115209   0.490   2.359  11.648  0.7347 -0.0020 -0.5542
 1250SOL    HW215210   0.494   2.380  11.502 -0.6511  1.3320  0.6976
 1251SOL     OW15211   1.656   2.836   1.377  0.2085  0.3886 -0.1616
 1251SOL    HW115212   1.739   2.871   1.412  0.1775 -0.6983  0.9921
 1251SOL    HW215213   1.602   2.915   1.386  0.2597  0.2477  1.5277
 1252SOL     OW15214   0.105   2.590   1.117  0.3132  0.3725  0.2403
 1252SOL    HW115215   0.071   2.501   1.108 -0.3842  0.5539  1.0679
 1252SOL    HW215216   0.098   2.605   1.212  2.1536 -0.4859  0.5136
 1253SOL     OW15217   3.011   1.020   8.129  0.0105 -0.6802 -0.0773
 1253SOL    HW115218   2.994   1.022   8.223 -0.8340  0.2857 -0.2534
 1253SOL    HW215219   2.921   1.033   8.101  0.1725  1.9218  0.5974
 1254SOL     OW15220   1.868   1.810   8.717  0.8579 -0.6148 -0.0730
 1254SOL    HW115221   1.816   1.744   8.761  0.4748 -0.8803 -0.9385
 1254SOL    HW215222   1.828   1.893   8.744 -0.6316 -1.5982  0.7223
 1255SOL     OW15223   2.097   0.674   7.645  0.1326 -0.0923  0.0305
 1255SOL    HW115224   2.143   0.626   7.713  0.4488  0.3233  0.1101
 1255SOL    HW215225   2.062   0.736   7.710 -0.4325 -1.1401  0.7244
 1256SOL     OW15226   4.219   0.336  14.155  0.0541  0.0168 -0.5351
 1256SOL    HW115227   4.174   0.386  14.223  1.5224  0.5806  0.0290
 1256SOL    HW215228   4.185   0.385  14.080 -0.4944 -1.5099 -1.2846
 1257SOL     OW15229   3.575   2.713  17.574 -0.0990  0.0972 -0.2302
 1257SOL    HW115230   3.531   2.648  17.518  0.4392 -0.5032  0.0438
 1257SOL    HW215231   3.622   2.653  17.631  0.1968  2.1495  1.6700
 1258SOL     OW15232   0.074   1.576   2.783  0.6081  0.0354  0.0380
 1258SOL    HW115233   0.150   1.576   2.841  0.2907 -2.1710  0.4410
 1258SOL    HW215234   0.065   1.482   2.769 -1.2334  0.5511 -2.3114
 1259SOL     OW15235   0.571   3.000  13.954  0.1104 -0.0503  0.4862
 1259SOL    HW115236   0.490   3.052  13.945 -0.8087 -1.6143 -0.3331
 1259SOL    HW215237   0.620   3.055  13.893 -0.6663 -0.8556 -0.8635
 1260SOL     OW15238   3.962   0.365  10.918  0.4872 -0.4127  0.1465
 1260SOL    HW115239   3.889   0.427  10.929  1.5634  0.9916 -0.7150
 1260SOL    HW215240   3.984   0.369  11.011  1.5981  1.4059 -0.1961
 1261SOL     OW15241   1.855   4.232   1.865  0.5487  0.6746 -0.3779
 1261SOL    HW115242   1.850   4.261   1.774 -1.5771 -2.0561 -1.1038
 1261SOL    HW215243   1.762   4.224   1.885  1.2945 -1.0138  2.5221
 1262SOL     OW15244   1.118   1.021   5.774 -0.1917 -0.5595  0.2730
 1262SOL    HW115245   1.084   1.088   5.715 -2.3524 -0.8694  1.1645
 1262SOL    HW215246   1.074   1.058   5.851  0.5151 -1.5769  1.1774
 1263SOL     OW15247   2.260   2.171  13.256 -0.8695  0.2520  0.3122
 1263SOL    HW115248   2.344   2.142  13.291 -1.8252 -2.7910  0.0438
 1263SOL    HW215249   2.273   2.146  13.165  0.8173 -0.6885  0.8098
 1264SOL     OW15250   3.163   2.280   5.348  0.1849  0.0289  0.2849
 1264SOL    HW115251   3.153   2.364   5.303 -2.1634 -0.2210  0.3232
 1264SOL    HW215252   3.237   2.302   5.404 -0.8312  0.8308  1.2969
 1265SOL     OW15253   0.244   0.373   3.115 -0.5620 -0.5846  0.5308
 1265SOL    HW115254   0.156   0.340   3.097 -0.3965 -1.1317  0.7282
 1265SOL    HW215255   0.212   0.463   3.128 -0.4784 -0.4504 -0.1997
 1266SOL     OW15256   4.528   1.945  16.999  0.4470 -0.0997 -0.0178
 1266SOL    HW115257   4.483   2.003  17.060 -0.2502  0.2850 -0.8966
 1266SOL    HW215258   4.582   1.888  17.054 -1.4577 -0.8030  1.1508
 1267SOL     OW15259   4.387   3.318   3.006 -0.5572  0.3350 -0.0186
 1267SOL    HW115260   4.453   3.361   2.952 -0.4741  0.5490  0.2564
 1267SOL    HW215261   4.433   3.234   3.008  3.1547  2.3860  0.5666
 1268SOL     OW15262   3.958   0.301   4.238 -0.6441  0.4039  0.2823
 1268SOL    HW115263   4.002   0.346   4.310 -1.1317 -1.7743  1.9558
 1268SOL    HW215264   3.878   0.352   4.225 -0.1462  0.7776 -1.2947
 1269SOL     OW15265   2.520   0.860  14.569 -0.1681 -0.5579  0.5586
 1269SOL    HW115266   2.457   0.802  14.525 -1.5321  0.2700  1.4146
 1269SOL    HW215267   2.532   0.827  14.658 -1.0356  0.5344  1.0982
 1270SOL     OW15268   3.038   4.171   0.219  0.1617 -0.0132 -0.6319
 1270SOL    HW115269   3.107   4.226   0.255  0.8502 -0.7550 -0.8242
 1270SOL    HW215270   2.963   4.230   0.211  1.1297  1.3583  0.4144
 1271SOL     OW15271   1.243   0.645  10.143 -0.0889 -0.3845  0.1513
 1271SOL    HW115272   1.259   0.664  10.236  2.9026  2.0743 -0.8666
 1271SOL    HW215273   1.214   0.730  10.111 -0.2425 -0.2520  0.6327
 1272SOL     OW15274   2.605   1.203   4.433  0.9804  0.1923 -0.3081
 1272SOL    HW115275   2.516   1.195   4.400  0.4041  2.9652  0.5669
 1272SOL    HW215276   2.599   1.283   4.484 -2.3372 -0.6343  0.5915
 1273SOL     OW15277   3.620   3.293  17.338  0.2720 -0.3697 -0.1138
 1273SOL    HW115278   3.660   3.292  17.425  0.0751  0.1125 -0.0192
 1273SOL    HW215279   3.672   3.363  17.298 -0.1456  1.3207  2.2773
 1274SOL     OW15280   3.789   3.272  15.849  0.0723  0.6362 -0.2101
 1274SOL    HW115281   3.697   3.298  15.859 -0.1852 -0.0504 -0.7679
 1274SOL    HW215282   3.815   3.258  15.940  1.2022  0.9178 -0.4879
 1275SOL     OW15283   0.142   1.283  16.094 -0.2261 -0.4375  0.2009
 1275SOL    HW115284   0.175   1.362  16.138 -0.2362 -1.3651  1.8586
 1275SOL    HW215285   0.211   1.218  16.080  0.1908 -0.2390  1.2867
 1276SOL     OW15286   2.966   0.949   3.032  0.0677 -0.4589 -0.2254
 1276SOL    HW115287   2.985   0.862   2.996  2.2993 -0.3413  0.6702
 1276SOL    HW215288   3.053   0.988   3.033 -0.4563  0.7220 -1.1046
 1277SOL     OW15289   4.283   3.099   3.264 -0.5794 -0.4589  0.1277
 1277SOL    HW115290   4.227   3.040   3.315 -1.3562 -1.3764 -1.7959
 1277SOL    HW215291   4.220   3.167   3.241 -0.6862 -0.3004  0.8681
 1278SOL     OW15292   0.797   0.696   2.375  0.0155  0.2078 -0.1485
 1278SOL    HW115293   0.854   0.701   2.299  0.2863 -0.8290 -0.0120
 1278SOL    HW215294   0.785   0.789   2.396 -0.8067 -0.0042  0.3166
 1279SOL     OW15295   1.523   0.384   5.910  0.0907  0.3735 -0.0655
 1279SOL    HW115296   1.519   0.289   5.924 -0.2184  0.3268 -0.4753
 1279SOL    HW215297   1.615   0.393   5.883  0.3655 -0.2918  0.6482
 1280SOL     OW15298   0.666   3.776   3.825  0.0937  0.3083 -0.0160
 1280SOL    HW115299   0.613   3.844   3.785  0.1674 -0.3148 -1.1636
 1280SOL    HW215300   0.719   3.815   3.895  2.7964  0.0754 -1.9180
 1281SOL     OW15301   3.450   3.464   2.374 -0.5324  0.3513  0.4183
 1281SOL    HW115302   3.446   3.494   2.283 -1.1370  0.0507  0.3471
 1281SOL    HW215303   3.543   3.440   2.381 -0.2198  0.9329 -1.5045
 1282SOL     OW15304   4.451   2.508   7.086  0.8158 -0.3576  0.0271
 1282SOL    HW115305   4.367   2.468   7.063 -0.0390  0.4817  1.6521
 1282SOL    HW215306   4.432   2.560   7.164 -0.5270 -0.7663 -0.0160
 1283SOL     OW15307   0.938   0.929   6.526  0.3096 -0.3118 -0.4411
 1283SOL    HW115308   1.003   0.929   6.456  1.6932 -2.6908  0.8320
 1283SOL    HW215309   0.912   1.020   6.513 -0.8822 -0.8710 -1.9499
 1284SOL     OW15310   2.270   0.902   3.568  0.1592  0.3323 -0.3077
 1284SOL    HW115311   2.265   0.887   3.473 -0.3970 -0.8121 -0.1025
 1284SOL    HW215312   2.364   0.909   3.579  0.4458 -2.6624 -0.7399
 1285SOL     OW15313   0.503   3.028   0.992  0.3823 -0.0577 -0.4578
 1285SOL    HW115314   0.523   2.974   0.915  0.4817  0.3218 -0.6966
 1285SOL    HW215315   0.487   2.956   1.054  3.0433  0.8679  1.3103
 1286SOL     OW15316   1.666   4.120   2.784 -0.0587  0.2052 -0.4860
 1286SOL    HW115317   1.728   4.057   2.821  0.4417 -0.3144 -2.2336
 1286SOL    HW215318   1.633   4.063   2.715 -0.4565  0.4008 -0.4589
 1287SOL     OW15319   2.327   1.114   5.953 -0.1234 -0.3505  0.0473
 1287SOL    HW115320   2.258   1.078   5.898  1.5375 -2.1594 -0.8372
 1287SOL    HW215321   2.280   1.103   6.035 -0.7164 -0.3180 -0.2857
 1288SOL     OW15322   3.663   1.428  15.207 -0.3260  0.6364  0.1978
 1288SOL    HW115323   3.567   1.429  15.204 -0.3721 -3.2831 -0.0208
 1288SOL    HW215324   3.671   1.427  15.302 -0.0299  1.0267  0.1742
 1289SOL     OW15325   1.349   3.064  11.066  0.1641  0.4302  0.2031
 1289SOL    HW115326   1.273   3.021  11.105  1.6004 -1.2175  1.2193
 1289SOL    HW215327   1.317   3.082  10.978 -0.0228  0.7307  0.3346
 1290SOL     OW15328   3.303   1.351  10.839 -0.4607 -0.0259  0.7491
 1290SOL    HW115329   3.309   1.256  10.849 -0.7737 -0.3833 -2.6557
 1290SOL    HW215330   3.365   1.385  10.904  0.3899 -0.8708  0.3822
 1291SOL     OW15331   3.623   3.776  13.791 -0.5224 -0.0906  0.4225
 1291SOL    HW115332   3.646   3.684  13.784 -1.3019 -0.2741  0.2845
 1291SOL    HW215333   3.527   3.772  13.788 -0.5788 -1.0112  3.7031
 1292SOL     OW15334   1.578   3.548   4.076 -0.1191 -0.4461  0.0331
 1292SOL    HW115335   1.525   3.495   4.016  1.4963 -1.2631 -0.6889
 1292SOL    HW215336   1.517   3.560   4.149 -1.0066 -1.2619 -0.5639
 1293SOL     OW15337   3.841   4.420   2.570 -0.0263  0.5060 -0.0847
 1293SOL    HW115338   3.752   4.392   2.550 -0.1232  0.4784  0.3810
 1293SOL    HW215339   3.870   4.364   2.642 -2.9643 -0.6943  0.1672
 1294SOL     OW15340   4.093   3.173   6.562  0.4963  0.5619 -0.1277
 1294SOL    HW115341   4.042   3.147   6.639  0.5245 -1.7353 -0.8982
 1294SOL    HW215342   4.028   3.157   6.494  0.8453  0.6645 -0.4830
 1295SOL     OW15343   3.729   4.109   2.228 -0.3354 -0.7193 -0.5672
 1295SOL    HW115344   3.748   4.026   2.185  0.8183 -0.4520 -0.5660
 1295SOL    HW215345   3.813   4.137   2.264 -1.4250 -1.3255  2.5042
 1296SOL     OW15346   3.591   3.068  14.597  0.2824  0.4373  0.0904
 1296SOL    HW115347   3.548   3.109  14.521 -2.1431  1.2273  1.8792
 1296SOL    HW215348   3.514   3.060  14.654 -0.7687  0.7960 -1.2669
 1297SOL     OW15349   2.872   1.673   6.747  0.0050  0.2128  0.6432
 1297SOL    HW115350   2.820   1.602   6.784  0.3007 -0.2920  0.0851
 1297SOL    HW215351   2.949   1.675   6.803 -0.4492 -0.9634  1.3010
 1298SOL     OW15352   1.262   0.993   9.564  0.3335 -0.2917 -0.5872
 1298SOL    HW115353   1.168   1.011   9.567  0.9809  2.8934  0.3687
 1298SOL    HW215354   1.295   1.007   9.653  1.2313 -1.7077 -0.7055
 1299SOL     OW15355   0.593   1.697   7.131 -0.0471  0.0294 -0.3322
 1299SOL    HW115356   0.582   1.620   7.076 -1.1257 -0.5958  0.7387
 1299SOL    HW215357   0.622   1.760   7.065  0.1546 -0.4209 -0.6758
 1300SOL     OW15358   4.076   4.684   7.109  0.2118 -0.7344 -0.0274
 1300SOL    HW115359   3.993   4.698   7.062  0.0273 -1.3460  0.1164
 1300SOL    HW215360   4.086   0.037   7.164 -1.1862 -0.5407 -0.0553
 1301SOL     OW15361   1.851   0.262   3.376  0.0101 -0.2726  0.1463
 1301SOL    HW115362   1.828   0.340   3.426 -1.4269 -0.1648 -0.6669
 1301SOL    HW215363   1.770   0.229   3.336  0.0870 -0.7251  0.3602
 1302SOL     OW15364   3.165   2.157  12.148 -0.9813  0.3219  0.7261
 1302SOL    HW115365   3.150   2.102  12.224  0.0595 -0.3527  0.4481
 1302SOL    HW215366   3.202   2.235  12.190  1.0424 -0.5256  0.5242
 1303SOL     OW15367   4.293   4.240   5.908  0.8006 -0.2463  0.5618
 1303SOL    HW115368   4.305   4.151   5.941  0.9567  0.2735  1.9070
 1303SOL    HW215369   4.348   4.291   5.967  1.4506 -1.1756  0.7481
 1304SOL     OW15370   0.324   4.462   6.558  0.4242 -0.4174 -0.3728
 1304SOL    HW115371   0.246   4.476   6.613  1.4794  3.4075  0.1322
 1304SOL    HW215372   0.341   4.373   6.589 -1.3588  0.1857  2.3157
 1305SOL     OW15373   3.145   1.526   7.707 -0.3068 -0.2094  0.5493
 1305SOL    HW115374   3.067   1.474   7.683  0.2312 -0.2811 -1.0261
 1305SOL    HW215375   3.120   1.617   7.695  0.3707 -0.0395  0.4601
 1306SOL     OW15376   1.619   1.327  10.161 -0.2739 -0.0561  0.2009
 1306SOL    HW115377   1.604   1.271  10.085 -0.0048  1.5582 -1.0206
 1306SOL    HW215378   1.668   1.266  10.217 -1.5981 -0.7307  0.6309
 1307SOL     OW15379   1.408   1.811   4.281  1.0058  0.7298 -0.7315
 1307SOL    HW115380   1.500   1.803   4.258  1.8161  0.0504  2.8440
 1307SOL    HW215381   1.387   1.718   4.268  0.8501  0.5353  0.9062
 1308SOL     OW15382   4.260   0.321  15.653 -0.4099  0.0638  0.1347
 1308SOL    HW115383   4.323   0.280  15.594  0.1386  0.5886  0.3548
 1308SOL    HW215384   4.176   0.305  15.609 -0.2392 -1.2010  0.2618
 1309SOL     OW15385   3.845   2.367   0.737 -0.0790  0.2460 -0.1715
 1309SOL    HW115386   3.794   2.436   0.694  1.5534  0.2706 -2.1017
 1309SOL    HW215387   3.782   2.339   0.803 -1.2533  1.6398 -0.7022
 1310SOL     OW15388   2.806   0.987   1.860 -0.0339  0.3641 -0.1566
 1310SOL    HW115389   2.755   0.909   1.881  0.7259  0.1988  1.0378
 1310SOL    HW215390   2.789   0.993   1.765 -0.2619  0.9064 -0.0807
 1311SOL     OW15391   0.254   2.523  13.091  0.0746  0.1303 -0.5198
 1311SOL    HW115392   0.167   2.535  13.128 -0.1662 -0.0035 -1.0398
 1311SOL    HW215393   0.235   2.475  13.010 -0.9486 -1.3723  0.6100
 1312SOL     OW15394   1.252   1.798  14.504 -0.5638 -0.2076 -0.5664
 1312SOL    HW115395   1.177   1.821  14.559 -0.3173 -1.2291  0.1945
 1312SOL    HW215396   1.218   1.715  14.471 -1.0411  1.0228 -3.1777
 1313SOL     OW15397   2.187   0.047  10.897 -0.2925 -0.4613  0.0085
 1313SOL    HW115398   2.255   0.104  10.862 -1.8189  1.4971  0.2234
 1313SOL    HW215399   2.203   4.706  10.830  0.3462 -0.2907 -0.0039
 1314SOL     OW15400   4.633   4.475   8.765  0.3248  0.1588  0.1409
 1314SOL    HW115401   4.612   4.400   8.710  1.1323 -0.9667  1.3636
 1314SOL    HW215402   4.617   4.545   8.702  0.4195 -0.4164 -0.5166
 1315SOL     OW15403   0.986   4.401   8.702 -0.1766  0.0366  0.3713
 1315SOL    HW115404   0.964   4.403   8.609 -0.8523 -3.3076  0.4450
 1315SOL    HW215405   1.002   4.493   8.723  2.0596 -0.5586  1.2954
 1316SOL     OW15406   4.718   0.979   9.231  0.8835  0.1943  0.6921
 1316SOL    HW115407   4.678   0.961   9.146 -0.0760  1.0168  0.9679
 1316SOL    HW215408   0.069   1.030   9.201 -0.5681  1.8959 -0.1082
 1317SOL     OW15409   2.328   4.064   8.894 -0.1627  0.5073  0.2395
 1317SOL    HW115410   2.319   4.126   8.967 -0.6687 -0.1803  0.7585
 1317SOL    HW215411   2.297   4.130   8.832 -0.7371 -0.8481 -0.9016
 1318SOL     OW15412   1.373   4.506   7.615  0.9312 -0.0518  0.1912
 1318SOL    HW115413   1.469   4.507   7.611  0.9549  1.4752  1.5522
 1318SOL    HW215414   1.356   4.555   7.534 -3.1382  1.6421  2.0982
 1319SOL     OW15415   3.232   4.046  17.224 -0.3165  0.0896 -0.4318
 1319SOL    HW115416   3.267   3.964  17.190  0.3150 -0.4246  1.4637
 1319SOL    HW215417   3.199   4.072  17.138  2.3022 -0.0454 -1.4737
 1320SOL     OW15418   3.598   4.414  12.020 -0.4580 -0.0844 -0.2330
 1320SOL    HW115419   3.574   4.326  12.047  1.8598 -1.1200 -1.5077
 1320SOL    HW215420   3.547   4.467  12.081 -1.9347 -1.4803 -0.2749
 1321SOL     OW15421   0.238   1.822   5.225  0.2931 -0.6261 -0.0439
 1321SOL    HW115422   0.218   1.736   5.188  0.4911 -0.0525 -1.4871
 1321SOL    HW215423   0.209   1.876   5.152 -0.2278  0.4122  0.9277
 1322SOL     OW15424   0.719   3.909   8.461 -0.0798 -0.0276  0.0411
 1322SOL    HW115425   0.745   3.845   8.394  0.2800  1.4121 -1.2041
 1322SOL    HW215426   0.800   3.961   8.459  0.6225 -1.1342 -0.5404
 1323SOL     OW15427   3.270   1.936   7.262 -0.6514  0.4271  0.0835
 1323SOL    HW115428   3.305   2.023   7.242  0.2152  0.3307  1.2272
 1323SOL    HW215429   3.324   1.872   7.216 -0.5429 -0.3287  1.2743
 1324SOL     OW15430   3.171   2.424   0.662 -0.3465 -0.2428  0.0287
 1324SOL    HW115431   3.090   2.387   0.627 -0.0508  0.1057 -1.0377
 1324SOL    HW215432   3.142   2.429   0.753  3.8685 -3.4539  1.5901
 1325SOL     OW15433   2.863   0.146   6.978  0.1890  0.8998 -0.0814
 1325SOL    HW115434   2.907   0.231   6.971  1.7270  0.0640 -0.4431
 1325SOL    HW215435   2.846   0.126   6.886  1.4176 -0.4822  0.0008
 1326SOL     OW15436   3.950   2.114   0.459  0.3694  0.2504 -0.6980
 1326SOL    HW115437   3.855   2.105   0.452  0.3487 -2.0759  2.5229
 1326SOL    HW215438   3.967   2.132   0.367 -1.9642  0.5100 -1.0610
 1327SOL     OW15439   4.600   0.672   2.993  0.1403  0.1299  0.7982
 1327SOL    HW115440   4.538   0.615   3.039 -0.0707 -0.1822  0.1275
 1327SOL    HW215441   4.625   0.615   2.921  0.3426 -0.4232  1.2992
 1328SOL     OW15442   2.096   3.331  14.804 -0.8158 -0.0731 -0.2662
 1328SOL    HW115443   2.097   3.388  14.728 -0.2495 -1.3821 -1.2375
 1328SOL    HW215444   2.005   3.303  14.809 -0.5639 -0.9181 -0.4825
 1329SOL     OW15445   3.884   3.532  16.181  0.3207  0.3162  0.4902
 1329SOL    HW115446   3.855   3.441  16.170 -0.6800  0.6060  0.7132
 1329SOL    HW215447   3.816   3.576  16.129  1.1546  1.4925  0.3972
 1330SOL     OW15448   0.026   2.985   3.627 -0.1832 -0.8684  0.3018
 1330SOL    HW115449   0.030   2.966   3.533 -0.0532  0.2139  0.0880
 1330SOL    HW215450   4.664   2.956   3.653 -0.8276  1.2717  0.5635
 1331SOL     OW15451   1.516   2.757   3.774 -0.0404  0.1951 -0.0825
 1331SOL    HW115452   1.538   2.667   3.797  2.6545  0.9405  0.2659
 1331SOL    HW215453   1.586   2.784   3.714  2.0537  0.2709  2.3987
 1332SOL     OW15454   2.727   0.995   0.969  0.0431 -0.1342 -0.3341
 1332SOL    HW115455   2.671   1.057   1.015  0.0422  1.3800 -2.3766
 1332SOL    HW215456   2.768   1.058   0.910  0.8642  0.1222  0.5110
 1333SOL     OW15457   3.229   1.009  11.087 -0.6555 -0.1626  0.3990
 1333SOL    HW115458   3.225   0.918  11.117  0.0655 -0.7477 -1.2585
 1333SOL    HW215459   3.170   1.061  11.141  0.7272  0.8070  0.9669
 1334SOL     OW15460   0.291   1.497   4.205 -0.2871 -0.1968 -0.5937
 1334SOL    HW115461   0.196   1.500   4.191 -0.4634  1.2279  0.9093
 1334SOL    HW215462   0.304   1.592   4.197  2.7008 -0.6567 -0.8527
 1335SOL     OW15463   0.832   4.321   8.919 -0.5083  0.3634  0.0888
 1335SOL    HW115464   0.750   4.364   8.893 -0.7434  0.2775  0.6837
 1335SOL    HW215465   0.890   4.352   8.850 -2.4792  0.8479 -1.3410
 1336SOL     OW15466   1.219   1.532  14.678  0.1942  0.1170  0.7345
 1336SOL    HW115467   1.183   1.537  14.590 -0.3026 -2.0021  0.8206
 1336SOL    HW215468   1.262   1.616  14.691  0.0652  0.4809 -1.1802
 1337SOL     OW15469   1.845   1.933   1.757 -0.0646  0.5974 -0.3428
 1337SOL    HW115470   1.875   1.848   1.727  0.2283  0.5557  0.0682
 1337SOL    HW215471   1.860   1.917   1.850  1.9062  0.1056 -0.7661
 1338SOL     OW15472   0.587   1.335   6.640  0.1979  0.1077 -0.1382
 1338SOL    HW115473   0.638   1.310   6.717  1.0282  1.9222 -0.0934
 1338SOL    HW215474   0.520   1.267   6.644  0.8959 -0.5517  0.2247
 1339SOL     OW15475   1.424   1.738   1.459 -0.1494 -0.3076 -0.8225
 1339SOL    HW115476   1.333   1.742   1.488 -0.5252  0.2630 -2.1099
 1339SOL    HW215477   1.456   1.827   1.446  0.1598  0.0694  2.3874
 1340SOL     OW15478   2.940   3.938   5.231 -0.1005  0.4412  0.1511
 1340SOL    HW115479   2.844   3.938   5.236 -0.1413 -2.7364 -0.5041
 1340SOL    HW215480   2.964   4.016   5.180 -1.3606  0.6250 -0.1496
 1341SOL     OW15481   3.682   0.257  16.349  0.2060 -0.5043  0.0494
 1341SOL    HW115482   3.763   0.288  16.389  1.0648 -1.4136 -0.9936
 1341SOL    HW215483   3.617   0.298  16.407  0.9919  0.9107 -0.0518
 1342SOL     OW15484   1.982   1.797   6.657  0.4927 -0.4637 -0.2475
 1342SOL    HW115485   2.014   1.750   6.734 -1.8766  1.3144  1.7944
 1342SOL    HW215486   2.044   1.870   6.659  2.7074 -2.3373 -0.3034
 1343SOL     OW15487   4.709   3.744   3.117 -0.0992 -0.3116 -0.7612
 1343SOL    HW115488   0.045   3.765   3.047  1.0844 -3.2591 -0.6059
 1343SOL    HW215489   4.696   3.650   3.102 -1.4803 -0.2423  0.0261
 1344SOL     OW15490   3.535   1.072   7.310 -0.2151  0.1139  0.1567
 1344SOL    HW115491   3.536   1.109   7.398 -1.1424  0.3318  0.0773
 1344SOL    HW215492   3.603   1.129   7.274 -0.7221 -0.5631 -1.8974
 1345SOL     OW15493   4.696   3.119  15.865  0.7058 -0.1029 -0.3709
 1345SOL    HW115494   4.662   3.033  15.840 -0.7527  0.2145  0.5436
 1345SOL    HW215495   4.706   3.109  15.959  3.7957 -1.6729 -0.8542
 1346SOL     OW15496   3.189   3.489  13.940  0.1403 -0.6364 -0.2412
 1346SOL    HW115497   3.262   3.513  13.883 -1.4663  0.2426 -1.9709
 1346SOL    HW215498   3.116   3.517  13.884  0.7198 -2.3308 -1.8559
 1347SOL     OW15499   0.628   2.959   7.311 -0.0911 -0.1193 -0.2503
 1347SOL    HW115500   0.676   3.030   7.355 -0.4983 -1.2353  2.0049
 1347SOL    HW215501   0.560   3.010   7.267  0.5087 -0.0136 -1.0455
 1348SOL     OW15502   1.973   2.201   5.249  0.5573 -0.0134 -0.7158
 1348SOL    HW115503   1.940   2.252   5.175 -1.1199 -0.8852 -0.5679
 1348SOL    HW215504   1.940   2.268   5.310  0.4414 -2.8511  2.3440
 1349SOL     OW15505   3.671   3.137  17.016  0.2077  0.0659 -0.2779
 1349SOL    HW115506   3.747   3.137  17.074 -1.2679  1.0853  1.6709
 1349SOL    HW215507   3.719   3.165  16.938  0.6046  0.2663  0.0385
 1350SOL     OW15508   1.774   0.864  12.887 -0.0053  0.2115  0.7720
 1350SOL    HW115509   1.867   0.840  12.881 -0.6690 -2.3628  0.9041
 1350SOL    HW215510   1.776   0.957  12.910 -1.8137 -0.0171  1.8376
 1351SOL     OW15511   2.004   2.088   7.240 -0.0309  0.3780  1.1976
 1351SOL    HW115512   1.990   1.994   7.229  2.1602  0.4033 -1.7894
 1351SOL    HW215513   2.076   2.086   7.303  0.0161 -1.0460  1.0958
 1352SOL     OW15514   1.359   0.948  14.513 -0.3703 -0.0357  0.1092
 1352SOL    HW115515   1.419   0.997  14.570  0.8604 -1.3727 -0.0348
 1352SOL    HW215516   1.411   0.950  14.433 -1.1933  0.2937 -0.4200
 1353SOL     OW15517   0.818   2.470   2.142  0.1690  0.0918  0.2423
 1353SOL    HW115518   0.857   2.426   2.066 -2.4245 -2.8157  0.6008
 1353SOL    HW215519   0.773   2.545   2.102 -0.4200  0.9475  2.4767
 1354SOL     OW15520   1.439   3.439   0.869  0.5727 -0.5545 -0.1498
 1354SOL    HW115521   1.447   3.417   0.962  0.8601  0.3654  0.0361
 1354SOL    HW215522   1.523   3.407   0.835 -0.1575  1.0167 -3.3136
 1355SOL     OW15523   0.256   3.462   3.042  0.1892  0.2790 -0.8652
 1355SOL    HW115524   0.253   3.555   3.064  2.0168  0.1036  0.1148
 1355SOL    HW215525   0.350   3.449   3.056  0.6722  2.1124 -2.4442
 1356SOL     OW15526   1.063   0.093   1.043 -0.1372 -0.2115  0.6366
 1356SOL    HW115527   1.090   0.002   1.047 -2.3865 -0.8381  1.4375
 1356SOL    HW215528   0.996   0.097   0.975 -0.8081 -3.4183  1.1510
 1357SOL     OW15529   1.237   4.218   4.987 -0.6604 -0.3584  0.1637
 1357SOL    HW115530   1.322   4.190   5.020 -1.4607 -1.3750  1.4008
 1357SOL    HW215531   1.221   4.288   5.050  1.6209 -0.0593  0.4068
 1358SOL     OW15532   2.070   3.893   6.069  0.0662 -0.0750  0.3407
 1358SOL    HW115533   1.991   3.844   6.046 -0.6113  1.9706 -1.6155
 1358SOL    HW215534   2.125   3.874   5.993  2.7193  1.5140  1.8755
 1359SOL     OW15535   0.465   0.761   7.655  0.3789  0.5423 -0.1897
 1359SOL    HW115536   0.471   0.856   7.669 -1.8683  0.6291  0.2958
 1359SOL    HW215537   0.525   0.736   7.724  0.7912  1.0742 -0.3578
 1360SOL     OW15538   1.359   3.897  12.939 -0.1395  0.8533  0.1277
 1360SOL    HW115539   1.386   3.828  12.880 -1.9952 -1.3341  1.8359
 1360SOL    HW215540   1.438   3.902  12.994 -1.0706 -0.3304  1.5801
 1361SOL     OW15541   3.401   0.244   2.050  0.0056 -0.7124  0.3225
 1361SOL    HW115542   3.336   0.288   1.996  1.3133 -0.1704 -0.8254
 1361SOL    HW215543   3.434   0.319   2.099 -1.2291  0.1495 -0.1735
 1362SOL     OW15544   2.287   2.262   6.648  0.0288 -0.2861 -0.7997
 1362SOL    HW115545   2.369   2.249   6.599  0.9927  4.6443 -0.5794
 1362SOL    HW215546   2.326   2.318   6.715 -1.1912  0.6122 -0.8396
 1363SOL     OW15547   0.191   3.179   2.413 -0.4288 -0.4709 -0.0222
 1363SOL    HW115548   0.227   3.266   2.398  0.1924 -1.1184 -2.2210
 1363SOL    HW215549   0.128   3.184   2.485  2.1397  2.6874  2.0373
 1364SOL     OW15550   1.756   0.649   5.631 -0.4947  1.6424  0.0048
 1364SOL    HW115551   1.671   0.616   5.603  2.0000 -3.8605 -1.3148
 1364SOL    HW215552   1.791   0.664   5.543 -3.2208 -2.1158 -1.7314
 1365SOL     OW15553   0.380   1.207   5.038 -0.2234 -0.6792 -0.6037
 1365SOL    HW115554   0.373   1.290   5.085 -2.2236 -0.6328 -1.0205
 1365SOL    HW215555   0.324   1.220   4.962 -0.7812 -0.5232 -0.1621
 1366SOL     OW15556   0.280   4.561  15.942 -0.1051 -0.3615 -0.3900
 1366SOL    HW115557   0.214   4.525  15.882 -0.9217 -0.0004  0.2853
 1366SOL    HW215558   0.324   4.626  15.888  0.5898 -1.0790 -0.6872
 1367SOL     OW15559   0.433   4.378  11.578 -0.1942  0.1636 -0.2792
 1367SOL    HW115560   0.349   4.334  11.587  0.8802 -1.5899  1.2102
 1367SOL    HW215561   0.475   4.336  11.502  0.0654 -1.6786  0.8864
 1368SOL     OW15562   4.699   4.101   5.857  0.4632  0.0210  0.2422
 1368SOL    HW115563   0.001   4.102   5.949  1.4293 -3.1695 -0.0259
 1368SOL    HW215564   4.658   4.188   5.856 -1.2152 -0.7985 -1.3497
 1369SOL     OW15565   2.007   2.585   1.974  0.2186  0.6503 -0.3861
 1369SOL    HW115566   1.947   2.655   1.950  0.8943  1.1972 -0.4748
 1369SOL    HW215567   2.066   2.639   2.026  2.3329 -1.5379 -0.5168
 1370SOL     OW15568   0.040   0.350   6.234  1.0447 -0.0849 -0.2946
 1370SOL    HW115569   0.003   0.419   6.290 -1.5570  0.2018 -2.3613
 1370SOL    HW215570   0.052   0.281   6.299 -1.1891  1.1709  1.4392
 1371SOL     OW15571   0.425   1.788   7.732 -0.5668  0.6070  0.1532
 1371SOL    HW115572   0.449   1.822   7.646 -2.4316  2.1261  0.2400
 1371SOL    HW215573   0.458   1.699   7.718  0.5616  1.0227  0.2136
 1372SOL     OW15574   4.404   4.113   0.873  0.6878  0.4791  0.5290
 1372SOL    HW115575   4.405   4.062   0.792  0.1045  2.6141 -0.8201
 1372SOL    HW215576   4.310   4.121   0.889  0.3068 -2.4295 -0.2523
 1373SOL     OW15577   3.768   0.348   8.231 -0.2401 -0.3048 -0.2154
 1373SOL    HW115578   3.772   0.406   8.155  0.0824  0.0222  0.0502
 1373SOL    HW215579   3.855   0.314   8.210  0.0294  0.0372  0.3723
 1374SOL     OW15580   2.242   4.385   8.244  0.9363 -0.0933 -0.1656
 1374SOL    HW115581   2.252   4.298   8.205  0.2250  0.4500 -1.5690
 1374SOL    HW215582   2.150   4.405   8.229  1.3696  2.0567  0.0142
 1375SOL     OW15583   2.632   3.526  16.258  0.1603  0.3758  0.2725
 1375SOL    HW115584   2.703   3.541  16.195  0.9847  2.3930  1.6774
 1375SOL    HW215585   2.557   3.566  16.216 -0.4239 -0.6700  0.3069
 1376SOL     OW15586   2.413   0.588  10.653 -0.2532 -0.1472  0.1985
 1376SOL    HW115587   2.419   0.644  10.576 -0.2934 -0.8593 -0.3179
 1376SOL    HW215588   2.493   0.604  10.703 -0.9381  0.5530  1.0712
 1377SOL     OW15589   0.057   3.583   9.140  0.2341 -0.0053 -0.4013
 1377SOL    HW115590   0.047   3.524   9.066 -2.5958 -1.6489  1.2486
 1377SOL    HW215591   0.027   3.663   9.096 -0.5785 -0.2228 -0.2554
 1378SOL     OW15592   3.385   3.659   2.568  0.3405  0.3204 -0.1522
 1378SOL    HW115593   3.428   3.655   2.653  2.4027 -0.3049 -1.2295
 1378SOL    HW215594   3.391   3.571   2.531 -0.1169  1.0763 -2.0713
 1379SOL     OW15595   1.995   0.374   4.042 -0.3494  0.2326  0.1161
 1379SOL    HW115596   1.916   0.323   4.022 -0.7763  0.0674  2.2124
 1379SOL    HW215597   1.980   0.379   4.136  0.4433  0.9916  0.1985
 1380SOL     OW15598   3.400   2.071   7.994  0.0877  0.1041  0.0768
 1380SOL    HW115599   3.483   2.043   7.955 -2.0116 -1.1763 -3.4341
 1380SOL    HW215600   3.434   2.107   8.076  0.5938  2.1584 -1.0400
 1381SOL     OW15601   1.919   4.269  13.653  0.5971  0.7147 -0.1222
 1381SOL    HW115602   2.007   4.254  13.619  0.9247  0.1899  0.9599
 1381SOL    HW215603   1.919   4.315  13.737 -2.3179 -0.9387  0.7929
 1382SOL     OW15604   4.078   3.621   7.325 -0.2282  0.0776  0.2150
 1382SOL    HW115605   4.042   3.532   7.326  1.0338 -0.4165  3.1375
 1382SOL    HW215606   4.122   3.625   7.410 -0.2275  2.1024  0.0987
 1383SOL     OW15607   2.513   0.376   6.993 -0.3232  0.2429 -0.4080
 1383SOL    HW115608   2.591   0.400   7.044  0.7973  1.0867 -2.4678
 1383SOL    HW215609   2.497   0.452   6.936 -1.2590 -2.0279 -3.1364
 1384SOL     OW15610   1.707   3.385   1.777  0.3414 -0.0367 -0.0259
 1384SOL    HW115611   1.731   3.298   1.744  2.4603  0.8190 -0.7705
 1384SOL    HW215612   1.614   3.366   1.792  0.6492 -1.1605  0.5107
 1385SOL     OW15613   0.464   4.147   5.918 -0.1844 -0.2399  0.1697
 1385SOL    HW115614   0.460   4.240   5.942  2.1833 -0.5318  1.6711
 1385SOL    HW215615   0.557   4.139   5.899 -0.1141 -0.3886  0.5857
 1386SOL     OW15616   3.000   1.582  17.571 -0.1218  0.0231 -0.4184
 1386SOL    HW115617   3.006   1.487  17.578  0.4784 -0.0003 -1.2270
 1386SOL    HW215618   2.906   1.596  17.585 -0.1462  1.1339 -1.6283
 1387SOL     OW15619   4.652   0.278  16.828  0.1074  0.1082 -0.1923
 1387SOL    HW115620   4.633   0.199  16.878 -1.0161  1.1593  1.0488
 1387SOL    HW215621   4.592   0.349  16.854 -0.7791 -0.8514  0.3888
 1388SOL     OW15622   4.345   4.109   2.256 -0.3374 -0.4854  0.0103
 1388SOL    HW115623   4.293   4.188   2.243  0.3231  0.3935  2.7628
 1388SOL    HW215624   4.290   4.072   2.325  1.3117  1.5134  2.3914
 1389SOL     OW15625   0.404   1.043   7.454 -0.2984 -0.2138 -0.1957
 1389SOL    HW115626   0.390   1.038   7.549 -0.1840  1.0753 -0.1174
 1389SOL    HW215627   0.328   1.099   7.442 -2.6951 -3.2118  0.9365
 1390SOL     OW15628   2.211   4.231   8.670  0.2272  0.6092  0.1629
 1390SOL    HW115629   2.211   4.313   8.620  0.7462  1.1644  1.0664
 1390SOL    HW215630   2.115   4.225   8.674  0.5280 -2.0151  3.0881
 1391SOL     OW15631   4.084   3.125   3.951  0.2765 -0.4904 -0.0885
 1391SOL    HW115632   4.021   3.153   3.884  0.4757  0.6681  0.2149
 1391SOL    HW215633   4.111   3.211   3.981 -0.8589 -0.2458  0.2201
 1392SOL     OW15634   3.824   4.679  11.313  0.1337  0.1144  0.1369
 1392SOL    HW115635   3.896   4.652  11.369  1.5566  1.7094 -0.9259
 1392SOL    HW215636   3.879   4.724  11.249 -0.9512 -0.5839 -1.3094
 1393SOL     OW15637   4.597   4.543  10.680  0.3619 -0.4787  0.1603
 1393SOL    HW115638   4.548   4.595  10.616 -2.6244 -1.7547  1.3858
 1393SOL    HW215639   4.595   4.597  10.759  1.9394 -0.8847  0.4807
 1394SOL     OW15640   3.410   4.607   2.668 -0.6434 -0.0158  0.0571
 1394SOL    HW115641   3.321   4.572   2.676 -0.5593 -0.7863 -2.3225
 1394SOL    HW215642   3.462   4.527   2.671 -0.5366  0.0680  0.4479
 1395SOL     OW15643   3.838   1.849   7.175  0.8487 -0.2240 -0.1916
 1395SOL    HW115644   3.907   1.896   7.222  1.1767 -1.1055  0.2120
 1395SOL    HW215645   3.873   1.762   7.197 -0.6412 -0.2937  1.9931
 1396SOL     OW15646   3.823   1.873   3.000  0.1695 -0.2533  0.6399
 1396SOL    HW115647   3.769   1.885   2.922 -0.7812  2.2533  1.6908
 1396SOL    HW215648   3.874   1.797   2.971  0.4143 -0.6331  2.0748
 1397SOL     OW15649   3.563   1.004  15.692  0.6780  0.4207 -0.7958
 1397SOL    HW115650   3.480   1.017  15.645  0.1560  0.6468  0.1705
 1397SOL    HW215651   3.530   1.057  15.765  0.6920  1.4187 -1.5092
 1398SOL     OW15652   2.626   0.037   8.722  0.6722  0.2668  0.2409
 1398SOL    HW115653   2.539   0.068   8.694  0.5083  1.4665  2.0679
 1398SOL    HW215654   2.664   0.016   8.637 -2.0143  0.4117 -1.0229
 1399SOL     OW15655   3.684   4.332  17.049  0.3669  0.5153 -0.1323
 1399SOL    HW115656   3.675   4.300  16.959  0.3089 -2.1980  0.8261
 1399SOL    HW215657   3.592   4.309  17.068  0.1463  1.2052 -0.3672
 1400SOL     OW15658   1.261   4.412   5.571 -0.0820  0.0674  0.2544
 1400SOL    HW115659   1.345   4.424   5.616 -0.0370 -0.3835  0.2886
 1400SOL    HW215660   1.249   4.493   5.521 -0.5640 -0.3058 -0.2348
 1401SOL     OW15661   3.396   4.685  13.765  0.0455  0.1831  0.4920
 1401SOL    HW115662   3.309   4.720  13.746 -0.4098  0.1851  2.5956
 1401SOL    HW215663   3.385   4.607  13.819  0.5262 -0.4863 -0.3662
 1402SOL     OW15664   1.458   3.384   9.364 -0.1083 -0.0324  0.1154
 1402SOL    HW115665   1.386   3.352   9.418  0.2430  0.3833  0.8231
 1402SOL    HW215666   1.515   3.431   9.425 -0.4298  1.7716 -0.9889
 1403SOL     OW15667   3.478   3.508   4.941 -0.3078 -0.2404  0.0300
 1403SOL    HW115668   3.493   3.590   4.893  2.3273 -1.2595 -0.8585
 1403SOL    HW215669   3.562   3.497   4.985 -0.3378 -0.5081  0.0185
 1404SOL     OW15670   1.833   0.611   2.428  0.3800 -0.2394 -0.2008
 1404SOL    HW115671   1.845   0.551   2.501 -0.4159 -0.4621 -0.2593
 1404SOL    HW215672   1.814   0.551   2.356  0.6371 -0.7375  0.1520
 1405SOL     OW15673   4.281   2.493   3.697  0.0240 -0.5086 -0.0378
 1405SOL    HW115674   4.288   2.445   3.615 -1.5744 -0.5119 -0.1577
 1405SOL    HW215675   4.188   2.484   3.717  0.1935  0.2467  1.0576
 1406SOL     OW15676   4.579   4.418   5.199 -0.1836 -0.2838  0.2650
 1406SOL    HW115677   4.602   4.334   5.159  0.6500  1.0059 -1.9770
 1406SOL    HW215678   4.612   4.408   5.289 -1.9140  1.8244  1.1298
 1407SOL     OW15679   3.457   2.803   7.514 -0.0013 -0.3121  0.6350
 1407SOL    HW115680   3.497   2.809   7.427  1.4388  1.2403  1.4123
 1407SOL    HW215681   3.513   2.865   7.561 -0.0330  0.3239 -0.1805
 1408SOL     OW15682   0.106   4.421   2.590  0.2667 -0.5121 -0.2877
 1408SOL    HW115683   0.138   4.442   2.503 -1.3558  0.9791 -0.5219
 1408SOL    HW215684   0.189   4.425   2.638 -0.0705 -0.0864  0.2489
 1409SOL     OW15685   2.390   1.699  10.790  0.1827  0.1522  0.1462
 1409SOL    HW115686   2.337   1.738  10.860  1.5613 -0.8095  1.7177
 1409SOL    HW215687   2.457   1.766  10.782 -0.9267  1.1932 -0.3407
 1410SOL     OW15688   0.632   2.343   2.995 -0.1214  0.6317 -0.0431
 1410SOL    HW115689   0.627   2.436   3.017  0.2208  0.3493  1.2224
 1410SOL    HW215690   0.706   2.317   3.051 -2.6902  0.3252  3.2236
 1411SOL     OW15691   1.639   2.073   1.058 -0.3819  0.4092 -0.0256
 1411SOL    HW115692   1.596   2.140   1.111  1.6682  0.5093  1.4854
 1411SOL    HW215693   1.729   2.092   1.081  0.1788 -0.4396 -1.5106
 1412SOL     OW15694   2.201   2.112   2.207 -0.0232 -0.0868 -0.1475
 1412SOL    HW115695   2.238   2.159   2.282 -0.1302  3.0400 -2.0371
 1412SOL    HW215696   2.117   2.087   2.244  0.6099  0.9676  1.9844
 1413SOL     OW15697   0.650   1.155   4.960  0.6398  0.2407 -0.4891
 1413SOL    HW115698   0.558   1.172   4.978  0.8087 -0.7258  1.3779
 1413SOL    HW215699   0.692   1.229   5.005  1.7201  0.4548 -1.8471
 1414SOL     OW15700   0.267   4.118   3.638 -0.2629  0.6195 -0.6750
 1414SOL    HW115701   0.289   4.025   3.634  0.2369  0.7429 -0.8199
 1414SOL    HW215702   0.287   4.136   3.730 -0.3735  0.7061 -0.6683
 1415SOL     OW15703   3.980   1.420   6.050 -0.0994  0.9350  0.3878
 1415SOL    HW115704   3.952   1.493   5.994 -1.2813  0.7722  0.7527
 1415SOL    HW215705   3.900   1.374   6.074 -0.2774  0.6214 -0.8011
 1416SOL     OW15706   4.005   2.233  15.567  0.5612  0.0354  0.3464
 1416SOL    HW115707   4.063   2.159  15.549  1.2831  0.8023 -0.4937
 1416SOL    HW215708   3.991   2.214  15.660 -0.3438 -0.5381  0.0897
 1417SOL     OW15709   2.278   1.292   3.616  0.1159 -0.3799  0.6019
 1417SOL    HW115710   2.186   1.264   3.616  0.2490 -0.8210  1.0824
 1417SOL    HW215711   2.325   1.229   3.671  2.6754  0.5253 -0.5923
 1418SOL     OW15712   1.212   1.122  16.181  0.3901 -0.2089  0.6299
 1418SOL    HW115713   1.140   1.114  16.119  0.7808 -1.2385  0.3091
 1418SOL    HW215714   1.273   1.053  16.153  3.3274  2.3466  0.8223
 1419SOL     OW15715   2.448   2.754  14.027 -0.0981 -0.0673 -0.6314
 1419SOL    HW115716   2.455   2.659  14.019  0.1083 -0.2885  2.0478
 1419SOL    HW215717   2.391   2.761  14.103  0.3013 -0.6383 -0.2828
 1420SOL     OW15718   0.134   0.412  10.492  0.4714  0.0071  0.0685
 1420SOL    HW115719   0.181   0.423  10.409 -0.0446  1.3120 -0.0538
 1420SOL    HW215720   0.060   0.472  10.480 -1.0700 -1.4194  2.4142
 1421SOL     OW15721   3.076   1.264   4.946  0.4107  0.1037  0.2121
 1421SOL    HW115722   3.130   1.335   4.981  0.2619 -0.4819  1.6444
 1421SOL    HW215723   3.116   1.187   4.987  0.1014 -0.8355 -1.2538
 1422SOL     OW15724   3.133   0.098   2.714  0.0032  0.3833  0.1724
 1422SOL    HW115725   3.098   0.179   2.678 -0.3403 -0.9339 -2.4080
 1422SOL    HW215726   3.215   0.097   2.664 -0.1673  1.3629 -0.1273
 1423SOL     OW15727   2.216   3.298   3.315  0.0237 -0.2500  0.2177
 1423SOL    HW115728   2.166   3.356   3.259  0.9706 -0.7933 -1.1827
 1423SOL    HW215729   2.191   3.215   3.274 -0.1899 -0.8759  1.6069
 1424SOL     OW15730   2.912   0.279  17.206 -0.0811  0.2833  0.4242
 1424SOL    HW115731   2.955   0.198  17.233 -0.2871 -0.2332 -0.8288
 1424SOL    HW215732   2.920   0.327  17.289  3.1110 -1.5963  1.1721
 1425SOL     OW15733   1.173   1.278   6.407 -0.0776  0.1408  0.3720
 1425SOL    HW115734   1.089   1.263   6.452  0.4171 -1.4002  0.7845
 1425SOL    HW215735   1.234   1.258   6.478  1.0220  1.0839 -0.3222
 1426SOL     OW15736   2.305   1.781   2.715 -0.0294  0.3405 -0.2753
 1426SOL    HW115737   2.230   1.794   2.657  2.0854  1.9372 -2.6396
 1426SOL    HW215738   2.359   1.719   2.666 -0.1770  0.3326 -0.4272
 1427SOL     OW15739   3.485   4.568   5.661 -0.7255 -0.5444  0.6123
 1427SOL    HW115740   3.393   4.544   5.648  0.2495 -2.3368 -2.9211
 1427SOL    HW215741   3.545   4.507   5.618 -0.4291  1.2607 -1.5151
 1428SOL     OW15742   3.062   3.810  13.911 -0.5781  0.1098  0.1349
 1428SOL    HW115743   3.045   3.889  13.860 -1.6666  0.4763  1.0753
 1428SOL    HW215744   2.972   3.779  13.901 -0.0878 -1.5776  0.9267
 1429SOL     OW15745   4.471   0.004   1.064  0.3669 -0.0307  0.1457
 1429SOL    HW115746   4.429   4.676   0.996  1.4552  0.3038 -0.8019
 1429SOL    HW215747   4.413   0.079   1.054 -1.2656 -1.0749  1.8370
 1430SOL     OW15748   2.986   3.206   3.822 -0.2496  0.5678 -0.0358
 1430SOL    HW115749   2.896   3.194   3.852 -0.7087 -1.9489 -2.3942
 1430SOL    HW215750   3.024   3.158   3.896 -4.5692 -1.8747  0.6138
 1431SOL     OW15751   4.454   3.022   1.415  0.0722  0.2728 -0.0411
 1431SOL    HW115752   4.394   3.024   1.489  0.3855  1.3239  0.1749
 1431SOL    HW215753   4.398   3.043   1.339  1.0607  1.0677 -0.5450
 1432SOL     OW15754   0.474   2.765   4.028 -0.7882 -0.1053  0.2977
 1432SOL    HW115755   0.515   2.679   4.018 -0.8558 -0.1151  0.1133
 1432SOL    HW215756   0.547   2.820   4.000 -1.1910  1.1090  1.6484
 1433SOL     OW15757   3.053   3.839   9.564  0.5352  0.1414  0.2623
 1433SOL    HW115758   3.037   3.754   9.605  0.1266 -1.5088 -3.3605
 1433SOL    HW215759   3.146   3.857   9.574  0.5545  0.7507 -1.0426
 1434SOL     OW15760   0.417   0.910   4.098  0.4940  0.0670 -0.1535
 1434SOL    HW115761   0.463   0.855   4.161  0.6900 -0.5184 -0.8137
 1434SOL    HW215762   0.370   0.975   4.150  1.7492  0.5206  0.4087
 1435SOL     OW15763   4.512   1.261   9.251  0.8841 -0.0341 -0.0184
 1435SOL    HW115764   4.445   1.193   9.248 -0.2162  1.0600 -0.3746
 1435SOL    HW215765   4.559   1.248   9.334 -1.1379  0.0197  1.1175
 1436SOL     OW15766   1.759   3.337   8.482  0.3265 -0.2876 -0.5691
 1436SOL    HW115767   1.683   3.282   8.466  0.5673 -1.4528  2.1845
 1436SOL    HW215768   1.839   3.303   8.442  1.5838  0.3910  1.3312
 1437SOL     OW15769   1.956   3.944  14.898 -0.2319  0.0311  0.0221
 1437SOL    HW115770   2.020   3.977  14.961 -0.6556  1.6810 -0.4104
 1437SOL    HW215771   1.939   3.857  14.934 -1.0465  0.9371  1.8507
 1438SOL     OW15772   2.478   2.862   8.260 -0.2156  0.0535 -0.6168
 1438SOL    HW115773   2.397   2.913   8.270 -1.2289 -1.7709  0.5305
 1438SOL    HW215774   2.524   2.875   8.343 -0.9173  1.2015 -0.4104
 1439SOL     OW15775   2.823   4.070   8.838  0.0719 -0.1969 -0.5768
 1439SOL    HW115776   2.747   4.025   8.874  1.8381 -1.7733  1.1883
 1439SOL    HW215777   2.863   4.107   8.917 -0.2376 -0.8904 -0.0989
 1440SOL     OW15778   3.798   2.723   2.482 -0.0989  0.1979 -0.5348
 1440SOL    HW115779   3.703   2.718   2.491 -0.0987  0.3000 -0.4739
 1440SOL    HW215780   3.800   2.783   2.408 -2.2934  0.2380 -0.5568
 1441SOL     OW15781   3.197   3.738   9.282  0.2374  0.3155 -0.0656
 1441SOL    HW115782   3.194   3.830   9.308 -0.0554  0.4446 -0.5591
 1441SOL    HW215783   3.102   3.726   9.277  0.1955 -0.1399  1.9367
 1442SOL     OW15784   4.569   4.506  11.526  0.2644  0.2391  0.6050
 1442SOL    HW115785   4.640   4.539  11.581  0.7822 -0.5296  0.3945
 1442SOL    HW215786   4.529   4.593  11.524  0.0912  0.1558  0.4838
 1443SOL     OW15787   2.440   1.679  15.369 -0.4850 -0.1541  0.0122
 1443SOL    HW115788   2.442   1.639  15.456  0.1973 -0.5818 -0.1982
 1443SOL    HW215789   2.519   1.637  15.334  0.2386  0.0372  1.4155
 1444SOL     OW15790   3.638   1.271   5.068  0.0125 -0.6122 -0.3971
 1444SOL    HW115791   3.575   1.277   4.997  0.1772 -0.9607 -0.5782
 1444SOL    HW215792   3.586   1.218   5.128  0.5422 -1.2511 -0.4860
 1445SOL     OW15793   1.096   1.108   2.896 -0.2035 -0.1671  0.6155
 1445SOL    HW115794   1.160   1.177   2.882  0.3487 -0.9954 -0.9055
 1445SOL    HW215795   1.016   1.162   2.903 -0.5792 -0.8728  1.8008
 1446SOL     OW15796   0.185   4.422   5.931 -0.1062  0.0497 -0.1505
 1446SOL    HW115797   0.148   4.475   6.001 -0.7805  1.4260 -1.5343
 1446SOL    HW215798   0.107   4.385   5.889 -0.9700  2.0516 -0.3036
 1447SOL     OW15799   2.867   1.539   2.113  0.5209 -0.2369  0.2383
 1447SOL    HW115800   2.807   1.473   2.080  2.0007 -1.3193 -0.3057
 1447SOL    HW215801   2.822   1.619   2.087  3.0666  0.5112 -1.9733
 1448SOL     OW15802   2.101   0.310  12.905 -0.1339 -0.3929  0.3876
 1448SOL    HW115803   2.103   0.282  12.814 -0.3871 -1.0698  0.5956
 1448SOL    HW215804   2.008   0.303  12.923  0.0283 -0.2959  1.3079
 1449SOL     OW15805   2.767   1.328   3.673  0.3980 -0.2129 -0.5446
 1449SOL    HW115806   2.845   1.368   3.712  0.7468  1.4006 -2.8774
 1449SOL    HW215807   2.739   1.262   3.736 -0.7279  1.4582  0.7119
 1450SOL     OW15808   3.978   3.883   7.251 -0.2527  0.6704 -0.3203
 1450SOL    HW115809   3.981   3.945   7.324  0.0684 -0.5274  0.6732
 1450SOL    HW215810   4.056   3.829   7.261  0.1841  1.2823 -0.4583
 1451SOL     OW15811   0.859   4.639   2.226  0.1530  0.2100  0.0014
 1451SOL    HW115812   0.939   4.607   2.268  0.9281  2.4408  0.2467
 1451SOL    HW215813   0.869   4.594   2.141 -0.8541  0.5153 -0.2719
 1452SOL     OW15814   4.601   1.924   3.340  0.7232  0.1859  0.2727
 1452SOL    HW115815   4.665   1.995   3.335 -0.4921  1.4612  2.5139
 1452SOL    HW215816   4.555   1.952   3.420  1.3095  3.1022 -0.4062
 1453SOL     OW15817   2.158   3.780  17.553  0.5324  0.8787  0.1111
 1453SOL    HW115818   2.128   3.740  17.635 -1.1572 -0.3538 -1.1079
 1453SOL    HW215819   2.185   3.857  17.603  0.4194  0.0882  1.4180
 1454SOL     OW15820   0.085   0.556  15.928  0.7828 -0.2360 -0.5194
 1454SOL    HW115821   0.109   0.481  15.983  0.4697 -1.4804 -2.0837
 1454SOL    HW215822   0.066   0.516  15.844  1.6474  0.3264 -0.9786
 1455SOL     OW15823   4.506   2.133   7.098 -0.5939  0.7798 -0.7617
 1455SOL    HW115824   4.523   2.153   7.190  0.8315 -0.8701 -0.6727
 1455SOL    HW215825   4.559   2.058   7.073  0.8471  1.2694  0.8308
 1456SOL     OW15826   1.529   2.334   3.289 -0.2340  0.1636  0.0909
 1456SOL    HW115827   1.516   2.316   3.196  0.6323  1.2559 -0.2485
 1456SOL    HW215828   1.510   2.251   3.333  1.4745 -0.0015  0.5131
 1457SOL     OW15829   1.139   3.642   3.661  0.1226 -0.1743 -0.2980
 1457SOL    HW115830   1.044   3.634   3.674  0.0357 -0.3340 -1.0101
 1457SOL    HW215831   1.151   3.560   3.612  0.4678 -1.1739  1.4762
 1458SOL     OW15832   3.452   2.371   4.626 -0.2220  0.0315 -0.6060
 1458SOL    HW115833   3.376   2.406   4.673 -0.3871 -0.3778 -0.5729
 1458SOL    HW215834   3.435   2.281   4.653  0.9869 -0.6226 -2.0313
 1459SOL     OW15835   4.573   4.037   7.161  0.4603 -0.7216  0.7278
 1459SOL    HW115836   4.520   4.117   7.154  2.3430  0.6013  1.4227
 1459SOL    HW215837   4.545   3.987   7.085 -0.6277 -1.0451  1.3381
 1460SOL     OW15838   3.584   4.511   7.984 -0.0912 -0.3394 -0.1589
 1460SOL    HW115839   3.664   4.467   7.956 -1.0268 -2.5199  0.5122
 1460SOL    HW215840   3.513   4.470   7.933  0.9845 -1.5746 -0.6580
 1461SOL     OW15841   4.355   1.756   6.127 -0.2346  0.0847 -0.1423
 1461SOL    HW115842   4.281   1.805   6.162 -0.9140 -0.1546 -1.2552
 1461SOL    HW215843   4.405   1.821   6.077 -0.1673  1.2741  1.4849
 1462SOL     OW15844   3.009   1.841   9.423  0.0705  0.3482 -0.0118
 1462SOL    HW115845   3.063   1.919   9.410 -2.6425  2.4284  1.1826
 1462SOL    HW215846   2.953   1.864   9.497  1.2074 -0.7377  1.1898
 1463SOL     OW15847   2.344   3.541   9.411  0.0845  0.3882 -0.3116
 1463SOL    HW115848   2.414   3.529   9.347  0.0700 -3.1492  0.3233
 1463SOL    HW215849   2.390   3.602   9.469  0.8119  1.1221 -1.6679
 1464SOL     OW15850   2.724   2.371   2.835  0.0950 -0.0061 -0.0837
 1464SOL    HW115851   2.787   2.435   2.803  2.3336 -2.1065  0.1260
 1464SOL    HW215852   2.712   2.331   2.749  1.9385  1.5762 -1.0646
 1465SOL     OW15853   0.556   2.508   4.662  0.2164 -0.1025 -0.6001
 1465SOL    HW115854   0.568   2.431   4.717  2.2583  0.2765 -0.5196
 1465SOL    HW215855   0.569   2.473   4.574 -0.8038 -0.0404 -0.7743
 1466SOL     OW15856   2.796   1.249   4.896 -0.0308  0.3315 -0.5293
 1466SOL    HW115857   2.807   1.199   4.815 -0.4649 -1.3866  0.4963
 1466SOL    HW215858   2.891   1.250   4.911 -0.0532  0.0158 -0.3766
 1467SOL     OW15859   2.516   0.001   2.068  0.3357  0.1776 -0.4086
 1467SOL    HW115860   2.475   0.026   1.984 -1.9034  2.3409  1.3283
 1467SOL    HW215861   2.576   4.658   2.039 -2.2484 -1.3930 -2.1155
 1468SOL     OW15862   3.457   1.348   5.543  0.3574  0.2319 -0.3004
 1468SOL    HW115863   3.407   1.291   5.484 -0.9295 -0.9170  1.9106
 1468SOL    HW215864   3.526   1.287   5.570 -2.2788 -2.7669 -0.3998
 1469SOL     OW15865   1.541   4.712   7.356 -0.5607  0.1943  0.3489
 1469SOL    HW115866   1.521   0.077   7.328  0.2039  1.1446  2.8053
 1469SOL    HW215867   1.456   4.670   7.362 -1.3225  1.3250 -2.5496
 1470SOL     OW15868   1.693   3.744   5.464 -0.0364 -0.6733  0.3179
 1470SOL    HW115869   1.684   3.697   5.381  0.5922  1.1809 -0.8088
 1470SOL    HW215870   1.653   3.680   5.523  1.5483 -0.2394  1.8476
 1471SOL     OW15871   4.598   0.217   5.485  0.3234  0.1810  0.4062
 1471SOL    HW115872   4.596   0.313   5.482  0.9876  0.1945  0.5880
 1471SOL    HW215873   4.535   0.190   5.419 -0.5216  3.3078 -0.0932
 1472SOL     OW15874   4.277   3.190  12.353  0.3727 -0.4813  0.1520
 1472SOL    HW115875   4.344   3.182  12.421 -0.4915 -0.5704  0.9952
 1472SOL    HW215876   4.227   3.113  12.382 -1.8306  0.7639 -0.3794
 1473SOL     OW15877   2.708   2.419   4.407 -0.4974  0.0345 -0.3375
 1473SOL    HW115878   2.625   2.444   4.447 -0.5291  0.0756 -0.4300
 1473SOL    HW215879   2.762   2.410   4.486 -1.1515  0.2677  0.1367
 1474SOL     OW15880   2.698   0.403   7.567  0.0988 -0.1333  0.1345
 1474SOL    HW115881   2.617   0.418   7.519 -0.7470 -2.5751  0.7911
 1474SOL    HW215882   2.744   0.347   7.504  0.3516 -1.2482  1.3025
 1475SOL     OW15883   2.755   1.453  11.140 -0.0267 -0.6449  0.4663
 1475SOL    HW115884   2.729   1.390  11.073  1.9819 -0.0420 -0.8625
 1475SOL    HW215885   2.719   1.537  11.109  0.9380 -0.3931  0.0189
 1476SOL     OW15886   2.369   2.749   1.405 -0.3552 -0.5165 -0.2018
 1476SOL    HW115887   2.392   2.811   1.336  2.4424 -1.5576 -0.2227
 1476SOL    HW215888   2.275   2.736   1.405 -0.6251  1.5038  0.3148
 1477SOL     OW15889   0.806   2.365   8.563  0.6513 -0.3440 -0.2047
 1477SOL    HW115890   0.831   2.273   8.565 -0.0891 -0.4944  1.7911
 1477SOL    HW215891   0.730   2.359   8.620  0.6433  0.0646 -0.1712
 1478SOL     OW15892   1.049   0.498  12.252  0.0354  0.3466  0.1944
 1478SOL    HW115893   1.132   0.492  12.204 -0.1718  1.4218 -0.3062
 1478SOL    HW215894   1.041   0.589  12.281 -0.7079  0.4375 -0.3051
 1479SOL     OW15895   2.224   4.208   5.733 -0.0206 -0.3085  0.2205
 1479SOL    HW115896   2.157   4.186   5.797  0.0361  1.4848  0.8881
 1479SOL    HW215897   2.229   4.297   5.766  1.0746 -0.2204 -0.1632
 1480SOL     OW15898   4.495   1.324   4.301 -0.1120 -0.1136  0.7658
 1480SOL    HW115899   4.537   1.254   4.251  1.5309  2.1347 -1.0163
 1480SOL    HW215900   4.457   1.381   4.235  0.0783 -0.0949  0.6718
 1481SOL     OW15901   3.786   0.725  14.840  0.2903 -0.4815 -0.7578
 1481SOL    HW115902   3.711   0.667  14.851 -0.0334 -0.2721 -1.8389
 1481SOL    HW215903   3.786   0.741  14.745 -1.1151 -2.4886 -1.1011
 1482SOL     OW15904   1.072   4.200   1.076  0.2031  0.0716  0.3773
 1482SOL    HW115905   1.111   4.178   0.992  1.6123 -1.9049  1.5423
 1482SOL    HW215906   0.980   4.209   1.050  0.6615  1.7118 -0.6613
 1483SOL     OW15907   4.719   1.179  17.304  0.4896  0.1471 -0.0738
 1483SOL    HW115908   4.692   1.229  17.381  0.3266 -0.0128 -0.0291
 1483SOL    HW215909   4.672   1.224  17.233  0.0287  0.6595  0.5614
 1484SOL     OW15910   2.919   4.177   4.256  0.2903 -0.0001 -0.0412
 1484SOL    HW115911   2.853   4.120   4.296  0.3276  0.5978  0.8718
 1484SOL    HW215912   2.950   4.212   4.339  0.1767 -2.7109  1.1373
 1485SOL     OW15913   1.192   1.069   4.124  0.0074 -0.5553 -0.0641
 1485SOL    HW115914   1.209   1.158   4.156 -1.0254 -0.4759  0.2535
 1485SOL    HW215915   1.120   1.090   4.064 -0.2754 -0.7779  0.1984
 1486SOL     OW15916   4.649   2.242  12.150 -0.6465 -0.2294  0.2402
 1486SOL    HW115917   4.629   2.247  12.244  0.0418 -0.9705  0.4408
 1486SOL    HW215918   4.575   2.190  12.119 -1.1926  0.5221  0.2995
 1487SOL     OW15919   2.695   3.318   5.506 -0.8380 -0.5499 -0.7973
 1487SOL    HW115920   2.782   3.284   5.485 -0.8177 -2.5130  2.4119
 1487SOL    HW215921   2.687   3.257   5.580 -1.7884 -0.1782 -0.6012
 1488SOL     OW15922   4.152   2.823  15.080 -0.2023  0.4573 -0.0119
 1488SOL    HW115923   4.169   2.910  15.044 -2.2641 -0.3157 -2.9069
 1488SOL    HW215924   4.056   2.818  15.076 -0.1220 -0.1296 -1.2769
 1489SOL     OW15925   0.911   4.433   5.244 -0.1306 -0.1612 -0.2014
 1489SOL    HW115926   0.948   4.483   5.317  0.2417  0.5168 -0.8482
 1489SOL    HW215927   0.821   4.424   5.276  0.1153  1.6427  1.0292
 1490SOL     OW15928   0.250   1.010  10.630 -0.1898  0.2409 -0.1923
 1490SOL    HW115929   0.210   1.043  10.710  3.5783  1.1141  1.3187
 1490SOL    HW215930   0.199   0.929  10.622  1.3827 -0.7708 -0.1978
 1491SOL     OW15931   3.082   0.259   6.493 -0.2449  0.1636  0.4035
 1491SOL    HW115932   3.087   0.334   6.434 -0.5814  1.9562  2.6628
 1491SOL    HW215933   3.016   0.292   6.555 -0.7414  1.8024 -0.9877
 1492SOL     OW15934   4.622   4.209   4.760 -0.1691 -0.4164 -0.4193
 1492SOL    HW115935   4.581   4.293   4.780  1.6381  0.2107  0.5685
 1492SOL    HW215936   4.678   4.250   4.694 -1.2246 -1.8294 -2.1918
 1493SOL     OW15937   0.254   0.311   7.665 -0.5326 -0.4658  0.0339
 1493SOL    HW115938   0.198   0.368   7.718 -0.8673  0.0679 -0.8844
 1493SOL    HW215939   0.343   0.345   7.674 -1.1106  0.8669  0.6379
 1494SOL     OW15940   2.742   0.216   7.345 -0.3794 -0.4172 -0.0084
 1494SOL    HW115941   2.696   0.147   7.298 -1.5680 -0.1273  0.7195
 1494SOL    HW215942   2.802   0.172   7.405 -0.3590 -3.4377 -2.2509
 1495SOL     OW15943   3.289   0.535  16.924 -0.2720 -0.2629 -0.6289
 1495SOL    HW115944   3.279   0.456  16.871 -0.2638  1.3360 -3.0423
 1495SOL    HW215945   3.239   0.511  17.002  0.9704 -0.2818  0.1622
 1496SOL     OW15946   1.780   0.830   4.141 -0.0889  0.0191 -0.0338
 1496SOL    HW115947   1.842   0.899   4.164  0.5332 -1.6165  3.2311
 1496SOL    HW215948   1.837   0.758   4.115  0.3921  1.2138 -2.2432
 1497SOL     OW15949   1.597   3.873   8.088  0.3546  0.0722  0.3447
 1497SOL    HW115950   1.678   3.923   8.086  1.4764 -1.6999  1.2369
 1497SOL    HW215951   1.598   3.824   8.171 -1.1888 -1.9610 -0.8313
 1498SOL     OW15952   2.078   2.297  15.691  0.3674  0.1682 -0.0180
 1498SOL    HW115953   2.130   2.322  15.768 -2.5668 -0.0254  2.0384
 1498SOL    HW215954   2.110   2.207  15.683  0.7770  0.2878  0.2767
 1499SOL     OW15955   1.626   3.142  16.143 -0.4827 -0.5661  0.1190
 1499SOL    HW115956   1.711   3.152  16.099 -0.5947 -2.8380 -0.6391
 1499SOL    HW215957   1.619   3.047  16.155  0.7059 -0.6690  0.0115
 1500SOL     OW15958   2.477   0.464   9.959 -0.5889  0.0764  0.2237
 1500SOL    HW115959   2.385   0.470   9.933 -0.3596 -0.7094 -0.7384
 1500SOL    HW215960   2.511   0.472   9.870 -0.0073  1.2074  0.5483
 1501SOL     OW15961   0.054   1.260   2.068 -0.0192  0.1727 -0.3292
 1501SOL    HW115962   4.718   1.332   2.052 -0.0811 -0.2257 -1.8615
 1501SOL    HW215963   0.089   1.254   1.979  1.3944  0.0296  0.2324
 1502SOL     OW15964   1.970   1.038  11.441  0.5967  0.4243 -0.2819
 1502SOL    HW115965   1.919   1.089  11.378  0.0480  0.1044 -0.1008
 1502SOL    HW215966   2.009   0.973  11.383  0.5969 -0.6676  0.9418
 1503SOL     OW15967   2.253   1.139   6.607  0.0136  0.1675  0.4372
 1503SOL    HW115968   2.292   1.225   6.590  0.6496  0.1137  1.5930
 1503SOL    HW215969   2.332   1.090   6.630 -0.3680 -0.0319  1.3021
 1504SOL     OW15970   2.730   2.924   0.997 -0.2772  0.1373  0.7166
 1504SOL    HW115971   2.644   2.938   0.959 -0.4706  1.2427  1.5731
 1504SOL    HW215972   2.745   3.017   1.010  1.5663 -0.2062  1.0741
 1505SOL     OW15973   0.225   0.275   2.779 -0.2667  0.2083 -0.7705
 1505SOL    HW115974   0.158   0.308   2.839  0.7253 -0.6937  0.8198
 1505SOL    HW215975   0.186   0.266   2.692  0.9845 -0.5132 -1.2567
 1506SOL     OW15976   2.816   3.935   1.449  0.5176 -0.4850 -0.6564
 1506SOL    HW115977   2.760   3.996   1.401 -0.5516 -0.3783  0.7110
 1506SOL    HW215978   2.767   3.920   1.530  0.6875  0.5464 -0.3625
 1507SOL     OW15979   0.878   3.813   5.806  0.1393 -0.4772  0.4565
 1507SOL    HW115980   0.872   3.720   5.782 -0.0152 -0.2931 -0.2238
 1507SOL    HW215981   0.968   3.811   5.839 -0.1734  0.0247  1.3210
 1508SOL     OW15982   1.162   4.237  14.466 -1.0932  0.3967 -0.3467
 1508SOL    HW115983   1.212   4.231  14.385  1.9401 -0.5677  1.5683
 1508SOL    HW215984   1.224   4.251  14.538 -1.9809 -3.0162  1.0900
 1509SOL     OW15985   4.568   3.325  11.210  0.1719 -0.0953 -0.0562
 1509SOL    HW115986   4.581   3.367  11.125  1.3734 -3.7090 -1.6617
 1509SOL    HW215987   4.474   3.306  11.220  0.2492 -0.5588 -0.1917
 1510SOL     OW15988   1.168   3.002   9.403 -0.3241 -0.1275  0.1005
 1510SOL    HW115989   1.189   2.916   9.366  3.1323  1.1104 -0.8784
 1510SOL    HW215990   1.075   2.983   9.394 -0.6400  0.3936  2.1719
 1511SOL     OW15991   0.265   4.253  14.008  0.0922 -0.5732 -0.2928
 1511SOL    HW115992   0.316   4.193  14.062  0.5099 -0.1810 -0.2494
 1511SOL    HW215993   0.254   4.321  14.074  0.1503  0.9623 -1.8683
 1512SOL     OW15994   1.763   1.126   9.091  0.0154  0.1152 -0.1894
 1512SOL    HW115995   1.788   1.210   9.129  0.4956 -0.5811  1.0429
 1512SOL    HW215996   1.759   1.148   8.998 -0.7286  3.0081  0.5437
 1513SOL     OW15997   0.315   3.463   8.774 -0.3461 -0.0968  0.6497
 1513SOL    HW115998   0.295   3.428   8.687 -2.2074  0.3848  0.8934
 1513SOL    HW215999   0.230   3.475   8.816 -1.4175 -2.0930 -0.9641
 1514SOL     OW16000   0.845   1.260  15.237 -0.3464  0.1936  0.4798
 1514SOL    HW116001   0.761   1.303  15.220 -1.4643 -1.0775  2.7756
 1514SOL    HW216002   0.824   1.181  15.287  2.8788 -0.3797  0.8875
 1515SOL     OW16003   4.100   3.318   3.177 -0.2324  0.0701  0.1417
 1515SOL    HW116004   4.131   3.405   3.151  0.8331 -0.2565  0.2918
 1515SOL    HW216005   4.014   3.306   3.137  0.4149 -1.2517 -0.8585
 1516SOL     OW16006   0.182   2.283  11.943  0.2492  0.1753  0.5563
 1516SOL    HW116007   0.143   2.201  11.912  0.4284  0.0098  0.7736
 1516SOL    HW216008   0.270   2.259  11.971 -0.0599 -0.8144  0.6767
 1517SOL     OW16009   1.776   4.232   1.366 -0.2777  0.1619 -0.1975
 1517SOL    HW116010   1.733   4.279   1.294 -0.0559 -0.5502 -0.7923
 1517SOL    HW216011   1.713   4.165   1.392  0.6913 -0.3534  0.7986
 1518SOL     OW16012   0.733   4.627   8.486  0.4752 -0.4071 -0.3759
 1518SOL    HW116013   0.671   4.690   8.450  2.3947  2.0546  0.6318
 1518SOL    HW216014   0.673   4.576   8.540 -1.3515  0.3652 -1.6873
 1519SOL     OW16015   0.434   2.310  14.001 -0.3524  0.2268 -0.0876
 1519SOL    HW116016   0.484   2.232  14.025 -0.8150 -0.4909 -1.4288
 1519SOL    HW216017   0.404   2.350  14.082  0.7935 -0.3760  0.6344
 1520SOL     OW16018   2.617   2.515  11.773 -0.2830 -0.1162 -0.2267
 1520SOL    HW116019   2.680   2.444  11.788 -1.1311 -0.8841 -0.2717
 1520SOL    HW216020   2.559   2.474  11.709  0.4205  0.8803 -1.5188
 1521SOL     OW16021   0.749   1.106  11.937 -0.0405 -0.4053  0.2031
 1521SOL    HW116022   0.697   1.186  11.925 -1.3358 -1.3519 -0.3894
 1521SOL    HW216023   0.821   1.105  11.873 -1.9715  0.1470 -1.9738
 1522SOL     OW16024   3.477   4.597   5.222  0.0462  0.1909 -0.5046
 1522SOL    HW116025   3.570   4.578   5.235 -0.6449 -3.0294 -0.0839
 1522SOL    HW216026   3.445   4.507   5.228 -0.2645  0.2696 -1.0003
 1523SOL     OW16027   0.722   1.844   7.622  0.1063  0.0928  0.1473
 1523SOL    HW116028   0.689   1.755   7.631 -2.6332  0.8982 -1.7727
 1523SOL    HW216029   0.682   1.881   7.543 -1.5084 -0.4824  0.7122
 1524SOL     OW16030   0.704   3.093  17.649  0.5678  0.1010  0.0332
 1524SOL    HW116031   0.627   3.069  17.598  0.4847  1.3445 -0.4372
 1524SOL    HW216032   0.680   3.176  17.691 -0.4571 -0.0050 -0.3353
 1525SOL     OW16033   2.496   0.770  10.469 -0.0570  0.0210 -0.1800
 1525SOL    HW116034   2.461   0.841  10.524  0.1926  1.0258 -1.3175
 1525SOL    HW216035   2.587   0.800  10.460  0.5085 -2.0930 -1.4442
 1526SOL     OW16036   4.553   2.384   5.355 -0.0426 -0.1119 -0.5470
 1526SOL    HW116037   4.645   2.359   5.343 -0.1664  0.2053 -2.2138
 1526SOL    HW216038   4.516   2.296   5.364 -0.2851  0.1311  0.6892
 1527SOL     OW16039   3.426   4.342   3.370  0.2582  0.2901 -0.1000
 1527SOL    HW116040   3.474   4.298   3.300  2.2816  0.8367  0.9467
 1527SOL    HW216041   3.459   4.432   3.378  0.1840  0.3812 -0.7586
 1528SOL     OW16042   1.239   1.255  11.602  0.1860  0.9108  0.1539
 1528SOL    HW116043   1.257   1.342  11.567  1.0158  1.5622  2.1650
 1528SOL    HW216044   1.210   1.208  11.524  0.7573  0.3832  0.2552
 1529SOL     OW16045   2.535   3.556   5.320 -1.0889 -0.4712  0.1492
 1529SOL    HW116046   2.477   3.501   5.266 -0.6914 -0.0172 -0.7413
 1529SOL    HW216047   2.614   3.568   5.267 -1.0114  1.2583  0.6737
 1530SOL     OW16048   1.670   4.589  16.625  0.1356 -0.2974 -0.4715
 1530SOL    HW116049   1.736   4.521  16.613  0.4823  0.2048 -1.3759
 1530SOL    HW216050   1.637   4.607  16.537 -0.3045 -1.3849 -0.5323
 1531SOL     OW16051   0.915   0.207   2.022  0.4204 -0.5360 -0.1874
 1531SOL    HW116052   0.958   0.291   2.004  1.8258 -0.7075  2.2727
 1531SOL    HW216053   0.938   0.154   1.946  1.4109 -1.3546  0.6743
 1532SOL     OW16054   1.944   4.704   6.570 -0.2039 -0.3975  0.0736
 1532SOL    HW116055   1.878   4.722   6.503  0.6664  0.7627 -0.4705
 1532SOL    HW216056   1.950   4.608   6.572  2.5772 -0.2027  0.7048
 1533SOL     OW16057   3.656   3.361   8.222 -0.1979 -0.1861  0.3684
 1533SOL    HW116058   3.589   3.293   8.227 -0.8474  0.4736  0.6017
 1533SOL    HW216059   3.659   3.387   8.314 -1.7775  1.8666 -0.1386
 1534SOL     OW16060   3.278   2.764   6.270 -0.2820 -0.3147  0.9488
 1534SOL    HW116061   3.225   2.731   6.198 -1.0040 -1.4342  1.9807
 1534SOL    HW216062   3.362   2.719   6.257 -1.2314 -2.3516  1.7568
 1535SOL     OW16063   0.271   4.670  10.978 -0.3001  0.3210 -0.6354
 1535SOL    HW116064   0.297   0.026  11.023 -1.2695 -0.5015  1.3913
 1535SOL    HW216065   0.292   4.605  11.045  1.0139  2.2626  0.8286
 1536SOL     OW16066   2.102   1.215   9.430  0.8143 -0.5117  0.0148
 1536SOL    HW116067   2.028   1.175   9.383 -0.9446  0.2002  2.2119
 1536SOL    HW216068   2.053   1.292   9.457  1.3800  0.2316 -1.0746
 1537SOL     OW16069   4.571   4.200   4.354 -0.1660 -0.2285  0.5196
 1537SOL    HW116070   4.533   4.120   4.318  0.4734 -0.2256 -0.1561
 1537SOL    HW216071   4.521   4.273   4.319  1.9432 -0.7107 -3.4747
 1538SOL     OW16072   0.908   1.049  17.639  0.7604 -0.4000  0.1993
 1538SOL    HW116073   0.948   1.121  17.591  3.9536 -1.7924  0.7528
 1538SOL    HW216074   0.843   1.096  17.690 -0.6012 -0.4800 -1.4838
 1539SOL     OW16075   1.483   0.134   2.571  0.0686  0.3680 -0.4293
 1539SOL    HW116076   1.543   0.188   2.521  1.1967 -1.0851 -0.6393
 1539SOL    HW216077   1.542   0.087   2.631  0.9930 -0.5793 -2.0861
 1540SOL     OW16078   4.100   3.901   7.569 -0.6081  0.2544 -0.2801
 1540SOL    HW116079   4.165   3.970   7.558  0.4003 -0.8853 -1.4829
 1540SOL    HW216080   4.154   3.822   7.562  2.1574  1.9403  2.3313
 1541SOL     OW16081   2.411   0.337  16.290  0.4148 -0.3289  0.9262
 1541SOL    HW116082   2.375   0.250  16.269  0.8931 -0.7330  1.7596
 1541SOL    HW216083   2.366   0.339  16.374  1.6002 -1.4329  1.5821
 1542SOL     OW16084   1.881   0.978  13.179  0.2924 -0.9038 -0.0706
 1542SOL    HW116085   1.806   0.967  13.237  0.9970 -1.4776  0.7342
 1542SOL    HW216086   1.842   1.023  13.104  1.4942  0.5897  0.1974
 1543SOL     OW16087   4.347   2.586   4.252  0.0394 -0.0848  0.2075
 1543SOL    HW116088   4.349   2.635   4.170 -1.7374  2.3794  1.6175
 1543SOL    HW216089   4.322   2.500   4.218  0.4781  0.4652 -1.5010
 1544SOL     OW16090   3.900   3.558   0.532 -0.4745 -0.1738  0.7707
 1544SOL    HW116091   3.825   3.523   0.485  0.2769  1.1387 -1.4102
 1544SOL    HW216092   3.936   3.618   0.466 -2.9020  2.1420  1.5788
 1545SOL     OW16093   4.436   2.137   1.927  0.2566  0.4230 -0.1434
 1545SOL    HW116094   4.370   2.175   1.868  1.4067  2.0384 -0.3823
 1545SOL    HW216095   4.490   2.212   1.951  0.8136 -0.1719  0.4496
 1546SOL     OW16096   1.732   0.406  10.511  0.1498 -0.5381 -1.0728
 1546SOL    HW116097   1.716   0.468  10.440  0.2050  0.5521 -0.1301
 1546SOL    HW216098   1.769   0.457  10.583 -0.4488 -1.0266 -0.4156
 1547SOL     OW16099   3.478   0.156   4.884  0.1334  0.5100 -0.7796
 1547SOL    HW116100   3.400   0.205   4.857 -0.1476  1.3748  1.6312
 1547SOL    HW216101   3.435   0.083   4.929  0.4997  1.3322  0.8933
 1548SOL     OW16102   2.958   4.280   4.007  0.3528 -0.0111 -0.0899
 1548SOL    HW116103   2.951   4.257   4.099  1.9614  1.4687  0.4209
 1548SOL    HW216104   3.051   4.302   3.998 -0.4969  3.3909 -0.8269
 1549SOL     OW16105   1.653   2.749   9.770 -0.0641 -0.6316 -0.3553
 1549SOL    HW116106   1.602   2.688   9.718 -0.5108 -1.0287  0.5584
 1549SOL    HW216107   1.612   2.834   9.752 -1.4943 -1.2974 -0.1769
 1550SOL     OW16108   1.672   1.453   7.719 -0.1343 -0.5107 -0.4711
 1550SOL    HW116109   1.646   1.376   7.771 -2.5217  2.2361  2.3868
 1550SOL    HW216110   1.659   1.520   7.785 -0.2606 -0.6297 -0.3758
 1551SOL     OW16111   1.321   2.444   1.481 -0.3193  0.2036 -0.1044
 1551SOL    HW116112   1.295   2.370   1.427 -0.8417  0.6082 -0.4132
 1551SOL    HW216113   1.298   2.519   1.425  0.8852 -0.4902 -1.5018
 1552SOL     OW16114   1.233   1.757   2.693 -0.1995  0.6575  0.2014
 1552SOL    HW116115   1.281   1.762   2.611 -0.4498  1.2370  0.0873
 1552SOL    HW216116   1.189   1.842   2.700 -2.0384 -0.3473  0.9201
 1553SOL     OW16117   1.980   2.740  15.335  0.1075 -0.1240 -0.4012
 1553SOL    HW116118   1.977   2.830  15.369 -2.2363 -0.8279  1.1861
 1553SOL    HW216119   2.064   2.709  15.370  0.3448  2.4832  1.3988
 1554SOL     OW16120   2.273   1.669   6.145 -0.2162  0.0706  0.7647
 1554SOL    HW116121   2.245   1.731   6.213  0.9230  0.9853  0.4094
 1554SOL    HW216122   2.304   1.734   6.082  0.7524  2.1354  3.3826
 1555SOL     OW16123   3.851   3.576  11.302  0.1779  0.7231  0.1800
 1555SOL    HW116124   3.904   3.653  11.279  3.2220 -1.3090  0.3900
 1555SOL    HW216125   3.918   3.544  11.363 -0.8540  2.5139  2.2741
 1556SOL     OW16126   3.792   0.074   6.466  0.2005 -0.1425 -0.6686
 1556SOL    HW116127   3.843   0.147   6.431 -1.5463  1.2661 -0.3112
 1556SOL    HW216128   3.729   0.120   6.523  1.7517  0.1616  0.7837
 1557SOL     OW16129   2.457   1.335   0.801 -0.4144  0.4763  0.2892
 1557SOL    HW116130   2.547   1.339   0.833 -1.4643 -0.4710  3.3147
 1557SOL    HW216131   2.445   1.245   0.771  0.4225  0.3512  0.3402
 1558SOL     OW16132   1.865   3.323  15.452 -0.5116  0.1246 -0.3245
 1558SOL    HW116133   1.863   3.261  15.525 -0.5832  0.3054 -0.1755
 1558SOL    HW216134   1.771   3.324  15.433 -0.9637 -1.4964  1.7865
 1559SOL     OW16135   1.540   2.262   1.228 -0.2909 -0.5291 -0.2847
 1559SOL    HW116136   1.460   2.262   1.281 -0.2831  0.7176 -0.2670
 1559SOL    HW216137   1.602   2.294   1.293 -1.7822 -0.5074  1.1146
 1560SOL     OW16138   2.974   0.182   1.981  0.1622 -0.1139 -0.0494
 1560SOL    HW116139   3.027   0.259   2.002 -0.2934  0.8007 -2.2748
 1560SOL    HW216140   2.911   0.180   2.054 -1.6512  0.6704 -1.6001
 1561SOL     OW16141   0.500   3.306  15.938  0.1198  0.6475 -0.2311
 1561SOL    HW116142   0.484   3.342  15.851 -0.7027 -0.6325 -0.6006
 1561SOL    HW216143   0.411   3.289  15.968  0.0127  2.5199  0.5620
 1562SOL     OW16144   2.758   2.996   8.272  0.2304  0.1460  0.3207
 1562SOL    HW116145   2.751   3.091   8.264 -0.8627  0.2055  2.0245
 1562SOL    HW216146   2.709   2.975   8.352 -1.4179 -0.8325 -0.9216
 1563SOL     OW16147   4.011   0.032   5.899  0.2243 -0.5546 -0.4781
 1563SOL    HW116148   3.949   0.060   5.966  0.5106  0.9186 -0.8350
 1563SOL    HW216149   4.091   0.020   5.951 -0.3820 -2.1892  0.0878
 1564SOL     OW16150   3.117   4.217   6.553 -0.2305  0.9587  0.0577
 1564SOL    HW116151   3.177   4.155   6.596 -0.9282  0.0997 -0.2318
 1564SOL    HW216152   3.163   4.301   6.562 -1.3452  1.5658  0.1112
 1565SOL     OW16153   4.684   4.569  13.952 -0.4811  0.3391  0.2710
 1565SOL    HW116154   4.723   4.490  13.915  0.0684  1.0556 -0.6858
 1565SOL    HW216155   0.030   4.632  13.944 -0.5033  0.2557 -0.5970
 1566SOL     OW16156   4.180   1.705   7.444 -0.5668 -0.3350  0.5667
 1566SOL    HW116157   4.089   1.705   7.413  0.5641  2.3790 -2.7319
 1566SOL    HW216158   4.181   1.784   7.499 -0.7539  0.1106 -0.0697
 1567SOL     OW16159   1.965   0.607  11.069 -0.2017 -0.1875  0.0365
 1567SOL    HW116160   2.040   0.586  11.124  0.1788 -1.2236 -0.8998
 1567SOL    HW216161   2.012   0.641  10.993  1.1841  0.5214  1.2155
 1568SOL     OW16162   3.286   3.230   2.519 -0.6007 -0.3846  0.0595
 1568SOL    HW116163   3.295   3.204   2.611  0.6461  1.1375  0.3726
 1568SOL    HW216164   3.258   3.321   2.529  1.5246  0.1268  1.3858
 1569SOL     OW16165   1.613   2.174   8.039 -0.0914 -0.5502 -0.0092
 1569SOL    HW116166   1.610   2.266   8.064 -2.1088 -1.0067  1.4306
 1569SOL    HW216167   1.525   2.137   8.028  0.3243 -1.7271  0.6783
 1570SOL     OW16168   3.801   3.859   2.637 -0.0063  0.0099  0.3960
 1570SOL    HW116169   3.748   3.792   2.593  1.7979  0.5075 -2.5394
 1570SOL    HW216170   3.734   3.907   2.685 -1.2472  0.2196 -1.5172
 1571SOL     OW16171   1.539   2.347   8.980 -0.3017 -0.4504 -0.5821
 1571SOL    HW116172   1.512   2.411   8.914 -1.8406 -0.3268  0.1821
 1571SOL    HW216173   1.464   2.287   8.974 -1.3611  0.9171 -1.0295
 1572SOL     OW16174   1.990   1.039  10.874 -0.0315 -0.4191 -0.0426
 1572SOL    HW116175   2.062   1.101  10.876  0.0734 -0.6109  2.7673
 1572SOL    HW216176   1.946   1.066  10.793 -0.8778  3.0250  1.5517
 1573SOL     OW16177   2.658   3.951   0.611  0.5354 -0.4516  0.1966
 1573SOL    HW116178   2.701   3.939   0.526  1.4516 -1.1035  0.7618
 1573SOL    HW216179   2.727   3.926   0.672 -1.6675 -2.7434  1.7547
 1574SOL     OW16180   0.964   4.711   6.020  0.3008 -0.5762  0.7163
 1574SOL    HW116181   0.953   0.054   5.953 -0.7787 -2.2286 -0.7792
 1574SOL    HW216182   0.871   4.703   6.043 -0.5222 -1.4371 -2.8769
 1575SOL     OW16183   1.573   2.235   0.045 -0.2976 -0.4368 -0.4398
 1575SOL    HW116184   1.551   2.310   0.101 -0.4715 -0.0704 -1.0018
 1575SOL    HW216185   1.651   2.273   0.005 -0.5856 -0.3691 -0.9427
 1576SOL     OW16186   0.867   4.595   1.251  0.6635  0.0061  0.2381
 1576SOL    HW116187   0.893   4.686   1.258  0.5693 -0.0458  1.2268
 1576SOL    HW216188   0.931   4.582   1.181  0.2170 -4.2503  0.5866
 1577SOL     OW16189   1.751   4.155  11.255  0.8643  0.1984  0.2005
 1577SOL    HW116190   1.672   4.188  11.298  0.1705  0.1170 -1.0362
 1577SOL    HW216191   1.784   4.092  11.320  3.1892  2.3548  1.1221
 1578SOL     OW16192   1.423   4.444   9.168  0.5681  0.3098 -0.0455
 1578SOL    HW116193   1.396   4.406   9.085  3.4446 -1.1172 -0.3445
 1578SOL    HW216194   1.512   4.409   9.175  0.6384  1.0020  2.5234
 1579SOL     OW16195   4.314   2.349   9.234  0.1451  0.4871 -0.1290
 1579SOL    HW116196   4.291   2.317   9.147 -0.4524  0.1209  0.1660
 1579SOL    HW216197   4.320   2.268   9.286  3.1475  1.2695  0.7533
 1580SOL     OW16198   3.846   4.312  14.971  0.1708  0.0267  0.2687
 1580SOL    HW116199   3.917   4.259  14.936 -0.9324 -1.5617  0.4307
 1580SOL    HW216200   3.899   4.382  15.009  0.6351 -0.2586  0.1371
 1581SOL     OW16201   1.217   3.131   9.891  0.2725 -0.2303  0.5174
 1581SOL    HW116202   1.292   3.189   9.907 -0.3006  0.2998  1.2696
 1581SOL    HW216203   1.240   3.085   9.810 -0.4812 -0.5271  0.4718
 1582SOL     OW16204   2.051   4.092  15.577  0.2312  0.1081 -0.1161
 1582SOL    HW116205   2.081   4.158  15.640  1.5941 -0.6447  0.0234
 1582SOL    HW216206   2.006   4.143  15.509  0.2155  1.1776  0.7011
 1583SOL     OW16207   3.956   1.610   7.276 -0.1230 -0.5124 -0.3521
 1583SOL    HW116208   4.031   1.569   7.231 -0.8367 -1.5955 -0.5575
 1583SOL    HW216209   3.926   1.540   7.334 -0.9778 -0.0399 -0.2206
 1584SOL     OW16210   3.467   0.524   3.336  0.4588  0.2031 -0.2352
 1584SOL    HW116211   3.409   0.457   3.301  0.3432  0.2317 -0.0983
 1584SOL    HW216212   3.461   0.511   3.430  1.9878 -0.1834 -0.2010
 1585SOL     OW16213   2.744   2.131  13.062 -0.2724  0.2858 -0.6092
 1585SOL    HW116214   2.753   2.225  13.075 -0.5412  0.2368 -0.0565
 1585SOL    HW216215   2.803   2.116  12.988 -0.3662 -3.0165 -0.0078
 1586SOL     OW16216   1.319   1.219   3.774  0.7159  0.0738 -0.3131
 1586SOL    HW116217   1.395   1.203   3.718  2.9064  1.5481  2.1792
 1586SOL    HW216218   1.366   1.220   3.858 -0.2694 -2.6392  0.2631
 1587SOL     OW16219   3.517   2.914   3.384 -0.0737  0.4075 -0.1238
 1587SOL    HW116220   3.557   2.975   3.446 -2.0207  1.7625 -0.2075
 1587SOL    HW216221   3.430   2.900   3.422  0.2292 -0.4178  0.2593
 1588SOL     OW16222   2.870   1.377   7.615  0.1538  0.6467  0.2471
 1588SOL    HW116223   2.793   1.333   7.650 -0.2588  1.4402  0.3153
 1588SOL    HW216224   2.855   1.453   7.670  2.7093 -0.2852  2.2452
 1589SOL     OW16225   1.033   1.144  16.396 -0.2734  0.0106 -0.2510
 1589SOL    HW116226   1.100   1.153  16.328  0.1099 -0.4718  0.0613
 1589SOL    HW216227   1.029   1.234  16.428 -0.1921 -0.3532  0.7841
 1590SOL     OW16228   0.186   4.067  10.358  0.4684 -0.2855 -0.0199
 1590SOL    HW116229   0.226   4.103  10.437 -1.8180  0.1031  0.9547
 1590SOL    HW216230   0.093   4.058  10.379  1.6281 -0.3701  5.1358
 1591SOL     OW16231   3.211   2.437   4.722 -0.2512  0.4503 -0.7746
 1591SOL    HW116232   3.135   2.407   4.771 -0.4301 -0.9356 -1.8930
 1591SOL    HW216233   3.241   2.521   4.758  0.0016 -0.6062  1.4395
 1592SOL     OW16234   1.572   2.227  12.762 -0.4337  0.1075  0.4794
 1592SOL    HW116235   1.523   2.240  12.681  0.5641 -3.4961 -0.7316
 1592SOL    HW216236   1.564   2.319  12.786  0.3203 -0.2348  2.0203
 1593SOL     OW16237   3.870   2.851   6.503 -0.7618 -0.3355  0.1143
 1593SOL    HW116238   3.800   2.795   6.469 -2.4469  1.8128  0.0794
 1593SOL    HW216239   3.846   2.937   6.471  0.7546  0.6637  1.6378
 1594SOL     OW16240   2.651   2.945   6.329  0.2311 -0.4622  0.6381
 1594SOL    HW116241   2.556   2.939   6.326  0.1239  0.7573  1.5133
 1594SOL    HW216242   2.678   2.855   6.315  0.5580 -0.2900  0.1558
 1595SOL     OW16243   4.576   1.284  11.359 -0.3635  0.6776 -0.4746
 1595SOL    HW116244   4.562   1.370  11.319  0.0773  0.6119 -0.7637
 1595SOL    HW216245   4.487   1.267  11.389 -0.6822  2.6974 -0.2825
 1596SOL     OW16246   3.304   0.834   7.724  0.1533  0.5238 -0.2573
 1596SOL    HW116247   3.298   0.926   7.701  0.7306  0.8226  0.7959
 1596SOL    HW216248   3.347   0.796   7.648 -0.4667 -1.5658  0.4305
 1597SOL     OW16249   3.103   4.009   9.279  0.0921 -0.5507  0.3295
 1597SOL    HW116250   3.008   4.019   9.286  0.0966  1.0844 -2.0118
 1597SOL    HW216251   3.134   4.040   9.364  1.3755 -1.4669  0.1906
 1598SOL     OW16252   2.831   4.173   9.929 -0.3578 -0.2645 -0.4424
 1598SOL    HW116253   2.895   4.187   9.858 -0.0553  0.7023  0.0112
 1598SOL    HW216254   2.873   4.094   9.962  0.0187 -0.2434 -0.8525
 1599SOL     OW16255   3.984   3.954   4.194  0.6626 -0.0216  0.6238
 1599SOL    HW116256   3.974   3.947   4.099  0.3938 -0.5892  0.6932
 1599SOL    HW216257   3.973   4.048   4.211  1.0936  0.7265 -3.0162
 1600SOL     OW16258   1.017   3.268   2.008  0.1382 -0.3189 -0.5592
 1600SOL    HW116259   0.998   3.181   2.042 -1.1531 -0.7427 -2.3202
 1600SOL    HW216260   0.993   3.269   1.915 -1.0001 -0.5791 -0.2752
 1601SOL     OW16261   0.814   1.380   5.012 -0.5497 -0.5362  0.9682
 1601SOL    HW116262   0.817   1.448   4.944  1.1934 -2.0623 -0.4908
 1601SOL    HW216263   0.743   1.416   5.065  0.4053  0.4796  1.5661
 1602SOL     OW16264   2.872   1.657   1.772 -0.3396  0.5201  0.2292
 1602SOL    HW116265   2.822   1.695   1.845  0.3539 -0.9197  1.4617
 1602SOL    HW216266   2.956   1.643   1.815 -0.4857  1.7435  0.9215
 1603SOL     OW16267   0.095   0.784   4.961  0.6324 -0.4365  0.0363
 1603SOL    HW116268   0.124   0.776   5.052  0.4703  0.4751  0.1680
 1603SOL    HW216269   0.183   0.792   4.924  1.2332  1.7079  1.9868
 1604SOL     OW16270   0.805   1.647   1.721  0.0505 -0.0974 -0.1465
 1604SOL    HW116271   0.800   1.608   1.808 -0.5055 -0.8664 -0.5311
 1604SOL    HW216272   0.753   1.586   1.670  1.0112 -0.7012 -0.4106
 1605SOL     OW16273   1.887   2.657   3.961 -0.3820  0.2598 -0.4481
 1605SOL    HW116274   1.846   2.742   3.948 -1.7789 -0.4343 -0.5255
 1605SOL    HW216275   1.846   2.610   3.888 -0.2648 -1.2216  0.4459
 1606SOL     OW16276   1.438   2.767   1.674 -0.0745  0.5805  0.1880
 1606SOL    HW116277   1.456   2.674   1.686 -0.5173  0.4830  0.1139
 1606SOL    HW216278   1.525   2.804   1.663 -0.1655  0.9577  0.7500
 1607SOL     OW16279   4.449   2.901   6.106 -0.0926 -0.0542 -0.1560
 1607SOL    HW116280   4.393   2.947   6.044 -1.0152 -1.9377 -0.7264
 1607SOL    HW216281   4.531   2.889   6.057  0.3567  2.2789  0.0312
 1608SOL     OW16282   4.388   3.927  14.300 -0.2217 -0.0413  0.4834
 1608SOL    HW116283   4.427   3.841  14.318  1.2985  0.4547 -0.4976
 1608SOL    HW216284   4.467   3.975  14.277 -1.7205  1.8613 -0.5727
 1609SOL     OW16285   3.614   3.411   7.120 -0.0816 -0.3320 -0.0431
 1609SOL    HW116286   3.548   3.343   7.133 -0.1595 -0.5083 -1.4235
 1609SOL    HW216287   3.627   3.433   7.212  0.1960 -1.7475  0.2645
 1610SOL     OW16288   4.106   1.722   4.572  0.3990  0.2969 -0.3141
 1610SOL    HW116289   4.133   1.767   4.652  0.9486  0.9940 -0.8992
 1610SOL    HW216290   4.088   1.630   4.590 -1.4554  0.6202 -0.5279
 1611SOL     OW16291   2.402   0.326   8.535  0.3183 -0.3821  0.2743
 1611SOL    HW116292   2.385   0.279   8.616  1.4267 -2.5053 -0.7132
 1611SOL    HW216293   2.489   0.294   8.510  1.1739  0.2107  2.4241
 1612SOL     OW16294   2.343   2.910   4.321  0.2080 -0.4210 -0.1236
 1612SOL    HW116295   2.304   2.827   4.295 -2.2616  0.4836  0.7049
 1612SOL    HW216296   2.398   2.889   4.396 -3.2870 -1.3152  2.1783
 1613SOL     OW16297   3.573   0.459   0.122  0.3104 -0.1655  1.1041
 1613SOL    HW116298   3.538   0.438   0.208  2.0902 -0.3898  1.7723
 1613SOL    HW216299   3.512   0.412   0.066  0.1201  0.3692  0.8582
 1614SOL     OW16300   3.825   0.590   6.889 -0.0985 -0.0217 -0.3536
 1614SOL    HW116301   3.865   0.549   6.812  0.0471  0.4869 -0.5471
 1614SOL    HW216302   3.755   0.644   6.854 -0.1378  0.1830  0.0450
 1615SOL     OW16303   0.319   3.719   3.101  0.8003  0.7877 -0.0955
 1615SOL    HW116304   0.403   3.739   3.142  1.0688  0.9116 -0.7168
 1615SOL    HW216305   0.304   3.771   3.022 -1.0811  0.3592 -0.0244
 1616SOL     OW16306   3.157   0.715  11.139 -0.2173 -0.3079 -0.6573
 1616SOL    HW116307   3.072   0.745  11.169 -0.1624 -1.0002  0.1813
 1616SOL    HW216308   3.151   0.710  11.044 -3.7594  2.9944 -0.5758
 1617SOL     OW16309   4.564   3.623   7.336 -0.0380  0.5246  0.0339
 1617SOL    HW116310   4.570   3.714   7.366  2.6248  1.3435 -2.9958
 1617SOL    HW216311   4.474   3.615   7.303 -0.3753 -0.9406  1.2906
 1618SOL     OW16312   4.591   1.997   5.647  0.4644 -0.3623 -0.5773
 1618SOL    HW116313   4.577   1.924   5.586 -2.2057  0.7123 -1.2510
 1618SOL    HW216314   4.686   1.992   5.658  0.1325 -3.2429  0.8549
 1619SOL     OW16315   3.443   4.340   7.592 -0.0892 -0.0766  0.3329
 1619SOL    HW116316   3.465   4.252   7.622 -1.9625 -1.5111 -2.4198
 1619SOL    HW216317   3.437   4.329   7.497 -0.7834  0.2504  0.3437
 1620SOL     OW16318   0.829   0.924   8.498 -0.0928 -0.0353 -0.4797
 1620SOL    HW116319   0.768   0.939   8.571  0.0635  1.4688 -0.6648
 1620SOL    HW216320   0.894   0.992   8.514 -0.3961  0.1713 -0.1203
 1621SOL     OW16321   2.258   1.389   2.444  0.1342  0.0677  0.2869
 1621SOL    HW116322   2.276   1.398   2.537  2.6920 -1.5361 -0.0331
 1621SOL    HW216323   2.172   1.348   2.444  0.4453 -0.5882 -0.5948
 1622SOL     OW16324   0.831   1.235   1.607  0.3020 -0.1001  0.3757
 1622SOL    HW116325   0.785   1.317   1.595  1.5104  0.6590  0.9745
 1622SOL    HW216326   0.783   1.187   1.675  0.1042  0.0908  0.3676
 1623SOL     OW16327   3.066   0.325   7.213  0.1523 -0.0004 -0.2731
 1623SOL    HW116328   3.037   0.356   7.299  1.4202  0.8870 -0.1634
 1623SOL    HW216329   3.159   0.347   7.210  0.2944 -0.4297  0.8517
 1624SOL     OW16330   2.968   3.225   4.859 -0.0521 -0.4768 -0.2783
 1624SOL    HW116331   3.003   3.253   4.775  1.2055 -3.0741 -0.6259
 1624SOL    HW216332   2.930   3.138   4.841  0.2142 -0.8684  1.0360
 1625SOL     OW16333   1.295   4.618   7.368  0.1973  0.3747  0.1400
 1625SOL    HW116334   1.245   4.685   7.415  0.6595  1.3303 -0.7283
 1625SOL    HW216335   1.221   4.557   7.358  0.0582  0.5298  0.2239
 1626SOL     OW16336   3.542   4.117   3.202 -0.1888  0.1726  0.2844
 1626SOL    HW116337   3.551   4.046   3.139  0.3946 -0.7272  1.3686
 1626SOL    HW216338   3.616   4.173   3.178 -2.0211  2.2327 -0.5696
 1627SOL     OW16339   4.232   3.402  12.574  0.5002 -0.0556  0.2955
 1627SOL    HW116340   4.255   3.437  12.660 -0.0256  1.5649 -0.2418
 1627SOL    HW216341   4.316   3.356  12.579  1.2485  1.1303 -1.6927
 1628SOL     OW16342   2.147   0.917   9.242  0.3597  0.5784  0.3611
 1628SOL    HW116343   2.207   0.986   9.213  0.8449 -1.5604 -3.7639
 1628SOL    HW216344   2.094   0.904   9.163 -0.9827 -0.9894  1.5383
 1629SOL     OW16345   0.796   3.475   3.042  0.6061 -0.4024 -0.1327
 1629SOL    HW116346   0.844   3.543   2.996  1.2738 -0.7400  0.0618
 1629SOL    HW216347   0.802   3.402   2.979  0.1038  0.9348 -1.7237
 1630SOL     OW16348   1.990   1.693  17.261 -0.2061 -0.5868  0.5452
 1630SOL    HW116349   1.946   1.697  17.176 -0.7859  2.2421  1.0006
 1630SOL    HW216350   2.001   1.787  17.272  1.7266 -0.4625 -2.5315
 1631SOL     OW16351   1.370   0.108   6.825  0.2313  0.6900 -0.0493
 1631SOL    HW116352   1.284   0.121   6.786 -1.3393  0.8693  3.5299
 1631SOL    HW216353   1.349   0.074   6.912  1.7060  0.4595  0.2165
 1632SOL     OW16354   2.273   4.534   5.315 -1.0211  0.0002 -0.1390
 1632SOL    HW116355   2.235   4.535   5.403  0.3830  0.0741  0.4711
 1632SOL    HW216356   2.190   4.526   5.268 -0.2714  0.8664 -1.6186
 1633SOL     OW16357   3.015   4.316   8.779  0.6839 -0.8056  0.0401
 1633SOL    HW116358   2.992   4.397   8.826 -1.4602 -0.6700 -1.2689
 1633SOL    HW216359   3.001   4.257   8.853 -0.6216 -0.7385 -0.1563
 1634SOL     OW16360   0.174   2.439  16.577  0.0995 -0.4309  0.4407
 1634SOL    HW116361   0.097   2.495  16.590  0.7953  0.6415 -0.0283
 1634SOL    HW216362   0.184   2.411  16.668  1.8105 -0.9943  0.0787
 1635SOL     OW16363   2.243   2.995   8.270  1.2319 -0.6989  0.1965
 1635SOL    HW116364   2.225   3.052   8.195  0.5453 -0.5534  0.4738
 1635SOL    HW216365   2.166   2.939   8.274 -0.6627  1.8163 -0.7879
 1636SOL     OW16366   2.180   4.181   4.495  0.2910 -0.5821 -0.2051
 1636SOL    HW116367   2.112   4.185   4.428 -0.3139  0.7268  0.4750
 1636SOL    HW216368   2.138   4.155   4.577 -3.0878 -2.0824 -2.4390
 1637SOL     OW16369   3.625   1.591   4.815 -0.3707  0.6727  0.2778
 1637SOL    HW116370   3.542   1.606   4.861 -0.3250  3.2937 -0.4865
 1637SOL    HW216371   3.638   1.684   4.796 -1.6019  0.7671 -0.1100
 1638SOL     OW16372   2.256   3.213   5.630 -0.0029  0.3793 -0.7090
 1638SOL    HW116373   2.225   3.301   5.607  1.9112  1.7161  1.8467
 1638SOL    HW216374   2.325   3.202   5.564 -0.0037 -1.6951 -0.3539
 1639SOL     OW16375   2.978   2.172   2.625 -0.6003 -0.3148 -0.0250
 1639SOL    HW116376   2.981   2.144   2.716 -0.6046 -2.2250 -0.5963
 1639SOL    HW216377   2.969   2.091   2.574 -1.9640  0.7760 -1.4858
 1640SOL     OW16378   4.320   1.860   6.667 -0.3291  0.4265 -0.0174
 1640SOL    HW116379   4.389   1.908   6.713 -1.0040 -1.7869  3.3125
 1640SOL    HW216380   4.377   1.805   6.614 -0.1332 -1.4456  2.1234
 1641SOL     OW16381   0.151   4.395  13.791  0.3908  0.1655  0.3017
 1641SOL    HW116382   0.222   4.418  13.731  1.0518 -0.9781  0.6530
 1641SOL    HW216383   0.194   4.320  13.831  1.8420  0.8356 -0.0014
 1642SOL     OW16384   0.968   2.818   9.341  0.2710 -0.2351  0.2822
 1642SOL    HW116385   0.966   2.722   9.331  0.3001 -0.3191  1.0997
 1642SOL    HW216386   0.878   2.831   9.313 -0.7841 -2.3891  2.6060
 1643SOL     OW16387   4.078   1.099  11.752  0.4346 -0.2208 -0.8322
 1643SOL    HW116388   4.146   1.164  11.770 -0.6966  0.2697  1.6016
 1643SOL    HW216389   4.058   1.071  11.841  0.5225  1.6828 -0.1974
 1644SOL     OW16390   4.306   4.533   8.562  0.0297  0.4477 -0.0104
 1644SOL    HW116391   4.383   4.590   8.560  0.6955 -0.4504 -0.3406
 1644SOL    HW216392   4.319   4.480   8.483  0.8893  0.2966  0.2301
 1645SOL     OW16393   0.789   0.713   3.579 -0.1292  0.7848 -0.0102
 1645SOL    HW116394   0.860   0.753   3.629  0.7749  1.9562 -2.2237
 1645SOL    HW216395   0.823   0.627   3.554  1.4895  1.4646 -0.1223
 1646SOL     OW16396   3.746   4.348  14.500  0.4971 -0.2744  0.1198
 1646SOL    HW116397   3.785   4.260  14.499  0.1329 -0.4293 -0.3701
 1646SOL    HW216398   3.658   4.327  14.530  0.3575 -0.6223 -0.5305
 1647SOL     OW16399   1.854   1.103  10.643 -0.1029 -0.2279  0.0057
 1647SOL    HW116400   1.805   1.176  10.605  0.8811 -0.3617 -1.5054
 1647SOL    HW216401   1.793   1.034  10.615 -1.0692  0.5093  0.3015
 1648SOL     OW16402   0.396   1.092   0.060  0.1251  0.3276  0.5162
 1648SOL    HW116403   0.443   1.155   0.006 -2.1729  1.0519 -0.6649
 1648SOL    HW216404   0.345   1.153   0.114  0.4889 -1.0353  2.3819
 1649SOL     OW16405   3.291   2.161   6.671  0.3314  0.6674  0.0752
 1649SOL    HW116406   3.255   2.174   6.583  2.1820 -0.0991 -0.7882
 1649SOL    HW216407   3.313   2.245   6.710  1.0141  0.3990  0.2646
 1650SOL     OW16408   3.369   1.947   3.894 -0.0173 -0.3539  0.8124
 1650SOL    HW116409   3.454   1.970   3.930  0.4757  0.7158 -1.0236
 1650SOL    HW216410   3.326   1.946   3.980  1.7189  0.9352  1.7136
 1651SOL     OW16411   1.017   0.587   7.401  0.8455  0.1225 -1.1208
 1651SOL    HW116412   0.954   0.544   7.343  1.3807 -0.2811 -1.3985
 1651SOL    HW216413   1.037   0.673   7.365  0.1391  1.7408  2.3798
 1652SOL     OW16414   1.025   3.362  10.814 -0.1481 -1.1398  0.3848
 1652SOL    HW116415   0.943   3.371  10.765 -0.5918  2.8441  1.8311
 1652SOL    HW216416   1.050   3.276  10.782 -0.2037 -0.5933 -1.1432
 1653SOL     OW16417   2.621   1.279   2.454 -0.2077  0.1121  0.4708
 1653SOL    HW116418   2.595   1.301   2.544 -1.1204 -0.4015  0.3346
 1653SOL    HW216419   2.679   1.352   2.433  0.5066 -0.6103 -0.0833
 1654SOL     OW16420   4.278   0.790  14.655  0.0034 -0.4602  0.2385
 1654SOL    HW116421   4.360   0.802  14.703 -1.6670  0.5828  2.8172
 1654SOL    HW216422   4.218   0.839  14.712 -0.7358 -1.1328  0.0317
 1655SOL     OW16423   0.006   1.697   2.556 -0.3926 -0.3487 -0.0649
 1655SOL    HW116424   0.034   1.652   2.636  1.7856  3.4747  1.3644
 1655SOL    HW216425   4.676   1.633   2.511  0.9568 -0.3228 -1.7170
 1656SOL     OW16426   0.065   1.551   1.867  0.5207 -0.3989  0.4714
 1656SOL    HW116427   0.057   1.589   1.780  1.2033  0.5171  0.8098
 1656SOL    HW216428   0.088   1.468   1.826 -2.8784 -1.4256  0.6807
 1657SOL     OW16429   2.352   3.280   5.883  0.2138 -0.3933  0.0038
 1657SOL    HW116430   2.303   3.251   5.806  1.8172 -0.1389 -1.1254
 1657SOL    HW216431   2.420   3.331   5.838  0.5278  0.1558  1.1163
 1658SOL     OW16432   4.437   0.681   1.792  0.4202 -0.3947  0.0584
 1658SOL    HW116433   4.368   0.711   1.851 -0.5268 -0.2516 -1.1350
 1658SOL    HW216434   4.503   0.649   1.854 -0.4884  1.0388  1.7606
 1659SOL     OW16435   2.664   0.373  12.430 -0.3091 -0.0671 -0.1970
 1659SOL    HW116436   2.640   0.317  12.503 -0.4128  2.0132  1.3485
 1659SOL    HW216437   2.598   0.354  12.363 -0.4977  0.0459 -0.0438
 1660SOL     OW16438   0.234   1.823  13.553  0.4683 -0.1151 -0.1362
 1660SOL    HW116439   0.217   1.816  13.459  0.9470 -4.0251  0.0618
 1660SOL    HW216440   0.259   1.915  13.561 -0.2061 -0.0451  1.2268
 1661SOL     OW16441   2.531   0.387   5.009  0.7881  0.1832  0.1663
 1661SOL    HW116442   2.462   0.333   5.049  0.9848  1.3778  2.1740
 1661SOL    HW216443   2.511   0.368   4.918  0.1784 -0.1085  0.3582
 1662SOL     OW16444   3.864   0.225   3.429  0.4620 -0.0603  0.0828
 1662SOL    HW116445   3.897   0.165   3.497  1.2593  0.4798  0.1855
 1662SOL    HW216446   3.945   0.276   3.418 -0.3210  0.8977 -1.1938
 1663SOL     OW16447   0.287   3.938   8.622  0.0632  0.2842 -0.1277
 1663SOL    HW116448   0.227   3.936   8.548  0.0560 -1.3918 -0.0741
 1663SOL    HW216449   0.227   3.940   8.697  2.0481 -1.3880  1.5401
 1664SOL     OW16450   0.357   1.784   3.203  0.5438 -0.4225 -0.3860
 1664SOL    HW116451   0.389   1.846   3.269  1.0434 -1.6761  0.5338
 1664SOL    HW216452   0.279   1.830   3.173  0.2733 -0.7688 -0.2173
 1665SOL     OW16453   1.893   4.416   3.297  0.0577 -0.0347  0.3944
 1665SOL    HW116454   1.863   4.381   3.213 -1.4380 -0.1132  0.9667
 1665SOL    HW216455   1.837   4.493   3.298  0.5099  0.2870  0.5854
 1666SOL     OW16456   0.216   3.040  10.533  0.0083 -0.0330  0.5164
 1666SOL    HW116457   0.198   2.946  10.534  0.2226 -0.0730  0.6927
 1666SOL    HW216458   0.261   3.054  10.450 -0.9986 -0.2934 -0.0637
 1667SOL     OW16459   1.374   0.547   4.470  0.0932  0.2887  0.2586
 1667SOL    HW116460   1.449   0.599   4.441 -0.1066 -0.0110 -0.8062
 1667SOL    HW216461   1.413   0.460   4.470  0.5943  0.4979 -1.7212
 1668SOL     OW16462   3.211   4.159  11.980 -0.3411 -0.1001  0.6558
 1668SOL    HW116463   3.189   4.211  12.057 -1.2410  2.8079 -1.5895
 1668SOL    HW216464   3.306   4.171  11.980 -0.2932 -0.5049  0.0605
 1669SOL     OW16465   2.566   2.322  14.929  0.0794 -0.3850  0.2408
 1669SOL    HW116466   2.504   2.281  14.869 -0.6002  1.8873 -0.5727
 1669SOL    HW216467   2.507   2.360  14.994 -0.5383 -1.3314  0.2303
 1670SOL     OW16468   1.607   0.317  14.267 -0.1798  0.6894  0.0082
 1670SOL    HW116469   1.680   0.339  14.325 -1.8226 -0.9801  2.6844
 1670SOL    HW216470   1.540   0.374  14.305 -2.0344 -2.0536  0.8415
 1671SOL     OW16471   2.369   4.251   2.860  0.1666 -0.0291 -0.0858
 1671SOL    HW116472   2.320   4.281   2.783  0.4100  2.4601  0.7432
 1671SOL    HW216473   2.398   4.170   2.819  1.6151  0.8637 -0.7975
 1672SOL     OW16474   1.654   0.857   5.979 -0.2641  0.1708 -0.4505
 1672SOL    HW116475   1.561   0.838   5.967 -0.0762 -0.7452 -0.4468
 1672SOL    HW216476   1.647   0.943   6.021 -0.6435 -0.0857  0.0037
 1673SOL     OW16477   3.551   1.752   0.739  0.0685 -0.3578 -0.2883
 1673SOL    HW116478   3.559   1.680   0.802  0.0800  0.3236  0.4903
 1673SOL    HW216479   3.553   1.696   0.661 -1.2372 -1.3233  0.3557
 1674SOL     OW16480   0.734   2.276   7.297  0.1759 -0.0175  0.2953
 1674SOL    HW116481   0.645   2.304   7.321 -0.3553  0.0605 -1.6950
 1674SOL    HW216482   0.718   2.181   7.293 -2.4244  0.3759  1.0804
 1675SOL     OW16483   4.071   0.614  14.608 -0.0278  0.1473 -0.1755
 1675SOL    HW116484   4.004   0.682  14.609  0.0981  0.2689  0.6036
 1675SOL    HW216485   4.152   0.664  14.612 -0.0017  0.0374  0.6970
 1676SOL     OW16486   4.401   2.883   4.890  0.0816 -0.5448  0.5106
 1676SOL    HW116487   4.407   2.804   4.837  2.1516 -0.5614  0.7470
 1676SOL    HW216488   4.308   2.896   4.905  0.2348  2.3908 -1.0335
 1677SOL     OW16489   0.682   4.676  16.003  0.2353 -0.8742 -0.0215
 1677SOL    HW116490   0.653   0.036  16.037 -2.9005 -2.0325  0.2464
 1677SOL    HW216491   0.773   4.674  16.031  0.2666 -0.2394 -0.0687
 1678SOL     OW16492   0.453   4.568   8.018 -0.0773 -0.1737 -0.1078
 1678SOL    HW116493   0.537   4.570   7.973 -0.3843 -1.9059 -0.7565
 1678SOL    HW216494   0.469   4.496   8.079 -0.3728  1.1663  1.5561
 1679SOL     OW16495   4.592   1.492   7.076 -0.0170  0.0881 -0.2161
 1679SOL    HW116496   4.529   1.501   7.004 -1.2819 -2.0926  0.5933
 1679SOL    HW216497   4.555   1.561   7.131 -0.2949  0.8268 -1.3398
 1680SOL     OW16498   3.175   1.174  14.038 -0.1193 -0.8577  0.5942
 1680SOL    HW116499   3.094   1.162  13.987  0.8041 -0.3295 -1.0138
 1680SOL    HW216500   3.139   1.217  14.115 -0.9022 -1.6224  0.6612
 1681SOL     OW16501   4.451   2.255   0.610  0.3648  0.2398 -0.3959
 1681SOL    HW116502   4.540   2.219   0.602  0.2661  0.3102 -1.8907
 1681SOL    HW216503   4.405   2.231   0.530 -1.8658  1.3215  0.5719
 1682SOL     OW16504   2.383   1.191   0.522 -0.5983 -0.5680 -0.5872
 1682SOL    HW116505   2.471   1.221   0.499 -0.0830  1.2356  3.6724
 1682SOL    HW216506   2.387   1.096   0.513  0.3079 -0.4687 -1.2366
 1683SOL     OW16507   0.895   2.723   4.999 -0.0718  0.3691  0.1896
 1683SOL    HW116508   0.907   2.676   4.916 -1.6160  3.0987 -1.5526
 1683SOL    HW216509   0.960   2.791   4.988 -0.9106  1.2893  0.9326
 1684SOL     OW16510   4.071   1.542   2.920 -0.0053  0.0316 -0.7604
 1684SOL    HW116511   4.153   1.495   2.935  0.0509  0.9415  1.7530
 1684SOL    HW216512   4.093   1.574   2.832  0.3824  0.0751 -0.6503
 1685SOL     OW16513   0.437   1.654  13.037 -0.1499  0.5398 -0.0933
 1685SOL    HW116514   0.402   1.579  13.086 -0.4184  0.5492 -0.2688
 1685SOL    HW216515   0.462   1.714  13.108  0.6807  0.8836 -0.6790
 1686SOL     OW16516   3.033   1.641   7.372 -0.5085 -0.0763 -0.0230
 1686SOL    HW116517   3.009   1.712   7.312  1.2370 -1.1821 -2.0704
 1686SOL    HW216518   3.057   1.684   7.454 -0.4136 -2.7361  1.3175
 1687SOL     OW16519   4.121   2.597  17.130 -0.4379  0.0023  0.3026
 1687SOL    HW116520   4.098   2.505  17.116  0.9829 -0.1252 -1.1714
 1687SOL    HW216521   4.154   2.617  17.042 -3.8613 -0.5676 -1.1328
 1688SOL     OW16522   3.695   1.431   7.137 -0.3898  0.1175 -0.5202
 1688SOL    HW116523   3.769   1.385   7.177 -1.7425 -1.2766  0.3642
 1688SOL    HW216524   3.683   1.505   7.197 -0.5966  2.0316 -2.9272
 1689SOL     OW16525   3.778   1.497   3.614  0.2668  0.0400  0.3828
 1689SOL    HW116526   3.856   1.522   3.662  0.3158  1.1015 -0.2516
 1689SOL    HW216527   3.798   1.404   3.610 -2.8538 -0.5753 -1.2820
 1690SOL     OW16528   2.762   3.098   7.965 -0.2191  0.0200  0.2210
 1690SOL    HW116529   2.768   3.157   8.040  0.5258  1.2487 -0.8141
 1690SOL    HW216530   2.800   3.016   7.995  0.8353 -0.3605 -2.1548
 1691SOL     OW16531   2.156   3.125  15.084 -0.6591  0.4415  0.0760
 1691SOL    HW116532   2.171   3.218  15.104 -1.8618  0.1127  2.4094
 1691SOL    HW216533   2.066   3.100  15.106 -1.6482  2.3634 -1.7196
 1692SOL     OW16534   3.151   1.042  13.558  0.3052  0.2430  0.1107
 1692SOL    HW116535   3.227   0.985  13.544 -0.9959 -2.0303  2.3858
 1692SOL    HW216536   3.154   1.037  13.653 -2.5184 -0.1854  0.1708
 1693SOL     OW16537   0.162   4.572   9.155 -0.4987 -0.3381  0.4720
 1693SOL    HW116538   0.188   4.607   9.070  2.3411 -3.3186  0.0848
 1693SOL    HW216539   0.110   4.497   9.123 -0.6266 -0.8716  1.9346
 1694SOL     OW16540   3.811   2.319   2.598  0.0606  0.3480 -0.1989
 1694SOL    HW116541   3.808   2.360   2.511  0.5540  0.5478 -0.1197
 1694SOL    HW216542   3.842   2.397   2.643  1.6808 -1.0761  1.1355
 1695SOL     OW16543   3.424   0.001   7.628  0.2351 -0.1995  0.4558
 1695SOL    HW116544   3.389   4.708   7.715 -0.0911  1.8856  0.7487
 1695SOL    HW216545   3.344   4.716   7.575  1.5536 -1.9514 -1.2018
 1696SOL     OW16546   2.992   3.572   8.251  0.4692 -0.4362 -0.3485
 1696SOL    HW116547   2.934   3.568   8.327 -0.0554 -0.4309 -0.7498
 1696SOL    HW216548   2.941   3.639   8.204  2.0434  0.5358 -0.6718
 1697SOL     OW16549   2.496   2.092   2.063 -0.1811  0.0268  1.0178
 1697SOL    HW116550   2.407   2.062   2.083 -0.0680 -0.8123  0.2624
 1697SOL    HW216551   2.487   2.185   2.086 -1.6055  0.1302  0.0176
 1698SOL     OW16552   2.708   1.375   0.876 -0.4992  0.2399  0.1434
 1698SOL    HW116553   2.776   1.308   0.869 -1.5262 -0.7084 -0.9073
 1698SOL    HW216554   2.740   1.454   0.833  0.4747  0.9716  2.2345
 1699SOL     OW16555   0.808   1.597   9.298 -0.0674  0.0076 -0.4365
 1699SOL    HW116556   0.800   1.612   9.204 -0.6818  1.5948 -0.1330
 1699SOL    HW216557   0.730   1.643   9.330  0.2472  1.5064 -1.8403
 1700SOL     OW16558   1.937   4.432  14.970  0.1571 -0.3682  0.2033
 1700SOL    HW116559   1.875   4.502  14.990  2.6932  1.7416  0.6797
 1700SOL    HW216560   1.904   4.354  15.014  1.2742 -1.0770 -0.2135
 1701SOL     OW16561   3.420   1.155   6.221  0.0424 -0.5601 -0.0776
 1701SOL    HW116562   3.473   1.157   6.142  1.2225  1.0185  0.7350
 1701SOL    HW216563   3.429   1.065   6.252 -1.3193 -0.8156 -0.4702
 1702SOL     OW16564   3.130   0.235   2.972 -0.3404 -0.0823  0.3795
 1702SOL    HW116565   3.139   0.182   2.893 -0.3625  0.2174  0.1763
 1702SOL    HW216566   3.077   0.308   2.939 -0.1068 -0.3256 -0.5362
 1703SOL     OW16567   3.370   1.419   3.668  0.0469  0.1133  0.5791
 1703SOL    HW116568   3.352   1.439   3.576  0.0073  1.0439  0.7861
 1703SOL    HW216569   3.433   1.489   3.686 -0.8057  1.2619 -0.8997
 1704SOL     OW16570   2.356   0.304  12.997 -0.4299  0.4376 -0.3696
 1704SOL    HW116571   2.386   0.331  12.909  2.2273 -0.9494  0.0936
 1704SOL    HW216572   2.267   0.276  12.977 -0.6905 -0.3678  2.0288
 1705SOL     OW16573   3.661   2.873  14.153  0.3469 -0.5925  0.1934
 1705SOL    HW116574   3.651   2.923  14.072 -1.8407 -0.3173  0.6304
 1705SOL    HW216575   3.752   2.845  14.146 -0.4542 -2.9902 -0.6889
 1706SOL     OW16576   2.407   1.851   8.152 -0.6153  0.6304 -0.3713
 1706SOL    HW116577   2.357   1.926   8.185  0.7236  1.1870  0.3943
 1706SOL    HW216578   2.438   1.809   8.232 -0.1863 -0.6832 -1.2340
 1707SOL     OW16579   3.618   2.448   6.234 -0.2598  0.0043 -0.6098
 1707SOL    HW116580   3.525   2.465   6.221  0.0544 -0.0198 -2.9125
 1707SOL    HW216581   3.653   2.427   6.147  2.7201  0.2915  0.5317
 1708SOL     OW16582   0.822   0.973   6.793 -0.0990 -0.3829  0.3035
 1708SOL    HW116583   0.764   0.940   6.724  0.2959 -2.4134  0.9477
 1708SOL    HW216584   0.908   0.966   6.752 -0.1020 -0.2481  0.2753
 1709SOL     OW16585   4.109   3.139  11.186 -0.0631  0.2290  0.6042
 1709SOL    HW116586   4.059   3.161  11.108 -0.8631 -3.9249 -0.0770
 1709SOL    HW216587   4.044   3.106  11.249 -0.5278  0.7204  0.3740
 1710SOL     OW16588   2.959   2.310   5.139 -0.1322  0.1449 -0.0530
 1710SOL    HW116589   2.879   2.257   5.137  1.1572 -1.7514 -0.3716
 1710SOL    HW216590   3.013   2.265   5.204 -2.0604  0.0421  1.4747
 1711SOL     OW16591   2.677   2.043   6.575  0.3800 -0.5594  0.3929
 1711SOL    HW116592   2.721   1.966   6.539 -1.2896 -1.3499  0.0146
 1711SOL    HW216593   2.725   2.062   6.655 -1.7892  0.9826  1.3609
 1712SOL     OW16594   4.626   3.886   4.471  0.1927  0.3132  0.1049
 1712SOL    HW116595   4.627   3.955   4.536 -0.7739 -0.4424  0.9330
 1712SOL    HW216596   4.532   3.870   4.460  0.0110  0.1591  1.9004
 1713SOL     OW16597   4.218   0.963   4.997  0.0781  0.3900  0.2585
 1713SOL    HW116598   4.163   1.005   5.062  0.7318  2.1204 -0.3095
 1713SOL    HW216599   4.296   1.018   4.985 -0.9988  1.6595 -0.9046
 1714SOL     OW16600   0.587   3.760   7.698  0.7683  0.0106  0.1357
 1714SOL    HW116601   0.573   3.852   7.723 -3.4435 -0.4462 -0.5146
 1714SOL    HW216602   0.639   3.776   7.619 -2.2334  1.8348 -1.4531
 1715SOL     OW16603   1.585   0.833   2.074 -0.3931  0.0162 -0.0799
 1715SOL    HW116604   1.632   0.891   2.135 -1.0025 -0.2967  0.6838
 1715SOL    HW216605   1.540   0.778   2.138 -3.8678 -0.1627 -2.7076
 1716SOL     OW16606   2.713   1.882   6.841 -0.3741  0.2177  0.2526
 1716SOL    HW116607   2.670   1.816   6.895  0.3176  1.3845  2.2075
 1716SOL    HW216608   2.784   1.829   6.803  0.6564  0.9917  1.0904
 1717SOL     OW16609   0.653   2.110  13.807  0.2794 -0.0706  0.0421
 1717SOL    HW116610   0.606   2.030  13.784 -0.2937  0.7208 -1.5712
 1717SOL    HW216611   0.689   2.135  13.722 -0.0552 -2.5782 -0.8390
 1718SOL     OW16612   0.842   1.451   0.058  0.4266  0.3532 -0.2258
 1718SOL    HW116613   0.855   1.441   0.152 -2.9376  0.8358  0.2705
 1718SOL    HW216614   0.907   1.519   0.039  0.2277  0.4384 -0.5904
 1719SOL     OW16615   1.471   3.442  10.219  0.5971  0.4915  0.4845
 1719SOL    HW116616   1.540   3.508  10.219  0.7605  0.3481 -1.7525
 1719SOL    HW216617   1.402   3.494  10.259  1.2421  1.4386  0.3708
 1720SOL     OW16618   0.257   1.816   2.534 -0.1017 -0.8314 -0.3121
 1720SOL    HW116619   0.216   1.903   2.543 -2.7448 -2.0193 -0.8363
 1720SOL    HW216620   0.174   1.768   2.528 -0.3438 -0.8208  2.6216
 1721SOL     OW16621   3.839   1.868  15.803 -0.3908  0.1461  0.1236
 1721SOL    HW116622   3.827   1.864  15.709 -0.0596  0.2535  0.0789
 1721SOL    HW216623   3.750   1.843  15.829 -0.4114  0.2538  0.1599
 1722SOL     OW16624   1.511   3.504  17.495 -0.4559  0.1865 -0.6680
 1722SOL    HW116625   1.482   3.590  17.464 -2.0250  0.5765  1.8086
 1722SOL    HW216626   1.605   3.514  17.480 -0.9367  3.0496 -1.7757
 1723SOL     OW16627   2.236   1.894  16.951  0.2082  0.1059 -0.1276
 1723SOL    HW116628   2.220   1.981  16.987 -0.0836 -1.2099  2.9152
 1723SOL    HW216629   2.190   1.904  16.867  0.3343  1.7859  0.0178
 1724SOL     OW16630   3.889   0.683   2.533  0.4320  0.9799  0.6088
 1724SOL    HW116631   3.925   0.725   2.611  0.0134  0.8693  0.8594
 1724SOL    HW216632   3.964   0.657   2.479  0.7187  0.9414  1.0230
 1725SOL     OW16633   0.017   4.297   6.517  0.2113  0.1115  0.4711
 1725SOL    HW116634   0.049   4.330   6.601  0.0186  0.5690  0.3668
 1725SOL    HW216635   0.011   4.385   6.478  0.5699  0.9038  2.1908
 1726SOL     OW16636   0.231   1.058   3.512 -0.8208 -0.0428  0.4146
 1726SOL    HW116637   0.293   0.995   3.475  0.8859  1.7739  0.1565
 1726SOL    HW216638   0.155   1.006   3.538 -1.4392  0.4549 -0.3886
 1727SOL     OW16639   4.086   0.934  11.519 -0.2111  0.3201 -0.3288
 1727SOL    HW116640   4.100   1.014  11.469 -0.1818 -0.0724 -0.9514
 1727SOL    HW216641   4.084   0.958  11.612  0.9060 -0.4577 -0.1069
 1728SOL     OW16642   0.640   4.446  13.362  0.7187 -0.2226  0.0509
 1728SOL    HW116643   0.674   4.424  13.450 -0.5546 -1.0604  0.3244
 1728SOL    HW216644   0.708   4.403  13.310  0.4749  0.3989 -0.7824
 1729SOL     OW16645   3.505   3.729   0.608  0.1503  0.5379  0.0484
 1729SOL    HW116646   3.464   3.645   0.627  3.4328 -1.0519  0.1341
 1729SOL    HW216647   3.556   3.703   0.531  2.6624  0.8617  1.5998
 1730SOL     OW16648   3.480   0.255  12.622 -0.0502  0.2831  0.4480
 1730SOL    HW116649   3.556   0.307  12.597 -0.2796  0.1320 -0.5534
 1730SOL    HW216650   3.423   0.329  12.643 -0.4948  0.5281 -1.6520
 1731SOL     OW16651   0.078   0.259   3.866  0.4323 -0.0204  0.4340
 1731SOL    HW116652   0.163   0.294   3.894  1.2480 -1.2509 -0.4745
 1731SOL    HW216653   0.116   0.171   3.859 -2.3346 -1.2197  0.5573
 1732SOL     OW16654   1.347   4.093   2.609  0.0269  0.3070 -0.0284
 1732SOL    HW116655   1.261   4.051   2.607  0.8064 -1.3192  0.1669
 1732SOL    HW216656   1.391   4.013   2.639  2.4718  1.7476  0.2038
 1733SOL     OW16657   0.879   2.007   4.087  0.4241 -0.0732  0.0991
 1733SOL    HW116658   0.824   2.082   4.067 -0.0922 -0.4682  0.0304
 1733SOL    HW216659   0.967   2.046   4.086 -0.8813  2.8683  0.9536
 1734SOL     OW16660   3.891   2.378   7.436 -0.0766  0.1442 -0.7815
 1734SOL    HW116661   3.846   2.460   7.416  0.3900  0.2768 -1.2864
 1734SOL    HW216662   3.899   2.396   7.529 -0.9198  0.6929 -0.8209
 1735SOL     OW16663   2.926   0.124   7.812 -0.1973 -0.5213  0.2140
 1735SOL    HW116664   2.908   0.071   7.890 -0.2709 -0.5554  0.1734
 1735SOL    HW216665   2.966   0.201   7.853 -0.0432  0.5588 -1.9814
 1736SOL     OW16666   3.357   2.713  10.771 -0.3805 -0.3243  0.1584
 1736SOL    HW116667   3.334   2.638  10.826  0.5166 -2.8760 -2.9338
 1736SOL    HW216668   3.452   2.718  10.784 -0.1174  1.3134 -2.4305
 1737SOL     OW16669   3.602   3.800  15.280  0.7778 -0.1454 -0.2572
 1737SOL    HW116670   3.595   3.782  15.187 -1.4390 -0.4393 -0.0386
 1737SOL    HW216671   3.600   3.895  15.276  1.3051 -0.0570  1.3823
 1738SOL     OW16672   2.940   1.429  10.449 -0.0697 -0.4197  0.1176
 1738SOL    HW116673   2.886   1.501  10.483 -0.4954 -0.1162 -1.1781
 1738SOL    HW216674   2.913   1.433  10.357  3.7259  1.2336 -0.9220
 1739SOL     OW16675   1.975   2.084   4.847  0.3576  0.0552  0.3518
 1739SOL    HW116676   2.053   2.036   4.874  0.2096 -1.9568 -2.9446
 1739SOL    HW216677   1.978   2.071   4.753 -0.9698 -2.2476  0.6196
 1740SOL     OW16678   0.218   4.173  11.595 -0.4110 -0.2641  0.0261
 1740SOL    HW116679   0.190   4.187  11.504  2.8981  0.6670 -0.8672
 1740SOL    HW216680   0.204   4.079  11.607 -0.8816 -0.1360  0.4521
 1741SOL     OW16681   4.287   2.464  16.475 -1.0426 -0.0171 -0.1979
 1741SOL    HW116682   4.309   2.535  16.414  1.2850  0.6243  1.3951
 1741SOL    HW216683   4.327   2.386  16.437  1.3357  1.7771 -1.4364
 1742SOL     OW16684   4.257   3.288   1.642 -0.7412  0.0730  0.4725
 1742SOL    HW116685   4.257   3.320   1.552 -0.1393  1.0924  0.8361
 1742SOL    HW216686   4.173   3.242   1.641 -1.2504  1.0417 -1.4173
 1743SOL     OW16687   2.822   0.096  13.234 -0.2313  0.2530  0.1975
 1743SOL    HW116688   2.777   0.142  13.305  0.0198  0.7496  0.0391
 1743SOL    HW216689   2.792   0.137  13.153  0.9841  0.3319 -0.2065
 1744SOL     OW16690   1.611   1.085   7.476  0.3639 -0.4393  0.2673
 1744SOL    HW116691   1.576   1.155   7.532  0.2702 -0.5101  0.2961
 1744SOL    HW216692   1.664   1.135   7.414 -2.4250  2.3753  0.1474
 1745SOL     OW16693   2.326   1.491   4.497  0.7328  0.5320 -0.2427
 1745SOL    HW116694   2.417   1.478   4.522 -0.2685 -3.2731  1.4812
 1745SOL    HW216695   2.324   1.453   4.409 -3.4103 -0.9528  0.5049
 1746SOL     OW16696   2.459   0.862  10.198 -0.2863  0.1342 -0.2651
 1746SOL    HW116697   2.487   0.844  10.287 -0.0953 -2.0085 -0.7698
 1746SOL    HW216698   2.458   0.772  10.166 -0.5858 -0.3986  1.2912
 1747SOL     OW16699   0.718   1.196   0.058 -0.0507  0.5203 -0.4290
 1747SOL    HW116700   0.717   1.292   0.060 -1.7779  0.5203 -1.7102
 1747SOL    HW216701   0.698   1.180   0.150  0.4872  0.2485 -0.3622
 1748SOL     OW16702   3.355   4.628   4.995  0.0146  0.5936 -0.3782
 1748SOL    HW116703   3.410   4.556   4.965  0.9470  0.5554  1.4292
 1748SOL    HW216704   3.391   4.640   5.083  1.7635 -1.0619 -0.8865
 1749SOL     OW16705   1.704   0.940  13.613  0.0484  0.2765 -0.1705
 1749SOL    HW116706   1.687   0.947  13.519  0.6208 -1.0583 -0.3778
 1749SOL    HW216707   1.663   0.856  13.630  1.9869 -0.9318 -1.4135
 1750SOL     OW16708   3.382   3.639   3.801 -0.4795  0.2963  0.6625
 1750SOL    HW116709   3.475   3.659   3.813 -0.1268 -1.5085  0.8870
 1750SOL    HW216710   3.359   3.725   3.767  1.8408  0.6696  0.0171
 1751SOL     OW16711   1.528   1.029   5.104  0.6900  0.2183 -0.1457
 1751SOL    HW116712   1.541   1.068   5.190  1.6181 -0.3585 -0.0167
 1751SOL    HW216713   1.597   0.962   5.097 -1.4783 -1.9859 -0.3805
 1752SOL     OW16714   2.371   1.622   8.014  0.1016 -0.0445  0.5222
 1752SOL    HW116715   2.357   1.707   8.056 -0.7383 -0.4135  0.9853
 1752SOL    HW216716   2.359   1.560   8.086  0.2140 -2.9448 -1.9507
 1753SOL     OW16717   4.188   2.734   2.560  0.6744 -0.1558  0.6176
 1753SOL    HW116718   4.273   2.699   2.586  0.5919 -0.9963 -0.2574
 1753SOL    HW216719   4.132   2.657   2.567  0.6940 -0.2728 -0.4866
 1754SOL     OW16720   1.559   1.198  10.716 -0.3374  0.6420  0.7038
 1754SOL    HW116721   1.612   1.145  10.656 -1.8783 -1.1943  0.9714
 1754SOL    HW216722   1.550   1.277  10.663  1.1971  1.0818  1.0815
 1755SOL     OW16723   1.702   3.666  12.492 -0.7020 -0.7059 -0.0636
 1755SOL    HW116724   1.635   3.598  12.504 -0.3629 -1.4113 -2.2203
 1755SOL    HW216725   1.754   3.657  12.571  0.8506 -3.6214 -1.4325
 1756SOL     OW16726   1.114   1.176   8.410  0.2667 -0.7154  0.1839
 1756SOL    HW116727   1.125   1.081   8.413  0.4780 -0.6443  1.4835
 1756SOL    HW216728   1.027   1.181   8.451 -0.4613  1.2063 -1.5742
 1757SOL     OW16729   3.325   2.552  17.583 -0.9320 -0.1205 -0.0437
 1757SOL    HW116730   3.372   2.509  17.655  0.5359  2.1326  0.3438
 1757SOL    HW216731   3.297   2.633  17.627  2.9312  1.7162 -0.9134
 1758SOL     OW16732   3.596   2.640  14.658  0.4525 -0.2607  0.3497
 1758SOL    HW116733   3.590   2.687  14.575  0.9073 -1.3744 -0.3117
 1758SOL    HW216734   3.655   2.696  14.708 -0.5127  1.5429 -0.5581
 1759SOL     OW16735   1.069   3.997  11.184 -0.2560 -0.1043  0.7219
 1759SOL    HW116736   1.120   4.029  11.110  0.2665 -0.6774  0.8362
 1759SOL    HW216737   1.076   3.902  11.169 -1.5392  0.0799 -0.9537
 1760SOL     OW16738   2.295   3.154   3.833 -0.1305 -0.1644  0.0419
 1760SOL    HW116739   2.341   3.224   3.878 -1.0407  1.0411 -0.9087
 1760SOL    HW216740   2.201   3.173   3.836 -0.2221 -0.2295 -2.2527
 1761SOL     OW16741   2.770   1.145   9.478  0.4535  0.1133  0.1851
 1761SOL    HW116742   2.809   1.193   9.405 -0.8470 -0.3682 -0.8251
 1761SOL    HW216743   2.813   1.060   9.485 -1.6045 -0.8359  1.4308
 1762SOL     OW16744   1.190   2.970   4.075  0.4783 -0.3625  0.1787
 1762SOL    HW116745   1.211   3.062   4.092  0.1789 -0.1764 -0.4654
 1762SOL    HW216746   1.274   2.925   4.066 -0.2369 -1.6526  0.0637
 1763SOL     OW16747   2.445   4.130   3.894 -0.1806 -0.2359  0.4288
 1763SOL    HW116748   2.526   4.086   3.867 -1.3600 -2.8783  1.1662
 1763SOL    HW216749   2.389   4.056   3.919 -0.9942  0.4392  0.6047
 1764SOL     OW16750   1.554   3.003  11.779 -0.4603  0.5168 -0.0031
 1764SOL    HW116751   1.486   3.056  11.737 -1.9786 -1.0448  0.5274
 1764SOL    HW216752   1.596   2.991  11.694  0.4295  2.1676  0.1929
 1765SOL     OW16753   1.368   1.746   4.893  0.0431 -0.5353  0.2436
 1765SOL    HW116754   1.402   1.815   4.950  0.9279  0.8109 -1.8754
 1765SOL    HW216755   1.443   1.740   4.832  1.4675 -1.4467  2.1022
 1766SOL     OW16756   2.192   0.337   6.316 -0.1849  0.3502 -0.6345
 1766SOL    HW116757   2.097   0.328   6.324 -0.2116  0.3433 -0.9715
 1766SOL    HW216758   2.207   0.358   6.224 -0.6202 -1.0440 -1.0111
 1767SOL     OW16759   2.341   2.318   6.104 -0.1819  0.4517  0.9099
 1767SOL    HW116760   2.377   2.403   6.076  1.9558 -1.0634 -1.0057
 1767SOL    HW216761   2.266   2.347   6.155 -0.0825  2.7828 -0.2786
 1768SOL     OW16762   1.866   0.698  13.174  0.0079  0.0410 -0.3870
 1768SOL    HW116763   1.925   0.662  13.108  1.9395  0.0682  1.3266
 1768SOL    HW216764   1.876   0.793  13.166  3.5166 -0.3121 -0.3849
 1769SOL     OW16765   4.394   0.184   9.058  0.0038 -0.2619 -0.1320
 1769SOL    HW116766   4.474   0.216   9.018  0.5591 -1.6414 -0.1299
 1769SOL    HW216767   4.399   0.091   9.037  1.0777 -0.0674 -0.7095
 1770SOL     OW16768   0.151   0.544   8.064  0.2908 -0.3327 -0.3267
 1770SOL    HW116769   0.235   0.590   8.061 -0.2618  0.8128  2.2785
 1770SOL    HW216770   0.117   0.579   8.146  0.1696 -1.9017  0.2838
 1771SOL     OW16771   4.542   3.427   1.536  0.0453 -0.1025  0.1276
 1771SOL    HW116772   4.454   3.398   1.512 -0.4610  0.7516  0.9665
 1771SOL    HW216773   4.571   3.353   1.591  1.1107  1.3920  1.5597
 1772SOL     OW16774   0.819   4.121   2.498  0.0702 -0.2973 -0.2345
 1772SOL    HW116775   0.786   4.192   2.443  1.0268  1.4219  1.3957
 1772SOL    HW216776   0.898   4.164   2.531 -1.3573  0.4273  2.2297
 1773SOL     OW16777   2.781   4.233   3.792 -0.4094 -0.1626  0.1922
 1773SOL    HW116778   2.783   4.310   3.735  0.4320  0.1068  0.5850
 1773SOL    HW216779   2.851   4.240   3.857  0.0642  1.3483 -0.4793
 1774SOL     OW16780   4.537   1.320   3.318 -0.3736  0.4528  0.3507
 1774SOL    HW116781   4.578   1.247   3.273 -2.1242  0.4637 -1.2478
 1774SOL    HW216782   4.461   1.327   3.261 -1.0676  0.1248  1.2306
 1775SOL     OW16783   2.374   3.240   0.392  0.5410 -0.7959  0.1713
 1775SOL    HW116784   2.375   3.150   0.359 -0.8830 -1.3025  1.5057
 1775SOL    HW216785   2.423   3.237   0.475  0.3954  2.1272  0.3413
 1776SOL     OW16786   3.145   3.660   7.681 -0.1415  0.0306  0.1918
 1776SOL    HW116787   3.114   3.594   7.619 -1.4530  1.6557 -0.8779
 1776SOL    HW216788   3.157   3.614   7.765 -0.1333 -0.6631 -0.1909
 1777SOL     OW16789   4.461   0.280   4.344  0.0055 -0.1723  0.2446
 1777SOL    HW116790   4.384   0.335   4.363  0.1966  1.5947 -4.2245
 1777SOL    HW216791   4.443   0.206   4.402  2.0664 -0.7525  0.1374
 1778SOL     OW16792   2.041   2.832   0.235  0.2818  0.3092  0.3419
 1778SOL    HW116793   2.120   2.781   0.248 -0.8888 -1.5947  0.0011
 1778SOL    HW216794   1.979   2.776   0.188  1.0695  0.0721 -0.4234
 1779SOL     OW16795   0.924   2.909  13.715  0.3148  0.1026 -0.0792
 1779SOL    HW116796   0.987   2.918  13.643 -0.4960  1.7445 -0.5786
 1779SOL    HW216797   0.987   2.909  13.788  0.9634 -0.5219 -0.6388
 1780SOL     OW16798   4.362   3.953   6.987 -0.1730 -0.4618  0.3342
 1780SOL    HW116799   4.292   3.995   6.937  0.2884 -1.2889 -0.9904
 1780SOL    HW216800   4.393   3.883   6.930  0.3861  0.5466 -0.5947
 1781SOL     OW16801   3.892   4.725   7.817 -0.7225  0.2406 -0.2907
 1781SOL    HW116802   3.830   4.702   7.886  0.4372  0.8266  0.9393
 1781SOL    HW216803   3.907   4.644   7.768 -0.2455  1.1044 -1.5855
 1782SOL     OW16804   3.499   2.881   1.782  0.4029  0.0115 -0.1798
 1782SOL    HW116805   3.409   2.857   1.807  0.3263 -1.6503 -2.0795
 1782SOL    HW216806   3.476   2.952   1.723 -0.3342  1.0702  1.3781
 1783SOL     OW16807   1.254   3.779  13.232 -0.1372  1.1550 -0.1329
 1783SOL    HW116808   1.308   3.767  13.309 -1.3880 -1.4416  0.3429
 1783SOL    HW216809   1.322   3.811  13.173  1.1008 -1.4451 -0.1039
 1784SOL     OW16810   4.300   3.394   1.392  1.3118  0.0199  0.1282
 1784SOL    HW116811   4.360   3.440   1.334  1.0267  1.6916  1.1533
 1784SOL    HW216812   4.226   3.394   1.331 -0.6850 -1.9893  2.5212
 1785SOL     OW16813   2.289   4.632   5.588 -0.3497 -0.1425  0.2658
 1785SOL    HW116814   2.200   4.595   5.585 -0.7014  0.8243 -1.0892
 1785SOL    HW216815   2.269   0.001   5.585 -1.4847 -0.3421  1.2593
 1786SOL     OW16816   4.057   2.494   2.609 -0.1331  0.0592  0.2152
 1786SOL    HW116817   4.141   2.448   2.609  0.3850  1.0024 -0.5344
 1786SOL    HW216818   4.014   2.448   2.537  0.5263  0.0253 -0.1593
 1787SOL     OW16819   4.320   3.621   7.210 -0.1870 -0.4441 -0.7625
 1787SOL    HW116820   4.226   3.601   7.212 -0.4310  0.7969 -0.1162
 1787SOL    HW216821   4.320   3.716   7.218 -1.2196 -0.4849 -0.2188
 1788SOL     OW16822   0.267   1.942   8.750 -0.2493  0.0444  0.8322
 1788SOL    HW116823   0.219   2.024   8.758  0.1245  0.1741  1.7113
 1788SOL    HW216824   0.228   1.880   8.812 -1.3882 -0.4404 -0.3524
 1789SOL     OW16825   2.960   1.686   0.159 -0.1329 -0.6422 -0.0709
 1789SOL    HW116826   2.915   1.646   0.084 -0.3492 -1.5734  0.5516
 1789SOL    HW216827   2.889   1.689   0.222 -1.0041  1.3025 -1.1493
 1790SOL     OW16828   0.618   4.701  16.986  0.1785 -0.4562 -0.0350
 1790SOL    HW116829   0.562   4.671  16.914  0.7224 -0.5768 -0.4004
 1790SOL    HW216830   0.601   4.633  17.052 -0.4793  0.3085  0.5959
 1791SOL     OW16831   2.745   2.023  17.422 -0.4193 -0.4881 -0.2727
 1791SOL    HW116832   2.732   2.032  17.327  2.8052  1.1268 -0.5522
 1791SOL    HW216833   2.795   2.105  17.422 -1.5114  0.1740  1.8816
 1792SOL     OW16834   4.637   0.313   8.833  0.4703 -0.4768 -0.1504
 1792SOL    HW116835   4.664   0.222   8.843 -1.4301 -1.0396 -0.1519
 1792SOL    HW216836   4.718   0.353   8.865  1.0638 -1.2733 -0.6535
 1793SOL     OW16837   1.141   0.122   9.626 -0.6418  0.3018 -0.6158
 1793SOL    HW116838   1.167   0.183   9.557 -0.4043  1.2417  0.3103
 1793SOL    HW216839   1.230   0.094   9.648 -0.9079 -1.8589 -2.2822
 1794SOL     OW16840   3.055   0.999   7.595 -0.0910  0.7834 -0.7155
 1794SOL    HW116841   3.140   1.039   7.615 -0.1351  1.6247 -2.2355
 1794SOL    HW216842   3.031   0.974   7.685  2.2064 -2.4517 -1.0091
 1795SOL     OW16843   0.562   1.157   4.155 -0.0657 -0.4730 -0.5442
 1795SOL    HW116844   0.466   1.163   4.147 -0.3408 -3.5270  0.4901
 1795SOL    HW216845   0.569   1.126   4.065 -1.6491 -2.1782 -0.0851
 1796SOL     OW16846   2.451   3.813   5.593 -0.5823 -0.0187 -0.4898
 1796SOL    HW116847   2.467   3.831   5.686 -2.9051 -1.6641  0.2189
 1796SOL    HW216848   2.540   3.834   5.563  0.4353 -4.2095 -0.4387
 1797SOL     OW16849   2.511   3.810   6.110 -0.4916 -0.2428 -0.6980
 1797SOL    HW116850   2.588   3.860   6.081  0.4021 -0.9786  0.4143
 1797SOL    HW216851   2.485   3.764   6.030 -1.4346  1.9460 -1.6647
 1798SOL     OW16852   0.977   4.217   9.611  0.5299  0.7433 -0.6157
 1798SOL    HW116853   0.899   4.272   9.599 -0.4847 -0.5387  0.1581
 1798SOL    HW216854   1.014   4.264   9.686 -1.1273  1.0678  0.0118
 1799SOL     OW16855   4.536   1.657   6.654  0.3169  0.3358  0.9187
 1799SOL    HW116856   4.493   1.620   6.577 -1.4083 -0.2371  2.1381
 1799SOL    HW216857   4.493   1.610   6.727 -0.0819  0.8351  1.0040
 1800SOL     OW16858   0.574   1.531   5.000  0.4593  0.3115  0.1957
 1800SOL    HW116859   0.558   1.511   4.907  0.2778  0.4817  0.1917
 1800SOL    HW216860   0.491   1.504   5.037 -0.0369  0.5987 -0.6937
 1801SOL     OW16861   3.746   3.512  11.040 -0.4668  0.1112 -0.1912
 1801SOL    HW116862   3.750   3.416  11.039 -0.0474  0.1040  2.5537
 1801SOL    HW216863   3.785   3.542  11.122 -0.8526 -0.8942  0.3599
 1802SOL     OW16864   0.477   1.473   4.731 -0.0941 -0.2423  0.1706
 1802SOL    HW116865   0.489   1.381   4.709  0.0583 -0.2604  0.3300
 1802SOL    HW216866   0.419   1.496   4.658 -0.2861 -1.4502 -0.0476
 1803SOL     OW16867   2.561   0.719  11.314  0.1097 -0.3517 -0.2485
 1803SOL    HW116868   2.509   0.745  11.238 -0.1126 -0.9955 -0.3175
 1803SOL    HW216869   2.565   0.802  11.361  0.1231 -1.3911  1.5758
 1804SOL     OW16870   0.068   1.318  14.700 -0.3384 -0.5452 -0.1531
 1804SOL    HW116871   0.016   1.363  14.766  1.2833  2.2498 -0.8144
 1804SOL    HW216872   0.131   1.385  14.675 -0.9430  1.2170  3.0126
 1805SOL     OW16873   1.175   4.061   7.067 -0.1234  0.0425  0.4644
 1805SOL    HW116874   1.119   3.988   7.041 -2.4768  1.7564  0.6754
 1805SOL    HW216875   1.155   4.123   6.997 -3.2131  0.7326  1.9225
 1806SOL     OW16876   1.200   0.658   2.864 -0.6181  0.1383  0.0037
 1806SOL    HW116877   1.253   0.698   2.933  0.0065  1.6441 -1.3473
 1806SOL    HW216878   1.180   0.573   2.903  0.9777 -1.1454 -1.9457
 1807SOL     OW16879   0.765   0.147   2.521 -0.0127 -0.0083 -0.4520
 1807SOL    HW116880   0.845   0.116   2.564 -0.7915 -0.5469  0.6025
 1807SOL    HW216881   0.716   0.181   2.595 -0.9061  1.4242 -1.6962
 1808SOL     OW16882   0.452   1.029   7.097 -0.0880 -0.6418  0.0225
 1808SOL    HW116883   0.422   1.016   7.007 -0.2235  0.4131 -0.0867
 1808SOL    HW216884   0.433   1.122   7.105  4.5506  0.3590 -0.5028
 1809SOL     OW16885   4.633   4.059   7.802  0.3231 -0.0510 -0.5831
 1809SOL    HW116886   4.561   4.115   7.774 -0.2610  0.1661  1.3781
 1809SOL    HW216887   4.583   4.021   7.874 -1.2942  1.2764 -1.0077
 1810SOL     OW16888   1.115   4.525   2.245 -0.1408 -0.2279 -0.2023
 1810SOL    HW116889   1.155   4.438   2.235 -0.9325 -0.7272  1.1032
 1810SOL    HW216890   1.138   4.548   2.335 -1.0401 -0.1995  0.0163
 1811SOL     OW16891   2.124   0.649   8.332 -0.3578  0.2290 -0.3467
 1811SOL    HW116892   2.068   0.727   8.333  0.0615  0.4957  1.5744
 1811SOL    HW216893   2.212   0.683   8.313  0.3160 -0.1477  2.1130
 1812SOL     OW16894   2.555   3.825  10.771  0.2858  0.0411  0.2551
 1812SOL    HW116895   2.483   3.859  10.824 -0.9965 -1.1201 -0.7550
 1812SOL    HW216896   2.579   3.747  10.820 -0.9917 -0.0952  0.6416
 1813SOL     OW16897   2.691   1.202  11.052 -0.4289 -0.6186 -0.1028
 1813SOL    HW116898   2.636   1.238  10.982  1.7096 -0.1856 -1.5534
 1813SOL    HW216899   2.718   1.128  10.999 -2.0835 -1.6201  0.4597
 1814SOL     OW16900   1.044   4.140   3.859  0.0213 -0.2536  0.2159
 1814SOL    HW116901   0.949   4.143   3.846  0.0022 -1.8785 -0.0570
 1814SOL    HW216902   1.058   4.117   3.767  1.0786 -2.3172  0.8967
 1815SOL     OW16903   4.166   0.962  10.427 -0.6147  0.3383 -0.1277
 1815SOL    HW116904   4.147   0.929  10.339 -1.2754  1.7239 -0.5065
 1815SOL    HW216905   4.080   0.996  10.453 -0.7384  0.8025 -1.1520
 1816SOL     OW16906   0.239   3.902  10.136  0.0129 -0.2129  0.5592
 1816SOL    HW116907   0.175   3.929  10.071  1.8751 -0.7891 -1.5185
 1816SOL    HW216908   0.216   3.965  10.205  1.3205 -1.0060  1.7270
 1817SOL     OW16909   3.347   1.617  14.240 -0.0932  0.0823 -0.0759
 1817SOL    HW116910   3.375   1.592  14.152 -0.2453 -0.5114  0.0434
 1817SOL    HW216911   3.410   1.681  14.272  2.4175 -2.9732  1.1681
 1818SOL     OW16912   0.387   4.302   7.652  0.4102  0.4253 -0.0859
 1818SOL    HW116913   0.392   4.393   7.622 -0.2709  0.4860 -0.0157
 1818SOL    HW216914   0.357   4.319   7.741 -0.1426 -0.7507 -0.0422
 1819SOL     OW16915   1.002   1.004   4.479  0.4499  0.0717  0.3710
 1819SOL    HW116916   0.966   1.034   4.396  0.4275 -1.9339 -0.3403
 1819SOL    HW216917   1.080   0.955   4.454 -1.0224 -1.1414 -1.8808
 1820SOL     OW16918   0.670   2.259  14.212  0.0289 -0.0223 -0.9396
 1820SOL    HW116919   0.743   2.309  14.249 -1.4276  0.1439  1.7286
 1820SOL    HW216920   0.604   2.329  14.204 -0.2226  0.0932  1.9060
 1821SOL     OW16921   4.242   3.590   5.157 -0.3136 -0.5345 -0.6219
 1821SOL    HW116922   4.156   3.630   5.170 -0.5372 -1.9699  2.3928
 1821SOL    HW216923   4.223   3.502   5.188 -2.3355  0.4527  1.0345
 1822SOL     OW16924   3.646   0.519   8.002  0.0254  0.0454  0.3561
 1822SOL    HW116925   3.569   0.565   7.970 -0.1256 -0.5598 -0.1529
 1822SOL    HW216926   3.617   0.430   7.982 -0.9005  0.6275 -0.9139
 1823SOL     OW16927   2.089   0.117   9.524  0.2932 -0.3110  0.0243
 1823SOL    HW116928   2.076   0.192   9.467 -2.4735  0.5974  1.8418
 1823SOL    HW216929   2.138   0.148   9.601  0.0004  2.0529 -0.7542
 1824SOL     OW16930   1.384   2.486   0.669 -0.0475  0.0335  0.3452
 1824SOL    HW116931   1.331   2.428   0.614  0.3227  1.1847 -1.2299
 1824SOL    HW216932   1.462   2.500   0.616 -0.9572  1.7286 -0.5528
 1825SOL     OW16933   3.058   0.788   1.404 -0.2801  0.2976  0.1503
 1825SOL    HW116934   2.980   0.837   1.379 -0.6363 -0.4096 -0.1172
 1825SOL    HW216935   3.010   0.722   1.455 -0.6623  1.2862  1.0821
 1826SOL     OW16936   1.311   0.797   4.811  0.1207  0.4090 -0.3341
 1826SOL    HW116937   1.253   0.838   4.875 -2.5238 -1.7595 -1.3425
 1826SOL    HW216938   1.254   0.772   4.738 -1.0907 -0.5606  0.9540
 1827SOL     OW16939   0.006   4.097   6.105  0.3419  0.1083  0.0332
 1827SOL    HW116940   0.088   4.101   6.154  1.9654 -0.5629 -2.6763
 1827SOL    HW216941   4.697   4.181   6.136 -0.5046 -0.1661 -0.1371
 1828SOL     OW16942   0.151   3.531  17.321 -0.3483 -0.1659  0.2204
 1828SOL    HW116943   0.155   3.475  17.243  1.8247  0.4337 -0.0951
 1828SOL    HW216944   0.062   3.514  17.351 -1.1634  1.4507 -1.2545
 1829SOL     OW16945   0.485   3.735   4.566  0.6419  0.1935 -0.5210
 1829SOL    HW116946   0.464   3.685   4.487 -1.0483 -1.9675  1.2880
 1829SOL    HW216947   0.512   3.657   4.615  0.3912  1.4670  1.6030
 1830SOL     OW16948   0.061   2.611   7.816 -0.3820 -0.3478 -0.6074
 1830SOL    HW116949   0.059   2.704   7.792  0.8800 -0.1267  0.1747
 1830SOL    HW216950   0.115   2.613   7.895  2.2834  3.6930 -2.5371
 1831SOL     OW16951   3.295   0.792   2.073 -0.5134  0.5084  0.5444
 1831SOL    HW116952   3.381   0.811   2.111 -1.8728  0.2680  3.6705
 1831SOL    HW216953   3.252   0.878   2.074 -3.1658 -0.8208 -0.6133
 1832SOL     OW16954   3.684   3.263  17.592  0.0907 -0.7939  0.7052
 1832SOL    HW116955   3.769   3.301  17.612 -0.3937 -0.3296  1.8839
 1832SOL    HW216956   3.688   3.186  17.649  1.3729 -1.0508  0.2560
 1833SOL     OW16957   0.986   3.992   8.055  0.8461  0.5747  0.4968
 1833SOL    HW116958   0.894   3.980   8.033  1.4788 -1.1969 -1.2836
 1833SOL    HW216959   1.001   3.902   8.085  2.6906  0.6903 -0.0923
 1834SOL     OW16960   0.492   3.864   2.168 -0.5069  0.2375  0.7205
 1834SOL    HW116961   0.435   3.919   2.113 -0.9448 -1.1211 -0.1827
 1834SOL    HW216962   0.436   3.855   2.245 -2.6414  0.8037 -0.7642
 1835SOL     OW16963   4.679   1.980   7.454  0.6122  0.3133 -0.8460
 1835SOL    HW116964   0.046   2.007   7.448  1.2588 -1.3372  1.7025
 1835SOL    HW216965   4.670   1.935   7.371  2.3100  0.0745 -0.8964
 1836SOL     OW16966   4.607   0.945   8.991  0.4192 -0.2412 -0.2688
 1836SOL    HW116967   4.533   0.900   8.951  1.1700 -0.2472 -1.6424
 1836SOL    HW216968   4.671   0.910   8.929  0.2209 -1.5137  0.2532
 1837SOL     OW16969   3.585   1.895   7.392  0.0791 -0.0499 -0.5382
 1837SOL    HW116970   3.604   1.922   7.302 -1.2470  1.3576 -0.3980
 1837SOL    HW216971   3.625   1.958   7.453  1.4083 -2.4146  1.0399
 1838SOL     OW16972   2.138   0.807   7.010  0.0158  0.3987 -0.0379
 1838SOL    HW116973   2.124   0.887   7.062  1.4853 -0.3411  1.4786
 1838SOL    HW216974   2.217   0.822   6.958  1.5281 -0.9615  1.8960
 1839SOL     OW16975   1.082   1.538  15.759  0.9923 -0.5798  0.4406
 1839SOL    HW116976   1.021   1.465  15.746  1.0702 -0.9049  1.9151
 1839SOL    HW216977   1.085   1.576  15.671 -1.0576 -0.2828  0.4996
 1840SOL     OW16978   0.557   3.704  10.169  0.3209  0.2188 -0.3056
 1840SOL    HW116979   0.540   3.737  10.257 -0.6610 -0.9492 -0.0502
 1840SOL    HW216980   0.607   3.623  10.180  2.3450  1.3180 -1.4189
 1841SOL     OW16981   3.412   3.372   3.793 -0.5052  0.0650 -0.2867
 1841SOL    HW116982   3.403   3.337   3.881  4.6530 -1.8124 -0.5141
 1841SOL    HW216983   3.403   3.466   3.809  1.1623  0.2217 -0.3075
 1842SOL     OW16984   2.262   2.381   3.185 -0.3427  0.2858  0.7901
 1842SOL    HW116985   2.229   2.428   3.109  0.5340 -1.6318 -0.7711
 1842SOL    HW216986   2.241   2.448   3.251  0.9110  1.8621 -0.4031
 1843SOL     OW16987   2.579   3.865   6.723 -0.3403 -0.0413  0.0101
 1843SOL    HW116988   2.493   3.905   6.734  0.3837  1.4104  0.4833
 1843SOL    HW216989   2.603   3.917   6.646  3.8599 -0.9989  0.6752
 1844SOL     OW16990   1.468   2.280  12.525 -0.0738 -0.2562  0.0043
 1844SOL    HW116991   1.375   2.290  12.504  0.7344  0.8546 -3.0778
 1844SOL    HW216992   1.491   2.209  12.465  0.7186 -1.3975  1.6602
 1845SOL     OW16993   3.553   1.534   0.536  0.3583  0.3963 -0.2445
 1845SOL    HW116994   3.612   1.459   0.551 -0.2193  0.1250  0.6583
 1845SOL    HW216995   3.579   1.556   0.446 -0.7431 -2.6254 -1.3085
 1846SOL     OW16996   3.104   2.779  10.041 -0.3210 -0.1062  0.4443
 1846SOL    HW116997   3.056   2.831  10.105 -0.4380  1.2495 -0.7474
 1846SOL    HW216998   3.030   2.733  10.001  0.8521 -0.8532 -0.8774
 1847SOL     OW16999   0.230   2.708   4.587 -0.2377  0.1772  0.3024
 1847SOL    HW117000   0.216   2.797   4.556 -1.1877 -0.5205 -1.2569
 1847SOL    HW217001   0.299   2.689   4.525  0.4550  4.1918 -0.1396
 1848SOL     OW17002   3.888   4.525   1.365 -0.1210 -0.0400  0.2561
 1848SOL    HW117003   3.896   4.498   1.456  1.1994  2.0244  0.7498
 1848SOL    HW217004   3.796   4.553   1.367  0.2104  1.2349 -1.5026
 1849SOL     OW17005   2.000   3.547   6.636  0.1400 -0.1277 -0.3337
 1849SOL    HW117006   1.974   3.507   6.553 -2.0322 -1.7804  1.1497
 1849SOL    HW217007   1.955   3.479   6.687 -1.2722  0.4958 -0.7496
 1850SOL     OW17008   4.582   3.985   1.322  0.1211  0.2051 -0.1645
 1850SOL    HW117009   4.495   3.945   1.314 -0.1875  1.0148 -0.8425
 1850SOL    HW217010   4.575   4.031   1.239  1.5273 -0.6675 -0.7569
 1851SOL     OW17011   3.095   3.767   7.203 -0.2330 -0.0447  0.3807
 1851SOL    HW117012   3.006   3.742   7.230 -0.5575 -0.3332 -0.9371
 1851SOL    HW217013   3.096   3.862   7.194 -0.2191 -0.1861 -1.0585
 1852SOL     OW17014   0.568   1.627   4.191 -0.3806  0.3963  0.2199
 1852SOL    HW117015   0.543   1.567   4.120  0.8616 -0.3763  0.4475
 1852SOL    HW217016   0.639   1.588   4.242 -1.4608 -1.0460  0.6159
 1853SOL     OW17017   1.818   4.148   7.610 -0.0176 -0.3996 -0.6055
 1853SOL    HW117018   1.832   4.061   7.572  0.8074 -0.1967 -0.7584
 1853SOL    HW217019   1.754   4.120   7.675  1.4814 -0.5677  0.7857
 1854SOL     OW17020   1.175   2.061   6.746 -0.3880 -0.7095 -0.3155
 1854SOL    HW117021   1.181   2.121   6.821  0.8656  0.6031 -1.4787
 1854SOL    HW217022   1.082   2.055   6.728 -0.4001  1.1715 -0.8692
 1855SOL     OW17023   0.129   0.503  15.450  0.3780  0.0720  0.5064
 1855SOL    HW117024   0.152   0.571  15.387 -1.4214  1.2540  1.1287
 1855SOL    HW217025   0.197   0.503  15.518 -0.4658 -0.3916  1.3430
 1856SOL     OW17026   0.732   4.305  17.067 -0.6326  0.1171  0.4373
 1856SOL    HW117027   0.786   4.364  17.121  0.1959  0.9856 -1.3385
 1856SOL    HW217028   0.674   4.269  17.134 -0.8472 -1.0368 -0.3844
 1857SOL     OW17029   0.845   3.255   5.226  0.1194  0.3368 -0.1082
 1857SOL    HW117030   0.883   3.200   5.158  1.3866  0.7201  0.3050
 1857SOL    HW217031   0.919   3.286   5.277  1.1336 -0.0768 -1.3453
 1858SOL     OW17032   1.801   1.166   5.678  0.0350  0.2241  0.6316
 1858SOL    HW117033   1.791   1.073   5.697 -0.3447  0.6871  2.7418
 1858SOL    HW217034   1.888   1.176   5.716 -0.2893 -0.9033  1.6625
 1859SOL     OW17035   1.860   0.199   5.235  0.2034  0.2018  0.4602
 1859SOL    HW117036   1.942   0.244   5.214 -0.1842  1.2463  1.1757
 1859SOL    HW217037   1.809   0.263   5.285 -1.1321  0.1942 -0.8918
 1860SOL     OW17038   4.163   3.109   2.945  0.2195 -0.1901  0.3205
 1860SOL    HW117039   4.204   3.149   3.021  2.1087 -1.9576  0.2535
 1860SOL    HW217040   4.103   3.044   2.980  0.4670 -0.3942  0.3684
 1861SOL     OW17041   1.032   1.216   5.036 -0.2250  0.3876 -0.0500
 1861SOL    HW117042   1.103   1.275   5.012  1.2349 -1.4798 -0.3411
 1861SOL    HW217043   0.952   1.269   5.035  0.0353  0.7782  0.1292
 1862SOL     OW17044   3.737   0.746   9.178  0.4243 -0.3830 -0.0855
 1862SOL    HW117045   3.785   0.770   9.258 -0.8490  1.3371  0.1705
 1862SOL    HW217046   3.659   0.696   9.202 -0.7327  1.8648  0.8726
 1863SOL     OW17047   3.965   4.307  17.080  0.5161 -0.7462 -0.5872
 1863SOL    HW117048   4.015   4.269  17.007  1.5621 -0.6260  0.0790
 1863SOL    HW217049   3.874   4.314  17.049  0.5237  2.3697  0.1247
 1864SOL     OW17050   3.557   1.770   5.534  0.1427 -0.1402 -0.2057
 1864SOL    HW117051   3.570   1.814   5.618  0.1732 -1.4451  0.4582
 1864SOL    HW217052   3.468   1.750   5.560  0.5170  0.6768  1.7004
 1865SOL     OW17053   4.510   0.039  10.042 -0.1564 -0.3178  0.6035
 1865SOL    HW117054   4.509   0.132  10.065  0.6096  0.0048 -0.6603
 1865SOL    HW217055   4.593   0.017  10.084 -1.3756 -1.1443  2.5451
 1866SOL     OW17056   2.231   2.456  12.239  0.2855 -0.3304  0.0429
 1866SOL    HW117057   2.249   2.447  12.333 -0.4017  1.2275  0.3164
 1866SOL    HW217058   2.243   2.365  12.213 -1.5348 -0.9622  1.3717
 1867SOL     OW17059   3.983   2.298  13.503  0.5827 -0.1870  0.0584
 1867SOL    HW117060   4.058   2.355  13.485 -0.9312  1.8226  0.0383
 1867SOL    HW217061   3.936   2.305  13.419  1.5122  2.1095 -0.2754
 1868SOL     OW17062   1.155   3.204   4.718  0.1340 -0.0190 -0.5265
 1868SOL    HW117063   1.208   3.284   4.718 -0.6937  0.5404  1.0604
 1868SOL    HW217064   1.186   3.170   4.802 -0.9742 -3.6083 -1.5948
 1869SOL     OW17065   0.642   4.348   5.590 -0.5622  0.8031  0.0985
 1869SOL    HW117066   0.629   4.422   5.649  1.7499  1.2308  0.0327
 1869SOL    HW217067   0.547   4.334   5.586 -0.6124  0.8802  1.1584
 1870SOL     OW17068   2.070   1.862  11.876  0.7495 -0.0014  0.4077
 1870SOL    HW117069   2.118   1.813  11.809 -3.1769 -0.3360 -2.1754
 1870SOL    HW217070   2.043   1.942  11.832  1.3193  0.5493  1.0609
 1871SOL     OW17071   0.562   1.808   1.805  0.0767  0.4030 -0.0981
 1871SOL    HW117072   0.579   1.879   1.866  0.0940  1.6221 -1.5122
 1871SOL    HW217073   0.646   1.795   1.761 -1.0114 -0.8802 -1.8205
 1872SOL     OW17074   0.939   1.655   3.566  0.1195  0.1711 -0.4038
 1872SOL    HW117075   0.942   1.586   3.500 -1.4806 -1.7399  1.4950
 1872SOL    HW217076   0.908   1.727   3.511 -0.5440 -0.4673 -0.8641
 1873SOL     OW17077   1.925   0.922   6.603 -0.3170  0.0437  0.1481
 1873SOL    HW117078   1.847   0.913   6.658 -2.0327  0.6716 -2.1907
 1873SOL    HW217079   1.906   0.858   6.535 -1.5939 -0.4889  1.0050
 1874SOL     OW17080   4.380   0.690  12.815 -0.4434  0.1141  0.0964
 1874SOL    HW117081   4.329   0.638  12.877  0.2974  0.4394  0.9867
 1874SOL    HW217082   4.443   0.735  12.871 -0.8811  0.3751  0.3684
 1875SOL     OW17083   4.255   3.197   4.804  0.0359 -0.1643  0.1409
 1875SOL    HW117084   4.292   3.176   4.718 -0.2283  0.4431 -0.1169
 1875SOL    HW217085   4.228   3.111   4.836 -0.8547  0.0195 -0.1310
 1876SOL     OW17086   4.324   1.423   2.999  0.5854  0.0141 -0.0040
 1876SOL    HW117087   4.303   1.370   3.077 -1.0516 -1.2511 -1.2889
 1876SOL    HW217088   4.419   1.424   2.996  0.6251  1.7259  1.7416
 1877SOL     OW17089   4.208   0.706  11.529  0.2898  0.1218 -0.1162
 1877SOL    HW117090   4.206   0.693  11.624 -0.6112 -2.4609 -0.5078
 1877SOL    HW217091   4.170   0.792  11.513 -0.1750 -0.0178  0.2235
 1878SOL     OW17092   4.242   3.092   0.240  0.5283  0.0900 -0.1760
 1878SOL    HW117093   4.192   3.074   0.319  0.9334 -2.8687 -0.5964
 1878SOL    HW217094   4.319   3.132   0.280  2.0416 -1.9637 -1.0298
 1879SOL     OW17095   1.655   0.679   6.822  0.4055  0.0814 -0.5629
 1879SOL    HW117096   1.570   0.637   6.817  0.8248 -1.0077  1.4156
 1879SOL    HW217097   1.714   0.617   6.777  1.9462 -0.7217  2.5581
 1880SOL     OW17098   2.043   1.588   0.560 -0.0771  0.2322 -0.0882
 1880SOL    HW117099   1.971   1.554   0.614 -0.5100  1.4883  0.1357
 1880SOL    HW217100   2.124   1.570   0.606 -0.3583 -0.8902 -0.0344
 1881SOL     OW17101   4.132   4.296   6.551 -0.4916  0.7581  0.2611
 1881SOL    HW117102   4.206   4.296   6.612 -0.3199  1.7078  0.0505
 1881SOL    HW217103   4.081   4.216   6.564 -0.8280  0.8517 -0.4931
 1882SOL     OW17104   2.409   2.386  15.133  0.4028 -0.7419  0.2904
 1882SOL    HW117105   2.332   2.358  15.183  0.4830  1.6565  1.7634
 1882SOL    HW217106   2.464   2.418  15.204  0.6761  2.0624 -1.1584
 1883SOL     OW17107   3.462   4.294   9.674 -0.4007  0.1799  0.2608
 1883SOL    HW117108   3.506   4.364   9.626  0.9108 -0.0420  1.1508
 1883SOL    HW217109   3.529   4.260   9.733  0.1030  1.3290  0.3367
 1884SOL     OW17110   1.786   0.470   5.853  0.1523  0.0065  0.0566
 1884SOL    HW117111   1.858   0.415   5.823 -0.7978 -0.9649 -0.4690
 1884SOL    HW217112   1.799   0.534   5.782 -1.2920 -1.3602 -1.4363
 1885SOL     OW17113   2.045   3.585   4.650 -0.0612 -0.1184 -0.3155
 1885SOL    HW117114   2.000   3.521   4.594  1.8754  0.5841 -2.6648
 1885SOL    HW217115   2.127   3.542   4.672 -1.4978 -2.4897  0.4421
 1886SOL     OW17116   0.945   2.573   8.186 -0.0871  0.4355  0.1991
 1886SOL    HW117117   0.891   2.649   8.209 -0.3218  0.0360  0.9971
 1886SOL    HW217118   0.923   2.561   8.094  2.1646 -1.8814 -0.0158
 1887SOL     OW17119   1.774   3.105   6.373 -0.1938 -0.2324 -0.2352
 1887SOL    HW117120   1.848   3.054   6.407  0.2413  0.0312 -0.7788
 1887SOL    HW217121   1.718   3.089   6.449  0.4801  2.3004  0.7730
 1888SOL     OW17122   0.085   4.625   7.382 -0.4351  0.4176  0.4123
 1888SOL    HW117123   0.089   4.720   7.390 -0.3453  0.4447  0.0073
 1888SOL    HW217124   0.136   4.601   7.305  1.8601  0.8739  1.7768
 1889SOL     OW17125   1.906   0.519   9.737 -0.3683  0.2110  0.5311
 1889SOL    HW117126   1.894   0.601   9.786 -0.4737  0.3250  0.3178
 1889SOL    HW217127   1.816   0.495   9.714  0.1709  2.1321 -3.5356
 1890SOL     OW17128   4.076   3.261   5.952  0.5316 -0.0535  0.3503
 1890SOL    HW117129   4.055   3.285   5.861  0.3736  0.0050  0.4017
 1890SOL    HW217130   4.021   3.319   6.005  0.3236 -0.9803  1.1477
 1891SOL     OW17131   4.498   0.627   3.348 -0.3332  0.1009 -0.0524
 1891SOL    HW117132   4.489   0.581   3.265  0.9320  0.0110 -0.1276
 1891SOL    HW217133   4.444   0.705   3.338  0.8377  0.6082 -2.3256
 1892SOL     OW17134   3.130   1.427   6.534  0.2818 -0.6824 -0.4912
 1892SOL    HW117135   3.151   1.368   6.462 -2.4921  0.0277 -1.8870
 1892SOL    HW217136   3.211   1.427   6.586 -2.1472  0.0977  3.2585
 1893SOL     OW17137   2.249   3.312  14.312 -0.3053 -0.0007  0.0576
 1893SOL    HW117138   2.291   3.396  14.292  0.1158 -0.3308 -0.4485
 1893SOL    HW217139   2.319   3.268  14.360 -0.8251 -0.8072  0.0864
 1894SOL     OW17140   0.783   4.179   9.372 -0.1442 -0.2134 -0.3824
 1894SOL    HW117141   0.862   4.151   9.418  0.7664 -0.4679 -2.1059
 1894SOL    HW217142   0.804   4.255   9.319 -0.3418  0.2827  0.2456
 1895SOL     OW17143   0.387   4.224   1.877  0.6641  0.0548  0.7140
 1895SOL    HW117144   0.404   4.130   1.885 -0.8883 -0.2413  0.6824
 1895SOL    HW217145   0.296   4.221   1.847  1.3764 -0.2612 -1.4071
 1896SOL     OW17146   4.633   2.734   8.311 -0.1299 -0.2736 -0.3272
 1896SOL    HW117147   4.602   2.712   8.399  1.8153 -1.1948  0.1199
 1896SOL    HW217148   4.712   2.680   8.306 -0.4133 -0.7643  0.4664
 1897SOL     OW17149   3.893   2.428   5.606 -0.3823 -0.6105  0.4978
 1897SOL    HW117150   3.869   2.340   5.634 -1.1367 -0.2134  1.0973
 1897SOL    HW217151   3.987   2.410   5.615 -0.4260 -0.0238  2.0726
 1898SOL     OW17152   3.892   3.185   3.319  0.1459 -0.0699 -0.4416
 1898SOL    HW117153   3.900   3.144   3.233 -0.3984  0.8533 -0.9349
 1898SOL    HW217154   3.878   3.277   3.295 -0.6732 -0.4443 -1.3912
 1899SOL     OW17155   4.427   1.917   2.276 -0.0622  0.2358 -0.5750
 1899SOL    HW117156   4.357   1.962   2.228  1.2011  2.1491 -0.6200
 1899SOL    HW217157   4.486   1.892   2.205 -0.2274 -1.3815 -0.1493
 1900SOL     OW17158   2.575   4.332   3.468 -0.2997  0.0229  0.1872
 1900SOL    HW117159   2.568   4.355   3.561 -0.8098 -2.7367  0.8560
 1900SOL    HW217160   2.552   4.414   3.425 -1.5870 -0.0653  0.6846
 1901SOL     OW17161   2.377   4.008   1.149  0.2609  0.1548 -0.2807
 1901SOL    HW117162   2.405   4.008   1.058  1.0878  3.3609 -0.0066
 1901SOL    HW217163   2.323   3.929   1.149  0.1343  0.2483 -2.0423
 1902SOL     OW17164   2.492   1.673   9.687  0.0561 -0.2003 -0.4872
 1902SOL    HW117165   2.536   1.736   9.630 -0.6028  1.0924  0.4232
 1902SOL    HW217166   2.411   1.719   9.711  0.2643  1.2868 -2.5773
 1903SOL     OW17167   1.200   3.279   6.776 -0.1268  0.4338  0.1920
 1903SOL    HW117168   1.167   3.222   6.845  1.4709  0.2998  0.8466
 1903SOL    HW217169   1.141   3.350   6.799  1.1154  1.9602 -1.3572
 1904SOL     OW17170   2.019   2.674   5.548  0.0891 -0.3624 -0.4059
 1904SOL    HW117171   2.039   2.648   5.458  0.4304 -1.0482 -0.1292
 1904SOL    HW217172   1.924   2.663   5.542  0.1447 -1.3173  0.4246
 1905SOL     OW17173   2.260   0.274   3.876  0.6007 -0.1340 -0.4616
 1905SOL    HW117174   2.188   0.325   3.912  0.9026  1.2518 -1.8126
 1905SOL    HW217175   2.305   0.331   3.813 -0.3065 -0.9943 -1.8877
 1906SOL     OW17176   1.308   2.703   4.943 -0.1225 -0.3458  0.1215
 1906SOL    HW117177   1.247   2.630   4.936 -0.7929 -0.0882  3.0972
 1906SOL    HW217178   1.387   2.659   4.913  0.9037  1.6562 -0.1528
 1907SOL     OW17179   2.802   0.865  15.868  0.7273 -0.0299 -0.3173
 1907SOL    HW117180   2.729   0.852  15.929 -0.0183  0.5823 -1.0664
 1907SOL    HW217181   2.867   0.810  15.911  0.4854 -0.0129  0.0723
 1908SOL     OW17182   3.850   0.467   6.195  0.7264  0.2205  0.4822
 1908SOL    HW117183   3.805   0.535   6.146  0.1335 -1.7171 -1.6314
 1908SOL    HW217184   3.886   0.415   6.124 -1.6776  0.6196 -1.0125
 1909SOL     OW17185   4.446   3.460  17.320  0.0304 -0.2639  0.8686
 1909SOL    HW117186   4.393   3.389  17.356 -3.1241  1.7488  0.2498
 1909SOL    HW217187   4.397   3.540  17.340  0.5471  0.1857  0.3281
 1910SOL     OW17188   1.696   0.570   3.219 -0.0246 -0.4026 -0.0529
 1910SOL    HW117189   1.712   0.551   3.311 -1.1168 -1.0250  0.0058
 1910SOL    HW217190   1.787   0.590   3.197 -0.0496  0.6177  0.8041
 1911SOL     OW17191   1.455   2.829   2.381 -0.0739  0.3685 -0.3709
 1911SOL    HW117192   1.434   2.779   2.302 -0.0102  0.9458 -0.7571
 1911SOL    HW217193   1.366   2.864   2.389 -0.0109  0.1247  1.2386
 1912SOL     OW17194   3.773   1.283   5.708  1.2132  0.4263 -0.7138
 1912SOL    HW117195   3.820   1.235   5.776 -1.4054  0.4196  1.1096
 1912SOL    HW217196   3.728   1.209   5.668 -0.1682 -0.1222  1.8910
 1913SOL     OW17197   1.768   2.124  11.410 -0.1997 -0.2286  0.2581
 1913SOL    HW117198   1.743   2.183  11.338 -2.0222  0.0507  1.1119
 1913SOL    HW217199   1.857   2.106  11.379 -0.3009 -1.0835  0.4799
 1914SOL     OW17200   0.612   2.232   4.136  0.6372 -0.0657 -0.8266
 1914SOL    HW117201   0.521   2.262   4.134  1.6040  3.0674  0.7474
 1914SOL    HW217202   0.603   2.137   4.143 -0.7155  0.0735 -0.7973
 1915SOL     OW17203   2.508   1.253   5.727  0.3240 -0.3416 -1.0466
 1915SOL    HW117204   2.440   1.216   5.784  0.7959 -1.3556 -1.1515
 1915SOL    HW217205   2.521   1.179   5.667  2.7423 -0.4132 -0.4472
 1916SOL     OW17206   3.353   0.267   3.153 -0.1164  0.6102 -0.0476
 1916SOL    HW117207   3.423   0.207   3.126 -1.0457 -0.8080  0.6861
 1916SOL    HW217208   3.303   0.262   3.071 -1.1025 -0.0178  0.5944
 1917SOL     OW17209   2.012   3.225   3.947  0.1901  0.0012 -0.0954
 1917SOL    HW117210   2.006   3.321   3.943  1.5916  0.2383  3.3897
 1917SOL    HW217211   1.928   3.208   3.989 -0.6095  0.7327 -1.4277
 1918SOL     OW17212   2.750   2.324   0.591 -0.0261  0.2958 -0.1501
 1918SOL    HW117213   2.698   2.299   0.668  1.1803 -0.5754  0.3748
 1918SOL    HW217214   2.770   2.413   0.620 -0.9474  1.1158 -2.0741
 1919SOL     OW17215   2.403   3.294   4.034  0.0034  0.1651  0.0741
 1919SOL    HW117216   2.498   3.309   4.036  0.2682 -1.0515 -2.7909
 1919SOL    HW217217   2.406   3.209   4.077  0.2546 -0.3654 -0.9752
 1920SOL     OW17218   0.410   0.835   7.288  0.2047 -0.3566  0.0739
 1920SOL    HW117219   0.389   0.910   7.232 -1.1121 -0.0083  1.0437
 1920SOL    HW217220   0.422   0.887   7.367 -0.2519  0.1017 -0.1640
 1921SOL     OW17221   1.266   3.492   7.380 -0.3629 -0.2903  0.7765
 1921SOL    HW117222   1.280   3.516   7.471 -2.1292 -0.4461  1.0770
 1921SOL    HW217223   1.349   3.446   7.364  0.5169  0.7051  2.5551
 1922SOL     OW17224   1.292   3.572   3.912 -0.9148  0.3362  0.1993
 1922SOL    HW117225   1.262   3.631   3.843  0.5515  1.2769  0.3607
 1922SOL    HW217226   1.369   3.526   3.878 -1.8855 -0.0959 -1.4296
 1923SOL     OW17227   4.080   1.213  13.396 -0.1666 -0.2706 -0.1762
 1923SOL    HW117228   4.130   1.146  13.349  0.4477 -0.0749  0.2062
 1923SOL    HW217229   4.138   1.289  13.388 -1.2664  0.5788 -0.0803
 1924SOL     OW17230   3.023   3.652  10.300 -0.3863 -0.6480  0.7335
 1924SOL    HW117231   2.927   3.650  10.304 -0.6319  1.6127 -3.6918
 1924SOL    HW217232   3.049   3.710  10.228  3.7585 -1.0504  1.9422
 1925SOL     OW17233   3.536   3.414   0.154 -0.1851  0.4004  0.0349
 1925SOL    HW117234   3.472   3.374   0.096  0.4744 -0.5102 -0.0755
 1925SOL    HW217235   3.503   3.503   0.163  0.9553  0.8586 -0.2921
 1926SOL     OW17236   4.172   4.338   2.201  0.5345  0.3503  0.4102
 1926SOL    HW117237   4.243   4.401   2.218  0.4909 -0.1174  2.3210
 1926SOL    HW217238   4.099   4.397   2.220 -0.0335 -0.1687 -0.1546
 1927SOL     OW17239   2.492   1.460   5.479 -0.7261  0.3057 -0.6377
 1927SOL    HW117240   2.520   1.426   5.564 -0.3778  2.2442  0.0314
 1927SOL    HW217241   2.496   1.386   5.419  2.6520 -1.0996  1.2852
 1928SOL     OW17242   1.829   0.967   8.530  0.1730  0.1206 -0.0385
 1928SOL    HW117243   1.899   1.029   8.550 -1.1328  1.1025  1.5306
 1928SOL    HW217244   1.859   0.939   8.444 -1.7027 -0.7308 -0.4192
 1929SOL     OW17245   4.248   0.268   4.750  0.3450 -0.4742 -0.2560
 1929SOL    HW117246   4.259   0.363   4.757 -0.9345 -0.2399 -1.2512
 1929SOL    HW217247   4.339   0.243   4.737  0.1502  0.3846 -3.1469
 1930SOL     OW17248   3.649   2.853  10.768  0.6218 -0.6156 -0.3545
 1930SOL    HW117249   3.734   2.843  10.812 -1.0112  1.1951  3.2446
 1930SOL    HW217250   3.652   2.943  10.738 -2.9131 -0.2993  0.1924
 1931SOL     OW17251   2.232   1.059   5.533  0.6298 -0.5341 -0.9574
 1931SOL    HW117252   2.208   1.007   5.610  2.4664 -0.3998 -0.2821
 1931SOL    HW217253   2.326   1.043   5.539  1.0607  2.0540 -0.8859
 1932SOL     OW17254   0.244   2.474  17.633 -0.5352  0.4153 -0.3180
 1932SOL    HW117255   0.231   2.564  17.601 -0.6441  0.4162 -0.2701
 1932SOL    HW217256   0.336   2.452  17.614 -1.1870 -2.2040 -0.3984
 1933SOL     OW17257   3.619   2.005  11.557 -0.5208  0.3738  0.3913
 1933SOL    HW117258   3.645   2.093  11.582  2.5601  0.1142 -1.8072
 1933SOL    HW217259   3.693   1.953  11.590 -0.5696  0.6785  0.9736
 1934SOL     OW17260   2.791   0.437   4.968 -0.1730 -0.3199  0.0026
 1934SOL    HW117261   2.817   0.500   5.036  0.3396  1.2189 -1.6181
 1934SOL    HW217262   2.706   0.406   4.998 -1.5879  2.3869 -1.2691
 1935SOL     OW17263   3.600   3.442  16.015  0.0388  0.3426  0.2664
 1935SOL    HW117264   3.643   3.522  16.044  0.9351  0.8762 -2.5604
 1935SOL    HW217265   3.535   3.485  15.959  0.2312  0.4067  0.0949
 1936SOL     OW17266   1.037   4.358   8.192 -0.0670 -0.5533  0.3291
 1936SOL    HW117267   1.012   4.446   8.220  2.6206 -0.4111  2.3407
 1936SOL    HW217268   1.006   4.313   8.271 -1.4962  1.6057  0.9919
 1937SOL     OW17269   2.187   1.228  13.047 -0.2311  0.2569 -0.1390
 1937SOL    HW117270   2.267   1.179  13.067  1.1286  1.6297 -2.1909
 1937SOL    HW217271   2.152   1.229  13.136 -3.2602  1.7752 -1.3370
 1938SOL     OW17272   0.150   1.118   9.685 -0.0252  0.4864 -0.3563
 1938SOL    HW117273   0.071   1.086   9.641 -0.2955  1.7245 -0.7814
 1938SOL    HW217274   0.213   1.054   9.653 -0.2868 -0.7152  1.4995
 1939SOL     OW17275   2.215   2.670   3.253 -0.0275  0.0300  0.2818
 1939SOL    HW117276   2.223   2.757   3.214 -0.5771 -0.4465 -0.8942
 1939SOL    HW217277   2.172   2.691   3.335  0.5533 -0.3576  0.6844
 1940SOL     OW17278   3.922   0.951  14.656 -0.2384  0.6578  0.2088
 1940SOL    HW117279   3.868   0.960  14.734 -1.2907 -0.0180 -0.4287
 1940SOL    HW217280   4.005   0.979  14.695  0.9379 -0.0288 -1.7790
 1941SOL     OW17281   4.217   1.513   2.655 -0.3474 -0.0266 -0.0248
 1941SOL    HW117282   4.187   1.422   2.661 -1.2184  0.3027  0.6784
 1941SOL    HW217283   4.310   1.504   2.676 -0.7098  0.4272  1.7514
 1942SOL     OW17284   3.087   0.484  10.275 -0.8341  0.0820  0.1722
 1942SOL    HW117285   3.059   0.468  10.185 -0.5818  0.2534  0.0639
 1942SOL    HW217286   3.094   0.577  10.256 -0.1312 -0.4471 -2.1423
 1943SOL     OW17287   2.094   2.108   7.797 -0.3569  0.0951  0.0908
 1943SOL    HW117288   2.108   2.186   7.851 -0.7475 -0.4503  0.9696
 1943SOL    HW217289   2.040   2.148   7.729 -1.8881  1.0762  1.8724
 1944SOL     OW17290   3.194   4.489   6.592 -0.5030 -0.3977  0.0347
 1944SOL    HW117291   3.220   4.558   6.531  2.1650 -2.1005 -0.7810
 1944SOL    HW217292   3.221   4.532   6.673 -1.4591  0.4925 -0.1271
 1945SOL     OW17293   2.408   1.473   6.051 -0.2535  0.3590 -1.0046
 1945SOL    HW117294   2.348   1.528   6.102 -2.5117 -1.1944 -2.0128
 1945SOL    HW217295   2.390   1.387   6.087 -0.7709  0.1858 -1.6872
 1946SOL     OW17296   0.728   2.285   2.368 -1.1347 -0.3758 -0.3242
 1946SOL    HW117297   0.668   2.288   2.294 -1.1428  0.5151 -0.2856
 1946SOL    HW217298   0.789   2.342   2.321 -0.0450 -2.0746 -0.9701
 1947SOL     OW17299   3.906   3.072   6.749 -0.2290 -0.1595  0.0431
 1947SOL    HW117300   3.831   3.103   6.799 -1.4686 -1.0465 -1.2867
 1947SOL    HW217301   3.880   2.982   6.732  1.4851 -0.3556 -1.5419
 1948SOL     OW17302   2.124   2.467   8.742 -0.2350  0.3613 -0.0820
 1948SOL    HW117303   2.103   2.377   8.768  0.7804  0.3877  0.8153
 1948SOL    HW217304   2.111   2.452   8.648 -1.4346 -0.1818  0.1758
 1949SOL     OW17305   3.263   3.931   1.739 -0.0287 -0.1049  0.2756
 1949SOL    HW117306   3.279   3.885   1.656  2.2857  0.7358  0.2471
 1949SOL    HW217307   3.345   3.982   1.738 -0.7297  1.0178  0.5316
 1950SOL     OW17308   3.254   3.112   6.420 -0.0333 -0.1714  0.6196
 1950SOL    HW117309   3.225   3.147   6.504 -0.1939  3.0117 -0.7382
 1950SOL    HW217310   3.319   3.053   6.457 -0.3846 -0.1369  1.2829
 1951SOL     OW17311   4.066   1.646   1.278 -0.2832  0.1815 -0.6782
 1951SOL    HW117312   4.095   1.611   1.362 -0.1295  0.0227 -0.7986
 1951SOL    HW217313   4.141   1.611   1.230 -0.6397 -1.3997 -0.0774
 1952SOL     OW17314   3.858   3.974   3.908  0.5405  0.2268  0.3768
 1952SOL    HW117315   3.903   3.991   3.825 -1.3526 -0.4193 -0.7901
 1952SOL    HW217316   3.790   4.041   3.911 -0.1369 -0.3132 -2.6975
 1953SOL     OW17317   2.038   3.009  12.983  0.3779 -0.6837 -0.0433
 1953SOL    HW117318   2.130   3.021  12.960 -0.3546 -0.1648 -2.6542
 1953SOL    HW217319   2.020   3.102  12.991 -1.5758 -1.0902  0.2111
 1954SOL     OW17320   0.529   1.802  12.196  0.0492 -0.3610  0.2655
 1954SOL    HW117321   0.618   1.815  12.163  0.6117  0.1732  1.9936
 1954SOL    HW217322   0.538   1.716  12.236 -0.8950  0.0505  1.3457
 1955SOL     OW17323   3.395   1.061   8.311 -0.1922  0.2026 -0.3361
 1955SOL    HW117324   3.347   0.997   8.257 -1.7588  0.8867  0.2598
 1955SOL    HW217325   3.352   1.144   8.292  0.5591  0.7884  0.5249
 1956SOL     OW17326   2.658   0.329  10.819  0.6160  0.0758  0.4505
 1956SOL    HW117327   2.575   0.320  10.865 -0.4067 -3.3280 -2.0880
 1956SOL    HW217328   2.620   0.344  10.732 -0.4540  0.3673  0.9792
 1957SOL     OW17329   2.603   4.177  10.777  0.7482  0.5171  0.3649
 1957SOL    HW117330   2.653   4.108  10.732 -0.8883  0.0228 -0.6994
 1957SOL    HW217331   2.651   4.189  10.859  1.9648 -1.5729 -0.0358
 1958SOL     OW17332   0.983   2.022   3.702 -0.4759  0.0045 -0.0272
 1958SOL    HW117333   0.898   2.059   3.679 -1.3621 -2.1868 -0.3005
 1958SOL    HW217334   0.958   1.930   3.708 -3.9268  1.0775  2.1947
 1959SOL     OW17335   3.966   2.089   6.233  0.3221 -0.0502 -0.4589
 1959SOL    HW117336   3.916   2.127   6.306  0.9844 -0.5595  0.2528
 1959SOL    HW217337   3.923   2.143   6.167 -0.9682 -0.7482 -0.1882
 1960SOL     OW17338   2.477   0.983   2.051 -0.3632  0.2791  0.0026
 1960SOL    HW117339   2.483   1.019   1.963  1.9254  1.7057  0.7286
 1960SOL    HW217340   2.546   1.028   2.099 -1.0209 -0.5915  1.7623
 1961SOL     OW17341   4.365   1.467   4.127  0.3899 -0.0551  0.2982
 1961SOL    HW117342   4.349   1.444   4.036 -1.4338 -0.9799  0.8572
 1961SOL    HW217343   4.280   1.442   4.162  0.0879 -1.3555 -1.3522
 1962SOL     OW17344   3.491   1.755   5.828 -0.1210 -0.1479 -0.0207
 1962SOL    HW117345   3.557   1.686   5.839  1.8369  2.3095  3.7638
 1962SOL    HW217346   3.421   1.714   5.879  1.7515 -2.0454  1.0294
 1963SOL     OW17347   2.485   2.314   2.269 -0.1907 -0.1398 -0.2928
 1963SOL    HW117348   2.551   2.372   2.232  1.7418 -2.1554 -0.0032
 1963SOL    HW217349   2.410   2.373   2.257  0.4536  0.6053 -0.6207
 1964SOL     OW17350   3.706   4.712   3.551  0.5293  0.0809  0.0190
 1964SOL    HW117351   3.799   0.002   3.572  0.6772  1.5741 -1.6768
 1964SOL    HW217352   3.667   0.055   3.605 -0.9033 -1.6143  1.1239
 1965SOL     OW17353   1.253   2.925   4.643 -0.1509 -0.3535  0.3509
 1965SOL    HW117354   1.340   2.909   4.680  0.0120  0.5250  0.3370
 1965SOL    HW217355   1.265   3.013   4.608 -0.7420 -0.5152 -0.2776
 1966SOL     OW17356   4.237   1.083  13.227 -0.0855 -0.6120 -0.9315
 1966SOL    HW117357   4.226   1.169  13.188 -0.4059  0.6974  2.0209
 1966SOL    HW217358   4.276   1.036  13.153  0.1767 -1.1978 -0.4227
 1967SOL     OW17359   1.178   2.937  14.328  0.7841 -0.4479 -0.0249
 1967SOL    HW117360   1.236   2.943  14.252 -2.3166  2.7276 -2.1497
 1967SOL    HW217361   1.151   2.846  14.318 -2.2273  0.6020 -1.3863
 1968SOL     OW17362   3.005   3.598   4.501  0.4391  0.1243 -0.2917
 1968SOL    HW117363   2.915   3.622   4.525  0.4865 -1.3310  1.3441
 1968SOL    HW217364   3.044   3.657   4.565 -1.4931  1.7626 -0.5940
 1969SOL     OW17365   2.014   2.995   0.500 -0.5693  0.2078 -0.2515
 1969SOL    HW117366   1.980   3.038   0.422 -2.0151 -1.2850 -0.4321
 1969SOL    HW217367   2.022   2.907   0.464  1.2247 -0.7199  2.3126
 1970SOL     OW17368   3.167   2.087   1.424  0.2127 -0.0767  0.0138
 1970SOL    HW117369   3.150   2.075   1.517  1.7056 -1.5459  0.0912
 1970SOL    HW217370   3.261   2.075   1.407 -0.0412 -1.2292 -0.6147
 1971SOL     OW17371   1.577   3.912   7.392 -0.0921 -0.8716 -0.0915
 1971SOL    HW117372   1.649   3.966   7.360 -0.6183  0.0931  0.3655
 1971SOL    HW217373   1.505   3.935   7.333 -0.4443 -0.9330  0.3206
 1972SOL     OW17374   2.431   4.147   5.583 -0.1644  0.2708 -0.3646
 1972SOL    HW117375   2.447   4.192   5.500 -2.0489  0.5370 -0.5761
 1972SOL    HW217376   2.349   4.181   5.618 -2.2808 -2.9876 -2.1831
 1973SOL     OW17377   4.186   2.118   2.732 -0.4624  0.0556  0.1608
 1973SOL    HW117378   4.138   2.069   2.665  1.0751 -0.7231 -0.3817
 1973SOL    HW217379   4.270   2.128   2.687 -0.0707 -0.8630  0.7016
 1974SOL     OW17380   3.665   4.205  11.085  0.1061 -0.5871 -0.8288
 1974SOL    HW117381   3.672   4.129  11.143 -0.8571  1.3199  1.8468
 1974SOL    HW217382   3.570   4.218  11.089  0.1245 -1.5966  3.4192
 1975SOL     OW17383   4.360   1.671   3.781  0.1893  0.1162  0.1620
 1975SOL    HW117384   4.426   1.740   3.771 -0.1410  0.9195  3.6007
 1975SOL    HW217385   4.322   1.673   3.693  1.0769 -2.2170 -0.2697
 1976SOL     OW17386   3.278   1.041  10.806  0.3682  0.3378  0.0938
 1976SOL    HW117387   3.184   1.028  10.790 -0.0709  2.1517  1.1778
 1976SOL    HW217388   3.281   1.018  10.899 -0.8886 -0.8358 -0.1525
 1977SOL     OW17389   0.873   0.274   7.057 -0.4939 -0.4878  0.5400
 1977SOL    HW117390   0.868   0.181   7.082 -0.1209 -0.4965  0.5900
 1977SOL    HW217391   0.968   0.285   7.054 -0.4890 -1.0503 -1.2571
 1978SOL     OW17392   2.177   0.075   3.145 -0.0487  0.0037 -0.5461
 1978SOL    HW117393   2.118   0.076   3.070  0.5436  2.3998 -0.9816
 1978SOL    HW217394   2.222   4.716   3.135 -0.8576 -0.4060 -0.6716
 1979SOL     OW17395   2.507   3.257  16.206 -0.0892  0.2682  0.2207
 1979SOL    HW117396   2.439   3.248  16.273  1.4239 -0.0610  1.7149
 1979SOL    HW217397   2.552   3.335  16.239  0.2052 -0.4817  1.5817
 1980SOL     OW17398   2.886   2.000   9.628  0.0674 -0.2937 -0.2915
 1980SOL    HW117399   2.821   1.977   9.695  0.6178 -2.5030 -0.5218
 1980SOL    HW217400   2.852   2.089   9.619  2.1500  0.5534  0.1815
 1981SOL     OW17401   3.179   1.040   1.470  0.4041 -0.4872 -0.2027
 1981SOL    HW117402   3.130   0.958   1.464 -1.3548  0.4873  0.7554
 1981SOL    HW217403   3.171   1.068   1.378  1.7481 -1.5910 -0.6412
 1982SOL     OW17404   4.457   4.628  17.566  0.5480 -0.4276  0.1811
 1982SOL    HW117405   4.391   4.589  17.623 -1.2515  3.2413  0.6190
 1982SOL    HW217406   4.453   4.571  17.489 -1.1588  0.3576 -0.3086
 1983SOL     OW17407   3.079   1.135  12.373  0.2879  0.3897  0.2049
 1983SOL    HW117408   3.089   1.041  12.362  3.0344  0.9476 -1.8613
 1983SOL    HW217409   2.986   1.143  12.395  0.1166 -2.0384  0.2949
 1984SOL     OW17410   0.867   3.944   3.562 -0.4384 -0.4654  0.1660
 1984SOL    HW117411   0.962   3.954   3.568 -0.4588 -0.8938  1.1372
 1984SOL    HW217412   0.836   4.025   3.522  2.4183 -0.1630 -1.4280
 1985SOL     OW17413   3.882   3.112   8.455  0.4136 -0.4987 -0.7610
 1985SOL    HW117414   3.940   3.187   8.438  0.4247 -0.7862 -1.9667
 1985SOL    HW217415   3.925   3.048   8.399 -0.1109 -0.9233 -0.6747
 1986SOL     OW17416   3.478   0.053  12.804  0.2102  0.2226 -0.4368
 1986SOL    HW117417   3.484   0.118  12.734  0.8751 -0.5420 -1.0860
 1986SOL    HW217418   3.386   0.029  12.794  0.1125 -0.2579  1.5007
 1987SOL     OW17419   4.160   3.794   6.725  0.2243 -0.9061  0.1909
 1987SOL    HW117420   4.076   3.757   6.698  0.2637 -1.1981  0.4721
 1987SOL    HW217421   4.207   3.711   6.723 -0.2062 -1.0695 -2.1966
 1988SOL     OW17422   0.195   3.756   6.756 -0.5185  0.6395 -0.8492
 1988SOL    HW117423   0.129   3.727   6.819  1.4110  1.9255  1.7779
 1988SOL    HW217424   0.229   3.677   6.714  0.6182  1.1136 -0.8253
 1989SOL     OW17425   0.173   1.091   9.031 -1.1941  0.4115  0.6832
 1989SOL    HW117426   0.172   1.153   8.958 -3.0056 -1.0283 -0.5071
 1989SOL    HW217427   0.143   1.010   8.988  0.7881 -0.2597  0.5738
 1990SOL     OW17428   3.505   2.165   4.997 -0.1317 -0.0713 -0.2254
 1990SOL    HW117429   3.555   2.236   4.957 -0.6950 -0.5048 -1.7171
 1990SOL    HW217430   3.547   2.164   5.082 -0.0120  0.9184 -0.2773
 1991SOL     OW17431   1.134   4.171  11.366  0.6217  0.3338 -0.2273
 1991SOL    HW117432   1.126   4.238  11.299  0.1223 -0.2843 -0.7864
 1991SOL    HW217433   1.100   4.101  11.310  1.9753 -0.6966  0.2256
 1992SOL     OW17434   4.679   2.447   6.892 -0.0884 -0.1674 -0.2868
 1992SOL    HW117435   4.650   2.521   6.838 -0.3629 -0.1398 -0.1026
 1992SOL    HW217436   4.619   2.461   6.966 -0.4719  0.1217 -0.6511
 1993SOL     OW17437   1.255   3.917   9.663 -0.5436 -0.0637 -0.5397
 1993SOL    HW117438   1.169   3.879   9.649 -0.8020  0.3087  0.0227
 1993SOL    HW217439   1.261   3.914   9.759  1.7953 -0.1891 -0.6869
 1994SOL     OW17440   1.218   1.949   2.008 -0.5635  0.3354  0.5012
 1994SOL    HW117441   1.212   2.000   2.089 -1.1801  1.7438 -0.4445
 1994SOL    HW217442   1.298   1.990   1.977 -0.5852  0.1923  0.2571
 1995SOL     OW17443   1.379   4.590   3.269 -0.3615 -0.0924 -0.1896
 1995SOL    HW117444   1.459   4.548   3.239 -0.4109  1.5790 -2.6567
 1995SOL    HW217445   1.421   4.630   3.345 -0.8297  2.3571 -1.2204
 1996SOL     OW17446   0.943   1.275   6.123  0.0185  0.1792 -0.5216
 1996SOL    HW117447   0.998   1.229   6.059  0.5658 -0.0706  0.1200
 1996SOL    HW217448   0.992   1.355   6.138  0.8834 -0.2281 -1.1402
 1997SOL     OW17449   1.646   0.792   2.531 -0.6277  0.4917 -0.3695
 1997SOL    HW117450   1.709   0.746   2.475 -0.0294  0.1479  0.5871
 1997SOL    HW217451   1.572   0.731   2.526 -0.7254  0.5044  0.8748
 1998SOL     OW17452   1.850   2.257  13.167  0.3697 -0.3952  0.2389
 1998SOL    HW117453   1.785   2.323  13.191  0.2278  0.2825 -2.0336
 1998SOL    HW217454   1.914   2.256  13.238 -1.5456 -3.6978  1.9423
 1999SOL     OW17455   1.575   2.293   3.014  0.3203 -0.2919  0.1523
 1999SOL    HW117456   1.617   2.207   3.005 -1.7523 -0.9428 -3.4215
 1999SOL    HW217457   1.641   2.353   2.980 -0.5491  0.1911 -0.6847
 2000SOL     OW17458   2.944   0.873   4.510 -0.0140 -0.0548 -0.3058
 2000SOL    HW117459   2.958   0.837   4.422  0.4701  0.7437 -0.5524
 2000SOL    HW217460   2.860   0.829   4.524 -0.0633  0.2718  0.4299
 2001SOL     OW17461   0.818   1.851   6.395  0.2688 -0.6747 -0.1378
 2001SOL    HW117462   0.849   1.935   6.360  0.3022 -1.1201 -1.1638
 2001SOL    HW217463   0.897   1.800   6.377 -1.1681 -2.4167 -1.4483
 2002SOL     OW17464   3.929   2.659  16.232  0.3384 -0.0134  0.1230
 2002SOL    HW117465   3.889   2.581  16.194 -0.3949  0.6027 -0.3489
 2002SOL    HW217466   3.899   2.725  16.170 -1.0979 -0.4341  0.3721
 2003SOL     OW17467   0.287   4.567   8.593 -0.2535 -0.0334 -0.2302
 2003SOL    HW117468   0.222   4.502   8.565  0.5608 -1.1844  0.5792
 2003SOL    HW217469   0.258   4.639   8.537 -1.2428 -1.5522 -1.6806
 2004SOL     OW17470   2.327   2.862   4.004 -0.0664 -0.0198  0.3748
 2004SOL    HW117471   2.362   2.943   3.967 -1.8183  0.4664 -0.2157
 2004SOL    HW217472   2.249   2.904   4.042  0.4205  0.6222  0.6621
 2005SOL     OW17473   1.407   0.274   3.719 -0.3624  0.1248 -0.3361
 2005SOL    HW117474   1.391   0.354   3.669 -0.6720 -0.0638 -0.5387
 2005SOL    HW217475   1.502   0.275   3.717 -0.3477 -0.4585 -0.0685
 2006SOL     OW17476   1.864   4.715  17.558  0.0197 -0.6817 -0.0693
 2006SOL    HW117477   1.806   4.646  17.590  0.0196 -1.7996 -2.4713
 2006SOL    HW217478   1.797   0.033  17.504  1.4605  0.3062 -1.0618
 2007SOL     OW17479   1.903   3.801   9.775  0.2309  0.2547  0.3769
 2007SOL    HW117480   1.916   3.802   9.680 -0.6046  2.1284  0.2744
 2007SOL    HW217481   1.905   3.707   9.792 -2.0839 -0.1499 -1.5539
 2008SOL     OW17482   4.043   4.488  14.890  0.3082  0.1017  0.0180
 2008SOL    HW117483   4.102   4.563  14.901 -1.4487  1.5451 -0.4181
 2008SOL    HW217484   4.054   4.462  14.798 -0.0688  0.2556 -0.0706
 2009SOL     OW17485   3.649   2.595  10.862 -0.0547  0.3386 -0.5208
 2009SOL    HW117486   3.655   2.681  10.822 -0.1454 -0.7308 -2.8896
 2009SOL    HW217487   3.731   2.556  10.832 -0.1038 -0.7245  0.7384
 2010SOL     OW17488   1.963   3.116  11.322  0.2142 -0.0328 -0.3163
 2010SOL    HW117489   2.001   3.081  11.242  3.6958  1.1562  0.8068
 2010SOL    HW217490   1.881   3.067  11.326  0.2372 -0.0370  0.1402
 2011SOL     OW17491   1.780   2.474   8.825 -0.1358 -0.0705  0.1303
 2011SOL    HW117492   1.719   2.462   8.898 -2.0333  1.8556 -1.1453
 2011SOL    HW217493   1.855   2.522   8.861 -1.2393  1.7197  0.0140
 2012SOL     OW17494   0.978   2.840  12.249 -0.2775 -0.3181  0.1002
 2012SOL    HW117495   0.983   2.748  12.223 -0.3487 -0.2181 -0.2704
 2012SOL    HW217496   1.068   2.871  12.235  0.2729 -0.7275  2.6922
 2013SOL     OW17497   3.573   1.428  13.365  0.3301 -0.3836  0.0805
 2013SOL    HW117498   3.573   1.371  13.288 -0.5262  1.3099 -1.1645
 2013SOL    HW217499   3.651   1.386  13.402 -0.4485 -2.3201 -0.4366
 2014SOL     OW17500   0.992   4.066  12.261 -0.1833  0.1167  0.0196
 2014SOL    HW117501   1.058   4.111  12.209  2.6120 -0.2879  3.1741
 2014SOL    HW217502   0.966   4.004  12.192 -3.5881  1.1553  0.3769
 2015SOL     OW17503   2.061   0.807   9.464 -0.9643  0.1648 -0.0040
 2015SOL    HW117504   2.109   0.849   9.536  1.0432 -0.8722 -0.7429
 2015SOL    HW217505   2.098   0.848   9.386 -0.6454 -0.3390 -0.1151
 2016SOL     OW17506   4.665   1.463   6.008 -0.0511  0.1867 -0.4112
 2016SOL    HW117507   4.707   1.437   6.090 -0.2852  0.6070 -0.1596
 2016SOL    HW217508   4.670   1.377   5.965  3.0758 -0.3505  1.0450
 2017SOL     OW17509   2.699   3.123  15.114  0.0124  0.0350 -0.4440
 2017SOL    HW117510   2.733   3.088  15.032  2.1622  2.0702 -0.4425
 2017SOL    HW217511   2.607   3.129  15.087  0.1963 -4.1464 -1.8917
 2018SOL     OW17512   1.105   0.349   5.684 -0.4707 -0.2085  0.1010
 2018SOL    HW117513   1.126   0.412   5.616 -0.6489  0.4730  0.6759
 2018SOL    HW217514   1.191   0.314   5.706 -0.4803 -0.4896 -0.3118
 2019SOL     OW17515   1.158   3.388   8.462  0.6897 -0.1261  0.6701
 2019SOL    HW117516   1.094   3.439   8.511  1.4407 -0.0748  1.6058
 2019SOL    HW217517   1.147   3.301   8.501 -2.9529  0.1035  0.1734
 2020SOL     OW17518   2.737   0.071  16.774  0.1301 -0.6373 -0.4781
 2020SOL    HW117519   2.658   0.021  16.755 -0.9266  0.4612  1.0579
 2020SOL    HW217520   2.691   0.144  16.815 -0.2869  0.5138 -2.9873
 2021SOL     OW17521   3.006   3.860   0.472  0.2539 -0.7392  0.2033
 2021SOL    HW117522   3.018   3.830   0.563 -0.9096 -0.5378  0.4214
 2021SOL    HW217523   3.093   3.836   0.441  1.1035  1.4205  0.9412
 2022SOL     OW17524   0.139   1.075   8.285 -0.1173  0.5946 -0.5771
 2022SOL    HW117525   0.081   0.999   8.285 -0.5041  0.8915 -0.6557
 2022SOL    HW217526   0.080   1.139   8.245 -0.3838  0.3823 -0.5207
 2023SOL     OW17527   1.986   1.651   1.728 -0.1954  0.2507 -0.5836
 2023SOL    HW117528   1.899   1.644   1.690 -0.2302 -3.5225  0.1447
 2023SOL    HW217529   2.036   1.591   1.672 -3.7024 -3.4737  0.2597
 2024SOL     OW17530   0.085   3.843   7.995  0.0021 -0.3227  0.1576
 2024SOL    HW117531   0.137   3.899   7.939 -0.6852  0.6685  0.5099
 2024SOL    HW217532   0.015   3.896   8.034  1.3196  2.4249 -1.2425
 2025SOL     OW17533   3.617   4.013   6.729  0.2024 -0.0448  0.5196
 2025SOL    HW117534   3.659   4.050   6.806  0.2220  0.7931  0.1096
 2025SOL    HW217535   3.697   4.008   6.677 -0.2381 -0.5806 -0.1109
 2026SOL     OW17536   1.516   2.576   2.884 -0.3110  0.7838 -0.1505
 2026SOL    HW117537   1.609   2.560   2.902 -0.1429  1.5944 -0.2682
 2026SOL    HW217538   1.515   2.588   2.789 -1.7721  3.2001  0.1513
 2027SOL     OW17539   1.513   3.583  13.923  0.6993 -0.0059  0.3612
 2027SOL    HW117540   1.562   3.545  13.851  1.7745 -1.2683  1.7709
 2027SOL    HW217541   1.499   3.507  13.979  1.0186 -0.3306  0.0025
 2028SOL     OW17542   0.332   0.529   4.502 -0.2500  0.0576  0.4959
 2028SOL    HW117543   0.258   0.471   4.514  0.2072 -0.7458 -0.5665
 2028SOL    HW217544   0.354   0.501   4.413 -0.8030 -0.4097  0.5119
 2029SOL     OW17545   2.738   3.834  12.015  0.4996 -0.3530  0.6630
 2029SOL    HW117546   2.700   3.749  11.994 -0.5546 -0.1431  1.7382
 2029SOL    HW217547   2.813   3.801  12.064  1.0790 -1.5039 -1.0076
 2030SOL     OW17548   1.446   0.087   9.650  0.2035  0.2596 -0.2186
 2030SOL    HW117549   1.468   0.149   9.720  1.6977 -1.5478  0.8984
 2030SOL    HW217550   1.473   0.140   9.575  0.7504  2.4745  1.5070
 2031SOL     OW17551   2.819   0.601   6.087  0.1079  0.3469  0.0766
 2031SOL    HW117552   2.863   0.539   6.145  2.4839  0.5234 -1.5657
 2031SOL    HW217553   2.802   0.680   6.139 -0.0689 -1.3472  2.5965
 2032SOL     OW17554   1.209   1.048  11.427 -0.4724 -0.0960  0.1288
 2032SOL    HW117555   1.262   1.070  11.350 -0.0654  0.1349  0.4763
 2032SOL    HW217556   1.240   0.958  11.441  1.0024  0.6453  1.6504
 2033SOL     OW17557   3.489   0.607   9.203 -0.1134  0.0520 -0.3379
 2033SOL    HW117558   3.398   0.599   9.173 -0.1919  0.7528 -0.2852
 2033SOL    HW217559   3.530   0.533   9.158  2.3803  0.2169  1.7375
 2034SOL     OW17560   4.611   3.510   4.655  0.2952 -0.6569  0.4562
 2034SOL    HW117561   4.596   3.441   4.720  0.5605 -0.6223  0.5524
 2034SOL    HW217562   4.559   3.582   4.690 -3.7106 -3.0625 -0.4249
 2035SOL     OW17563   0.410   2.524   4.973 -0.3117 -0.4466  0.5278
 2035SOL    HW117564   0.370   2.507   4.888  0.8940  1.7503 -0.4487
 2035SOL    HW217565   0.410   2.430   4.991 -1.6089 -0.5908 -0.2004
 2036SOL     OW17566   0.735   2.964   4.451  0.1696 -0.1385 -0.4407
 2036SOL    HW117567   0.797   2.891   4.459 -0.9508 -1.1766 -1.1406
 2036SOL    HW217568   0.709   2.960   4.542  0.0258  0.7090 -0.4470
 2037SOL     OW17569   1.779   4.471   2.450  0.3487  0.4283  0.5284
 2037SOL    HW117570   1.814   4.396   2.402  2.0057  1.1707  0.5498
 2037SOL    HW217571   1.706   4.507   2.400 -0.8114 -2.9958 -0.2587
 2038SOL     OW17572   3.064   0.617   3.886 -0.2128  0.3957 -0.2771
 2038SOL    HW117573   3.070   0.581   3.974 -2.1033  0.6970 -0.0293
 2038SOL    HW217574   3.100   0.705   3.896  0.5290  0.3226 -2.1471
 2039SOL     OW17575   0.996   3.762   0.176  0.3143 -0.2879  0.0685
 2039SOL    HW117576   1.077   3.774   0.225 -0.4313 -1.1771  1.5197
 2039SOL    HW217577   1.023   3.748   0.085 -1.7094 -0.8311 -0.4448
 2040SOL     OW17578   2.882   1.486   4.330  0.1004  0.1315 -0.0426
 2040SOL    HW117579   2.893   1.494   4.425  2.9857 -0.6101 -0.3278
 2040SOL    HW217580   2.971   1.490   4.294  0.4059  1.4483  0.8632
 2041SOL     OW17581   1.404   2.923   5.888  0.3240  0.4350  0.1660
 2041SOL    HW117582   1.432   2.996   5.944  0.1731  1.1194 -0.6497
 2041SOL    HW217583   1.311   2.935   5.872 -0.1594 -2.7322  0.6663
 2042SOL     OW17584   0.858   0.771   8.783  0.5242  0.0691 -0.2778
 2042SOL    HW117585   0.901   0.804   8.704  2.8985 -1.0326  0.5566
 2042SOL    HW217586   0.930   0.745   8.840  0.7675  0.4754 -0.4047
 2043SOL     OW17587   0.337   3.745   3.614 -0.1145  0.4645 -0.2686
 2043SOL    HW117588   0.397   3.810   3.578  0.6756 -0.3422 -0.4097
 2043SOL    HW217589   0.384   3.662   3.604  1.7447  1.3110  1.6525
 2044SOL     OW17590   4.520   1.131  17.536  0.2884  0.1486  0.2308
 2044SOL    HW117591   4.585   1.064  17.513  1.5637  2.7068 -3.5999
 2044SOL    HW217592   4.437   1.090  17.511  0.7545  0.8515 -2.4362
 2045SOL     OW17593   1.855   3.086   4.244 -0.0841  0.2436 -0.3054
 2045SOL    HW117594   1.834   3.172   4.208  0.0056 -0.2472 -1.5227
 2045SOL    HW217595   1.778   3.037   4.216 -0.7087  0.3950  1.1431
 2046SOL     OW17596   1.091   4.099  13.989  0.6575  0.0790 -0.3394
 2046SOL    HW117597   1.097   4.098  13.894  1.8117 -0.3675 -0.2538
 2046SOL    HW217598   1.180   4.104  14.025  0.9277 -0.5016 -0.9477
 2047SOL     OW17599   1.961   0.606   3.482 -0.1221  0.1477  0.2589
 2047SOL    HW117600   1.960   0.602   3.386  0.0493 -1.8188  0.3277
 2047SOL    HW217601   2.030   0.671   3.489 -0.1595 -0.1201  3.1655
 2048SOL     OW17602   4.235   1.536   5.006 -0.5612  0.4988  0.2252
 2048SOL    HW117603   4.321   1.578   5.013  0.7307 -2.2770  0.9507
 2048SOL    HW217604   4.223   1.502   5.095 -1.0043  0.9065  0.3196
 2049SOL     OW17605   2.882   4.062  12.796  0.4741 -0.5382 -0.7389
 2049SOL    HW117606   2.874   4.047  12.890 -0.5995  1.7837 -0.4713
 2049SOL    HW217607   2.792   4.048  12.765 -0.3799  2.3914  0.4568
 2050SOL     OW17608   1.724   2.119   2.494  0.2777  0.1613  0.1431
 2050SOL    HW117609   1.811   2.109   2.455  0.6985 -0.2392  1.1790
 2050SOL    HW217610   1.675   2.057   2.440  1.2569 -0.3286 -0.1789
 2051SOL     OW17611   2.730   1.022  10.862 -0.0086  0.9886  0.2983
 2051SOL    HW117612   2.737   1.017  10.767 -1.0187  1.0503  0.2171
 2051SOL    HW217613   2.811   0.981  10.890  0.2138  0.4497 -1.1492
 2052SOL     OW17614   0.716   0.202   4.932 -0.5550  0.9187  0.0199
 2052SOL    HW117615   0.747   0.153   5.008 -0.3753 -0.4656 -0.9557
 2052SOL    HW217616   0.637   0.153   4.911  1.3461 -0.9617 -2.6938
 2053SOL     OW17617   2.049   3.017   6.501 -0.1256 -0.3805 -0.0751
 2053SOL    HW117618   2.085   3.105   6.514  2.7998 -1.9364  2.2936
 2053SOL    HW217619   2.097   2.965   6.565 -0.5613  0.7281  1.1616
 2054SOL     OW17620   4.394   4.079  12.267  0.2603 -0.3489 -0.2160
 2054SOL    HW117621   4.382   3.991  12.304 -0.9363  0.2793  0.8955
 2054SOL    HW217622   4.428   4.128  12.342  1.9035  2.0917 -2.5737
 2055SOL     OW17623   0.520   4.648  11.556  0.1080  0.2416  0.1760
 2055SOL    HW117624   0.496   4.560  11.587  2.3186 -0.3911  0.1142
 2055SOL    HW217625   0.501   4.710  11.626  0.0344  1.0929 -0.5998
 2056SOL     OW17626   0.531   4.446   3.187 -0.5775 -0.7908 -0.4557
 2056SOL    HW117627   0.474   4.469   3.260  0.1816  1.2121 -0.4769
 2056SOL    HW217628   0.524   4.515   3.121 -2.4865  1.1529  1.7931
 2057SOL     OW17629   1.920   0.446   7.816 -0.1656  0.0943  0.0830
 2057SOL    HW117630   1.984   0.475   7.881  1.7946  0.8056 -2.1848
 2057SOL    HW217631   1.977   0.392   7.761  1.6352  1.2418  0.8226
 2058SOL     OW17632   1.915   1.201   4.404 -0.6013  0.0319 -0.0898
 2058SOL    HW117633   1.852   1.263   4.439 -1.6150  1.0333 -3.7533
 2058SOL    HW217634   1.994   1.238   4.443 -0.7997 -1.4709  1.7676
 2059SOL     OW17635   2.674   3.677   7.768  1.3742 -0.0391  0.4672
 2059SOL    HW117636   2.603   3.660   7.831 -0.4941 -0.3566 -1.6974
 2059SOL    HW217637   2.691   3.767   7.792 -2.8876  1.0183 -0.3721
 2060SOL     OW17638   3.172   1.338   2.761  0.4792  0.3056  0.0483
 2060SOL    HW117639   3.078   1.347   2.748  0.1844 -1.3010  1.1466
 2060SOL    HW217640   3.214   1.328   2.675  1.0578  0.3099  0.3290
 2061SOL     OW17641   2.446   0.354   1.658  0.0599  0.6996 -0.1512
 2061SOL    HW117642   2.409   0.270   1.686  0.6881  0.2391 -0.7141
 2061SOL    HW217643   2.494   0.375   1.738  0.1899  1.0634 -0.3248
 2062SOL     OW17644   3.527   1.858   7.650 -0.1122 -0.3502 -0.3910
 2062SOL    HW117645   3.539   1.827   7.560 -0.6339  0.3587 -0.7004
 2062SOL    HW217646   3.522   1.777   7.701  1.7492 -0.3582 -0.2164
 2063SOL     OW17647   2.227   1.283  12.730 -0.4582 -0.0239  0.3284
 2063SOL    HW117648   2.310   1.242  12.756  0.4670  0.1820 -2.2617
 2063SOL    HW217649   2.265   1.320  12.650  0.2138 -0.8598  0.2547
 2064SOL     OW17650   0.022   2.948   3.361 -0.4452  0.2087 -0.5695
 2064SOL    HW117651   4.666   2.934   3.312 -1.2887  0.7286  0.6882
 2064SOL    HW217652   0.092   2.913   3.306  1.1410  2.8744 -0.2394
 2065SOL     OW17653   2.622   2.180   1.799 -0.3260 -0.1325  0.6415
 2065SOL    HW117654   2.693   2.163   1.860 -0.3772  0.1611  0.7853
 2065SOL    HW217655   2.566   2.238   1.851  1.5164  0.2252  2.1858
 2066SOL     OW17656   2.939   0.333  10.434 -0.1921 -0.3369 -0.3845
 2066SOL    HW117657   2.890   0.405  10.474  1.2780  1.0142 -1.0047
 2066SOL    HW217658   2.989   0.378  10.366 -0.5820 -1.1478 -1.2059
 2067SOL     OW17659   0.167   2.492   5.994 -0.9878  0.1434 -0.1563
 2067SOL    HW117660   0.205   2.579   5.983 -0.7941  0.2531  1.3704
 2067SOL    HW217661   0.197   2.469   6.082 -0.9055  1.8211  0.2612
 2068SOL     OW17662   0.146   2.767  10.576 -0.4493  0.9661  0.2377
 2068SOL    HW117663   0.178   2.727  10.495 -1.5197  0.3136  0.1382
 2068SOL    HW217664   0.087   2.693  10.594  2.4522 -0.8945  2.0625
 2069SOL     OW17665   3.186   3.932   0.132  0.3828  0.4458 -0.0449
 2069SOL    HW117666   3.136   4.012   0.149  0.4321  0.4554  0.0517
 2069SOL    HW217667   3.133   3.865   0.176  0.3950 -1.2355 -2.5569
 2070SOL     OW17668   1.325   0.661  15.566  0.0637  0.3354  0.7558
 2070SOL    HW117669   1.367   0.739  15.601  0.4077 -0.1868  1.5038
 2070SOL    HW217670   1.286   0.692  15.484  0.6132  0.6972  0.6346
 2071SOL     OW17671   0.478   0.008  11.306 -0.1027 -0.2396  0.1554
 2071SOL    HW117672   0.499   4.720  11.398 -0.5755  0.3148  0.3354
 2071SOL    HW217673   0.502   4.646  11.273 -0.3300 -0.7967  1.4790
 2072SOL     OW17674   1.540   2.503   5.163  0.5648 -0.0616 -0.3127
 2072SOL    HW117675   1.502   2.573   5.216  0.7165  0.3278 -0.7200
 2072SOL    HW217676   1.487   2.502   5.084  0.7371 -0.2440 -0.4256
 2073SOL     OW17677   3.742   2.438   4.659  0.2796  0.2541 -0.4589
 2073SOL    HW117678   3.755   2.391   4.576 -1.3334 -2.8784  1.0599
 2073SOL    HW217679   3.652   2.411   4.675  0.4607  0.7067  1.2152
 2074SOL     OW17680   0.970   3.475   8.028 -0.2841  0.2691 -0.2639
 2074SOL    HW117681   0.918   3.400   8.055 -0.3427  0.6679  0.7073
 2074SOL    HW217682   0.918   3.520   7.961  0.0087  0.0652 -0.6287
 2075SOL     OW17683   3.301   0.553   4.711 -0.1704  0.4059 -0.0924
 2075SOL    HW117684   3.218   0.558   4.665 -0.5812  0.2683  0.6424
 2075SOL    HW217685   3.353   0.627   4.679  0.4137 -0.0756 -0.2685
 2076SOL     OW17686   3.745   4.452  15.639  0.4697 -0.4010  0.1739
 2076SOL    HW117687   3.664   4.502  15.651  1.5948  1.0455  1.9050
 2076SOL    HW217688   3.717   4.362  15.653  1.8178 -0.7235  0.8008
 2077SOL     OW17689   2.259   1.047   7.498 -0.2977  0.2499 -0.2198
 2077SOL    HW117690   2.224   1.042   7.586  0.8495  0.1978  0.2396
 2077SOL    HW217691   2.203   1.109   7.451 -1.2820 -1.7262 -1.6445
 2078SOL     OW17692   2.347   3.854  12.122  0.6227 -0.0917  0.1243
 2078SOL    HW117693   2.302   3.939  12.131 -0.3109 -0.3665 -1.8331
 2078SOL    HW217694   2.437   3.886  12.123 -0.1475  2.1710 -1.6066
 2079SOL     OW17695   4.616   4.370   5.867  0.5636 -0.6615  0.1325
 2079SOL    HW117696   4.588   4.439   5.807  0.1142 -1.1663 -0.2384
 2079SOL    HW217697   4.561   4.379   5.945 -0.6623  0.5240 -0.8791
 2080SOL     OW17698   0.596   2.483   6.718 -0.8739  0.0608  0.4911
 2080SOL    HW117699   0.556   2.399   6.699  0.0488 -0.1219 -0.6182
 2080SOL    HW217700   0.643   2.471   6.801  0.6549  0.1097 -0.3765
 2081SOL     OW17701   3.236   2.260   4.356 -0.0294 -0.0383 -0.3530
 2081SOL    HW117702   3.248   2.167   4.375 -0.9947 -0.1634 -0.3260
 2081SOL    HW217703   3.322   2.302   4.361  0.2258 -0.6996  0.6381
 2082SOL     OW17704   0.075   1.077   5.647 -0.2712  0.6430  0.2269
 2082SOL    HW117705   0.010   1.009   5.629  0.7463 -0.5557  1.0815
 2082SOL    HW217706   0.150   1.020   5.663 -1.3298 -1.0438 -0.8551
 2083SOL     OW17707   0.193   2.686   4.289 -0.0144  0.3041  0.1811
 2083SOL    HW117708   0.226   2.690   4.200 -0.9943  1.3905 -0.1315
 2083SOL    HW217709   0.101   2.706   4.272  0.4795  2.0540 -0.4067
 2084SOL     OW17710   0.350   2.322   4.118  0.2982  0.0526 -0.1226
 2084SOL    HW117711   0.306   2.349   4.199  0.5342  0.8457 -0.2587
 2084SOL    HW217712   0.300   2.368   4.051 -2.1942  0.6745  2.1328
 2085SOL     OW17713   1.631   0.667   4.373 -0.1672 -0.2459 -0.2925
 2085SOL    HW117714   1.711   0.651   4.424 -0.7727  0.0768  0.7595
 2085SOL    HW217715   1.657   0.718   4.297  1.5788  0.7486  0.9719
 2086SOL     OW17716   2.239   4.002   2.535  0.4704  0.4108 -0.2185
 2086SOL    HW117717   2.174   4.072   2.526  0.9250  0.8449 -0.1303
 2086SOL    HW217718   2.217   3.936   2.470 -1.0272 -0.7409  1.4442
 2087SOL     OW17719   3.906   0.855   7.104  0.2079 -0.5855  0.7577
 2087SOL    HW117720   3.952   0.906   7.170 -2.2907  0.7718  1.4505
 2087SOL    HW217721   3.843   0.912   7.060 -0.9314 -1.3568  1.3670
 2088SOL     OW17722   4.530   2.616   3.323  0.5734  0.4186 -0.3585
 2088SOL    HW117723   4.513   2.638   3.415  0.6232  1.8099 -0.6909
 2088SOL    HW217724   4.449   2.643   3.280  1.4640  1.2135 -1.5160
 2089SOL     OW17725   3.645   0.512   9.537  0.2626 -0.2313 -0.2142
 2089SOL    HW117726   3.585   0.448   9.499  1.0986  0.4089 -2.6248
 2089SOL    HW217727   3.621   0.511   9.629  0.2485 -0.5304 -0.2205
 2090SOL     OW17728   2.253   4.248   1.243  0.3101 -1.0364 -0.5479
 2090SOL    HW117729   2.299   4.169   1.214  0.5424 -1.2025  0.2731
 2090SOL    HW217730   2.278   4.293   1.162  3.3711  0.5769  1.3012
 2091SOL     OW17731   3.037   2.055  17.392 -0.2079  0.2542  0.5435
 2091SOL    HW117732   3.011   2.031  17.480 -0.2434 -1.0229  0.1840
 2091SOL    HW217733   3.095   1.983  17.369  2.0303  1.9456  0.8468
 2092SOL     OW17734   0.460   3.444  17.286 -0.5419  0.2669 -0.6731
 2092SOL    HW117735   0.487   3.382  17.219 -2.1892 -0.6305 -0.5116
 2092SOL    HW217736   0.364   3.445  17.279 -0.6608 -1.7694  0.5799
 2093SOL     OW17737   2.680   1.937   9.773 -0.1694  0.3369  0.4711
 2093SOL    HW117738   2.657   1.891   9.853  1.6117  1.4693  1.6194
 2093SOL    HW217739   2.594   1.967   9.742 -0.6211  1.9502  3.2951
 2094SOL     OW17740   0.890   0.665   1.071  0.0806  0.5653 -0.0483
 2094SOL    HW117741   0.819   0.690   1.012 -0.8465  0.7346  1.1514
 2094SOL    HW217742   0.848   0.634   1.151  0.0413 -2.3678 -1.1883
 2095SOL     OW17743   2.815   3.283   8.209  0.1634  0.1029 -0.5935
 2095SOL    HW117744   2.869   3.282   8.288 -0.2193  0.2901 -0.3293
 2095SOL    HW217745   2.750   3.350   8.229 -1.7160 -1.9542  0.1388
 2096SOL     OW17746   1.575   0.101   4.205 -0.5678 -0.0746 -0.3815
 2096SOL    HW117747   1.527   0.123   4.125  0.1649  1.0775 -0.5042
 2096SOL    HW217748   1.630   0.030   4.173 -0.4311 -0.0714 -0.1546
 2097SOL     OW17749   1.490   2.672   5.389  0.1720  0.3903  0.5932
 2097SOL    HW117750   1.472   2.750   5.441 -0.4011  0.1463  0.7604
 2097SOL    HW217751   1.401   2.654   5.359  0.1929  1.1135  0.0814
 2098SOL     OW17752   1.748   4.563   7.197 -0.7377 -0.0719  0.0448
 2098SOL    HW117753   1.813   4.550   7.265  1.3239  1.5438 -1.6352
 2098SOL    HW217754   1.688   4.627   7.236 -1.9424 -0.4796 -1.1044
 2099SOL     OW17755   4.691   2.914   1.655  0.2409  0.7114  0.2180
 2099SOL    HW117756   4.705   2.842   1.594  0.7943 -0.4038  1.6656
 2099SOL    HW217757   0.059   2.936   1.665  0.1627  1.2428 -0.2017
 2100SOL     OW17758   0.156   0.090   4.924 -0.3361 -0.4088  0.3032
 2100SOL    HW117759   0.135   4.724   4.945  1.3704 -0.8672  0.0078
 2100SOL    HW217760   0.219   0.108   4.993  0.7867  0.1524 -0.8504
 2101SOL     OW17761   3.361   2.737   8.217  0.4295  0.0565 -0.0266
 2101SOL    HW117762   3.295   2.676   8.183  1.2017 -1.1066  0.5317
 2101SOL    HW217763   3.369   2.710   8.308  1.8733 -1.5966 -0.6324
 2102SOL     OW17764   1.783   0.985  14.437 -0.2781 -0.0541  0.0343
 2102SOL    HW117765   1.689   0.967  14.439 -0.4066  0.7769  1.4484
 2102SOL    HW217766   1.830   0.908  14.407 -1.1554 -0.3953 -0.4772
 2103SOL     OW17767   0.908   1.579  11.944  0.4065 -0.2650 -0.5871
 2103SOL    HW117768   0.917   1.667  11.908  1.3166 -0.3200 -0.5011
 2103SOL    HW217769   0.996   1.547  11.924  1.5347  2.9577 -0.7751
 2104SOL     OW17770   2.816   4.275  15.490  0.6842  0.1670  0.0392
 2104SOL    HW117771   2.887   4.220  15.458  0.8421 -0.7607  1.9711
 2104SOL    HW217772   2.810   4.247  15.582  1.2753 -3.0199 -0.9175
 2105SOL     OW17773   0.220   3.322   6.976  0.3915 -1.0486 -0.1478
 2105SOL    HW117774   0.128   3.312   6.998  0.3155 -0.3353 -0.1514
 2105SOL    HW217775   0.238   3.363   7.061  1.8181  1.0329 -1.4638
 2106SOL     OW17776   3.675   2.416   7.051 -0.5721 -0.4338  0.4345
 2106SOL    HW117777   3.640   2.360   7.120 -2.2673  0.6858  0.4730
 2106SOL    HW217778   3.683   2.358   6.976  3.2700 -0.5709  0.9302
 2107SOL     OW17779   3.278   1.912   6.270 -0.5226 -0.2911 -0.5359
 2107SOL    HW117780   3.306   1.856   6.342 -1.4437 -0.1464 -0.0593
 2107SOL    HW217781   3.350   1.919   6.208 -1.1873  1.8085 -1.0741
 2108SOL     OW17782   1.073   1.646  16.423 -0.3233  0.4037  0.2172
 2108SOL    HW117783   1.073   1.692  16.507  2.6376 -0.7715  0.8816
 2108SOL    HW217784   0.988   1.662  16.382 -1.3201 -2.1626  1.2028
 2109SOL     OW17785   1.538   4.272   2.955 -0.4124  0.6533  0.2136
 2109SOL    HW117786   1.580   4.228   2.881  1.8482 -0.4941  2.1735
 2109SOL    HW217787   1.457   4.222   2.962 -2.3562  3.8166  0.6486
 2110SOL     OW17788   3.084   0.928   5.927  0.4674 -0.0990 -0.4377
 2110SOL    HW117789   3.101   0.890   6.013 -1.9806 -0.8097 -0.2511
 2110SOL    HW217790   3.109   1.017   5.952  1.8759 -0.2775 -1.2102
 2111SOL     OW17791   0.848   3.251   6.179  0.0728 -0.5714 -0.2261
 2111SOL    HW117792   0.912   3.228   6.246 -0.7514  1.9867  1.4582
 2111SOL    HW217793   0.765   3.237   6.224  0.0962  0.7568  0.2382
 2112SOL     OW17794   0.313   0.963   5.665  0.2163 -0.3878 -0.1762
 2112SOL    HW117795   0.356   0.914   5.735  3.5550  1.5691 -0.8889
 2112SOL    HW217796   0.374   0.933   5.598 -3.0909 -1.0515 -2.8832
 2113SOL     OW17797   4.331   2.044  14.919 -0.3693 -0.0504  0.2386
 2113SOL    HW117798   4.409   2.100  14.924 -1.0037  0.6237  2.4625
 2113SOL    HW217799   4.259   2.097  14.885 -1.5848 -1.5535  0.4960
 2114SOL     OW17800   3.614   0.578   1.036  0.5481 -0.2767  0.2096
 2114SOL    HW117801   3.640   0.625   1.115 -1.2944 -0.4172  0.9052
 2114SOL    HW217802   3.527   0.616   1.020  1.1107  1.4968  1.3643
 2115SOL     OW17803   4.709   0.434  15.704  0.0341 -0.3943 -0.3079
 2115SOL    HW117804   4.623   0.410  15.740 -0.8113  3.2082  0.0315
 2115SOL    HW217805   4.672   0.494  15.640  0.6780  1.3646  0.9751
 2116SOL     OW17806   0.150   0.616   6.775  0.3399  0.7114  0.4642
 2116SOL    HW117807   0.168   0.696   6.825 -0.0167  0.8309  0.4005
 2116SOL    HW217808   0.153   0.549   6.843  0.8200  1.0979  0.8237
 2117SOL     OW17809   3.124   1.086   1.210  0.0585 -0.1681 -0.4277
 2117SOL    HW117810   3.046   1.134   1.237  0.2958  0.8245 -1.4883
 2117SOL    HW217811   3.165   1.156   1.159 -1.8109  0.7250 -0.6937
 2118SOL     OW17812   2.544   0.624  10.151 -0.0498 -0.4061  0.0732
 2118SOL    HW117813   2.535   0.573  10.231  0.7193  1.6117  1.4671
 2118SOL    HW217814   2.507   0.560  10.090 -0.4664 -0.4854  0.4104
 2119SOL     OW17815   1.184   3.609   3.105  0.4006  0.8180 -0.2695
 2119SOL    HW117816   1.200   3.515   3.112 -0.5672  0.7670  1.3370
 2119SOL    HW217817   1.097   3.604   3.067 -0.0548  0.4647  0.8335
 2120SOL     OW17818   0.712   2.510  11.470 -0.0337  0.1333 -0.3413
 2120SOL    HW117819   0.704   2.567  11.394  2.5176  2.9520  1.5220
 2120SOL    HW217820   0.748   2.427  11.440 -0.0832 -0.1996  0.5049
 2121SOL     OW17821   0.282   0.927   0.273  0.2326 -0.0250 -0.3351
 2121SOL    HW117822   0.339   0.964   0.204  1.1762 -0.3380  0.2734
 2121SOL    HW217823   0.341   0.893   0.340  0.3792 -2.2305 -1.5943
 2122SOL     OW17824   3.270   4.655   8.348  0.1435  0.0062  0.2180
 2122SOL    HW117825   3.256   0.016   8.308 -1.0607  0.7518  2.2185
 2122SOL    HW217826   3.273   4.679   8.441 -2.4609 -0.1942  0.3661
 2123SOL     OW17827   4.357   4.534  13.186  0.2487  0.4558 -0.6561
 2123SOL    HW117828   4.446   4.566  13.180  0.3560  0.0535 -1.2459
 2123SOL    HW217829   4.375   4.460  13.245  2.6461  1.2669 -0.3919
 2124SOL     OW17830   3.403   3.765   0.073 -0.2804 -0.1020  0.3128
 2124SOL    HW117831   3.396   3.760  17.679 -2.0601 -0.1163  0.4399
 2124SOL    HW217832   3.334   3.824   0.104 -1.4777 -1.3228 -0.0240
 2125SOL     OW17833   1.861   4.501   4.753  0.2387 -0.1915  0.5776
 2125SOL    HW117834   1.930   4.563   4.727 -0.2076  0.8582  1.9440
 2125SOL    HW217835   1.791   4.559   4.782 -0.2643  0.5654 -2.1166
 2126SOL     OW17836   0.866   1.195   6.459  0.1630 -0.6509  0.1667
 2126SOL    HW117837   0.806   1.247   6.406 -0.4237 -0.4122  1.0530
 2126SOL    HW217838   0.893   1.260   6.525 -0.5086  0.6687 -0.8499
 2127SOL     OW17839   3.450   1.883  13.447 -0.6513 -0.3055  0.0062
 2127SOL    HW117840   3.481   1.793  13.459  0.3147 -0.1498 -1.2520
 2127SOL    HW217841   3.532   1.929  13.429 -2.2677  1.4951 -2.7988
 2128SOL     OW17842   2.383   3.044   7.803  0.1651 -0.5524  0.0997
 2128SOL    HW117843   2.438   2.986   7.751  1.1163  0.9522 -0.5539
 2128SOL    HW217844   2.375   3.122   7.749  0.9160 -0.7071 -0.2350
 2129SOL     OW17845   2.700   0.724   4.906  0.1949  1.1785 -0.0995
 2129SOL    HW117846   2.734   0.721   4.995 -0.4008 -1.4712  0.0330
 2129SOL    HW217847   2.694   0.630   4.894 -1.3489  1.1703  0.5914
 2130SOL     OW17848   2.067   3.946   5.606 -0.4397  0.2043  0.2866
 2130SOL    HW117849   2.105   4.033   5.598 -1.8555  0.7187 -0.7113
 2130SOL    HW217850   2.120   3.900   5.672  1.4060 -1.2642 -2.2095
 2131SOL     OW17851   0.343   2.515  15.718 -0.2915  0.2683  0.0039
 2131SOL    HW117852   0.348   2.568  15.638  0.1180  0.2674  0.0248
 2131SOL    HW217853   0.267   2.459  15.707 -0.1359  0.2047 -0.8139
 2132SOL     OW17854   0.438   2.429   8.305 -0.1054 -0.4936 -0.4218
 2132SOL    HW117855   0.376   2.418   8.233 -0.2777  0.7695 -0.4762
 2132SOL    HW217856   0.399   2.362   8.360 -1.1963 -0.6665 -1.3981
 2133SOL     OW17857   0.237   2.910   1.149  0.6045  0.4467  0.1758
 2133SOL    HW117858   0.324   2.877   1.169 -0.4445 -2.5115 -0.1759
 2133SOL    HW217859   0.188   2.907   1.232 -2.3557 -0.0992 -1.5813
 2134SOL     OW17860   3.288   4.086  11.050 -0.1665 -0.1707 -0.0219
 2134SOL    HW117861   3.296   3.995  11.022  0.7280  0.0094 -0.3558
 2134SOL    HW217862   3.195   4.105  11.039 -0.3132 -0.3178  0.9257
 2135SOL     OW17863   2.585   0.493   9.128  0.0621  0.1104  0.6518
 2135SOL    HW117864   2.509   0.465   9.179 -1.3558 -0.5860 -1.8805
 2135SOL    HW217865   2.573   0.584   9.100 -0.8330 -0.5062 -0.9651
 2136SOL     OW17866   3.947   1.902   3.364  0.4640 -0.3790 -0.4227
 2136SOL    HW117867   4.003   1.880   3.291  0.5402 -1.3654 -0.0630
 2136SOL    HW217868   3.900   1.820   3.380  0.6584 -0.3301  0.4197
 2137SOL     OW17869   1.097   0.381   3.326 -0.1877  0.3104  0.8868
 2137SOL    HW117870   1.120   0.417   3.412  1.0735  0.0777  0.6396
 2137SOL    HW217871   1.084   0.463   3.280  0.6688 -0.5780 -0.9370
 2138SOL     OW17872   1.614   3.592   9.496 -0.6746 -0.0407  0.1559
 2138SOL    HW117873   1.674   3.560   9.563 -0.9606  0.5917  0.7129
 2138SOL    HW217874   1.585   3.679   9.524 -1.2405 -0.7472  1.7597
 2139SOL     OW17875   1.822   2.556  16.258 -0.2281  1.0050  0.7231
 2139SOL    HW117876   1.758   2.584  16.193  1.7866  1.4515 -1.0654
 2139SOL    HW217877   1.765   2.568  16.334 -0.0040 -0.0463  1.0460
 2140SOL     OW17878   0.034   0.146  17.652 -0.4484 -0.2152 -0.1169
 2140SOL    HW117879   0.112   0.177  17.697 -2.3910  1.7821  1.8738
 2140SOL    HW217880   0.029   0.218  17.588  2.4291 -0.4348 -0.6026
 2141SOL     OW17881   2.588   4.661   0.130 -0.0590  0.1423 -0.3610
 2141SOL    HW117882   2.495   4.660   0.107 -0.3993  0.0255  1.0605
 2141SOL    HW217883   2.631   4.659   0.044 -0.8562 -0.2440 -0.7611
 2142SOL     OW17884   4.521   1.808  11.743  0.1884  0.1124 -0.1892
 2142SOL    HW117885   4.426   1.806  11.751  0.5630 -1.5511  3.5913
 2142SOL    HW217886   4.546   1.849  11.826  0.4237  0.2207 -0.3147
 2143SOL     OW17887   2.891   0.928   2.671  0.0512  0.0276 -0.1544
 2143SOL    HW117888   2.916   0.848   2.718  0.1081  0.1615  0.0411
 2143SOL    HW217889   2.975   0.954   2.634 -0.3077  1.4665  0.0294
 2144SOL     OW17890   0.621   2.242   4.761 -0.1509 -0.5613  0.3324
 2144SOL    HW117891   0.615   2.211   4.671  1.0901  0.6254 -0.1468
 2144SOL    HW217892   0.708   2.207   4.776 -0.2130 -0.8710 -0.0381
 2145SOL     OW17893   4.413   3.218   0.413  0.2065  0.2744 -0.3907
 2145SOL    HW117894   4.405   3.305   0.454 -1.0162  0.2468 -0.5654
 2145SOL    HW217895   4.476   3.180   0.474 -0.0993  1.9504  1.0015
 2146SOL     OW17896   4.397   3.233   6.672  0.0013  0.3217 -0.1690
 2146SOL    HW117897   4.349   3.202   6.595  0.1433 -0.8790  0.2205
 2146SOL    HW217898   4.347   3.185   6.738  2.8179 -0.8265  1.1408
 2147SOL     OW17899   1.455   0.476   2.077  0.4973  0.1049 -0.0128
 2147SOL    HW117900   1.362   0.499   2.087  0.6128  0.4835  0.2029
 2147SOL    HW217901   1.465   0.511   1.988  0.4191 -1.7424 -0.7469
 2148SOL     OW17902   0.007   2.490  12.043 -0.0709 -0.1829  0.2271
 2148SOL    HW117903   4.723   2.400  12.074 -1.7841 -0.2228 -0.3993
 2148SOL    HW217904   0.054   2.508  12.125 -0.2902  0.9512  0.1055
 2149SOL     OW17905   0.109   3.799  16.240 -0.1074  0.2865 -0.2297
 2149SOL    HW117906   0.191   3.834  16.276  0.4521 -0.1096 -1.1081
 2149SOL    HW217907   0.060   3.794  16.322 -1.3194  0.5162 -0.9500
 2150SOL     OW17908   2.918   4.067   2.527 -0.1083 -0.4280 -0.3549
 2150SOL    HW117909   2.928   4.155   2.491 -0.9836 -0.2570 -0.1653
 2150SOL    HW217910   2.930   4.013   2.449 -0.6733  0.3467 -0.9701
 2151SOL     OW17911   2.281   0.274   0.566  0.0437 -0.8233  0.3219
 2151SOL    HW117912   2.309   0.349   0.619 -0.6856  0.4865 -1.1417
 2151SOL    HW217913   2.365   0.228   0.566  1.3586  1.5536 -1.5869
 2152SOL     OW17914   2.283   0.528  12.501 -0.3546 -0.3995 -0.4614
 2152SOL    HW117915   2.351   0.586  12.467 -1.0531  0.3653 -0.5571
 2152SOL    HW217916   2.205   0.579  12.479 -0.6406 -0.4551  0.4028
 2153SOL     OW17917   2.591   4.480   9.511  0.1001 -0.1121  0.0358
 2153SOL    HW117918   2.554   4.496   9.598 -1.2874 -0.5849 -0.4519
 2153SOL    HW217919   2.676   4.451   9.542 -1.5056 -0.7851  3.7294
 2154SOL     OW17920   2.916   0.885   4.796 -0.6119  0.0586  0.4148
 2154SOL    HW117921   2.871   0.802   4.814 -1.3683  0.6483  1.2434
 2154SOL    HW217922   2.843   0.939   4.766  2.4150  2.7718 -2.0084
 2155SOL     OW17923   0.475   1.206   4.643  0.5742 -0.3674 -0.6492
 2155SOL    HW117924   0.522   1.164   4.571  1.3485  0.0974 -0.4111
 2155SOL    HW217925   0.394   1.155   4.648  0.3428  0.2716  1.9865
 2156SOL     OW17926   1.637   1.434   3.416 -0.3658 -0.1609 -0.1753
 2156SOL    HW117927   1.625   1.434   3.321 -0.0698  2.1127 -0.2195
 2156SOL    HW217928   1.619   1.524   3.442  1.4106 -0.4282  1.9783
 2157SOL     OW17929   1.277   3.404   3.571 -0.0076  0.0157  0.3519
 2157SOL    HW117930   1.242   3.355   3.497 -0.0209  0.4452  0.0724
 2157SOL    HW217931   1.258   3.336   3.636  0.7454 -0.4036  0.1267
 2158SOL     OW17932   1.995   4.363   9.840  0.3511 -0.4584  0.3076
 2158SOL    HW117933   1.950   4.301   9.783 -1.0024  1.9832 -1.2587
 2158SOL    HW217934   1.961   4.331   9.923 -0.9280  0.8796  0.3046
 2159SOL     OW17935   1.849   4.689   5.737  0.5391  0.0645  0.0913
 2159SOL    HW117936   1.770   4.635   5.743  1.5171 -1.6090 -1.7823
 2159SOL    HW217937   1.856   0.021   5.813 -0.1503 -2.3763  1.9710
 2160SOL     OW17938   2.984   4.043   5.959 -0.4386  0.0086 -0.3451
 2160SOL    HW117939   3.036   4.077   6.032  1.2574  0.5285 -1.8011
 2160SOL    HW217940   2.993   3.950   5.979  1.3924  0.5484  1.3623
 2161SOL     OW17941   2.921   3.827   3.802 -0.7738  0.0994  0.1291
 2161SOL    HW117942   2.986   3.765   3.834 -0.1703  1.6101  1.8299
 2161SOL    HW217943   2.835   3.790   3.820 -0.6680 -0.1059  0.2166
 2162SOL     OW17944   4.547   0.439   2.518 -0.2200  0.1717  0.1890
 2162SOL    HW117945   4.487   0.412   2.449  2.5486  1.7816 -2.8611
 2162SOL    HW217946   4.524   0.532   2.513  0.5746  0.2285 -1.9742
 2163SOL     OW17947   2.134   0.534   6.099 -0.0270 -0.3427  0.0075
 2163SOL    HW117948   2.120   0.622   6.062  0.4726 -0.0100  0.6161
 2163SOL    HW217949   2.229   0.525   6.103 -0.0128 -0.5030 -0.5855
 2164SOL     OW17950   2.110   3.074   3.192  0.7769 -0.5399 -0.0305
 2164SOL    HW117951   2.056   3.053   3.268 -0.2277  2.4584  0.0666
 2164SOL    HW217952   2.043   3.062   3.124 -0.6483 -0.2763  1.3323
 2165SOL     OW17953   1.144   2.287   2.732  0.0595 -0.0528 -0.0875
 2165SOL    HW117954   1.236   2.264   2.719 -0.3286 -0.8173 -1.5748
 2165SOL    HW217955   1.107   2.201   2.752 -1.4973  0.1685 -1.9648
 2166SOL     OW17956   1.436   4.043   7.128 -0.1842  0.2332  0.1208
 2166SOL    HW117957   1.342   4.026   7.122 -0.0310 -0.3889 -0.5387
 2166SOL    HW217958   1.472   3.980   7.065  0.2621  0.2389  0.3679
 2167SOL     OW17959   4.368   2.831   6.806  0.0932  0.1105 -0.2684
 2167SOL    HW117960   4.311   2.781   6.864  0.7485 -1.5465 -1.0292
 2167SOL    HW217961   4.338   2.921   6.818 -0.3031 -0.3956  2.6608
 2168SOL     OW17962   3.635   3.665   5.252  0.5158 -0.1121 -0.1241
 2168SOL    HW117963   3.706   3.633   5.307  0.9864  2.2862  0.6150
 2168SOL    HW217964   3.590   3.581   5.241 -0.1716  0.2491 -0.0677
 2169SOL     OW17965   0.815   4.265   1.173  0.1769  0.1694  0.4255
 2169SOL    HW117966   0.749   4.316   1.127  1.8167 -0.7410 -2.9337
 2169SOL    HW217967   0.811   4.184   1.122 -2.9907 -1.3490  3.1017
 2170SOL     OW17968   0.162   1.913   7.789  0.0258 -0.0627 -0.1702
 2170SOL    HW117969   0.174   1.867   7.872  2.7634 -2.1652 -1.7442
 2170SOL    HW217970   0.242   1.895   7.739 -0.4937  2.2548 -1.8547
 2171SOL     OW17971   0.410   1.176   5.859  0.0674 -0.1345 -0.2609
 2171SOL    HW117972   0.468   1.139   5.925  1.6301  2.7118 -0.0319
 2171SOL    HW217973   0.403   1.102   5.799 -0.4196 -1.1996  1.1220
 2172SOL     OW17974   0.915   3.246   7.543 -0.3264  0.0855 -0.0104
 2172SOL    HW117975   0.828   3.261   7.506 -0.8317 -1.4491  0.5536
 2172SOL    HW217976   0.955   3.181   7.485 -1.9423 -1.3233  0.4600
 2173SOL     OW17977   1.433   4.407   4.709  0.4013 -0.5812  0.0533
 2173SOL    HW117978   1.447   4.319   4.742  1.4696 -0.0782  0.9414
 2173SOL    HW217979   1.435   4.398   4.613  2.4190 -0.9789  0.1313
 2174SOL     OW17980   1.997   1.634   3.056  0.3531 -0.0105 -0.6596
 2174SOL    HW117981   2.052   1.711   3.038 -1.7078  1.9987  1.6998
 2174SOL    HW217982   1.941   1.651   3.131  0.0295 -0.6388 -0.7618
 2175SOL     OW17983   0.250   2.943   4.418 -0.0158 -0.0098  1.6094
 2175SOL    HW117984   0.200   2.887   4.359 -1.1227  1.5421  1.0715
 2175SOL    HW217985   0.228   3.029   4.381  0.3449 -0.0246  1.3571
 2176SOL     OW17986   3.119   4.637  13.591 -0.0360  0.0834  0.2728
 2176SOL    HW117987   3.080   4.592  13.516 -1.0396  0.0804  0.8058
 2176SOL    HW217988   3.164   4.710  13.549 -0.0615 -0.5012 -0.7862
 2177SOL     OW17989   1.836   2.418   5.497  0.0715  0.1856 -0.3058
 2177SOL    HW117990   1.763   2.455   5.546 -0.4768 -2.0784  0.5498
 2177SOL    HW217991   1.839   2.463   5.412  0.7770  1.2244  0.2634
 2178SOL     OW17992   3.854   2.268   8.080 -0.5543 -0.0469  0.7612
 2178SOL    HW117993   3.943   2.283   8.112 -1.0447 -1.4598  2.7866
 2178SOL    HW217994   3.857   2.175   8.059 -1.4188  0.2163 -0.4951
 2179SOL     OW17995   4.380   0.525   3.563 -0.8266 -0.3453 -0.1274
 2179SOL    HW117996   4.371   0.555   3.473 -1.4473 -0.6319 -0.1602
 2179SOL    HW217997   4.474   0.510   3.566 -0.1883  3.2711 -1.3119
 2180SOL     OW17998   4.688   2.383   3.416 -0.2333 -0.6506  0.0086
 2180SOL    HW117999   4.675   2.457   3.476  4.6379  0.3894 -0.2346
 2180SOL    HW218000   4.661   2.423   3.334  1.9432  0.6079 -0.0889
 2181SOL     OW18001   3.221   1.691   0.195 -0.3926  0.2727  0.6181
 2181SOL    HW118002   3.237   1.756   0.127 -2.9253  1.5204  1.2080
 2181SOL    HW218003   3.129   1.679   0.175 -0.6360  1.5402  0.9689
 2182SOL     OW18004   1.688   4.592   4.137  0.6803 -0.5247  0.1306
 2182SOL    HW118005   1.597   4.565   4.150  0.6769 -0.7169 -0.2837
 2182SOL    HW218006   1.716   4.523   4.077  1.1093 -2.3009  2.3336
 2183SOL     OW18007   1.029   3.658   9.366  0.9128 -0.1124 -0.2234
 2183SOL    HW118008   0.960   3.669   9.300  0.1480 -1.8958  0.3004
 2183SOL    HW218009   1.073   3.741   9.348  1.3199  0.1619  2.0637
 2184SOL     OW18010   1.560   2.472   2.007 -0.1658 -0.3358  0.2235
 2184SOL    HW118011   1.515   2.416   1.944 -4.1433  0.9823  1.8564
 2184SOL    HW218012   1.649   2.445   1.986 -0.2900 -0.5743  0.0156
 2185SOL     OW18013   1.090   3.229  16.891  0.3906 -0.2975 -0.3269
 2185SOL    HW118014   0.996   3.221  16.910  0.4030  0.4046  0.0234
 2185SOL    HW218015   1.128   3.243  16.978 -0.1823 -0.4560 -0.0493
 2186SOL     OW18016   3.607   3.424   2.659 -0.5675  0.6564 -0.5908
 2186SOL    HW118017   3.603   3.360   2.730 -0.5498  1.4722  0.1534
 2186SOL    HW218018   3.696   3.460   2.664  0.9551 -3.1473 -0.3797
 2187SOL     OW18019   2.569   1.969   7.371 -0.2234 -0.2928 -0.1631
 2187SOL    HW118020   2.555   1.887   7.418 -0.2311 -0.4281 -0.4001
 2187SOL    HW218021   2.579   2.036   7.439 -0.9129  2.2776 -2.5904
 2188SOL     OW18022   4.539   2.573   2.863 -0.1456  0.2772  0.2337
 2188SOL    HW118023   4.503   2.611   2.783 -2.0052  2.7846  2.2421
 2188SOL    HW218024   4.598   2.638   2.900 -0.3868  0.1251  0.8878
 2189SOL     OW18025   1.008   2.326   8.321 -0.6211  0.2179  0.8261
 2189SOL    HW118026   0.957   2.342   8.400 -1.4489 -1.7698  0.6808
 2189SOL    HW218027   0.980   2.401   8.269  2.1151 -0.1611 -1.1891
 2190SOL     OW18028   3.529   1.157   5.977  0.0551 -0.4727 -0.2337
 2190SOL    HW118029   3.587   1.128   5.906  0.3859 -0.8872  0.2082
 2190SOL    HW218030   3.459   1.201   5.928 -0.3934  0.1701  0.9950
 2191SOL     OW18031   4.111   2.123   5.547 -0.7774  0.0606 -0.5926
 2191SOL    HW118032   4.177   2.054   5.544 -0.5283  0.2063  1.4526
 2191SOL    HW218033   4.051   2.103   5.475  1.8772  0.2810 -2.8570
 2192SOL     OW18034   1.380   1.994   8.016  0.0455 -0.4061 -0.5581
 2192SOL    HW118035   1.346   1.913   7.978 -1.5181  0.1116 -0.2252
 2192SOL    HW218036   1.307   2.054   8.001  0.8723 -0.0063 -3.1842
 2193SOL     OW18037   1.977   4.617   2.511  0.1401  0.1184 -0.3009
 2193SOL    HW118038   1.898   4.568   2.486  0.5106 -0.2129 -0.8223
 2193SOL    HW218039   2.001   4.586   2.598 -0.0830  0.5832 -0.0754
 2194SOL     OW18040   3.003   3.520   1.395 -0.0634 -0.7083 -0.1668
 2194SOL    HW118041   2.944   3.575   1.344 -2.1863  1.0938  4.2279
 2194SOL    HW218042   2.990   3.565   1.479 -1.9341  1.2943 -1.5401
 2195SOL     OW18043   1.689   3.330  13.890  0.3784 -0.7103 -0.1364
 2195SOL    HW118044   1.642   3.250  13.911 -0.6017 -0.0087  0.3076
 2195SOL    HW218045   1.735   3.346  13.973  1.3773  1.5037 -1.0919
 2196SOL     OW18046   1.184   4.404   4.172 -0.4580 -0.1540  0.6820
 2196SOL    HW118047   1.121   4.467   4.205  1.4442  2.3707 -0.5162
 2196SOL    HW218048   1.126   4.330   4.154 -1.0722  0.2830  0.8861
 2197SOL     OW18049   0.320   0.182   6.710  0.1768 -0.1097 -0.1360
 2197SOL    HW118050   0.316   0.214   6.620 -0.4163  1.1317  0.3398
 2197SOL    HW218051   0.406   0.217   6.732  1.4177 -1.0989 -3.3144
 2198SOL     OW18052   2.771   0.245  12.992  0.5025  0.4487  0.2400
 2198SOL    HW118053   2.804   0.240  12.902  0.1018 -1.8924  0.1997
 2198SOL    HW218054   2.741   0.335  12.997  1.7163  0.8648 -0.0270
 2199SOL     OW18055   3.169   0.623   1.890  0.2176  0.0297  0.5039
 2199SOL    HW118056   3.141   0.697   1.837  0.3510  0.2425  0.7301
 2199SOL    HW218057   3.218   0.675   1.954  1.1089  1.2634 -1.2081
 2200SOL     OW18058   2.881   2.669   3.474  0.5046 -0.1671  0.1245
 2200SOL    HW118059   2.886   2.749   3.422 -0.7463 -0.4464 -0.4332
 2200SOL    HW218060   2.962   2.628   3.447  0.3203  0.0270 -0.7136
 2201SOL     OW18061   1.113   1.147   8.119  0.1329  0.1835 -0.3027
 2201SOL    HW118062   1.047   1.206   8.082  0.2279  0.7363  0.4184
 2201SOL    HW218063   1.100   1.174   8.210 -1.8807 -0.9269 -0.2562
 2202SOL     OW18064   2.430   1.066  13.129  0.4327  0.5623 -0.1484
 2202SOL    HW118065   2.514   1.106  13.152  0.6031  0.7091 -1.0137
 2202SOL    HW218066   2.390   1.038  13.211 -0.7559  0.9293 -0.6123
 2203SOL     OW18067   4.234   3.035   5.775  0.0129 -0.0617  0.2211
 2203SOL    HW118068   4.265   3.042   5.865  0.6660 -0.1546  0.0029
 2203SOL    HW218069   4.313   3.006   5.730 -0.9944 -2.1510 -0.2027
 2204SOL     OW18070   3.572   2.302   7.255  0.3144  0.7070 -0.0787
 2204SOL    HW118071   3.525   2.333   7.332  0.4736  0.2798  0.1907
 2204SOL    HW218072   3.656   2.286   7.298  0.3386 -0.0636 -0.4241
 2205SOL     OW18073   3.987   1.388   8.211 -0.0518  0.2677  0.0139
 2205SOL    HW118074   3.935   1.347   8.280 -0.6412 -0.5794 -0.9342
 2205SOL    HW218075   4.047   1.443   8.262 -1.2161  0.5301  1.0801
 2206SOL     OW18076   3.335   1.917   6.782  0.0453  0.1774  0.4936
 2206SOL    HW118077   3.342   1.879   6.695  1.8816  1.9982 -0.1502
 2206SOL    HW218078   3.319   2.007   6.752 -0.0293  0.1861  0.5584
 2207SOL     OW18079   3.650   4.109  13.586 -0.1984 -0.1402 -0.7286
 2207SOL    HW118080   3.698   4.063  13.655 -1.7647  0.5072  0.8050
 2207SOL    HW218081   3.684   4.068  13.507  0.7639  0.8016 -0.8089
 2208SOL     OW18082   2.626   2.607  14.316 -0.3133  0.1343  0.6577
 2208SOL    HW118083   2.717   2.586  14.294 -0.1402  0.8291  0.7191
 2208SOL    HW218084   2.647   2.661  14.392 -0.6911 -0.5936  1.2814
 2209SOL     OW18085   2.545   0.830   9.792 -0.4415 -0.3347  0.3677
 2209SOL    HW118086   2.529   0.876   9.874  0.5319 -0.0830  0.4152
 2209SOL    HW218087   2.618   0.769   9.808  1.5300  2.7286  3.1414
 2210SOL     OW18088   4.412   1.641   7.276 -0.2615  0.6115 -0.1795
 2210SOL    HW118089   4.339   1.645   7.338 -0.4852 -1.9389 -0.3002
 2210SOL    HW218090   4.385   1.718   7.226  0.5545  1.0579  0.0700
 2211SOL     OW18091   3.962   1.745  11.947 -0.0923 -0.5465 -0.1226
 2211SOL    HW118092   3.869   1.760  11.964 -0.0733  1.3353 -1.6038
 2211SOL    HW218093   3.966   1.651  11.931 -0.0794 -1.1423  3.5680
 2212SOL     OW18094   2.341   3.587  17.508  0.4235 -0.0145  0.3248
 2212SOL    HW118095   2.388   3.575  17.591 -0.5802 -0.9297  0.7495
 2212SOL    HW218096   2.282   3.657  17.536 -2.8540 -2.0324 -1.6618
 2213SOL     OW18097   4.462   0.162  17.636 -0.1995 -0.0525  0.5362
 2213SOL    HW118098   4.458   0.070  17.610 -1.5416 -0.4327  2.0904
 2213SOL    HW218099   4.554   0.183  17.653 -0.0942  1.4060 -1.8471
 2214SOL     OW18100   0.726   2.689   6.544  0.2541  0.1106  0.1982
 2214SOL    HW118101   0.660   2.623   6.566 -2.3223  1.9317 -2.0729
 2214SOL    HW218102   0.751   2.667   6.455 -0.2402 -0.5164  0.2142
 2215SOL     OW18103   3.942   0.799   3.965  0.6142  0.4012 -0.1954
 2215SOL    HW118104   3.851   0.781   3.940  0.5297 -1.1170  1.2458
 2215SOL    HW218105   3.948   0.761   4.053 -0.3448  2.1413  0.6142
 2216SOL     OW18106   4.525   4.578   9.201 -0.7604  0.1219 -0.3335
 2216SOL    HW118107   4.531   4.617   9.114  0.6611 -0.5064 -0.5117
 2216SOL    HW218108   4.584   4.641   9.244 -1.4475 -0.6063  1.6668
 2217SOL     OW18109   4.010   4.630   4.628 -0.2329  0.3278 -0.3645
 2217SOL    HW118110   4.051   4.675   4.702  0.1585 -1.3231  0.4112
 2217SOL    HW218111   4.092   4.605   4.585 -0.4739 -1.8708  0.4571
 2218SOL     OW18112   2.158   0.054   7.101 -0.0801  0.2382 -0.3455
 2218SOL    HW118113   2.151   0.147   7.123  1.6697 -0.1598  1.8707
 2218SOL    HW218114   2.072   0.035   7.062  0.8344 -0.8490 -1.8391
 2219SOL     OW18115   3.059   4.179   5.163  0.2620  0.0085 -0.3169
 2219SOL    HW118116   3.059   4.187   5.258  2.4640 -0.3563 -0.2747
 2219SOL    HW218117   3.129   4.117   5.140 -0.8959 -1.3202 -0.2252
 2220SOL     OW18118   2.962   1.287   8.318  0.3254  0.3364 -0.3295
 2220SOL    HW118119   2.889   1.347   8.305 -0.2631 -0.1192  0.8665
 2220SOL    HW218120   2.914   1.204   8.320  1.5462 -0.2779  3.0540
 2221SOL     OW18121   2.722   4.227   5.346 -0.0819  0.3293  0.1900
 2221SOL    HW118122   2.715   4.204   5.254 -0.4470  2.4166 -0.2982
 2221SOL    HW218123   2.655   4.295   5.353  0.7965  1.4289 -2.0526
 2222SOL     OW18124   3.554   0.630  14.070  0.0940 -0.6339  0.0151
 2222SOL    HW118125   3.518   0.671  14.148 -0.1480  0.7291 -0.8039
 2222SOL    HW218126   3.474   0.595  14.033  0.1752 -0.9315  0.1258
 2223SOL     OW18127   1.075   0.384  14.928  0.1045 -0.2635 -0.3594
 2223SOL    HW118128   0.993   0.345  14.958  1.7623 -3.2186  0.3822
 2223SOL    HW218129   1.107   0.423  15.009  1.7530  0.8856 -1.5765
 2224SOL     OW18130   4.496   4.150   6.470  0.3862 -0.0635 -0.3550
 2224SOL    HW118131   4.584   4.184   6.455  0.8886 -1.2011  0.0058
 2224SOL    HW218132   4.480   4.145   6.564 -0.6866 -1.0981 -0.5860
 2225SOL     OW18133   3.771   0.870  14.304  0.7374 -0.0822 -0.3028
 2225SOL    HW118134   3.797   0.778  14.301 -1.3074 -0.7141  1.8051
 2225SOL    HW218135   3.832   0.915  14.245  3.2463 -1.8022  0.9783
 2226SOL     OW18136   0.070   4.010   4.026 -0.0993 -0.4079  0.5893
 2226SOL    HW118137   0.016   4.080   3.990 -0.1277 -0.4226  0.6030
 2226SOL    HW218138   0.137   3.990   3.961 -0.0831 -1.1150  0.8222
 2227SOL     OW18139   2.860   2.439   4.621  0.4576 -0.2080 -0.2177
 2227SOL    HW118140   2.869   2.471   4.711 -0.9614  1.4791 -0.6874
 2227SOL    HW218141   2.935   2.380   4.622 -0.1258 -0.9348  0.8566
 2228SOL     OW18142   3.306   1.347   7.811  0.3944  0.3148 -0.2883
 2228SOL    HW118143   3.340   1.406   7.878  0.7711 -0.8827  0.5718
 2228SOL    HW218144   3.225   1.395   7.791  0.0266  0.6424  2.0129
 2229SOL     OW18145   0.824   3.032  14.085 -0.1456 -0.2059 -0.0618
 2229SOL    HW118146   0.733   3.014  14.060 -0.0534 -0.5949 -0.1239
 2229SOL    HW218147   0.806   3.124  14.102  1.0160  0.3530 -1.8201
 2230SOL     OW18148   0.936   2.402   2.869  0.3741  0.0077 -0.5731
 2230SOL    HW118149   1.018   2.367   2.833  0.4756 -1.2600  0.9016
 2230SOL    HW218150   0.870   2.365   2.811  1.1999  0.6431 -1.9193
 2231SOL     OW18151   3.361   1.491   8.421 -0.3858 -0.3874  0.2585
 2231SOL    HW118152   3.358   1.447   8.506  0.5944 -0.6929  0.1403
 2231SOL    HW218153   3.456   1.504   8.422 -0.5527  0.7730  1.1913
 2232SOL     OW18154   2.247   3.538   5.940  0.0818  0.1482  0.2144
 2232SOL    HW118155   2.277   3.448   5.925  1.8612  0.8274 -0.3339
 2232SOL    HW218156   2.167   3.538   5.886 -0.1809 -1.2204  0.6047
 2233SOL     OW18157   4.193   1.965  15.930 -0.1306 -0.2198  0.2754
 2233SOL    HW118158   4.247   1.939  16.005  2.0217 -0.3037 -1.2764
 2233SOL    HW218159   4.203   1.885  15.879  0.8772  1.3813 -2.0620
 2234SOL     OW18160   1.443   2.701   4.557  0.0179 -0.4509  0.0806
 2234SOL    HW118161   1.442   2.609   4.530  2.5766 -0.8362  1.3179
 2234SOL    HW218162   1.447   2.751   4.475  1.5742  2.1603  1.7753
 2235SOL     OW18163   0.508   0.382   8.347 -0.0645 -0.6222 -0.4268
 2235SOL    HW118164   0.414   0.388   8.358 -0.0510  1.0578 -1.2063
 2235SOL    HW218165   0.531   0.475   8.340  0.1042 -0.4431  2.6101
 2236SOL     OW18166   2.459   4.167  14.304  0.4380  0.3592 -0.2060
 2236SOL    HW118167   2.480   4.259  14.288 -2.4024  1.0463 -0.0859
 2236SOL    HW218168   2.368   4.175  14.334  1.1191  0.5612  1.7809
 2237SOL     OW18169   4.154   2.687   9.337  0.3792 -0.0652  0.2277
 2237SOL    HW118170   4.158   2.773   9.297 -0.4009 -0.6738 -1.1843
 2237SOL    HW218171   4.059   2.677   9.336  0.1705  2.0925  0.2372
 2238SOL     OW18172   2.909   0.071   5.506  0.1318 -0.4349  0.0421
 2238SOL    HW118173   2.980   0.132   5.523 -1.3363  1.1130  0.6538
 2238SOL    HW218174   2.951   4.717   5.539  1.3846  0.3002  0.2004
 2239SOL     OW18175   1.134   4.033   3.616  0.2779 -0.2218  0.3502
 2239SOL    HW118176   1.221   3.994   3.602  0.9027  2.1705 -2.4037
 2239SOL    HW218177   1.132   4.117   3.571 -0.3805 -1.6424 -2.2527
 2240SOL     OW18178   1.806   0.078  13.757  0.0268 -0.2891  0.7335
 2240SOL    HW118179   1.842   0.098  13.671 -1.0990  0.0445  0.3352
 2240SOL    HW218180   1.762   0.159  13.784  3.0285  1.9601 -1.0564
 2241SOL     OW18181   1.333   3.005  12.313  0.0962 -0.1632 -0.2922
 2241SOL    HW118182   1.350   3.050  12.230  0.8010 -0.4420 -0.3019
 2241SOL    HW218183   1.388   2.928  12.300 -0.7412 -0.5800 -1.3847
 2242SOL     OW18184   1.433   1.204  12.224  0.1144 -0.4368 -0.0999
 2242SOL    HW118185   1.512   1.165  12.187  1.4990  1.0582  1.2870
 2242SOL    HW218186   1.440   1.285  12.173 -0.0156 -0.9133 -0.8709
 2243SOL     OW18187   3.648   4.586  17.532  0.2260  0.0762  0.4614
 2243SOL    HW118188   3.568   4.594  17.583 -0.0812  1.6621 -0.2598
 2243SOL    HW218189   3.684   4.503  17.564 -1.7630 -1.2771 -0.7825
 2244SOL     OW18190   3.169   2.469   0.235  0.5392 -0.2174 -0.1041
 2244SOL    HW118191   3.130   2.383   0.223 -1.9970  0.9633 -0.2469
 2244SOL    HW218192   3.096   2.520   0.200  0.5896 -0.0398  0.0458
 2245SOL     OW18193   3.668   3.941   2.988  0.5278 -0.0478  0.6455
 2245SOL    HW118194   3.668   3.850   2.960  2.0982  0.1688 -0.0465
 2245SOL    HW218195   3.762   3.959   2.984  0.4374  0.5383  1.0849
 2246SOL     OW18196   3.749   2.336  11.005  0.2923 -0.4822  0.2289
 2246SOL    HW118197   3.729   2.333  11.099 -1.4319 -0.8812 -0.1499
 2246SOL    HW218198   3.732   2.249  10.970 -0.8998  0.2235 -0.9351
 2247SOL     OW18199   3.864   3.371  12.950  0.6087 -0.2038  0.2707
 2247SOL    HW118200   3.783   3.381  13.000  0.1402 -0.8582 -0.3567
 2247SOL    HW218201   3.892   3.285  12.983  1.6025  0.0268  0.0215
 2248SOL     OW18202   0.536   4.588  10.893 -0.6959  0.1817  0.6473
 2248SOL    HW118203   0.516   4.526  10.963 -2.3164  0.8230  0.7557
 2248SOL    HW218204   0.447   4.600  10.860 -1.7729  0.2477  3.5990
 2249SOL     OW18205   0.156   0.047  13.999  0.2883  0.7242 -0.8013
 2249SOL    HW118206   0.165   0.014  14.088  0.9600  2.1118 -0.3516
 2249SOL    HW218207   0.246   0.033  13.969  0.8360  2.7687 -0.1652
 2250SOL     OW18208   1.551   1.997   7.656  0.6436 -0.4067 -0.0251
 2250SOL    HW118209   1.535   2.035   7.570  0.5450  0.3703  0.3436
 2250SOL    HW218210   1.463   1.975   7.688  0.3753  0.7935  0.0621
 2251SOL     OW18211   3.672   2.350  14.582 -0.4006 -0.3116  0.0945
 2251SOL    HW118212   3.672   2.434  14.627  0.2733  1.8900 -3.9946
 2251SOL    HW218213   3.766   2.333  14.574 -0.4869 -0.9654  0.4700
 2252SOL     OW18214   2.564   1.565   5.129 -0.6602 -0.3869  0.4195
 2252SOL    HW118215   2.609   1.603   5.205  1.6102 -1.3253 -0.4358
 2252SOL    HW218216   2.473   1.578   5.154 -0.8904  0.0787 -0.6323
 2253SOL     OW18217   1.512   0.649   5.223 -0.0438  0.8261  0.6312
 2253SOL    HW118218   1.562   0.713   5.172  0.6326 -0.8813 -0.8498
 2253SOL    HW218219   1.456   0.714   5.264 -0.2269 -0.0955  1.8326
 2254SOL     OW18220   4.390   2.878  15.342 -0.0775 -0.1347  0.4960
 2254SOL    HW118221   4.464   2.833  15.302  1.6909  2.9609  0.2950
 2254SOL    HW218222   4.352   2.816  15.405 -2.0068 -1.2629 -1.7666
 2255SOL     OW18223   0.662   0.592   9.715  0.5670 -0.1252  0.0883
 2255SOL    HW118224   0.638   0.510   9.757  1.4378  0.8173  2.4513
 2255SOL    HW218225   0.755   0.578   9.695  0.3795 -0.8997 -0.2464
 2256SOL     OW18226   0.307   1.610   2.988  0.4327 -0.0503  0.5649
 2256SOL    HW118227   0.381   1.653   2.945 -0.0676  0.6173  0.3707
 2256SOL    HW218228   0.322   1.638   3.078  1.3353 -0.5162  0.5635
 2257SOL     OW18229   3.225   1.475   5.035 -0.0648  0.3855 -0.5399
 2257SOL    HW118230   3.310   1.519   5.031 -0.0426  0.3567 -0.3951
 2257SOL    HW218231   3.177   1.536   4.978 -2.2482 -1.5023 -0.7072
 2258SOL     OW18232   2.858   1.159   0.802  1.0073 -0.2886  0.1141
 2258SOL    HW118233   2.935   1.106   0.821  1.4288  0.4547  0.4752
 2258SOL    HW218234   2.877   1.181   0.711 -0.4569  0.2921 -0.0583
 2259SOL     OW18235   3.940   4.444   2.294 -0.2335 -0.1272  0.2817
 2259SOL    HW118236   3.903   4.399   2.369  1.7824  1.0980  2.0090
 2259SOL    HW218237   3.859   4.477   2.256 -0.4562 -0.1338  0.7494
 2260SOL     OW18238   0.024   2.831   2.153  0.0337 -0.4946 -0.2475
 2260SOL    HW118239   0.000   2.876   2.071  0.9796  0.6665  0.1197
 2260SOL    HW218240   0.048   2.743   2.123  1.2637 -0.3037  0.1759
 2261SOL     OW18241   2.000   4.174   7.950 -0.2594  0.5206  0.5398
 2261SOL    HW118242   2.056   4.235   7.996  2.4644 -0.5675 -1.3277
 2261SOL    HW218243   2.062   4.127   7.895  0.0799  0.2260  1.1794
 2262SOL     OW18244   2.942   2.612   8.905  0.0698 -0.0518 -0.2918
 2262SOL    HW118245   2.953   2.652   8.991 -0.8193  0.6831 -0.5221
 2262SOL    HW218246   2.856   2.644   8.877 -0.1343  0.3327  0.7747
 2263SOL     OW18247   1.835   4.353   5.169  0.0401 -0.1052 -0.0114
 2263SOL    HW118248   1.804   4.281   5.223 -0.5541  0.0678 -0.1214
 2263SOL    HW218249   1.754   4.386   5.129 -1.3528 -2.2407  1.0354
 2264SOL     OW18250   3.722   3.543   9.624 -0.3464  0.1093  0.2304
 2264SOL    HW118251   3.634   3.564   9.595 -0.3796  0.2487  0.4387
 2264SOL    HW218252   3.760   3.629   9.639 -0.6954  0.0398  1.5568
 2265SOL     OW18253   2.821   3.324   8.587  0.4021  0.2931  0.2242
 2265SOL    HW118254   2.730   3.331   8.559  0.2514  1.7028  1.0602
 2265SOL    HW218255   2.848   3.413   8.565  2.2295 -0.5619 -0.9740
 2266SOL     OW18256   4.341   4.383   7.904  0.4181 -0.4086 -0.0902
 2266SOL    HW118257   4.364   4.474   7.886 -0.1176 -0.3801 -0.6017
 2266SOL    HW218258   4.420   4.360   7.953  1.4665  0.9826 -1.1298
 2267SOL     OW18259   0.765   2.526  15.351 -0.0899  0.0113  0.1416
 2267SOL    HW118260   0.833   2.528  15.419  1.6969  1.5437 -1.7119
 2267SOL    HW218261   0.814   2.472  15.290 -0.2703 -0.8491  0.7640
 2268SOL     OW18262   3.628   3.045   8.193 -0.2878 -0.0723 -0.3068
 2268SOL    HW118263   3.716   3.071   8.218 -0.0730  0.8925 -2.0444
 2268SOL    HW218264   3.600   2.997   8.271 -1.5872 -1.1489 -1.4367
 2269SOL     OW18265   2.224   0.537  11.160 -0.4529  0.0735  0.6043
 2269SOL    HW118266   2.269   0.579  11.087  0.4835 -1.5416  0.2438
 2269SOL    HW218267   2.300   0.489  11.192 -1.0542 -0.5159  1.1432
 2270SOL     OW18268   2.351   4.525   2.816  0.0957 -0.0455 -0.5240
 2270SOL    HW118269   2.426   4.543   2.759  0.0466  0.4740 -0.4231
 2270SOL    HW218270   2.367   4.434   2.840 -1.6242  0.1938  1.5307
 2271SOL     OW18271   2.503   3.070   4.146  0.1873  0.1763 -0.2023
 2271SOL    HW118272   2.457   3.024   4.216  3.0515  0.7453  2.0475
 2271SOL    HW218273   2.554   2.994   4.118  0.2516 -0.4827  1.6830
 2272SOL     OW18274   3.485   1.288   6.962  0.1904  0.6427  0.4944
 2272SOL    HW118275   3.565   1.308   7.011 -1.1055  2.7460  1.7100
 2272SOL    HW218276   3.432   1.358   6.999 -3.2422 -0.9771 -1.3832
 2273SOL     OW18277   3.828   0.294  17.030 -0.2090 -0.2238 -0.2211
 2273SOL    HW118278   3.778   0.258  16.957 -3.1671 -0.6322  1.9822
 2273SOL    HW218279   3.758   0.343  17.075  0.2972  1.6899 -1.5171
 2274SOL     OW18280   4.668   0.534  10.830 -0.4495  0.3408 -0.1204
 2274SOL    HW118281   0.018   0.480  10.806  0.6104  2.1153 -0.8315
 2274SOL    HW218282   4.693   0.626  10.822 -2.4545  0.8619 -0.4027
 2275SOL     OW18283   2.632   0.014   0.386  0.5301  0.9791  0.1042
 2275SOL    HW118284   2.540   4.721   0.406 -0.0900  1.4643 -2.4002
 2275SOL    HW218285   2.641   0.003   0.292 -0.3869  0.1451  0.1052
 2276SOL     OW18286   1.550   0.876  16.963 -0.2281 -0.1005  0.2479
 2276SOL    HW118287   1.630   0.916  16.929 -0.0877  1.2967  2.2306
 2276SOL    HW218288   1.511   0.933  17.030  1.0359 -0.9202  1.6742
 2277SOL     OW18289   3.567   0.614   5.466 -0.5435 -0.0870  0.1463
 2277SOL    HW118290   3.564   0.538   5.524  0.0425 -0.7586 -0.7027
 2277SOL    HW218291   3.657   0.638   5.489 -0.2920 -0.2293 -0.6701
 2278SOL     OW18292   3.431   1.846   9.407  0.3599 -0.0036 -0.4684
 2278SOL    HW118293   3.479   1.796   9.342 -1.3233  0.6625 -2.2250
 2278SOL    HW218294   3.422   1.931   9.366 -1.5082 -0.1825 -0.4521
 2279SOL     OW18295   1.573   1.863   7.005  0.5775  0.1208 -0.6954
 2279SOL    HW118296   1.551   1.939   7.058 -2.4012 -0.1867 -1.5033
 2279SOL    HW218297   1.533   1.899   6.926  0.8284  1.4580 -0.2109
 2280SOL     OW18298   4.451   1.819   8.861  0.3850  0.2155  0.0811
 2280SOL    HW118299   4.381   1.877   8.831 -1.2978 -2.9256 -2.0076
 2280SOL    HW218300   4.517   1.880   8.893 -2.0609  2.8270  0.2195
 2281SOL     OW18301   1.347   1.410   7.472 -0.0199 -0.0333 -0.2335
 2281SOL    HW118302   1.371   1.359   7.550  1.4144  2.3807  0.8931
 2281SOL    HW218303   1.410   1.483   7.472 -0.6047  0.4662 -2.3869
 2282SOL     OW18304   0.938   2.562   7.141 -0.1909  0.1363  0.0172
 2282SOL    HW118305   0.935   2.498   7.070  0.8402 -0.0166  0.1185
 2282SOL    HW218306   0.850   2.600   7.137  0.1301  1.2267  3.5012
 2283SOL     OW18307   1.477   1.247   2.045 -0.0584  0.2337  0.0849
 2283SOL    HW118308   1.482   1.278   2.136 -1.3483 -3.7404  1.4948
 2283SOL    HW218309   1.405   1.183   2.047 -0.5898  0.8308  0.2845
 2284SOL     OW18310   0.872   1.733   4.116  0.5186 -0.3288  0.0465
 2284SOL    HW118311   0.874   1.726   4.211  0.9467  1.9944  0.1978
 2284SOL    HW218312   0.864   1.828   4.112 -1.8552 -0.5936 -1.5640
 2285SOL     OW18313   1.748   1.513   6.177  0.4843  0.1032  0.0670
 2285SOL    HW118314   1.777   1.514   6.269 -0.4159  0.2805  0.3524
 2285SOL    HW218315   1.746   1.606   6.154 -0.6411 -0.0488 -0.4323
 2286SOL     OW18316   0.204   3.019  11.587 -0.1390  0.3527 -0.1316
 2286SOL    HW118317   0.217   2.961  11.512  0.2797  1.3975 -0.8649
 2286SOL    HW218318   0.147   3.085  11.548 -0.4688 -1.3536 -2.5073
 2287SOL     OW18319   4.014   2.403  16.031  0.9314 -0.2157 -0.1416
 2287SOL    HW118320   4.017   2.372  15.941  1.0628  1.7821 -0.8147
 2287SOL    HW218321   4.097   2.449  16.042  0.9180  0.0329 -1.1446
 2288SOL     OW18322   2.535   2.661  10.829  0.4407  0.6794  0.1780
 2288SOL    HW118323   2.521   2.589  10.890  1.0798  0.9211  0.5965
 2288SOL    HW218324   2.600   2.617  10.774 -0.9664 -0.6479 -0.4327
 2289SOL     OW18325   2.419   0.020  16.787 -0.6655 -0.3231 -0.4398
 2289SOL    HW118326   2.436   0.033  16.694 -0.0101  1.8704 -0.0246
 2289SOL    HW218327   2.424   4.650  16.788  1.6295 -0.2123 -0.6792
 2290SOL     OW18328   3.128   2.621   3.910 -0.2825  0.0760 -0.0335
 2290SOL    HW118329   3.119   2.526   3.917 -0.8993  0.1995  0.9103
 2290SOL    HW218330   3.128   2.632   3.815 -2.5757  1.7782  0.1617
 2291SOL     OW18331   2.818   0.984  16.546  0.2320  0.0693 -0.0070
 2291SOL    HW118332   2.832   1.072  16.579  0.2421 -0.0609  0.3364
 2291SOL    HW218333   2.896   0.975  16.491  1.5370  0.6209  1.7702
 2292SOL     OW18334   0.639   1.188   7.880  0.0367 -0.3551  0.2382
 2292SOL    HW118335   0.619   1.208   7.972 -1.9875 -1.0533 -0.0523
 2292SOL    HW218336   0.644   1.273   7.836  1.0112  0.2770  1.5697
 2293SOL     OW18337   2.974   0.124   3.821  0.3622 -0.2106  0.6360
 2293SOL    HW118338   2.890   0.151   3.858  0.9330 -0.0554  1.8200
 2293SOL    HW218339   2.985   0.040   3.866  2.7618 -0.6648 -0.8142
 2294SOL     OW18340   3.252   3.452   4.224  0.6074  0.0370 -0.4850
 2294SOL    HW118341   3.261   3.455   4.319 -1.9654 -0.0938 -0.2238
 2294SOL    HW218342   3.210   3.536   4.203  0.9890  0.4030  0.2061
 2295SOL     OW18343   3.024   1.162   2.501  0.3148 -1.0405  0.0181
 2295SOL    HW118344   3.100   1.213   2.525 -0.7165  0.3671  0.2884
 2295SOL    HW218345   2.995   1.209   2.423  0.9691 -2.4653 -1.0747
 2296SOL     OW18346   1.549   2.868   4.749  0.2654 -0.1064  0.0120
 2296SOL    HW118347   1.527   2.791   4.696 -1.8509 -0.1566  0.9283
 2296SOL    HW218348   1.593   2.915   4.679  1.9718 -0.3133  0.9514
 2297SOL     OW18349   3.373   3.883   3.667  0.0068  0.1617 -0.2752
 2297SOL    HW118350   3.444   3.941   3.641  1.8209 -1.8577  0.2331
 2297SOL    HW218351   3.361   3.836   3.584  0.7733  1.2222 -0.9939
 2298SOL     OW18352   2.770   1.777   2.301  0.3186 -0.1913 -0.6884
 2298SOL    HW118353   2.792   1.837   2.229 -0.4132  0.0579 -0.7093
 2298SOL    HW218354   2.680   1.803   2.320  0.3626  0.6300 -1.5343
 2299SOL     OW18355   1.526   1.472   4.334 -0.1449 -0.0017 -0.0088
 2299SOL    HW118356   1.461   1.481   4.403 -1.9505  1.6822 -1.9342
 2299SOL    HW218357   1.569   1.389   4.353  2.7434  1.2163 -1.2757
 2300SOL     OW18358   2.741   0.174   1.799 -0.4977  0.3597  0.2280
 2300SOL    HW118359   2.749   0.081   1.821 -3.4309  0.0146 -0.1964
 2300SOL    HW218360   2.835   0.193   1.799  0.0987 -2.5342 -0.5174
 2301SOL     OW18361   2.094   1.115   8.528  0.5079  0.0934  0.0285
 2301SOL    HW118362   2.102   1.153   8.441 -0.3775  4.1301  1.7014
 2301SOL    HW218363   2.177   1.069   8.537 -0.0313 -0.8159  0.3166
 2302SOL     OW18364   0.848   1.844   0.008  0.2712 -0.1477  0.3185
 2302SOL    HW118365   0.783   1.790   0.053  1.1982 -1.2090  0.3976
 2302SOL    HW218366   0.834   1.828  17.616 -1.0076  1.1351  0.2964
 2303SOL     OW18367   2.184   2.945   0.899 -0.1007  0.4163  0.2789
 2303SOL    HW118368   2.230   2.861   0.903  1.6077  1.2901 -1.3021
 2303SOL    HW218369   2.178   2.958   0.804  1.3810 -1.5155 -0.0864
 2304SOL     OW18370   0.111   0.194  16.640 -0.0480 -0.6949  0.4299
 2304SOL    HW118371   0.047   0.247  16.687 -0.2181  0.6475 -1.3041
 2304SOL    HW218372   0.191   0.233  16.676 -0.7711  0.7046  0.5249
 2305SOL     OW18373   2.800   1.434   9.357  0.0737  0.5978 -1.0289
 2305SOL    HW118374   2.883   1.472   9.387  0.3799 -0.3217 -0.6802
 2305SOL    HW218375   2.838   1.408   9.273  3.3441  2.5384 -0.1374
 2306SOL     OW18376   3.121   0.001   5.714 -0.8589  0.0740 -0.2876
 2306SOL    HW118377   3.107   4.653   5.653  0.2350 -1.0644  0.8297
 2306SOL    HW218378   3.112   4.681   5.798  0.4908 -0.4714 -0.4398
 2307SOL     OW18379   1.259   4.312   0.215 -0.4557  0.1889 -0.0361
 2307SOL    HW118380   1.350   4.290   0.197 -0.3138 -0.6131  1.6724
 2307SOL    HW218381   1.233   4.234   0.263 -0.2070 -0.4414 -0.9409
 2308SOL     OW18382   3.882   0.356  16.532  0.2633 -0.5545  0.2896
 2308SOL    HW118383   3.960   0.315  16.570  0.1344 -1.5534 -0.5320
 2308SOL    HW218384   3.888   0.451  16.545  0.1647 -0.6708  1.1604
 2309SOL     OW18385   1.615   3.474   2.190 -0.2600  0.4740  0.2847
 2309SOL    HW118386   1.690   3.420   2.165 -1.3057 -0.9787  0.3426
 2309SOL    HW218387   1.612   3.449   2.282 -1.8351  0.9975  0.3788
 2310SOL     OW18388   4.460   2.748   1.665 -0.3286 -0.3636 -0.0955
 2310SOL    HW118389   4.540   2.802   1.666 -0.3165 -0.3845  0.0518
 2310SOL    HW218390   4.392   2.811   1.642  0.9793  0.8506 -0.6833
 2311SOL     OW18391   2.618   4.636   4.710 -0.5122  0.2186 -0.0114
 2311SOL    HW118392   2.599   4.625   4.803  4.2919 -1.8709  0.7670
 2311SOL    HW218393   2.632   4.542   4.698  1.7764  0.7416 -1.5879
 2312SOL     OW18394   1.704   0.191   3.660  0.2006  0.3257  0.9488
 2312SOL    HW118395   1.786   0.153   3.690  0.2621  1.1963  1.8704
 2312SOL    HW218396   1.734   0.218   3.573 -0.6682  1.4741  1.0017
 2313SOL     OW18397   3.192   4.241  14.856 -0.2990  0.4825  0.7087
 2313SOL    HW118398   3.105   4.203  14.862  1.0517 -2.4189  2.1712
 2313SOL    HW218399   3.190   4.274  14.766  1.3706 -0.6998  0.2226
 2314SOL     OW18400   3.319   2.357   3.298 -0.3787 -0.3245  0.1811
 2314SOL    HW118401   3.359   2.281   3.339  0.4955 -0.0320 -0.1322
 2314SOL    HW218402   3.397   2.407   3.277 -1.4410 -0.0986 -3.3725
 2315SOL     OW18403   4.366   1.024  11.399  0.2438 -0.0020  0.2181
 2315SOL    HW118404   4.379   0.991  11.489 -3.7876  3.3994  2.0412
 2315SOL    HW218405   4.380   1.118  11.407 -0.9394  0.0226  2.0602
 2316SOL     OW18406   0.798   4.366   4.957 -0.2531 -0.3388  0.4807
 2316SOL    HW118407   0.841   4.396   5.038 -0.7994 -0.0206  0.6567
 2316SOL    HW218408   0.740   4.437   4.932 -0.1342 -0.1833  0.6402
 2317SOL     OW18409   1.662   3.306  17.227  0.1834  0.7465  0.1369
 2317SOL    HW118410   1.682   3.351  17.309  0.7981  1.9925 -0.7038
 2317SOL    HW218411   1.570   3.330  17.216 -0.5787 -1.3781  1.7784
 2318SOL     OW18412   1.385   0.795  12.349 -0.3522  0.6672 -0.6226
 2318SOL    HW118413   1.310   0.829  12.301  0.3039  2.4552 -0.3683
 2318SOL    HW218414   1.427   0.870  12.390 -0.6440  1.1451 -1.1998
 2319SOL     OW18415   1.153   0.274   7.044 -0.1760 -0.0146 -0.1016
 2319SOL    HW118416   1.183   0.362   7.020  0.5499  0.6504  3.3689
 2319SOL    HW218417   1.235   0.244   7.082  0.0513 -0.9739 -1.3502
 2320SOL     OW18418   0.043   0.151   3.007 -0.3120 -0.1192  0.9208
 2320SOL    HW118419   4.714   0.214   3.054  0.3772  0.3307  1.0978
 2320SOL    HW218420   0.057   0.074   3.062 -0.6530 -0.1332  0.9862
 2321SOL     OW18421   1.412   3.384   6.609 -0.0521 -0.2012 -0.9391
 2321SOL    HW118422   1.372   3.450   6.553  0.5520 -0.1383 -1.2949
 2321SOL    HW218423   1.332   3.347   6.646  0.6848 -0.6240  0.2274
 2322SOL     OW18424   3.482   2.955  15.197  0.1686  0.3460 -0.3836
 2322SOL    HW118425   3.572   2.987  15.203  0.4462 -0.2351 -1.5773
 2322SOL    HW218426   3.460   2.965  15.105 -0.2514  3.9629  0.1108
 2323SOL     OW18427   4.468   0.492  14.074  0.1592  0.2032 -0.5168
 2323SOL    HW118428   4.451   0.570  14.126  1.2363 -0.4753  0.8503
 2323SOL    HW218429   4.385   0.445  14.069  0.3469 -0.2278  0.3462
 2324SOL     OW18430   2.470   2.420   2.870  0.3672  0.2512 -0.0007
 2324SOL    HW118431   2.565   2.422   2.866  0.4549  0.2780  2.0222
 2324SOL    HW218432   2.452   2.492   2.930 -1.4279 -1.7044  1.8014
 2325SOL     OW18433   1.234   2.542   8.473 -0.0912  0.1987 -0.0825
 2325SOL    HW118434   1.140   2.560   8.485  0.3002  3.5344 -2.1525
 2325SOL    HW218435   1.236   2.446   8.474 -0.7788  0.1670 -2.2274
 2326SOL     OW18436   2.453   2.755  15.457  0.2721 -0.5549 -0.0976
 2326SOL    HW118437   2.542   2.751  15.493 -0.4687 -2.0372  1.6153
 2326SOL    HW218438   2.468   2.820  15.389  1.6118  0.9786  1.6472
 2327SOL     OW18439   1.424   0.779   9.831 -0.3482  0.3540  0.4330
 2327SOL    HW118440   1.479   0.827   9.769  0.6306  0.5408  1.4604
 2327SOL    HW218441   1.387   0.706   9.780  0.3953 -0.1665  0.6322
 2328SOL     OW18442   3.900   3.198   5.096 -0.8700  0.3710  0.1908
 2328SOL    HW118443   3.873   3.108   5.073  1.7777 -0.1448 -0.8970
 2328SOL    HW218444   3.969   3.175   5.159  0.4287  2.1131 -0.6147
 2329SOL     OW18445   1.076   0.203   6.218  0.1563  0.1741  0.0122
 2329SOL    HW118446   1.136   0.263   6.173 -0.4096  0.1599 -0.7634
 2329SOL    HW218447   1.065   0.136   6.150 -0.7954  0.7533 -0.4136
 2330SOL     OW18448   4.332   1.293   8.896  0.5083 -0.0014  0.1797
 2330SOL    HW118449   4.422   1.285   8.927  0.8276 -1.1515 -1.0691
 2330SOL    HW218450   4.329   1.258   8.807 -1.0967  1.1743 -0.2223
 2331SOL     OW18451   1.896   1.650   9.081  0.2890  0.0643 -0.0332
 2331SOL    HW118452   1.933   1.630   9.167  0.8757  0.4582 -0.1932
 2331SOL    HW218453   1.946   1.591   9.025  1.7879  0.7622  0.5448
 2332SOL     OW18454   4.010   0.535   2.327  0.1126  0.0419  0.1814
 2332SOL    HW118455   4.083   0.474   2.315 -0.7696 -0.9517 -0.0862
 2332SOL    HW218456   3.976   0.539   2.238 -0.9219 -0.6887  0.5529
 2333SOL     OW18457   3.205   4.429   9.971  0.2113  0.6079 -0.2858
 2333SOL    HW118458   3.121   4.442   9.927 -0.7674 -0.9734  1.0746
 2333SOL    HW218459   3.181   4.427  10.064  1.2340 -1.8287 -0.0641
 2334SOL     OW18460   1.589   1.824  16.365 -0.0647  0.2670 -0.2877
 2334SOL    HW118461   1.588   1.741  16.414  1.2642  1.0418  1.0652
 2334SOL    HW218462   1.623   1.892  16.424  1.8235 -0.3660 -0.6702
 2335SOL     OW18463   2.564   3.670   1.888  0.7806  0.6111 -0.2214
 2335SOL    HW118464   2.525   3.627   1.811  0.0947  0.8466 -0.0075
 2335SOL    HW218465   2.636   3.607   1.894  1.5781  1.7353  1.8564
 2336SOL     OW18466   3.622   1.789   8.442  0.1879  0.5699 -0.5136
 2336SOL    HW118467   3.680   1.752   8.509 -0.6562 -0.9651 -0.6160
 2336SOL    HW218468   3.649   1.735   8.368  0.7546 -0.8492  0.7260
 2337SOL     OW18469   0.370   4.353  13.122 -0.2318  0.0825 -0.3258
 2337SOL    HW118470   0.399   4.278  13.070 -0.4074  0.7904 -1.4675
 2337SOL    HW218471   0.298   4.383  13.066  0.2862  2.7960  0.4562
 2338SOL     OW18472   3.348   0.879   7.206  0.0610  0.4677 -0.6178
 2338SOL    HW118473   3.429   0.930   7.217 -1.2438  2.0278  1.6149
 2338SOL    HW218474   3.318   0.916   7.123  0.1175  1.1786 -0.3239
 2339SOL     OW18475   4.291   0.470   8.945  0.3661  0.2657 -0.0287
 2339SOL    HW118476   4.351   0.497   9.014  1.2271  1.9748 -1.4287
 2339SOL    HW218477   4.268   0.382   8.975 -2.7295  0.9844 -0.1934
 2340SOL     OW18478   2.280   4.115  14.743  0.2972 -0.1679  0.4860
 2340SOL    HW118479   2.347   4.046  14.746  1.5097  0.8953 -1.7765
 2340SOL    HW218480   2.256   4.120  14.836 -0.6150  0.9012  0.1973
 2341SOL     OW18481   3.094   3.784   5.027  0.1213  0.3996 -0.1615
 2341SOL    HW118482   3.170   3.820   5.072  1.2799 -0.4478 -1.4583
 2341SOL    HW218483   3.026   3.846   5.054 -0.6603 -1.0116  1.1412
 2342SOL     OW18484   0.322   2.798   2.932  0.4361  0.1811  0.0457
 2342SOL    HW118485   0.385   2.869   2.917  0.3867  0.2760  0.2811
 2342SOL    HW218486   0.370   2.728   2.889 -1.0503 -0.4785 -0.5420
 2343SOL     OW18487   3.171   1.322   8.793 -0.3472 -0.5961 -0.0008
 2343SOL    HW118488   3.118   1.324   8.713  0.6120  1.5056 -0.5818
 2343SOL    HW218489   3.259   1.318   8.757  0.5848 -2.0287  2.4476
 2344SOL     OW18490   3.981   3.012  15.372 -0.1202  0.4520 -0.1213
 2344SOL    HW118491   3.952   3.097  15.405  0.2117  0.2800  0.6221
 2344SOL    HW218492   4.057   3.044  15.323  1.3093 -2.2246  0.3313
 2345SOL     OW18493   0.711   2.630   3.502  0.7405  0.6579 -0.2445
 2345SOL    HW118494   0.709   2.587   3.588  0.0218  0.1110 -0.5385
 2345SOL    HW218495   0.679   2.553   3.455  1.3316  0.0618  0.3290
 2346SOL     OW18496   2.592   1.827   8.942 -0.3623 -0.1855  0.2087
 2346SOL    HW118497   2.557   1.774   9.013  1.4188 -0.2579  1.0415
 2346SOL    HW218498   2.627   1.899   8.996  0.5619 -0.1394 -0.4431
 2347SOL     OW18499   0.568   1.432   6.983  0.0749  0.2669 -0.3132
 2347SOL    HW118500   0.544   1.360   7.041 -2.2610  0.4355 -1.0793
 2347SOL    HW218501   0.482   1.449   6.944 -0.3550  0.2304  0.6269
 2348SOL     OW18502   1.951   0.199   5.643  0.5750 -0.0562  0.2571
 2348SOL    HW118503   1.913   0.114   5.663  2.4247 -1.2949 -1.4259
 2348SOL    HW218504   2.029   0.183   5.590  0.2477  0.5803 -0.4159
 2349SOL     OW18505   3.745   2.895   7.040  0.0204 -0.5321  0.4367
 2349SOL    HW118506   3.739   2.990   7.030  2.4812 -0.5365 -1.0689
 2349SOL    HW218507   3.762   2.870   6.949  1.0934  0.0508  0.4796
 2350SOL     OW18508   3.229   3.337   3.114 -0.2552 -0.3316  0.1011
 2350SOL    HW118509   3.154   3.299   3.068 -1.7976 -0.8344  3.0150
 2350SOL    HW218510   3.175   3.356   3.191 -0.7336  1.5522 -0.7056
 2351SOL     OW18511   2.743   4.331  17.388 -0.5557 -0.4697 -0.0908
 2351SOL    HW118512   2.700   4.416  17.379  1.2228  0.3870 -0.5870
 2351SOL    HW218513   2.740   4.304  17.296  0.5362  1.1938 -0.6222
 2352SOL     OW18514   0.401   4.417   3.927  0.4713 -0.4521 -0.1034
 2352SOL    HW118515   0.381   4.440   3.837  1.4540 -2.1861 -0.7765
 2352SOL    HW218516   0.495   4.435   3.936  0.5911 -0.0336 -2.1846
 2353SOL     OW18517   4.374   1.207  14.839  0.0125 -0.6117  0.0705
 2353SOL    HW118518   4.449   1.180  14.787  1.0167  1.0275  0.6640
 2353SOL    HW218519   4.403   1.223  14.929  1.3006  0.0752 -0.4679
 2354SOL     OW18520   3.629   3.210  15.573 -0.0880  0.0427 -0.1763
 2354SOL    HW118521   3.587   3.295  15.585  1.9152  1.1009 -0.6037
 2354SOL    HW218522   3.625   3.195  15.668  2.8176  1.4521  0.1810
 2355SOL     OW18523   3.391   1.190   6.648 -0.1538 -0.3856 -0.2171
 2355SOL    HW118524   3.373   1.264   6.705  1.9207 -0.7080  0.8724
 2355SOL    HW218525   3.425   1.243   6.576 -1.5465 -1.3556 -1.5863
 2356SOL     OW18526   3.184   3.438  14.527 -0.0000 -0.6131  0.1381
 2356SOL    HW118527   3.266   3.458  14.571 -0.6621  2.4397 -0.0046
 2356SOL    HW218528   3.123   3.463  14.596 -2.2676  0.4473 -2.2261
 2357SOL     OW18529   0.507   3.001   9.224  0.2313 -0.4351  0.4255
 2357SOL    HW118530   0.554   3.083   9.214  0.7016 -1.1514 -3.2723
 2357SOL    HW218531   0.429   3.024   9.173  0.1796  1.0681  1.1959
 2358SOL     OW18532   1.838   0.782   7.782 -0.2529 -0.1342  0.3223
 2358SOL    HW118533   1.783   0.795   7.705  0.4325 -1.0836 -0.3412
 2358SOL    HW218534   1.836   0.686   7.787  1.2810 -0.1638  0.3747
 2359SOL     OW18535   4.377   0.716  14.188  0.6539 -0.3090 -0.3929
 2359SOL    HW118536   4.366   0.745  14.278 -1.0807 -0.5496 -0.5116
 2359SOL    HW218537   4.338   0.791  14.142 -2.3766 -2.5020 -1.3959
 2360SOL     OW18538   3.207   4.079  16.453 -0.1003  0.8778  0.4869
 2360SOL    HW118539   3.217   4.103  16.361 -1.1494 -1.5094 -0.2725
 2360SOL    HW218540   3.139   4.012  16.443  0.2150  0.6159  0.1082
 2361SOL     OW18541   2.041   4.014   5.238  0.2824  0.0178  0.1935
 2361SOL    HW118542   2.017   3.957   5.165 -0.6233  0.0877  0.4410
 2361SOL    HW218543   2.100   3.957   5.287  0.0598  0.0091  0.4474
 2362SOL     OW18544   3.553   0.340   6.357  0.2408 -0.0707  0.5373
 2362SOL    HW118545   3.537   0.403   6.428  1.3324  0.7217  0.0826
 2362SOL    HW218546   3.589   0.388   6.283  1.0066 -3.5205 -1.3190
 2363SOL     OW18547   1.891   4.493   3.645 -0.3644  0.1565  0.1934
 2363SOL    HW118548   1.964   4.434   3.626  0.0281  0.6471  0.1725
 2363SOL    HW218549   1.824   4.448   3.593 -1.7361 -0.6172  2.6429
 2364SOL     OW18550   2.525   3.886  12.387  0.0000  0.0494  0.0017
 2364SOL    HW118551   2.529   3.798  12.350 -1.5629  0.2248 -0.5789
 2364SOL    HW218552   2.556   3.929  12.307  0.5269 -2.2087 -1.0174
 2365SOL     OW18553   1.162   1.345   8.653  0.2523 -0.0414  0.0810
 2365SOL    HW118554   1.230   1.403   8.620 -0.7056  0.9974 -0.0891
 2365SOL    HW218555   1.143   1.288   8.579  1.1491  0.0939 -0.2538
 2366SOL     OW18556   1.813   4.444   8.954  0.7396  0.0626  0.8046
 2366SOL    HW118557   1.745   4.431   9.021 -0.3545  1.2520 -0.0756
 2366SOL    HW218558   1.781   4.519   8.905  1.9800  1.0840  1.5643
 2367SOL     OW18559   2.590   1.391   2.705  0.1479 -0.1820  0.2160
 2367SOL    HW118560   2.556   1.478   2.681  2.3330  1.1220  1.8120
 2367SOL    HW218561   2.602   1.410   2.798  2.1717 -0.8219  0.0685
 2368SOL     OW18562   1.429   3.136   5.519  0.2310  0.1570 -0.6002
 2368SOL    HW118563   1.514   3.178   5.535 -1.6293  3.5436  0.4221
 2368SOL    HW218564   1.365   3.205   5.538  0.3825 -0.4779  2.2375
 2369SOL     OW18565   4.118   2.373   6.441  0.5933 -0.3335 -0.4782
 2369SOL    HW118566   4.096   2.455   6.485  1.6715  0.2460 -1.0216
 2369SOL    HW218567   4.078   2.390   6.356 -0.8523 -0.5045  0.1653
 2370SOL     OW18568   3.927   1.085  11.990 -0.1951  0.1655 -0.2626
 2370SOL    HW118569   3.967   1.135  12.061 -0.2283 -0.1358 -0.0372
 2370SOL    HW218570   3.836   1.114  11.986  0.0463  1.0712  0.9699
 2371SOL     OW18571   3.382   1.523   0.785  0.1058 -0.2934  0.0459
 2371SOL    HW118572   3.462   1.540   0.835 -0.0234  1.7252 -0.4633
 2371SOL    HW218573   3.421   1.512   0.698 -2.2035 -0.8262 -0.9368
 2372SOL     OW18574   0.906   4.591   5.709 -0.1145 -0.3738  0.0527
 2372SOL    HW118575   0.968   4.599   5.782 -0.8140  0.0439  0.5949
 2372SOL    HW218576   0.828   4.559   5.753 -1.2798  1.5592 -0.6154
 2373SOL     OW18577   3.514   1.866   1.993  0.4755  0.0661  0.3488
 2373SOL    HW118578   3.558   1.874   1.909  2.9290  0.0180  1.6268
 2373SOL    HW218579   3.589   1.830   2.041  0.4552  1.1053  1.1669
 2374SOL     OW18580   2.759   3.830   0.346 -0.2940 -0.2332  0.1712
 2374SOL    HW118581   2.761   3.878   0.263 -1.6419  1.8189  1.3293
 2374SOL    HW218582   2.842   3.850   0.389 -0.0346 -2.1224  0.5582
 2375SOL     OW18583   0.240   2.668   8.018  0.0855 -0.3023  0.2418
 2375SOL    HW118584   0.252   2.675   8.112 -0.5347 -2.4693  0.4791
 2375SOL    HW218585   0.270   2.756   7.995  2.0800 -0.6191  1.7278
 2376SOL     OW18586   1.755   0.949   1.349 -0.3271  0.0200 -0.0001
 2376SOL    HW118587   1.741   0.986   1.262 -0.1931 -0.0766 -0.0632
 2376SOL    HW218588   1.672   0.911   1.376 -1.4956  0.2969 -3.1169
 2377SOL     OW18589   0.915   1.313   8.066 -0.8626 -0.0533 -0.1676
 2377SOL    HW118590   0.840   1.268   8.105  1.0343 -2.2507  0.9740
 2377SOL    HW218591   0.895   1.403   8.091  0.7328  0.0463  0.7197
 2378SOL     OW18592   3.403   1.039   3.392 -0.0701  0.3961 -0.2788
 2378SOL    HW118593   3.351   1.070   3.317 -1.6337  2.3708  1.6094
 2378SOL    HW218594   3.333   1.002   3.446  1.2295  0.3242  1.3651
 2379SOL     OW18595   3.069   2.812   9.408 -0.7520 -0.3299  0.4214
 2379SOL    HW118596   3.023   2.763   9.477  1.0923 -2.9469 -0.2220
 2379SOL    HW218597   3.040   2.901   9.428 -1.7204 -0.0731 -2.1382
 2380SOL     OW18598   3.919   2.482  15.497 -0.8749 -0.1459  0.3641
 2380SOL    HW118599   4.000   2.512  15.453  0.1722 -1.0564  1.6768
 2380SOL    HW218600   3.938   2.394  15.530 -3.4443 -0.2969  1.4098
 2381SOL     OW18601   2.690   2.330   3.121  0.2083  0.3268 -0.0220
 2381SOL    HW118602   2.685   2.424   3.105  2.5536  0.9788  3.2401
 2381SOL    HW218603   2.713   2.312   3.030 -1.8544  2.8775 -1.0459
 2382SOL     OW18604   2.182   3.720   8.297 -0.1662 -0.1862 -0.1769
 2382SOL    HW118605   2.156   3.767   8.377  3.6755  0.8944  0.4383
 2382SOL    HW218606   2.101   3.732   8.248 -0.8268  0.7188  1.1434
 2383SOL     OW18607   1.749   1.334   4.164  0.4404  0.1014 -0.1563
 2383SOL    HW118608   1.727   1.288   4.245 -0.4741 -1.7153 -1.4397
 2383SOL    HW218609   1.834   1.375   4.180 -0.6146  2.0763  0.4152
 2384SOL     OW18610   1.824   3.607   7.327 -0.1804 -0.3113  0.0724
 2384SOL    HW118611   1.850   3.692   7.290 -2.2680  0.3181  0.0874
 2384SOL    HW218612   1.773   3.630   7.404  0.3342 -1.2900  0.7035
 2385SOL     OW18613   3.037   0.952   2.317  0.2072 -0.4359  0.2527
 2385SOL    HW118614   2.959   0.897   2.326 -0.4896  0.5860  0.4209
 2385SOL    HW218615   3.042   1.010   2.393 -1.1563 -1.3739  1.0631
 2386SOL     OW18616   4.146   4.152   1.004  0.0288 -0.0606  0.1591
 2386SOL    HW118617   4.144   4.223   1.068 -1.3174 -1.0873  1.2676
 2386SOL    HW218618   4.165   4.070   1.049  0.2600  0.4334  0.9682
 2387SOL     OW18619   2.365   0.402   6.733 -0.3869 -0.1147  0.2103
 2387SOL    HW118620   2.318   0.336   6.784 -0.8409 -0.9888 -1.3304
 2387SOL    HW218621   2.400   0.349   6.662  0.8297  1.5449 -0.4159
 2388SOL     OW18622   4.686   3.964  11.204 -0.1968  0.1204 -0.2258
 2388SOL    HW118623   4.613   3.954  11.143  0.2917  0.8351 -0.9431
 2388SOL    HW218624   4.658   3.894  11.263  0.8948  1.2430  1.6331
 2389SOL     OW18625   3.635   3.742   3.860 -0.4717 -0.0351  0.2620
 2389SOL    HW118626   3.621   3.836   3.871 -0.7222 -0.3028  2.1672
 2389SOL    HW218627   3.720   3.758   3.820 -0.6103 -1.0013 -0.4124
 2390SOL     OW18628   3.414   4.345   2.169  0.1126  0.1919  0.1234
 2390SOL    HW118629   3.482   4.310   2.226  0.8488  1.4097 -0.0169
 2390SOL    HW218630   3.400   4.432   2.208 -1.8701 -0.2416  0.3942
 2391SOL     OW18631   0.109   1.941   5.718 -0.0805  0.0268  0.7356
 2391SOL    HW118632   0.202   1.929   5.698 -1.2088 -2.2845 -3.2134
 2391SOL    HW218633   0.110   1.927   5.813  1.5809 -3.3864  0.2367
 2392SOL     OW18634   1.863   1.327  11.127 -0.1465 -0.0257 -0.5139
 2392SOL    HW118635   1.834   1.409  11.168  1.7215  2.4461 -4.1845
 2392SOL    HW218636   1.780   1.319  11.080  0.5422 -1.2692 -1.5017
 2393SOL     OW18637   3.233   0.406   1.065 -0.9346 -0.4796 -0.0450
 2393SOL    HW118638   3.306   0.368   1.114 -0.4142 -0.4648 -0.8003
 2393SOL    HW218639   3.160   0.389   1.125 -1.6230  1.2959 -0.3891
 2394SOL     OW18640   2.131   1.345   4.611  0.5462 -0.4188  0.2209
 2394SOL    HW118641   2.078   1.424   4.600  1.1053 -0.4354 -2.6619
 2394SOL    HW218642   2.217   1.382   4.591  0.0543  1.7066  2.0008
 2395SOL     OW18643   3.620   0.197   7.659  0.3419 -0.6134  0.0357
 2395SOL    HW118644   3.689   0.193   7.593 -1.2734 -0.1702 -1.6899
 2395SOL    HW218645   3.547   0.148   7.620 -0.2917  1.0722 -0.9536
 2396SOL     OW18646   2.944   0.067   4.300 -0.0611 -0.2947 -0.6562
 2396SOL    HW118647   2.961   4.724   4.365 -1.7564 -1.0751 -1.0376
 2396SOL    HW218648   2.859   0.099   4.329  0.9986 -1.7401  4.0593
 2397SOL     OW18649   4.254   4.368   3.239 -0.5556  0.2556  0.3258
 2397SOL    HW118650   4.295   4.365   3.325  0.2943 -2.3273 -0.1716
 2397SOL    HW218651   4.320   4.420   3.193 -1.3211  1.2313  0.3285
 2398SOL     OW18652   0.590   2.671  16.414 -0.2842  0.2851  0.3599
 2398SOL    HW118653   0.611   2.718  16.333  1.6750 -0.9908  0.1178
 2398SOL    HW218654   0.547   2.592  16.382  1.2763 -0.1923 -0.5692
 2399SOL     OW18655   2.541   4.453   8.682  0.0860  0.6824 -0.0840
 2399SOL    HW118656   2.514   4.515   8.614 -1.7270 -0.6168 -0.5498
 2399SOL    HW218657   2.637   4.457   8.689  0.1546  0.7485 -1.1119
 2400SOL     OW18658   0.083   0.106  10.710 -0.3527 -0.1053  0.3874
 2400SOL    HW118659   4.721   0.100  10.750 -0.5196  0.2688  0.0814
 2400SOL    HW218660   0.098   0.012  10.704 -4.7532 -0.8882  1.7060
 2401SOL     OW18661   0.756   4.151   0.119 -0.0939  0.5766 -0.4759
 2401SOL    HW118662   0.766   4.081   0.055  0.4487  0.9938 -0.8443
 2401SOL    HW218663   0.699   4.106   0.181  1.5020 -1.7388 -0.6993
 2402SOL     OW18664   3.996   3.281  12.603 -0.2356  0.6807 -0.6691
 2402SOL    HW118665   3.979   3.255  12.512 -1.3323  0.4395 -0.3904
 2402SOL    HW218666   4.072   3.335  12.580  0.9796 -1.5544 -1.9841
 2403SOL     OW18667   1.021   2.102   5.762  0.1806  0.1454 -0.0796
 2403SOL    HW118668   1.092   2.049   5.798  1.5000  0.4176 -2.3201
 2403SOL    HW218669   1.056   2.146   5.685 -0.6903  0.3137 -0.3811
 2404SOL     OW18670   0.506   1.135   6.141  0.2790 -0.0401  0.5818
 2404SOL    HW118671   0.445   1.062   6.149  1.0623 -1.0064 -2.4859
 2404SOL    HW218672   0.474   1.197   6.207 -1.0667  1.7394 -1.7470
 2405SOL     OW18673   2.387   4.184   1.730  0.2278 -0.2051  0.0729
 2405SOL    HW118674   2.468   4.216   1.692 -0.2572 -2.2097 -2.6409
 2405SOL    HW218675   2.413   4.106   1.779 -3.0655 -0.7851  0.9506
 2406SOL     OW18676   0.054   1.946   5.413  0.1072 -0.2958 -0.0008
 2406SOL    HW118677   0.129   1.887   5.423  1.1958  0.6611 -2.6358
 2406SOL    HW218678   4.720   1.904   5.476  0.1030 -2.1213 -1.2312
 2407SOL     OW18679   1.716   3.778   4.028  0.1381  0.4236  0.2761
 2407SOL    HW118680   1.654   3.806   3.960  1.2514  0.0983 -0.8680
 2407SOL    HW218681   1.669   3.699   4.054  1.6350 -0.5663 -0.0690
 2408SOL     OW18682   1.255   0.169   1.722 -0.5963  0.0002 -0.1819
 2408SOL    HW118683   1.251   0.264   1.713 -0.8994 -0.0655 -0.7416
 2408SOL    HW218684   1.169   0.137   1.749 -1.4284  2.3293 -0.0139
 2409SOL     OW18685   4.402   3.831   2.339  0.3321  0.2621 -0.0955
 2409SOL    HW118686   4.394   3.925   2.323 -3.0974 -0.0611 -0.1344
 2409SOL    HW218687   4.333   3.815   2.403  0.7076  2.2031  0.7834
 2410SOL     OW18688   2.436   2.853   7.039 -0.5098  0.0104 -0.4303
 2410SOL    HW118689   2.445   2.949   7.043 -2.1075  0.1515 -0.4862
 2410SOL    HW218690   2.501   2.845   6.970 -1.1799  2.3199 -1.3336
 2411SOL     OW18691   3.157   2.977   4.638  0.4159  0.1664  0.5370
 2411SOL    HW118692   3.215   2.980   4.563 -0.7522 -0.6932 -0.4000
 2411SOL    HW218693   3.218   2.961   4.710  1.0743 -1.4822 -0.4130
 2412SOL     OW18694   2.472   0.122   0.894  0.6041  0.6029  0.2419
 2412SOL    HW118695   2.406   0.188   0.914 -0.6903  0.3447 -3.2537
 2412SOL    HW218696   2.506   0.149   0.809  1.4727 -1.1783  0.0046
 2413SOL     OW18697   4.603   1.185  16.378  0.1719 -0.1403 -0.5005
 2413SOL    HW118698   4.629   1.177  16.286 -0.4437  0.3327 -0.7172
 2413SOL    HW218699   4.571   1.275  16.381 -0.3896 -0.3873  0.9887
 2414SOL     OW18700   0.125   3.237  13.377 -0.2769 -0.2297  0.0033
 2414SOL    HW118701   0.120   3.319  13.426 -1.0858  0.4124 -1.1405
 2414SOL    HW218702   0.041   3.196  13.394 -1.5595  1.7876 -1.3560
 2415SOL     OW18703   0.305   0.655   1.165  0.4200  0.1503 -0.2442
 2415SOL    HW118704   0.328   0.733   1.114 -1.6632  1.1013  0.2851
 2415SOL    HW218705   0.237   0.628   1.104 -0.6731  0.2833  0.9251
 2416SOL     OW18706   1.139   3.167   7.018  0.3978  0.0543 -0.1016
 2416SOL    HW118707   1.126   3.255   7.053  0.7082  0.9413 -2.2096
 2416SOL    HW218708   1.063   3.124   7.057 -0.4447  0.9010 -0.7924
 2417SOL     OW18709   3.223   2.090   3.551 -0.2720 -0.0157 -0.5036
 2417SOL    HW118710   3.260   2.178   3.556 -0.0885 -0.0369 -1.4976
 2417SOL    HW218711   3.304   2.042   3.567  1.3284  2.9631  0.3511
 2418SOL     OW18712   2.049   2.472  11.841  0.4040  0.1327 -0.7236
 2418SOL    HW118713   2.036   2.429  11.926  1.3176 -1.7053 -1.5160
 2418SOL    HW218714   2.134   2.509  11.867 -0.4070  3.1028 -2.3705
 2419SOL     OW18715   1.239   1.630   1.182  0.1482 -0.1313 -0.4187
 2419SOL    HW118716   1.197   1.568   1.123 -0.5226 -0.3051  0.2494
 2419SOL    HW218717   1.230   1.708   1.128 -0.8557  0.7810  1.0690
 2420SOL     OW18718   4.531   3.830   6.131 -0.5691  0.1778 -0.1958
 2420SOL    HW118719   4.496   3.856   6.216  2.2820 -1.3155  1.4397
 2420SOL    HW218720   4.615   3.876   6.132 -0.0395 -0.8207  0.8826
 2421SOL     OW18721   1.855   3.944   1.038 -0.0335 -0.3663  0.6723
 2421SOL    HW118722   1.901   4.008   0.984  1.2079 -2.4592 -0.7357
 2421SOL    HW218723   1.770   3.987   1.051  0.1498 -0.0025  0.6532
 2422SOL     OW18724   4.008   0.339   8.108  0.0054 -0.1873 -0.3513
 2422SOL    HW118725   4.037   0.313   8.021 -1.3945 -3.8434  0.2705
 2422SOL    HW218726   4.051   0.424   8.119  0.6167 -0.8449  2.3764
 2423SOL     OW18727   4.194   0.176  14.754 -0.6067  0.3221  0.4061
 2423SOL    HW118728   4.132   0.247  14.739  0.4135  0.5644 -2.5647
 2423SOL    HW218729   4.271   0.215  14.714  0.8362 -0.9081  2.0047
 2424SOL     OW18730   2.637   0.474  12.966  0.3033 -0.8178 -0.0688
 2424SOL    HW118731   2.562   0.474  12.906 -0.1632  0.5234  0.5274
 2424SOL    HW218732   2.601   0.513  13.045  0.4293 -0.3136 -0.2574
 2425SOL     OW18733   3.739   3.399   8.498  0.1542 -0.2916  0.2138
 2425SOL    HW118734   3.829   3.366   8.510  0.0376 -0.5149  0.4852
 2425SOL    HW218735   3.691   3.353   8.567  1.7484 -2.6151 -0.2082
 2426SOL     OW18736   4.702   2.827   0.486 -0.6266  0.0438  0.1844
 2426SOL    HW118737   4.659   2.912   0.489 -0.8383 -0.0909  0.9147
 2426SOL    HW218738   0.071   2.848   0.481 -1.0253  1.6191 -0.5591
 2427SOL     OW18739   0.149   1.155   7.413  0.1651  0.1019 -0.3448
 2427SOL    HW118740   0.110   1.069   7.428 -1.0687  0.9488  1.3919
 2427SOL    HW218741   0.081   1.204   7.461  1.7064  2.3066 -0.4295
 2428SOL     OW18742   2.371   3.517   5.086 -0.3349  0.1889 -0.4753
 2428SOL    HW118743   2.317   3.593   5.107  0.7938  0.8452  0.0309
 2428SOL    HW218744   2.418   3.556   5.012 -0.7567  2.2736  0.3754
 2429SOL     OW18745   0.556   0.666   4.566 -0.3307  0.1643  0.6206
 2429SOL    HW118746   0.605   0.590   4.600  0.0692  0.2730  0.2843
 2429SOL    HW218747   0.467   0.639   4.546 -0.0490  0.1888 -0.6316
 2430SOL     OW18748   3.676   1.907   2.761 -0.2937  0.1887 -0.2339
 2430SOL    HW118749   3.657   1.839   2.697  0.2739  0.4467 -0.6849
 2430SOL    HW218750   3.732   1.965   2.709 -0.2824  0.7944  0.4549
 2431SOL     OW18751   1.934   3.777   7.811 -0.3727 -0.3180  0.3675
 2431SOL    HW118752   1.857   3.734   7.848  1.1407 -1.7674  1.8134
 2431SOL    HW218753   1.900   3.865   7.825  0.8652  0.2746 -0.3469
 2432SOL     OW18754   3.059   3.590  16.391  0.1873  0.3821 -0.2566
 2432SOL    HW118755   3.018   3.514  16.351  0.2179  0.0794  0.2960
 2432SOL    HW218756   3.087   3.552  16.474  0.9143 -0.8132 -1.0476
 2433SOL     OW18757   0.751   2.614   0.949  0.5753  0.1405 -0.1280
 2433SOL    HW118758   0.658   2.610   0.970  0.5765 -0.5212 -0.2509
 2433SOL    HW218759   0.798   2.600   1.031  0.2729  1.4497  0.2635
 2434SOL     OW18760   3.088   0.675  10.861 -0.0865 -0.2962 -0.3332
 2434SOL    HW118761   3.009   0.624  10.845  0.2533 -1.5754  2.0735
 2434SOL    HW218762   3.124   0.670  10.773  0.1620  2.1211 -0.3750
 2435SOL     OW18763   1.475   2.577   6.484  0.2717 -0.0500  0.1483
 2435SOL    HW118764   1.555   2.547   6.526  0.9067  0.9827 -0.3145
 2435SOL    HW218765   1.409   2.524   6.528  1.6648  0.0986  2.4440
 2436SOL     OW18766   2.829   1.083   7.172  0.6157  0.4778 -0.4571
 2436SOL    HW118767   2.853   1.118   7.258 -1.6285  1.2678 -0.1545
 2436SOL    HW218768   2.794   1.162   7.131  3.4710  2.2242  0.4606
 2437SOL     OW18769   0.474   3.593  17.526 -0.7050  0.0901  0.0566
 2437SOL    HW118770   0.484   3.535  17.450 -0.6842  0.0435  0.0950
 2437SOL    HW218771   0.396   3.558  17.568 -0.1016  0.3476  1.3791
 2438SOL     OW18772   0.251   0.237   5.331  0.1709 -0.4861 -0.5329
 2438SOL    HW118773   0.329   0.277   5.370  0.4527 -1.4923 -0.0733
 2438SOL    HW218774   0.199   0.311   5.299  0.2218  0.2527  1.1012
 2439SOL     OW18775   3.194   0.742   6.603 -0.0663  0.1372 -0.1082
 2439SOL    HW118776   3.195   0.812   6.668  0.1859  0.1506 -0.1246
 2439SOL    HW218777   3.099   0.728   6.603 -0.4233  2.5916 -2.3660
 2440SOL     OW18778   0.149   0.394   5.043  0.0199 -0.4313  0.4518
 2440SOL    HW118779   0.169   0.412   4.951 -2.3213  2.5977  0.5679
 2440SOL    HW218780   0.184   0.474   5.081  4.1974 -2.8837  1.7846
 2441SOL     OW18781   2.170   0.576   7.221  0.1589  0.0006 -0.0313
 2441SOL    HW118782   2.159   0.645   7.155  1.0879 -1.3889 -1.6435
 2441SOL    HW218783   2.227   0.621   7.284 -1.1668 -1.6240  2.3002
 2442SOL     OW18784   4.004   4.589  15.596 -0.3179 -0.2148  0.3152
 2442SOL    HW118785   3.923   4.546  15.622 -0.4689  1.4572  2.6591
 2442SOL    HW218786   3.976   4.649  15.526  1.0279  0.4739  0.3682
 2443SOL     OW18787   1.475   1.794  11.592 -0.0795  0.1441 -0.7772
 2443SOL    HW118788   1.404   1.750  11.546 -0.1135 -1.4103  0.7882
 2443SOL    HW218789   1.457   1.883  11.561 -1.2068  0.1464 -0.1058
 2444SOL     OW18790   3.901   1.213  16.434 -0.0361 -0.6899  0.3402
 2444SOL    HW118791   3.848   1.140  16.403 -0.2519 -0.7352  0.8252
 2444SOL    HW218792   3.948   1.235  16.354 -1.8358  2.3699  0.0981
 2445SOL     OW18793   3.265   3.038   8.316 -0.6029  0.3577 -0.1703
 2445SOL    HW118794   3.341   3.083   8.353 -0.6993 -0.9048  1.5892
 2445SOL    HW218795   3.253   2.976   8.388 -0.8321  0.6072  0.0074
 2446SOL     OW18796   2.448   2.955   5.098 -0.3828  0.3801  0.2531
 2446SOL    HW118797   2.391   3.024   5.131 -0.3116  1.0453 -1.0198
 2446SOL    HW218798   2.533   3.000   5.101 -1.1844  1.8831  0.0945
 2447SOL     OW18799   0.739   2.964  16.546  0.1326  0.2275  0.2058
 2447SOL    HW118800   0.660   2.913  16.565  0.4998  0.0190  1.1249
 2447SOL    HW218801   0.806   2.924  16.601  0.4498  1.2582  0.5542
 2448SOL     OW18802   2.349   3.583   0.694 -0.0726 -0.8704 -0.3763
 2448SOL    HW118803   2.275   3.561   0.751  0.0982  0.0497  0.1938
 2448SOL    HW218804   2.393   3.654   0.741 -1.1304 -1.6569  1.8055
 2449SOL     OW18805   3.960   1.263  15.934  0.0073  0.1066  0.5458
 2449SOL    HW118806   3.997   1.350  15.914  0.9658 -0.0730  1.5398
 2449SOL    HW218807   3.973   1.223  15.848 -1.4700 -1.0793  0.8873
 2450SOL     OW18808   1.827   0.540   1.801 -0.0814 -0.1268  0.0998
 2450SOL    HW118809   1.910   0.520   1.757 -0.2978 -0.2745 -0.2433
 2450SOL    HW218810   1.784   0.601   1.741 -0.2050  0.7654  1.0987
 2451SOL     OW18811   1.160   0.196  12.765  0.7933 -0.2729 -0.1529
 2451SOL    HW118812   1.245   0.165  12.798  0.6022  0.4617  1.0548
 2451SOL    HW218813   1.135   0.133  12.698  0.0521  0.7988 -0.8858
 2452SOL     OW18814   3.258   0.830  15.451 -0.0031 -0.0633 -0.2927
 2452SOL    HW118815   3.280   0.742  15.421  1.1945  0.3262 -0.5641
 2452SOL    HW218816   3.234   0.865  15.366  0.5420  0.9077 -0.0471
 2453SOL     OW18817   2.707   2.600   3.076 -0.1044 -0.2450 -0.4372
 2453SOL    HW118818   2.694   2.673   3.015  0.1878 -0.3653 -0.6404
 2453SOL    HW218819   2.665   2.637   3.155 -1.8812 -0.8498 -1.1065
 2454SOL     OW18820   2.027   1.864   7.895 -0.1335  0.1977  0.1691
 2454SOL    HW118821   2.044   1.955   7.871  1.1790  1.0728  4.4057
 2454SOL    HW218822   1.947   1.851   7.843  0.7971 -3.1670 -0.3611
 2455SOL     OW18823   0.763   4.303   3.208 -0.2022  0.7738  0.5642
 2455SOL    HW118824   0.780   4.317   3.301  0.7867  0.3115  0.4573
 2455SOL    HW218825   0.676   4.343   3.206  0.2947  1.8305 -0.5338
 2456SOL     OW18826   1.806   4.675  10.880  0.8716  0.5455 -0.5642
 2456SOL    HW118827   1.854   4.694  10.799  1.2446  0.8896 -0.2621
 2456SOL    HW218828   1.879   4.657  10.940 -1.2794  0.4915  2.0274
 2457SOL     OW18829   3.197   0.257   5.763  0.1288  0.2111  0.0181
 2457SOL    HW118830   3.138   0.280   5.834  0.6610  0.2349  0.4539
 2457SOL    HW218831   3.163   0.178   5.721  1.5139  0.1482 -0.9927
 2458SOL     OW18832   4.066   2.932   2.714  0.9845 -0.4125  0.3016
 2458SOL    HW118833   4.080   2.851   2.665 -0.4371  0.1305 -0.9909
 2458SOL    HW218834   3.983   2.895   2.744  1.1551 -0.9121  0.1474
 2459SOL     OW18835   2.825   1.671  10.563 -0.0391 -0.7388  0.3237
 2459SOL    HW118836   2.819   1.672  10.659  1.6744  0.2210  0.4369
 2459SOL    HW218837   2.769   1.747  10.548 -1.7267 -1.5761  2.4902
 2460SOL     OW18838   2.899   0.423   8.910  0.1039  0.0078 -0.0914
 2460SOL    HW118839   2.821   0.389   8.866 -0.9177  0.4318  1.4159
 2460SOL    HW218840   2.894   0.386   8.999  0.5679 -0.7479 -0.3788
 2461SOL     OW18841   4.019   4.228   3.344  0.4732  0.0620 -0.1317
 2461SOL    HW118842   4.107   4.232   3.305 -0.5317  0.2289 -2.3786
 2461SOL    HW218843   3.985   4.316   3.332  0.0179 -0.1094 -0.0878
 2462SOL     OW18844   0.042   4.563   6.422  0.7253 -0.4142  0.3425
 2462SOL    HW118845   0.107   4.611   6.370  0.6071 -0.2120  0.3843
 2462SOL    HW218846   4.695   4.624   6.435  1.2509  0.2161  0.3271
 2463SOL     OW18847   2.639   0.840   3.190 -0.2063  0.5413 -0.4706
 2463SOL    HW118848   2.687   0.778   3.246  1.1777  1.6433 -0.4411
 2463SOL    HW218849   2.690   0.921   3.190 -2.4583  1.9555  0.3136
 2464SOL     OW18850   3.573   1.237  10.429 -0.6523 -0.3387  0.0804
 2464SOL    HW118851   3.531   1.151  10.437  0.7388 -1.0802 -0.4535
 2464SOL    HW218852   3.494   1.287  10.446 -0.4698  0.9512 -2.9915
 2465SOL     OW18853   1.772   1.011   2.831 -0.0495  0.1665  0.1560
 2465SOL    HW118854   1.776   1.033   2.738  0.8830 -0.5839  0.0142
 2465SOL    HW218855   1.737   0.922   2.830 -0.8692  0.5031 -0.1585
 2466SOL     OW18856   2.907   3.820  17.031 -0.1866 -0.1394 -0.1292
 2466SOL    HW118857   2.997   3.791  17.045  0.2457  0.3877 -1.7859
 2466SOL    HW218858   2.896   3.873  17.110 -0.9140 -2.5262  1.3696
 2467SOL     OW18859   0.360   3.297   4.346 -0.2329  0.4807 -0.2307
 2467SOL    HW118860   0.384   3.226   4.405 -0.9399 -0.8879 -1.5567
 2467SOL    HW218861   0.425   3.268   4.282  0.3665  1.6838 -0.1567
 2468SOL     OW18862   2.903   1.497   4.618  0.8640 -0.2657  0.2200
 2468SOL    HW118863   2.953   1.557   4.673  2.1045 -0.2641 -0.9211
 2468SOL    HW218864   2.948   1.412   4.613 -1.3484 -1.4362  0.2260
 2469SOL     OW18865   2.124   0.338   9.368  0.1989  0.1186  1.0601
 2469SOL    HW118866   2.087   0.413   9.415 -0.3184 -0.5044  1.6423
 2469SOL    HW218867   2.071   0.343   9.288  3.6264 -0.4349 -1.2670
 2470SOL     OW18868   0.926   1.510   5.331 -0.3907  0.1838 -0.6882
 2470SOL    HW118869   0.982   1.526   5.255  1.3471  1.3008  0.8349
 2470SOL    HW218870   0.858   1.577   5.337 -0.1674  0.5369 -2.0445
 2471SOL     OW18871   3.911   1.894   4.290  0.2488  0.0029  0.6358
 2471SOL    HW118872   4.005   1.895   4.273 -0.0548 -1.1025 -1.0809
 2471SOL    HW218873   3.888   1.802   4.275  1.4366  0.0699 -1.4639
 2472SOL     OW18874   4.308   4.592  13.523  0.2165  0.4859  0.1540
 2472SOL    HW118875   4.343   4.555  13.442  0.8839  2.0228 -0.2520
 2472SOL    HW218876   4.307   4.517  13.583 -0.0613  0.3625 -0.0019
 2473SOL     OW18877   3.943   3.377  14.849 -0.6856  0.2795 -0.5678
 2473SOL    HW118878   3.914   3.307  14.790 -0.4960  0.6972 -1.1582
 2473SOL    HW218879   3.972   3.444  14.788  1.5706 -1.7238 -1.7160
 2474SOL     OW18880   2.097   2.850  17.613 -0.1349 -0.2575  0.5235
 2474SOL    HW118881   2.176   2.836  17.561  0.2206  0.2282  0.9457
 2474SOL    HW218882   2.117   2.921  17.673 -0.8599  0.1804  0.2530
 2475SOL     OW18883   2.783   1.797   4.777  0.3263  0.3886  0.3341
 2475SOL    HW118884   2.702   1.799   4.827  0.4035  0.7566  0.4393
 2475SOL    HW218885   2.771   1.871   4.718 -3.0865 -0.8201 -0.4875
 2476SOL     OW18886   2.388   3.067   1.816 -0.6697  0.4045  0.3565
 2476SOL    HW118887   2.389   2.998   1.750 -3.0496  0.8049 -0.1102
 2476SOL    HW218888   2.454   3.127   1.782 -0.1774 -0.5557 -0.3736
 2477SOL     OW18889   3.700   2.460   5.931  0.0024  0.2387  0.2592
 2477SOL    HW118890   3.766   2.528   5.913  0.7585 -0.5684 -0.0460
 2477SOL    HW218891   3.640   2.497   5.867  0.8609 -2.0011 -1.8698
 2478SOL     OW18892   1.173   3.191   2.570 -0.3833  0.0972 -0.2067
 2478SOL    HW118893   1.237   3.216   2.502  0.3794 -0.6668  0.2304
 2478SOL    HW218894   1.228   3.159   2.641 -1.4688  0.5871  0.8444
 2479SOL     OW18895   4.717   4.674   3.209 -0.5175  0.0205 -0.0932
 2479SOL    HW118896   4.623   4.687   3.201 -0.2802  1.7553 -0.1240
 2479SOL    HW218897   4.714   4.581   3.186 -0.0912 -0.2289  0.8745
 2480SOL     OW18898   1.926   1.311  15.900  0.5471  0.2602 -0.0189
 2480SOL    HW118899   1.885   1.398  15.899  1.8279  0.8592 -0.8427
 2480SOL    HW218900   1.850   1.257  15.878 -1.0722  1.1189  3.4733
 2481SOL     OW18901   2.146   4.675   2.307  0.1363  0.4388  0.8728
 2481SOL    HW118902   2.091   4.666   2.385 -1.3680 -1.3232 -0.4030
 2481SOL    HW218903   2.104   0.025   2.266  0.1553 -0.4703 -0.7982
 2482SOL     OW18904   3.316   4.611   3.834  0.0950  0.0852  0.5057
 2482SOL    HW118905   3.270   4.605   3.750  2.5826  1.2413 -0.9418
 2482SOL    HW218906   3.344   4.702   3.838 -1.2359  0.5046  0.2273
 2483SOL     OW18907   3.455   4.298  14.607 -1.0204 -0.2066 -0.0021
 2483SOL    HW118908   3.508   4.363  14.653 -0.1382 -0.6909 -0.3311
 2483SOL    HW218909   3.451   4.227  14.671 -0.2403 -0.6159 -0.4115
 2484SOL     OW18910   1.221   1.862  10.008  0.2706  0.0189  0.8057
 2484SOL    HW118911   1.249   1.771  10.007 -1.0520 -0.3704 -1.0827
 2484SOL    HW218912   1.288   1.895   9.949 -1.5410  0.0915 -1.2229
 2485SOL     OW18913   2.859   0.914   1.312  0.1353 -0.1447 -0.0023
 2485SOL    HW118914   2.895   1.002   1.314 -0.5951  0.1714 -0.7842
 2485SOL    HW218915   2.770   0.930   1.343 -0.2893  2.6008 -2.5743
 2486SOL     OW18916   1.981   3.203   8.342  0.5896  0.0270 -0.0834
 2486SOL    HW118917   2.068   3.225   8.309 -0.3823  1.3053 -1.7801
 2486SOL    HW218918   1.930   3.160   8.274 -0.6405 -0.3400  1.0691
 2487SOL     OW18919   1.518   3.808   9.673  0.5607 -0.3887  0.0980
 2487SOL    HW118920   1.425   3.815   9.698 -0.2387 -4.2041 -1.8662
 2487SOL    HW218921   1.566   3.813   9.756 -0.2921  1.0447  0.5008
 2488SOL     OW18922   3.053   4.119   1.857  0.8640 -0.1626 -0.2990
 2488SOL    HW118923   3.112   4.078   1.793  3.2972 -0.7851  2.3112
 2488SOL    HW218924   3.119   4.180   1.889  0.1469  0.7017 -0.4764
 2489SOL     OW18925   0.804   3.337   8.949  0.4686  0.1523  0.5025
 2489SOL    HW118926   0.854   3.396   9.006  0.6433  0.5655 -0.0740
 2489SOL    HW218927   0.725   3.390   8.934  2.6897  3.2216 -0.4962
 2490SOL     OW18928   2.893   1.742   8.492 -0.0035  0.3702  0.6320
 2490SOL    HW118929   2.843   1.670   8.531 -1.8457 -0.1663 -2.6550
 2490SOL    HW218930   2.982   1.709   8.493 -0.0276  0.3430  1.4248
 2491SOL     OW18931   2.779   3.523   1.958 -0.6297  0.9604  0.2949
 2491SOL    HW118932   2.814   3.536   2.046  3.0697  2.2876 -1.3680
 2491SOL    HW218933   2.862   3.486   1.927 -1.6531 -0.9895 -0.0936
 2492SOL     OW18934   3.374   1.159   5.361  0.0503 -0.2436  0.3700
 2492SOL    HW118935   3.394   1.103   5.286 -0.4876 -0.9708  0.7731
 2492SOL    HW218936   3.284   1.175   5.331  0.3997  1.9750  0.4679
 2493SOL     OW18937   3.892   3.178   4.615  0.1160 -0.1599  0.1868
 2493SOL    HW118938   3.847   3.123   4.550 -2.9529  0.5925  1.6719
 2493SOL    HW218939   3.953   3.227   4.560 -0.4037 -0.0782 -0.3110
 2494SOL     OW18940   3.205   1.690   9.579  0.4742 -0.1549 -0.0372
 2494SOL    HW118941   3.257   1.767   9.606  1.2543 -0.3633 -0.9277
 2494SOL    HW218942   3.198   1.701   9.484  0.3006  2.5854  0.2763
 2495SOL     OW18943   3.957   0.256   6.324  0.0175 -0.3128  0.4695
 2495SOL    HW118944   3.933   0.332   6.272  1.5568  1.3110  2.1323
 2495SOL    HW218945   4.043   0.238   6.286  1.1053  3.0530  1.3262
 2496SOL     OW18946   3.135   1.137   9.970 -0.3152 -0.0154 -0.4991
 2496SOL    HW118947   3.081   1.162  10.046  0.3766  0.1221 -0.0566
 2496SOL    HW218948   3.076   1.069   9.937  0.6293 -1.1344  0.1237
 2497SOL     OW18949   1.769   3.839   0.571  0.3659 -0.8527  0.1393
 2497SOL    HW118950   1.762   3.922   0.522  1.0291  1.1413  3.4041
 2497SOL    HW218951   1.712   3.784   0.518  0.4528 -0.4522 -0.3793
 2498SOL     OW18952   2.080   4.221   2.569 -0.3756 -1.0384  0.7467
 2498SOL    HW118953   2.019   4.292   2.583  0.0042 -0.4970 -0.2889
 2498SOL    HW218954   2.065   4.173   2.650  0.5525  0.7810  1.9824
 2499SOL     OW18955   2.572   3.002   5.447  0.8449  0.4039 -0.1693
 2499SOL    HW118956   2.653   2.958   5.420 -0.2673 -1.6500 -0.1111
 2499SOL    HW218957   2.509   2.930   5.443 -0.4997  1.4228  2.8743
 2500SOL     OW18958   4.251   3.724  16.543 -0.3735 -0.0030 -0.5669
 2500SOL    HW118959   4.345   3.715  16.560 -0.3345  0.7949 -0.3776
 2500SOL    HW218960   4.227   3.716  16.635  0.8719 -0.2700 -0.2683
 2501SOL     OW18961   2.408   3.864   8.241 -0.3996  0.2305  0.1202
 2501SOL    HW118962   2.347   3.790   8.240 -0.2782  0.1307  0.0502
 2501SOL    HW218963   2.365   3.917   8.308 -0.1712  1.7705 -0.9534
 2502SOL     OW18964   2.337   1.561   3.503 -1.2346  0.1868 -0.1308
 2502SOL    HW118965   2.427   1.558   3.473 -2.2572  0.2435 -3.1683
 2502SOL    HW218966   2.332   1.467   3.523  1.0340  0.7852  3.1806
 2503SOL     OW18967   4.360   2.176   5.082  0.2101  0.2100  0.7800
 2503SOL    HW118968   4.444   2.220   5.070 -1.2235  2.1870 -2.0853
 2503SOL    HW218969   4.335   2.222   5.162  0.0673 -0.9942  1.4431
 2504SOL     OW18970   3.788   2.188   6.394  0.1625  0.3343 -0.1646
 2504SOL    HW118971   3.748   2.273   6.376 -2.6163 -0.9006  0.2896
 2504SOL    HW218972   3.709   2.135   6.394  1.8284 -2.1367 -2.5803
 2505SOL     OW18973   3.611   2.193   8.953  0.6081  0.4098 -0.1069
 2505SOL    HW118974   3.548   2.221   9.019 -0.0315  1.5177 -1.1858
 2505SOL    HW218975   3.664   2.273   8.956 -1.5513  1.7692  1.4976
 2506SOL     OW18976   0.588   2.952   8.811  0.1679  0.0252  0.1832
 2506SOL    HW118977   0.656   2.891   8.839  1.1551  0.4536 -1.2803
 2506SOL    HW218978   0.629   3.015   8.752 -1.3045 -1.3619 -2.3194
 2507SOL     OW18979   0.952   0.772  10.198  0.0605  0.2123  0.2332
 2507SOL    HW118980   0.950   0.737  10.287  0.8756  0.8768  0.5169
 2507SOL    HW218981   0.865   0.750  10.165  0.6644 -0.8511 -0.6304
 2508SOL     OW18982   1.628   4.038  10.210 -0.4062 -0.1107  0.2027
 2508SOL    HW118983   1.606   4.047  10.117  0.7485  0.3410 -0.0267
 2508SOL    HW218984   1.543   4.065  10.243 -0.4751  0.1383 -0.1771
 2509SOL     OW18985   1.329   2.378  10.934  0.3944  0.3719  0.6704
 2509SOL    HW118986   1.278   2.306  10.971 -0.8778  1.0047  0.1536
 2509SOL    HW218987   1.300   2.450  10.990  1.4351  1.2415  0.0758
 2510SOL     OW18988   4.110   0.313  16.950  0.2822  0.5135  0.0529
 2510SOL    HW118989   4.131   0.341  17.038  1.6178  0.9246 -0.4008
 2510SOL    HW218990   4.018   0.289  16.963  0.5340 -1.4654 -1.6214
 2511SOL     OW18991   3.096   3.239   4.597  0.8325  0.3943 -0.1801
 2511SOL    HW118992   3.101   3.144   4.591 -0.5358  0.3677 -0.7939
 2511SOL    HW218993   3.066   3.269   4.511 -2.0419 -0.0092  0.7002
 2512SOL     OW18994   3.318   1.051  13.825 -0.3217  0.4830  0.0008
 2512SOL    HW118995   3.358   1.125  13.779 -2.3879  1.3961 -0.3434
 2512SOL    HW218996   3.274   1.091  13.900 -1.4241  0.9093 -0.8731
 2513SOL     OW18997   3.935   4.025  15.282 -0.1090  0.0554  0.0762
 2513SOL    HW118998   3.950   3.958  15.216  1.6601 -0.3056  0.8507
 2513SOL    HW218999   3.845   4.052  15.262  0.1973 -0.5971 -2.0954
 2514SOL     OW19000   4.586   3.988   1.021 -0.1567  0.2452 -0.4629
 2514SOL    HW119001   4.527   4.033   0.961  0.4932  1.0068 -0.5242
 2514SOL    HW219002   4.663   4.044   1.029  1.1533 -1.5991 -0.2426
 2515SOL     OW19003   0.978   1.828   6.834  0.2464 -0.2006  0.2775
 2515SOL    HW119004   0.971   1.923   6.831 -0.9658 -0.3339 -1.0482
 2515SOL    HW219005   1.046   1.810   6.769  1.6698  0.2705  1.6398
 2516SOL     OW19006   3.960   2.309   6.888  0.0301 -1.3638 -0.6119
 2516SOL    HW119007   4.019   2.268   6.826  1.2646  1.3665 -1.2320
 2516SOL    HW219008   3.879   2.258   6.877 -0.2937 -0.6397 -1.6224
 2517SOL     OW19009   3.002   3.343   4.382 -0.1384 -0.2264 -0.3654
 2517SOL    HW119010   3.019   3.353   4.288  2.2103  1.2560  0.2022
 2517SOL    HW219011   2.996   3.430   4.421 -1.8288  0.3061 -1.7674
 2518SOL     OW19012   2.680   2.510   5.202  0.4427 -0.0077  0.0060
 2518SOL    HW119013   2.717   2.529   5.288 -0.3667  1.5414  0.0093
 2518SOL    HW219014   2.615   2.580   5.196 -0.2970 -0.7392 -0.5821
 2519SOL     OW19015   2.933   2.643  13.079  0.3570  0.4040  0.0687
 2519SOL    HW119016   2.995   2.714  13.096  0.4175  1.2924 -3.8102
 2519SOL    HW219017   2.857   2.673  13.129  0.8962  0.2569  0.9701
 2520SOL     OW19018   3.764   2.699  10.190 -0.3008  0.2779  0.0222
 2520SOL    HW119019   3.858   2.681  10.180 -1.0107 -3.1639 -0.1319
 2520SOL    HW219020   3.724   2.644  10.123 -0.4671 -0.9142  1.1093
 2521SOL     OW19021   0.508   1.911  10.176  0.1745 -0.3713 -0.4176
 2521SOL    HW119022   0.519   1.861  10.095  2.7440  3.3551 -2.4244
 2521SOL    HW219023   0.542   1.844  10.234  0.2434 -1.1993 -1.4145
 2522SOL     OW19024   1.385   2.051   8.285  0.2584  0.3528  0.4030
 2522SOL    HW119025   1.461   1.995   8.300  1.1260  0.8984 -1.8835
 2522SOL    HW219026   1.383   2.049   8.189  0.5801 -0.8035  0.4201
 2523SOL     OW19027   4.660   1.884   1.772  0.2135 -0.0754 -0.4163
 2523SOL    HW119028   4.674   1.954   1.709  2.2856  0.6837  0.9050
 2523SOL    HW219029   4.586   1.848   1.723 -1.1468  1.6674  0.3666
 2524SOL     OW19030   2.849   3.453   3.143 -0.0482 -0.1693 -0.3967
 2524SOL    HW119031   2.920   3.509   3.111  1.4755 -1.6301  0.3852
 2524SOL    HW219032   2.897   3.429   3.223  0.3390  0.2612 -0.4960
 2525SOL     OW19033   0.312   2.243  16.451  0.3134  0.1190 -0.1304
 2525SOL    HW119034   0.232   2.208  16.412  0.5357 -0.9282  0.3557
 2525SOL    HW219035   0.276   2.315  16.503 -2.8795 -1.2103 -0.4889
 2526SOL     OW19036   3.089   4.318   7.568  0.0240 -0.2842  0.1199
 2526SOL    HW119037   3.099   4.257   7.641  1.9409 -0.1117  0.0065
 2526SOL    HW219038   3.081   4.247   7.504 -2.8284 -0.1202  0.3004
 2527SOL     OW19039   0.288   1.482  16.185 -0.5546 -0.2707 -0.3679
 2527SOL    HW119040   0.355   1.535  16.142 -0.7690  0.6739  0.4522
 2527SOL    HW219041   0.336   1.425  16.244  3.5187  1.1932 -2.2916
 2528SOL     OW19042   2.760   4.336   4.706  0.2945 -0.2396 -0.9230
 2528SOL    HW119043   2.694   4.318   4.773  0.1114  1.0877 -0.7434
 2528SOL    HW219044   2.709   4.303   4.632  0.2538 -0.9834 -0.5657
 2529SOL     OW19045   4.670   0.334  11.436 -0.7523 -0.1476  0.5747
 2529SOL    HW119046   0.017   0.314  11.495 -1.0003  1.9534  1.5983
 2529SOL    HW219047   4.665   0.261  11.375 -2.4134 -0.3576  0.9693
 2530SOL     OW19048   2.280   1.960   0.282  0.2671  0.3987  0.5738
 2530SOL    HW119049   2.279   2.009   0.364 -1.1123  1.4256 -0.0624
 2530SOL    HW219050   2.209   1.899   0.302  0.6903 -0.4782 -0.6171
 2531SOL     OW19051   0.668   0.761   7.120 -0.4237  0.1815  0.3221
 2531SOL    HW119052   0.640   0.726   7.204 -2.1946  0.6714 -0.0809
 2531SOL    HW219053   0.602   0.829   7.105 -1.7177 -0.9865  0.7433
 2532SOL     OW19054   3.124   4.620   5.973 -0.8297  0.4665  0.7353
 2532SOL    HW119055   3.193   4.650   6.032  0.6249 -1.7499  0.1321
 2532SOL    HW219056   3.051   4.625   6.035 -0.6825  0.4191  0.9111
 2533SOL     OW19057   3.408   1.333  15.545 -0.3757  0.0582  1.0378
 2533SOL    HW119058   3.380   1.246  15.574  2.6509 -1.0460  0.6771
 2533SOL    HW219059   3.401   1.322  15.450  2.1060 -2.2310  1.1031
 2534SOL     OW19060   3.484   0.289   7.387  0.5634  0.3628  0.4561
 2534SOL    HW119061   3.416   0.228   7.361  0.6727  0.0937  0.8114
 2534SOL    HW219062   3.450   0.323   7.469  0.1059  0.9385  0.0337
 2535SOL     OW19063   1.680   3.077   6.979 -0.4708 -0.2434  0.5741
 2535SOL    HW119064   1.761   3.126   6.996 -1.2880  1.3745 -0.1569
 2535SOL    HW219065   1.620   3.146   6.951  1.0059 -0.3577 -2.9917
 2536SOL     OW19066   3.395   0.152   3.732  0.2957  0.0845  0.4344
 2536SOL    HW119067   3.417   0.164   3.640  0.3982  0.2841  0.4855
 2536SOL    HW219068   3.353   0.235   3.752  0.5002  1.1911 -3.8206
 2537SOL     OW19069   0.988   4.276   2.649 -0.2749  0.0613 -0.0023
 2537SOL    HW119070   0.947   4.361   2.638  1.8063  1.3987  2.5975
 2537SOL    HW219071   1.065   4.302   2.701  0.7062 -2.2463 -0.2818
 2538SOL     OW19072   4.596   0.553   1.974  0.0379  0.5398  0.6655
 2538SOL    HW119073   4.691   0.551   1.986 -0.0174  0.1193  1.0172
 2538SOL    HW219074   4.580   0.460   1.988 -0.7056  0.3095 -1.6450
 2539SOL     OW19075   2.684   3.717   3.245  0.2632 -0.4025 -0.3549
 2539SOL    HW119076   2.653   3.709   3.335  1.7130  1.9180  0.3288
 2539SOL    HW219077   2.763   3.663   3.237  1.0518  0.7281 -0.1605
 2540SOL     OW19078   0.403   1.591   1.811  0.2082 -0.0479 -0.1034
 2540SOL    HW119079   0.469   1.660   1.813  0.3943 -0.1941 -1.4526
 2540SOL    HW219080   0.323   1.643   1.819 -1.9238 -3.0175 -1.8637
 2541SOL     OW19081   0.400   2.676   3.525  0.3925 -0.3611  0.4393
 2541SOL    HW119082   0.484   2.721   3.517  0.6873 -0.9046  0.5377
 2541SOL    HW219083   0.346   2.748   3.557  1.1799  0.0870  0.7598
 2542SOL     OW19084   2.976   1.445  11.561 -0.6491  0.1299  0.2143
 2542SOL    HW119085   3.064   1.465  11.590 -0.6202  1.7186 -0.9942
 2542SOL    HW219086   2.992   1.458  11.467  0.6458  0.9990  0.5682
 2543SOL     OW19087   1.599   1.103   3.083 -0.2684 -0.3163  0.0817
 2543SOL    HW119088   1.600   1.014   3.117  1.1388  0.0897  1.0965
 2543SOL    HW219089   1.594   1.098   2.988 -1.5944  0.6688  0.0990
 2544SOL     OW19090   3.865   0.427   9.049  0.8901 -0.0222 -0.8284
 2544SOL    HW119091   3.814   0.396   8.973 -2.6603 -0.4182  1.7036
 2544SOL    HW219092   3.793   0.418   9.112  0.0245  0.4077 -1.7489
 2545SOL     OW19093   2.578   3.923   8.894 -0.0124  0.0239  0.5875
 2545SOL    HW119094   2.591   3.846   8.838 -0.7980  1.0496 -1.0113
 2545SOL    HW219095   2.488   3.951   8.880 -0.0501 -1.0592 -1.4930
 2546SOL     OW19096   4.378   0.049  13.726 -0.2494 -0.1496 -0.1007
 2546SOL    HW119097   4.444   0.090  13.669 -0.2973 -0.6296 -0.4981
 2546SOL    HW219098   4.343   4.708  13.666 -0.2151 -0.7745  0.5687
 2547SOL     OW19099   1.315   4.001   5.830  0.3592 -0.0650 -0.4025
 2547SOL    HW119100   1.253   3.962   5.891  0.8471 -1.3642 -0.7270
 2547SOL    HW219101   1.348   3.927   5.778 -0.6897 -0.6179 -0.2869
 2548SOL     OW19102   2.769   2.129   5.284  0.4331  0.0725  0.0920
 2548SOL    HW119103   2.695   2.087   5.325 -0.0854  1.0885  0.2037
 2548SOL    HW219104   2.843   2.130   5.345 -1.0052  0.6044  1.8029
 2549SOL     OW19105   2.451   2.808   0.551  0.0090  0.2541  0.6442
 2549SOL    HW119106   2.470   2.714   0.554  1.4060  0.4703 -1.5910
 2549SOL    HW219107   2.466   2.818   0.457 -2.0815 -1.3371  0.1349
 2550SOL     OW19108   0.615   3.348  16.648 -0.4865 -0.5409  0.2079
 2550SOL    HW119109   0.698   3.310  16.618 -0.3497  1.6865 -2.1808
 2550SOL    HW219110   0.633   3.438  16.673 -1.6182 -0.1905 -0.2653
 2551SOL     OW19111   1.060   1.158  13.290  0.5585  0.2857 -0.0253
 2551SOL    HW119112   1.151   1.152  13.258  0.4013  0.8194 -0.5813
 2551SOL    HW219113   1.075   1.138  13.382 -1.6699  1.7192  0.6442
 2552SOL     OW19114   0.729   0.333   9.830  0.7087  0.3582 -0.2011
 2552SOL    HW119115   0.806   0.297   9.785  0.4741 -1.2606  0.6696
 2552SOL    HW219116   0.682   0.252   9.852  2.2328 -1.0337 -2.0680
 2553SOL     OW19117   3.964   3.456  11.504  0.2476 -0.8380  0.0608
 2553SOL    HW119118   3.884   3.437  11.555  0.5256 -0.3855  0.6659
 2553SOL    HW219119   4.010   3.373  11.513  0.2372 -0.8703 -0.1858
 2554SOL     OW19120   4.648   2.597  14.291  0.0921  0.6461 -0.7496
 2554SOL    HW119121   4.694   2.540  14.229  1.7035  1.1321 -0.0237
 2554SOL    HW219122   4.685   2.567  14.374 -0.5419  1.3608 -0.2015
 2555SOL     OW19123   0.009   2.310   7.194  0.1785  0.3468  0.2099
 2555SOL    HW119124   0.074   2.355   7.140  0.9360  1.0451  1.7008
 2555SOL    HW219125   4.706   2.246   7.128  1.2512 -0.5872  0.6576
 2556SOL     OW19126   0.716   1.536  13.073  0.2443  0.2143  0.3316
 2556SOL    HW119127   0.634   1.584  13.062 -0.3605 -0.8276  0.1954
 2556SOL    HW219128   0.776   1.601  13.107  2.1009 -0.9375 -0.7593
 2557SOL     OW19129   4.383   1.518   5.996  0.5693  0.5854 -0.2012
 2557SOL    HW119130   4.476   1.533   5.982  0.5936 -0.6868 -1.4200
 2557SOL    HW219131   4.356   1.605   6.024  1.0191  1.1563 -1.5425
 2558SOL     OW19132   4.440   0.008  11.557  0.4247  0.4711 -0.3247
 2558SOL    HW119133   4.475   0.094  11.580 -2.7607  1.3968  1.1651
 2558SOL    HW219134   4.373   0.030  11.492 -0.8231 -1.1766  0.4081
 2559SOL     OW19135   0.774   4.352   7.815  0.4071  0.1853  0.4311
 2559SOL    HW119136   0.809   4.273   7.774  2.0798  1.0696  0.1920
 2559SOL    HW219137   0.708   4.317   7.876 -1.5643 -1.3729 -2.5578
 2560SOL     OW19138   2.812   2.282   6.245 -0.6206  0.4072  0.2344
 2560SOL    HW119139   2.755   2.206   6.251  0.8747 -0.7136  0.2514
 2560SOL    HW219140   2.898   2.250   6.273 -0.5249 -0.6439 -1.2696
 2561SOL     OW19141   1.534   0.817   1.320 -0.1008 -0.2314 -0.5284
 2561SOL    HW119142   1.565   0.803   1.230  1.3554 -2.6528  0.3630
 2561SOL    HW219143   1.454   0.765   1.319 -0.7941  0.8279 -0.3247
 2562SOL     OW19144   3.800   4.002  10.728  0.5175  0.4510 -0.2233
 2562SOL    HW119145   3.815   4.084  10.777 -1.0106  0.0331  0.9273
 2562SOL    HW219146   3.869   3.956  10.776 -0.2750 -1.0340 -0.5335
 2563SOL     OW19147   0.595   4.250   7.996  0.3126 -0.1943  0.2150
 2563SOL    HW119148   0.596   4.208   8.083 -1.9853  0.4555  0.5566
 2563SOL    HW219149   0.499   4.249   7.987  0.3384 -0.9031  0.0056
 2564SOL     OW19150   2.479   4.632   7.587 -0.0243 -0.5030  0.0192
 2564SOL    HW119151   2.446   4.706   7.535 -0.1217 -1.0370 -0.6842
 2564SOL    HW219152   2.575   4.639   7.586  0.1607 -2.9111  2.1717
 2565SOL     OW19153   2.817   3.964   5.728  0.2615 -0.1438 -0.1851
 2565SOL    HW119154   2.752   3.961   5.658  0.2776  0.7957 -0.2414
 2565SOL    HW219155   2.873   3.887   5.718  0.8703  0.1457  0.9285
 2566SOL     OW19156   1.290   4.566   3.941  0.1616 -0.0621  0.1150
 2566SOL    HW119157   1.272   4.483   3.987 -0.0372  0.0282  0.1971
 2566SOL    HW219158   1.207   4.591   3.902  0.0504  0.9196  0.9878
 2567SOL     OW19159   4.648   4.187   3.836 -0.0761  0.3298  0.5035
 2567SOL    HW119160   4.679   4.148   3.754 -1.3204 -1.1029  0.7007
 2567SOL    HW219161   4.610   4.265   3.794 -0.8785 -0.3394 -0.0170
 2568SOL     OW19162   3.389   1.991   5.330 -0.1590 -0.2483 -0.3135
 2568SOL    HW119163   3.343   2.041   5.262  0.6464  1.3148  0.2853
 2568SOL    HW219164   3.361   2.034   5.411  0.0061  2.0727 -1.4739
 2569SOL     OW19165   2.720   0.780   8.048  0.6729  0.1612 -0.1565
 2569SOL    HW119166   2.711   0.705   8.107 -1.5196 -0.2829 -1.0753
 2569SOL    HW219167   2.665   0.760   7.973 -2.5629  0.4159  2.1513
 2570SOL     OW19168   0.236   4.239  16.560  0.3142  0.2559  0.5815
 2570SOL    HW119169   0.141   4.236  16.570  0.3780 -0.5152  0.9717
 2570SOL    HW219170   0.279   4.264  16.642 -1.4295  0.7070  1.3609
 2571SOL     OW19171   4.185   3.079   0.538 -0.5718 -0.3053  0.6764
 2571SOL    HW119172   4.089   3.078   0.534 -0.4515  0.2621 -2.1233
 2571SOL    HW219173   4.201   3.160   0.587 -2.9263  0.1030  0.7621
 2572SOL     OW19174   1.764   3.470   8.737  0.2036  0.0701 -0.5326
 2572SOL    HW119175   1.736   3.431   8.654 -0.7131  0.8240 -0.5880
 2572SOL    HW219176   1.831   3.531   8.706  0.3252 -1.0572 -2.4785
 2573SOL     OW19177   1.393   3.316  16.161  0.4992  0.0039 -0.4588
 2573SOL    HW119178   1.341   3.294  16.239 -0.9929  2.6539 -0.7096
 2573SOL    HW219179   1.466   3.255  16.171 -1.9704 -2.3601  2.7613
 2574SOL     OW19180   4.411   0.609  13.526 -0.1527  0.2593 -0.0175
 2574SOL    HW119181   4.468   0.671  13.480 -1.3304  0.7051 -0.8747
 2574SOL    HW219182   4.324   0.644  13.508 -0.8445 -0.2094  2.3581
 2575SOL     OW19183   2.846   3.511  17.675 -0.0047 -0.1003 -0.2429
 2575SOL    HW119184   2.756   3.478  17.681  0.1859 -0.3460  1.0661
 2575SOL    HW219185   2.837   3.606  17.664  0.1954 -0.0155  0.3462
 2576SOL     OW19186   2.678   3.684   7.491 -0.0659  0.3242 -0.1809
 2576SOL    HW119187   2.663   3.685   7.586  4.3373  0.0738  0.5203
 2576SOL    HW219188   2.627   3.610   7.459 -0.6720  1.0604 -0.9179
 2577SOL     OW19189   0.076   3.625   3.815  0.8284 -0.6824  0.2790
 2577SOL    HW119190   0.038   3.559   3.757  1.8593  0.1539 -1.3280
 2577SOL    HW219191   0.007   3.663   3.869 -0.8366  0.3575 -2.5840
 2578SOL     OW19192   1.658   3.762   8.328 -0.6776 -0.4058 -0.0226
 2578SOL    HW119193   1.595   3.700   8.365 -2.3554  1.0680 -0.4178
 2578SOL    HW219194   1.728   3.698   8.320 -3.0029 -2.8492 -0.7190
 2579SOL     OW19195   0.073   2.801  14.089  0.3310  0.3471 -0.0925
 2579SOL    HW119196   0.095   2.711  14.064  1.8784  0.1964  1.7882
 2579SOL    HW219197   4.706   2.802  14.066  0.9719  5.3682 -2.3568
 2580SOL     OW19198   2.972   3.086  17.107 -0.4526  0.1646  0.2387
 2580SOL    HW119199   3.040   3.152  17.120 -1.1164  0.7565  0.7657
 2580SOL    HW219200   2.914   3.146  17.058  0.4439  0.0242 -0.9986
 2581SOL     OW19201   0.605   4.075   7.349  0.5280  0.0873  0.0863
 2581SOL    HW119202   0.634   4.153   7.301  0.0542  0.6272  0.6770
 2581SOL    HW219203   0.529   4.043   7.302 -0.0338 -2.2517  2.5650
 2582SOL     OW19204   2.310   1.881   0.645  0.2067  0.3242 -0.6255
 2582SOL    HW119205   2.371   1.827   0.696  1.8733  0.4500 -2.4681
 2582SOL    HW219206   2.229   1.873   0.696  2.0556 -0.7942  2.1588
 2583SOL     OW19207   0.964   1.383   6.647 -0.2610 -0.1918  0.1739
 2583SOL    HW119208   0.896   1.379   6.714 -1.0756  0.5450 -0.6232
 2583SOL    HW219209   1.044   1.363   6.696  0.8497  0.6556 -1.2864
 2584SOL     OW19210   3.068   1.651   9.851 -0.3230  0.8946  0.0002
 2584SOL    HW119211   3.116   1.722   9.807 -0.3541 -0.5166 -2.2822
 2584SOL    HW219212   2.991   1.640   9.796  0.2695  0.4339 -0.7405
 2585SOL     OW19213   0.309   3.771   3.886  0.0172 -0.5665  0.0298
 2585SOL    HW119214   0.235   3.711   3.879  0.4605 -1.0312 -0.7980
 2585SOL    HW219215   0.329   3.777   3.792 -0.9487 -0.3126 -0.1558
 2586SOL     OW19216   2.256   2.662   0.250 -0.1529  0.3650 -0.0986
 2586SOL    HW119217   2.288   2.583   0.294 -0.4785 -1.4302 -3.1066
 2586SOL    HW219218   2.284   2.619   0.169  0.0670 -0.0961  0.2164
 2587SOL     OW19219   1.542   3.872  10.477 -0.9069 -0.1027 -0.7557
 2587SOL    HW119220   1.512   3.933  10.409  1.7945 -0.2510 -2.0686
 2587SOL    HW219221   1.588   3.937  10.530 -1.3333 -1.4744  1.2788
 2588SOL     OW19222   1.480   3.180   4.038 -0.2555 -0.0002  0.5074
 2588SOL    HW119223   1.401   3.234   4.044 -0.7175 -0.5189 -0.9365
 2588SOL    HW219224   1.494   3.165   3.945  1.7100  1.1292  0.6339
 2589SOL     OW19225   2.030   3.712   6.275 -0.3946  0.0342  0.4026
 2589SOL    HW119226   2.118   3.676   6.263  0.0338  0.6383  1.6313
 2589SOL    HW219227   2.047   3.793   6.226  0.9987 -0.4750  0.0372
 2590SOL     OW19228   2.569   3.758   6.387 -0.2030  0.0729  0.6826
 2590SOL    HW119229   2.630   3.828   6.409  1.8555 -1.2842 -0.7454
 2590SOL    HW219230   2.527   3.807   6.317  0.1534 -0.8209 -0.1636
 2591SOL     OW19231   0.637   2.507   4.067 -0.3851  0.2174  0.7915
 2591SOL    HW119232   0.573   2.459   4.120 -1.7186  0.1494 -0.8841
 2591SOL    HW219233   0.713   2.501   4.126  0.3188 -0.7845 -0.2167
 2592SOL     OW19234   0.442   4.245   2.527 -0.3235  0.6838  0.2228
 2592SOL    HW119235   0.422   4.278   2.440  2.3104  2.1118  0.1703
 2592SOL    HW219236   0.505   4.175   2.515 -1.0637  0.1695 -0.5956
 2593SOL     OW19237   4.098   0.149   5.672  0.2871  0.4576  0.0487
 2593SOL    HW119238   4.155   0.075   5.652 -0.1251 -0.0422  0.7124
 2593SOL    HW219239   4.055   0.124   5.754  1.5643  1.4056  1.0107
 2594SOL     OW19240   4.597   1.421   3.004  0.2317  0.1923  0.2830
 2594SOL    HW119241   4.615   1.502   3.052  0.2149  1.5586 -2.0051
 2594SOL    HW219242   4.686   1.386   3.003  0.4278  0.6631  1.1611
 2595SOL     OW19243   0.014   4.060   6.673 -0.1641 -0.0622 -0.1016
 2595SOL    HW119244   0.085   4.006   6.639  0.2515  0.4169  0.0030
 2595SOL    HW219245   4.722   4.118   6.598 -0.2066  1.2372  0.9028
 2596SOL     OW19246   2.332   3.372   7.558 -0.4356 -0.3581 -0.1485
 2596SOL    HW119247   2.260   3.318   7.527  1.0659 -0.4124 -3.5715
 2596SOL    HW219248   2.304   3.452   7.512  0.9265  0.8314  1.0695
 2597SOL     OW19249   1.343   1.238  12.466  0.3435 -0.6386  0.1655
 2597SOL    HW119250   1.360   1.217  12.374 -1.1287  0.7055 -0.4068
 2597SOL    HW219251   1.380   1.326  12.478  0.5459 -0.9743  1.9350
 2598SOL     OW19252   0.002   1.939   8.410 -0.7689 -0.3068 -0.3860
 2598SOL    HW119253   0.032   1.861   8.458 -1.5984 -0.5930 -0.3332
 2598SOL    HW219254   0.077   1.998   8.413 -1.0604  0.0937 -1.0762
 2599SOL     OW19255   4.718   3.611   3.419 -0.1093 -0.0225 -0.4461
 2599SOL    HW119256   0.043   3.692   3.436  0.2262 -0.5258  1.0160
 2599SOL    HW219257   4.688   3.611   3.329  1.0152 -1.6868 -0.8205
 2600SOL     OW19258   1.841   4.227   3.057  0.0356  0.1762  0.2075
 2600SOL    HW119259   1.927   4.190   3.076  0.0308 -0.3007 -0.7099
 2600SOL    HW219260   1.787   4.169   3.003  1.2145  0.6043 -1.4221
 2601SOL     OW19261   2.083   3.480  14.570 -0.3922  0.0274  0.1891
 2601SOL    HW119262   2.080   3.575  14.583 -2.4833  0.1039 -0.7433
 2601SOL    HW219263   2.160   3.473  14.514  0.2166 -1.6962  1.2335
 2602SOL     OW19264   3.604   2.714   3.819  0.1034  0.2956  0.0092
 2602SOL    HW119265   3.549   2.792   3.816 -3.2931 -2.0393  0.9096
 2602SOL    HW219266   3.541   2.649   3.853  0.8823 -0.7971 -0.6417
 2603SOL     OW19267   1.850   4.254   2.280  0.0315  0.2268 -0.2546
 2603SOL    HW119268   1.889   4.167   2.270 -2.1455 -1.1861  3.6995
 2603SOL    HW219269   1.894   4.303   2.210 -0.5436 -0.0508 -0.8110
 2604SOL     OW19270   1.068   0.796   7.257  0.0686  0.1096 -0.1167
 2604SOL    HW119271   1.152   0.792   7.211  0.9578 -1.5884  1.6290
 2604SOL    HW219272   1.024   0.876   7.228 -0.2386  0.3822  1.0882
 2605SOL     OW19273   3.479   0.032   4.640  0.0690 -0.1493 -0.3550
 2605SOL    HW119274   3.549   4.696   4.617 -0.6153 -1.8634  1.9952
 2605SOL    HW219275   3.511   0.052   4.728 -1.1189  0.7985 -0.1331
 2606SOL     OW19276   1.744   2.009   4.964 -0.1723 -0.2062  0.2577
 2606SOL    HW119277   1.782   1.986   5.049 -0.3657  1.9301  0.9304
 2606SOL    HW219278   1.817   2.051   4.917 -0.2294  0.7162  0.9955
 2607SOL     OW19279   0.996   4.172   7.558 -0.0472  0.6520  0.0342
 2607SOL    HW119280   1.033   4.083   7.561 -0.1655  0.4956 -2.7345
 2607SOL    HW219281   0.905   4.150   7.536  0.3096 -0.4684 -0.3389
 2608SOL     OW19282   2.578   2.713   7.492 -0.1696 -0.2608  0.3043
 2608SOL    HW119283   2.599   2.788   7.436  0.6526 -0.2743  0.5976
 2608SOL    HW219284   2.526   2.662   7.431 -1.5968  1.7098 -0.1527
 2609SOL     OW19285   1.779   2.633   4.565  0.3014 -0.2295  0.2959
 2609SOL    HW119286   1.752   2.723   4.550 -0.8008 -0.8366 -1.4125
 2609SOL    HW219287   1.817   2.639   4.653  0.3212 -0.7847  0.3261
 2610SOL     OW19288   2.075   4.377   2.916 -0.1703 -0.6608  0.6413
 2610SOL    HW119289   2.129   4.355   2.992 -1.9964 -2.9318  1.2724
 2610SOL    HW219290   2.069   4.288   2.879  0.7780  0.1109 -1.4159
 2611SOL     OW19291   0.743   4.206   0.475 -0.6315  0.0706 -0.0633
 2611SOL    HW119292   0.797   4.226   0.551 -1.0197 -0.7775  0.4306
 2611SOL    HW219293   0.804   4.146   0.433 -0.8250 -0.2762  0.1589
 2612SOL     OW19294   2.721   3.306   4.101  0.0748  0.4245 -0.5224
 2612SOL    HW119295   2.735   3.219   4.065 -1.8829  0.3926 -1.2111
 2612SOL    HW219296   2.805   3.348   4.082 -1.0723  2.0147 -2.1597
 2613SOL     OW19297   0.298   2.896   3.657  0.1341 -0.2513 -0.4179
 2613SOL    HW119298   0.321   2.950   3.732  1.3716 -0.7922 -0.3992
 2613SOL    HW219299   0.209   2.928   3.647  1.1647  2.7177 -0.1303
 2614SOL     OW19300   3.037   4.119  14.645 -0.2351 -0.1799  0.5006
 2614SOL    HW119301   3.077   4.033  14.631 -1.1317 -0.7939  1.7131
 2614SOL    HW219302   3.014   4.150  14.558 -1.4000 -1.5115  0.3332
 2615SOL     OW19303   3.018   0.926   7.046  0.7724  0.3363 -0.2259
 2615SOL    HW119304   2.975   1.001   7.087 -0.2133 -1.5597  2.1344
 2615SOL    HW219305   3.048   0.883   7.126  0.0634  0.5303  0.1347
 2616SOL     OW19306   2.288   3.567   3.998 -0.2430  0.1291 -0.4142
 2616SOL    HW119307   2.341   3.488   4.007  0.5879  0.3687 -3.1830
 2616SOL    HW219308   2.349   3.621   3.948 -0.9332 -0.3355 -1.7518
 2617SOL     OW19309   0.457   3.124   4.535  0.4065  0.3541 -0.2512
 2617SOL    HW119310   0.521   3.154   4.599  0.0388 -0.7471  0.6397
 2617SOL    HW219311   0.415   3.055   4.587 -1.1614  1.3290 -0.2254
 2618SOL     OW19312   2.473   2.272   8.731  0.1576  0.2741 -0.0260
 2618SOL    HW119313   2.451   2.364   8.715  1.1312  0.5133 -0.0166
 2618SOL    HW219314   2.389   2.237   8.760 -0.3110  1.7170  0.3771
 2619SOL     OW19315   1.042   0.194   4.931  0.3531  0.4138  0.7953
 2619SOL    HW119316   1.023   0.101   4.916 -0.6031  0.9039 -1.0127
 2619SOL    HW219317   1.095   0.177   5.009  0.1767 -1.6891  0.4639
 2620SOL     OW19318   2.934   4.574   1.429 -0.5684 -0.1387  0.6673
 2620SOL    HW119319   3.006   4.629   1.397 -1.1709  0.4289  0.2679
 2620SOL    HW219320   2.863   4.587   1.366 -0.7938  0.7208  1.1030
 2621SOL     OW19321   3.193   0.005   6.480 -0.2725 -0.9778 -0.4111
 2621SOL    HW119322   3.282   0.042   6.480 -0.0371 -1.5546  2.9472
 2621SOL    HW219323   3.148   0.086   6.456 -0.2467 -0.4840  1.2303
 2622SOL     OW19324   0.869   1.920   8.247  0.1966 -0.2300 -0.3177
 2622SOL    HW119325   0.820   1.989   8.201  0.9642 -0.4127 -1.4204
 2622SOL    HW219326   0.818   1.839   8.243  1.4273 -0.9718 -1.0925
 2623SOL     OW19327   1.776   0.203   1.671  0.0604  0.2721 -0.1024
 2623SOL    HW119328   1.767   0.181   1.578 -0.1552 -2.7954  0.6311
 2623SOL    HW219329   1.865   0.238   1.676 -0.4403  1.8495 -2.1401
 2624SOL     OW19330   1.201   3.590   7.919  0.6816  0.0920 -0.2004
 2624SOL    HW119331   1.196   3.661   7.984  0.3681 -1.3967  1.4228
 2624SOL    HW219332   1.113   3.552   7.916  0.7484  0.1922 -2.7835
 2625SOL     OW19333   3.141   1.632   8.509 -0.1407 -0.5660 -0.2970
 2625SOL    HW119334   3.220   1.585   8.482  0.5302 -1.6245  3.5268
 2625SOL    HW219335   3.092   1.554   8.534 -0.1299 -0.0708  1.2410
 2626SOL     OW19336   3.140   3.671   3.928  0.1491 -0.1649 -0.1113
 2626SOL    HW119337   3.152   3.692   4.020 -1.4267 -1.2750  0.3520
 2626SOL    HW219338   3.232   3.650   3.910  0.5397  1.0705  0.4437
 2627SOL     OW19339   4.230   1.752   2.051  0.5942  0.4759  0.1522
 2627SOL    HW119340   4.263   1.826   2.000  1.8472 -1.2515 -1.5492
 2627SOL    HW219341   4.308   1.711   2.087  0.4041 -0.3146 -0.3414
 2628SOL     OW19342   3.001   1.763  15.607  0.1707  0.3019 -0.9400
 2628SOL    HW119343   3.033   1.709  15.535  2.2220  0.7390 -0.3532
 2628SOL    HW219344   3.070   1.830  15.610  0.3464  0.0916 -0.4343
 2629SOL     OW19345   0.712   3.011   7.874 -0.7966 -0.3922  0.0522
 2629SOL    HW119346   0.639   3.067   7.901 -0.4013 -0.6373  1.5923
 2629SOL    HW219347   0.780   3.076   7.855 -0.7159 -0.0629  1.5240
 2630SOL     OW19348   3.083   4.395  10.974 -0.5957 -0.3895 -0.0206
 2630SOL    HW119349   3.074   4.303  10.952  0.5307 -0.1027 -1.6905
 2630SOL    HW219350   3.084   4.395  11.070  0.5226  0.3782 -0.0280
 2631SOL     OW19351   2.383   2.207   9.507  0.3530 -0.7670 -0.4851
 2631SOL    HW119352   2.352   2.297   9.500  0.5490 -0.7438 -0.9805
 2631SOL    HW219353   2.312   2.171   9.560 -0.4753  0.6686 -0.6310
 2632SOL     OW19354   0.125   1.311   3.670  0.2297  0.1962  0.1426
 2632SOL    HW119355   0.164   1.398   3.656 -1.6994  0.8097 -1.3845
 2632SOL    HW219356   0.201   1.253   3.680  0.6442  0.9726  1.5823
 2633SOL     OW19357   3.900   0.842   4.608  0.1612  0.1527 -0.8092
 2633SOL    HW119358   3.837   0.816   4.676 -0.6203  0.2873 -1.4870
 2633SOL    HW219359   3.874   0.775   4.545 -1.8114 -1.3329  1.5472
 2634SOL     OW19360   3.568   1.284   2.912 -0.2226  1.0902  0.1545
 2634SOL    HW119361   3.630   1.258   2.981 -1.3988 -2.2947 -0.0541
 2634SOL    HW219362   3.510   1.208   2.910 -2.0450  2.5005 -0.3522
 2635SOL     OW19363   0.168   3.984  14.243 -0.7065  0.4884 -0.4143
 2635SOL    HW119364   0.178   3.905  14.189 -0.3732 -0.1465  0.5805
 2635SOL    HW219365   0.259   4.014  14.233 -0.2290 -0.8625 -0.2067
 2636SOL     OW19366   3.346   0.357   7.170  0.0073 -0.1882  0.7358
 2636SOL    HW119367   3.398   0.379   7.247 -0.9110 -1.5808  1.7294
 2636SOL    HW219368   3.411   0.330   7.105 -0.5898 -0.8775  0.4265
 2637SOL     OW19369   2.578   3.084  10.652  0.0735 -0.0543  0.0329
 2637SOL    HW119370   2.546   3.051  10.736 -1.3386  0.6031 -0.2475
 2637SOL    HW219371   2.666   3.046  10.646  0.0907  0.1908 -1.1605
 2638SOL     OW19372   2.962   0.548  13.394 -0.2506  0.0234 -0.7988
 2638SOL    HW119373   2.968   0.466  13.442  1.4120  1.0758  0.7757
 2638SOL    HW219374   2.953   0.522  13.302 -1.4958 -0.7573 -0.4558
 2639SOL     OW19375   3.321   2.520  14.524 -0.1878 -0.1713 -0.0834
 2639SOL    HW119376   3.377   2.527  14.447  1.1678  3.5541  1.2258
 2639SOL    HW219377   3.243   2.523  14.468  0.3261 -2.3064 -0.9134
 2640SOL     OW19378   3.679   4.087  15.233 -0.0872 -0.0374 -0.4484
 2640SOL    HW119379   3.664   4.152  15.301 -0.0697  1.8879 -2.2916
 2640SOL    HW219380   3.643   4.130  15.156  1.2148  2.4203  0.3307
 2641SOL     OW19381   4.120   3.681  11.532  0.2927 -0.2817 -0.6490
 2641SOL    HW119382   4.151   3.678  11.622 -0.4236  1.7088 -0.3301
 2641SOL    HW219383   4.048   3.618  11.528  0.2351 -0.2870  0.3410
 2642SOL     OW19384   4.048   3.277  10.960 -0.3962  0.2217 -0.2581
 2642SOL    HW119385   4.050   3.339  11.033  0.4817 -1.0790  0.8185
 2642SOL    HW219386   4.130   3.307  10.920 -1.2603 -0.5458 -2.5854
 2643SOL     OW19387   0.543   2.020   2.605  0.5289 -0.2650  0.1229
 2643SOL    HW119388   0.491   2.003   2.527 -0.0848  1.9492  0.0516
 2643SOL    HW219389   0.475   2.067   2.653  1.5369  0.4770  0.8312
 2644SOL     OW19390   0.352   2.794   8.243 -0.0115 -0.5600 -0.0906
 2644SOL    HW119391   0.308   2.874   8.214  1.3976  0.2227 -0.0841
 2644SOL    HW219392   0.383   2.819   8.330  2.8477 -2.0365 -0.6857
 2645SOL     OW19393   0.325   4.192   7.934  0.0632 -0.0736 -0.1489
 2645SOL    HW119394   0.233   4.213   7.950 -0.7462 -4.6302  1.0709
 2645SOL    HW219395   0.310   4.104   7.898 -0.1813 -0.1001  0.0130
 2646SOL     OW19396   1.802   1.556  10.212  0.6370 -0.3058 -0.4727
 2646SOL    HW119397   1.894   1.562  10.187  1.5049 -0.3906  2.6585
 2646SOL    HW219398   1.809   1.539  10.306 -2.8604  0.3940 -0.0931
 2647SOL     OW19399   3.435   1.901   3.640  0.4434 -1.2355  0.3076
 2647SOL    HW119400   3.480   1.819   3.659  0.2159 -1.2228  0.9103
 2647SOL    HW219401   3.418   1.928   3.731  0.8674  1.3958 -0.3899
 2648SOL     OW19402   2.580   3.082  14.137  0.2423  0.3767 -0.7950
 2648SOL    HW119403   2.545   3.029  14.209 -1.5124 -0.2973 -2.1474
 2648SOL    HW219404   2.636   3.014  14.099 -0.3301 -0.9260  0.6546
 2649SOL     OW19405   2.724   3.831  12.565  0.5526  0.4046 -0.2711
 2649SOL    HW119406   2.793   3.855  12.504  2.2328 -1.1174  1.0480
 2649SOL    HW219407   2.655   3.832  12.499 -0.2540  2.3812  0.5971
 2650SOL     OW19408   1.508   1.235   4.922  0.9202 -0.1602  0.1819
 2650SOL    HW119409   1.504   1.141   4.936 -1.1142 -0.3524 -1.6609
 2650SOL    HW219410   1.467   1.258   5.006 -0.3756 -0.8018 -0.2662
 2651SOL     OW19411   2.664   2.943   7.375  0.5977  0.5178  0.0159
 2651SOL    HW119412   2.753   2.946   7.410  0.4742 -0.3202  0.4091
 2651SOL    HW219413   2.677   3.019   7.318  0.3244  0.4390 -0.1556
 2652SOL     OW19414   2.046   0.324   8.782  0.1902  0.0563 -0.9105
 2652SOL    HW119415   1.952   0.336   8.771  0.0014 -2.8545 -2.5971
 2652SOL    HW219416   2.062   0.400   8.838  2.3873 -1.9077  1.1606
 2653SOL     OW19417   2.081   0.537   1.154  0.2132 -0.5941 -0.0993
 2653SOL    HW119418   2.172   0.520   1.179  0.9388  1.4208 -1.4125
 2653SOL    HW219419   2.059   0.455   1.109 -1.3804 -0.1895 -0.0472
 2654SOL     OW19420   0.646   0.539  11.193 -0.0201 -0.7049 -0.3991
 2654SOL    HW119421   0.714   0.571  11.252 -1.7337  1.4508  0.4227
 2654SOL    HW219422   0.675   0.448  11.186  0.6793 -0.4784 -0.4738
 2655SOL     OW19423   1.142   3.443  17.353 -0.1093  0.4670 -0.2842
 2655SOL    HW119424   1.127   3.535  17.374 -1.3197 -0.0530  1.1483
 2655SOL    HW219425   1.052   3.413  17.366 -0.0295  0.6408  0.6511
 2656SOL     OW19426   2.246   0.357   5.797  0.0920 -0.1344  0.3415
 2656SOL    HW119427   2.331   0.402   5.787  0.4074 -0.6517  0.7475
 2656SOL    HW219428   2.194   0.437   5.786  1.8298  1.0028  0.3438
 2657SOL     OW19429   0.066   1.117   7.114 -0.4366 -0.4616  0.6275
 2657SOL    HW119430   0.078   1.025   7.133 -2.1210 -0.7038  0.5557
 2657SOL    HW219431   0.085   1.157   7.199  1.4081  0.9784 -0.4645
 2658SOL     OW19432   2.190   0.821   6.332 -0.0326  0.6396  0.3921
 2658SOL    HW119433   2.162   0.859   6.416 -1.9715 -1.2210  0.5866
 2658SOL    HW219434   2.203   0.730   6.358 -0.7302  0.9771  1.9256
 2659SOL     OW19435   1.238   0.052   2.524  0.0930  0.1242  1.1429
 2659SOL    HW119436   1.280   4.691   2.527  0.2019  0.0923 -0.8586
 2659SOL    HW219437   1.310   0.104   2.561  1.1096 -0.4813  0.0271
 2660SOL     OW19438   4.024   2.611   6.575 -0.4061  0.9015 -0.1793
 2660SOL    HW119439   4.112   2.649   6.582  0.1923 -0.8107  1.9492
 2660SOL    HW219440   3.977   2.691   6.555 -1.1455  0.3805 -0.5329
 2661SOL     OW19441   3.767   1.115   7.147 -0.0875  0.1206 -0.0755
 2661SOL    HW119442   3.713   1.059   7.090 -1.7340 -1.0455  2.5872
 2661SOL    HW219443   3.814   1.152   7.072 -2.1988  1.1621 -0.9030
 2662SOL     OW19444   0.782   2.167   5.884  0.1188  0.3233 -0.3304
 2662SOL    HW119445   0.854   2.150   5.824  0.7100  1.2449  0.1247
 2662SOL    HW219446   0.789   2.261   5.897  0.9701  0.1723  0.2872
 2663SOL     OW19447   1.166   0.460   2.470  1.0120  0.4214  0.7062
 2663SOL    HW119448   1.178   0.413   2.388 -1.2520  2.2130 -0.6492
 2663SOL    HW219449   1.225   0.408   2.525  1.6974 -0.0298 -0.4460
 2664SOL     OW19450   2.337   1.366   3.269  0.0398 -0.1378 -0.4486
 2664SOL    HW119451   2.386   1.298   3.223  1.6848  1.0170 -0.4004
 2664SOL    HW219452   2.254   1.366   3.221 -0.8911  1.7142  1.1611
 2665SOL     OW19453   3.699   4.685   8.466 -0.1151 -0.0858  0.3849
 2665SOL    HW119454   3.657   4.606   8.502  2.4933 -1.3042  0.7937
 2665SOL    HW219455   3.738   4.716   8.548  1.4239 -1.3067  0.1179
 2666SOL     OW19456   2.059   1.724   6.907 -0.3398 -0.3463 -0.4299
 2666SOL    HW119457   2.131   1.755   6.963 -0.8453  1.8492 -0.9704
 2666SOL    HW219458   1.985   1.783   6.923  0.6596  0.4239  1.3931
 2667SOL     OW19459   3.753   2.814   8.698 -0.1018  0.2063 -0.0409
 2667SOL    HW119460   3.673   2.767   8.720 -0.7390  0.9198 -0.8009
 2667SOL    HW219461   3.748   2.904   8.730  1.6111  0.0344  0.7172
 2668SOL     OW19462   3.264   2.086   5.082  0.0341 -0.3186  0.0665
 2668SOL    HW119463   3.188   2.129   5.043  0.2146  0.7887  0.9451
 2668SOL    HW219464   3.335   2.107   5.020 -0.6312  1.7538  0.0053
 2669SOL     OW19465   0.280   3.194  17.509  0.3569 -0.5377 -0.0369
 2669SOL    HW119466   0.292   3.180  17.603 -3.0333 -0.9882  0.3242
 2669SOL    HW219467   0.256   3.287  17.508  0.2189 -0.5347  2.7078
 2670SOL     OW19468   4.344   1.987  13.655  0.0373 -0.6257  0.2700
 2670SOL    HW119469   4.333   2.035  13.573  0.6664  0.6670  0.9564
 2670SOL    HW219470   4.253   1.964  13.678  0.1798 -0.5710  0.8983
 2671SOL     OW19471   4.485   1.174  11.799  0.2922 -0.2897 -0.3470
 2671SOL    HW119472   4.479   1.086  11.763 -1.3218 -1.0718  1.8371
 2671SOL    HW219473   4.563   1.174  11.855  0.3526  0.0898 -0.4267
 2672SOL     OW19474   2.520   2.406  12.317 -0.3180  0.6593 -0.3748
 2672SOL    HW119475   2.473   2.329  12.287 -0.4330  1.2905 -1.8149
 2672SOL    HW219476   2.529   2.457  12.236  2.4590  0.3689 -0.2281
 2673SOL     OW19477   1.243   4.642   5.798 -0.8595 -0.0039  0.5988
 2673SOL    HW119478   1.188   4.616   5.872  0.1162  0.3295  1.4463
 2673SOL    HW219479   1.325   4.619   5.842 -1.1492 -0.6610  0.7934
 2674SOL     OW19480   1.938   0.416   4.318 -0.3194  0.9594  0.1440
 2674SOL    HW119481   1.861   0.379   4.362 -1.8425  1.1515 -2.3762
 2674SOL    HW219482   1.994   0.470   4.373 -0.0765 -1.5771  2.4296
 2675SOL     OW19483   2.153   2.096   5.640 -0.1194  0.1016  0.8335
 2675SOL    HW119484   2.195   2.123   5.722  0.5242  0.5558  0.3559
 2675SOL    HW219485   2.167   2.180   5.596  0.8288 -0.8162 -0.6118
 2676SOL     OW19486   3.111   1.656   2.527  0.1131 -0.2040 -0.8294
 2676SOL    HW119487   3.187   1.635   2.582  1.0507  0.1998 -1.9669
 2676SOL    HW219488   3.045   1.641   2.595  0.8086  1.8605  0.3107
 2677SOL     OW19489   4.609   4.460   3.453 -0.6861 -0.0940  0.2486
 2677SOL    HW119490   4.647   4.449   3.365 -2.6786 -3.3579 -0.1734
 2677SOL    HW219491   4.535   4.401   3.438 -1.5767  1.3540 -1.0917
 2678SOL     OW19492   2.553   3.347   8.495  0.0247 -0.3525 -0.1725
 2678SOL    HW119493   2.483   3.282   8.488 -0.6724  0.4278 -0.4577
 2678SOL    HW219494   2.505   3.411   8.442 -1.8551 -1.1784  0.5197
 2679SOL     OW19495   1.438   2.486   1.735  0.3343  0.2720 -0.4265
 2679SOL    HW119496   1.368   2.457   1.794 -2.1707  1.7219 -2.6739
 2679SOL    HW219497   1.392   2.459   1.656 -0.1498  0.0032 -0.0557
 2680SOL     OW19498   3.680   2.993   6.296 -0.4728  0.1033  0.3195
 2680SOL    HW119499   3.623   2.989   6.219 -1.0507  2.3811  0.6412
 2680SOL    HW219500   3.614   2.984   6.364 -1.2583 -0.1034 -0.4718
 2681SOL     OW19501   1.909   0.632   1.358 -0.2394  0.0524  0.1178
 2681SOL    HW119502   1.950   0.587   1.432  2.2212 -0.2533 -1.4281
 2681SOL    HW219503   1.966   0.604   1.286  0.2443  0.3493  0.3803
 2682SOL     OW19504   4.108   2.718   7.386 -0.5453 -0.2062 -0.4241
 2682SOL    HW119505   4.069   2.788   7.334 -0.8915 -0.7236 -0.8634
 2682SOL    HW219506   4.041   2.653   7.406 -1.7291  1.6122  1.4441
 2683SOL     OW19507   4.601   3.346   8.077 -0.0319 -0.1297  0.1316
 2683SOL    HW119508   4.606   3.343   8.173 -2.4799 -1.5367  0.2124
 2683SOL    HW219509   4.692   3.341   8.047 -0.8295  0.1157 -2.2634
 2684SOL     OW19510   1.518   1.808  16.718 -0.1994  0.7429  0.5956
 2684SOL    HW119511   1.600   1.762  16.701 -0.1617  0.7046  0.8847
 2684SOL    HW219512   1.558   1.881  16.765 -0.9849  3.1025 -2.4587
 2685SOL     OW19513   2.697   1.456   8.470 -0.1207  0.1532 -0.2329
 2685SOL    HW119514   2.706   1.448   8.375 -0.3204  0.1081 -0.2467
 2685SOL    HW219515   2.706   1.363   8.491  3.0851  0.8430  1.5262
 2686SOL     OW19516   4.435   1.002   6.580 -0.4074  0.3371 -0.0554
 2686SOL    HW119517   4.439   0.978   6.488  0.1523 -0.0809  0.0749
 2686SOL    HW219518   4.411   1.093   6.564 -3.2543  0.0220  2.3434
 2687SOL     OW19519   1.777   1.005  14.769 -0.1075  0.4032  0.4272
 2687SOL    HW119520   1.689   1.025  14.737 -0.4831 -0.8736  0.6490
 2687SOL    HW219521   1.827   1.061  14.710  1.1528 -1.0238  0.1289
 2688SOL     OW19522   1.726   2.725   3.471 -0.4703  0.1827 -0.4936
 2688SOL    HW119523   1.742   2.654   3.409  0.6668 -0.0711  0.0957
 2688SOL    HW219524   1.664   2.775   3.418 -0.4054  0.6158 -0.1619
 2689SOL     OW19525   3.492   2.224   0.261  0.0496 -0.1862 -0.0897
 2689SOL    HW119526   3.574   2.176   0.272  0.7342  0.5954 -1.7137
 2689SOL    HW219527   3.469   2.251   0.350  3.4961 -0.0549  0.7479
 2690SOL     OW19528   3.137   2.680  14.766  0.4808 -0.3005 -0.3023
 2690SOL    HW119529   3.108   2.597  14.804 -2.3924  1.8974  2.2720
 2690SOL    HW219530   3.079   2.741  14.811  0.1236 -1.5496  0.9134
 2691SOL     OW19531   2.588   4.378  13.361  0.1420 -0.4800 -0.1140
 2691SOL    HW119532   2.581   4.434  13.438 -2.7922 -1.4444  0.2916
 2691SOL    HW219533   2.505   4.383  13.315  0.8714  1.3856 -1.2462
 2692SOL     OW19534   2.695   1.871   4.176 -1.0287 -0.9067  0.0870
 2692SOL    HW119535   2.669   1.912   4.093  1.4578  1.3201  0.3952
 2692SOL    HW219536   2.648   1.926   4.238 -2.1807  0.6241 -2.1081
 2693SOL     OW19537   1.382   4.195  17.344  0.0051  0.4910  0.2652
 2693SOL    HW119538   1.402   4.103  17.364  0.2937  0.4506 -0.2005
 2693SOL    HW219539   1.470   4.228  17.325  0.2590 -0.6042 -0.4919
 2694SOL     OW19540   3.590   1.669   7.261 -0.3544 -0.3943  0.1291
 2694SOL    HW119541   3.590   1.735   7.330 -0.2991  2.1530 -2.2750
 2694SOL    HW219542   3.529   1.716   7.204 -0.4469 -1.1141 -0.3582
 2695SOL     OW19543   3.056   3.753   2.156  0.5201 -0.7228 -0.2740
 2695SOL    HW119544   3.033   3.776   2.066  2.9939  0.3739 -0.6249
 2695SOL    HW219545   3.151   3.751   2.142  0.7424 -1.5625  1.3745
 2696SOL     OW19546   2.662   2.683   6.177 -0.3954  0.1739 -0.0316
 2696SOL    HW119547   2.567   2.688   6.193 -0.8310 -0.5429 -2.4188
 2696SOL    HW219548   2.684   2.743   6.106  1.0736 -0.6623 -0.2697
 2697SOL     OW19549   4.543   2.879  13.230  0.1056  0.2667  0.4063
 2697SOL    HW119550   4.554   2.974  13.224  2.7402  0.0225  1.3567
 2697SOL    HW219551   4.536   2.871  13.325 -1.0401  0.1246  0.3083
 2698SOL     OW19552   1.030   2.583  12.121  0.3008  0.0956 -0.4482
 2698SOL    HW119553   1.104   2.644  12.116  0.1247  0.3610  0.2922
 2698SOL    HW219554   1.031   2.551  12.031  0.9276 -0.7343 -0.1444
 2699SOL     OW19555   4.247   3.317   5.241 -0.0456  0.2744  0.3321
 2699SOL    HW119556   4.267   3.260   5.167 -0.9420  0.0750  0.2360
 2699SOL    HW219557   4.313   3.286   5.303  2.3276  0.8846 -1.8841
 2700SOL     OW19558   0.430   4.686  16.413 -0.1984  0.1467 -0.0967
 2700SOL    HW119559   0.378   4.645  16.481 -0.2591  0.0484 -0.2032
 2700SOL    HW219560   0.492   0.019  16.457  0.1167  0.0737 -0.4459
 2701SOL     OW19561   0.824   0.158   9.366 -0.3824  0.2042  0.0452
 2701SOL    HW119562   0.874   0.102   9.307  1.3481  1.5611  0.2486
 2701SOL    HW219563   0.749   0.190   9.315  1.1793  2.2743 -0.9188
 2702SOL     OW19564   2.387   1.499  15.074 -0.2657 -0.2854  0.7604
 2702SOL    HW119565   2.467   1.542  15.105  0.3310 -0.0723 -1.0863
 2702SOL    HW219566   2.389   1.530  14.984 -0.4945  1.8190  1.4662
 2703SOL     OW19567   3.580   4.119   3.550  0.0299  0.4679  0.4354
 2703SOL    HW119568   3.621   4.040   3.516 -2.1057 -1.2179  1.7926
 2703SOL    HW219569   3.563   4.157   3.464  0.6068  2.4097  1.1600
 2704SOL     OW19570   3.834   0.578   3.486 -0.5814  0.0885  0.5564
 2704SOL    HW119571   3.821   0.494   3.531  0.1287 -0.8730 -1.0397
 2704SOL    HW219572   3.770   0.575   3.415  0.2218 -2.1001 -0.0916
 2705SOL     OW19573   2.142   2.445   4.050 -0.3302 -0.1822 -0.8661
 2705SOL    HW119574   2.201   2.459   3.976 -1.6941 -1.1624 -2.1124
 2705SOL    HW219575   2.111   2.534   4.065 -0.2243 -0.7096  2.5582
 2706SOL     OW19576   0.042   0.284  13.912 -0.5883 -0.0197  0.5521
 2706SOL    HW119577   0.029   0.326  13.997  0.4056 -0.1464  0.7646
 2706SOL    HW219578   0.070   0.196  13.937 -0.8423 -0.2109  0.1677
 2707SOL     OW19579   3.158   3.752  17.123  0.5179 -0.1844  0.1596
 2707SOL    HW119580   3.245   3.766  17.158 -0.5294  0.3786  2.5429
 2707SOL    HW219581   3.170   3.663  17.091  2.1351  0.1733 -0.2328
 2708SOL     OW19582   1.573   3.201   8.298 -0.8439  0.0649  0.1450
 2708SOL    HW119583   1.529   3.280   8.267 -0.7602  0.2540  0.5006
 2708SOL    HW219584   1.517   3.131   8.265  1.0784 -0.5695 -1.7706
 2709SOL     OW19585   0.647   1.193   8.596  0.5834 -0.3649  0.2125
 2709SOL    HW119586   0.603   1.195   8.680  0.3146 -1.5018  0.1048
 2709SOL    HW219587   0.616   1.104   8.577  0.7063  0.0032 -1.6936
 2710SOL     OW19588   1.504   3.165   3.764  0.6719 -0.2121  0.4033
 2710SOL    HW119589   1.476   3.085   3.721  3.2415 -0.7406 -0.2808
 2710SOL    HW219590   1.599   3.169   3.750  0.7021  1.6773  1.0399
 2711SOL     OW19591   3.374   1.310  13.758  0.3225  0.2288  0.3473
 2711SOL    HW119592   3.354   1.378  13.694  1.2932  0.5157  0.3474
 2711SOL    HW219593   3.459   1.342  13.786  0.4037 -0.5015  0.9379
 2712SOL     OW19594   3.724   3.658  11.533 -0.2252 -0.1338  0.3510
 2712SOL    HW119595   3.647   3.614  11.570  0.2669 -0.7285  0.6796
 2712SOL    HW219596   3.721   3.633  11.441 -1.3913  0.0818  0.3318
 2713SOL     OW19597   2.526   1.757  13.048  0.3562  0.7974  0.3387
 2713SOL    HW119598   2.575   1.753  13.130  2.7799  2.5036 -1.0342
 2713SOL    HW219599   2.506   1.664  13.038  2.5094  0.2809  0.8006
 2714SOL     OW19600   4.573   4.266  12.756 -0.3296  0.3749  0.0106
 2714SOL    HW119601   4.646   4.219  12.797  0.0879  1.3293  0.3780
 2714SOL    HW219602   4.527   4.200  12.706  0.9673 -0.2648 -0.3475
 2715SOL     OW19603   1.316   2.558  14.155 -0.6668 -0.3801  0.0502
 2715SOL    HW119604   1.319   2.506  14.236  0.1802  1.4087  1.1783
 2715SOL    HW219605   1.353   2.498  14.091  0.1755  1.8827 -1.5844
 2716SOL     OW19606   0.826   4.272  12.135  0.3091  0.3509  0.1235
 2716SOL    HW119607   0.795   4.271  12.226 -0.9783  1.8897 -0.2853
 2716SOL    HW219608   0.791   4.187  12.109 -2.0908  1.6743 -1.0280
 2717SOL     OW19609   2.835   0.959  10.154  0.0107 -0.5835 -0.2273
 2717SOL    HW119610   2.876   0.952  10.067  0.4933 -0.2907 -0.0263
 2717SOL    HW219611   2.874   1.041  10.183  0.1154 -0.8654  0.4354
 2718SOL     OW19612   1.894   0.704  17.068  0.0560 -0.4750 -0.5900
 2718SOL    HW119613   1.932   0.686  16.982 -1.0207 -0.7112 -1.0268
 2718SOL    HW219614   1.941   0.781  17.101  1.3754 -1.0800 -1.0585
 2719SOL     OW19615   2.596   1.403  11.432 -0.0283 -0.1701 -0.0001
 2719SOL    HW119616   2.507   1.369  11.424 -0.3690  1.0685 -1.4182
 2719SOL    HW219617   2.581   1.498  11.426 -1.0073 -0.4772 -2.1067
 2720SOL     OW19618   2.131   0.072  15.822  0.3190 -0.1753 -0.0289
 2720SOL    HW119619   2.087   0.008  15.877  2.3437 -0.9192  0.7557
 2720SOL    HW219620   2.188   0.107  15.891 -0.8088  2.3461 -0.4044
 2721SOL     OW19621   0.121   4.409   6.748  0.0558  0.2545  0.1948
 2721SOL    HW119622   0.048   4.460   6.783 -1.1789 -0.8879 -0.6846
 2721SOL    HW219623   0.146   4.351   6.820 -0.5877  3.2838  2.8124
 2722SOL     OW19624   0.951   3.091  16.115  0.3365  0.8945  0.1651
 2722SOL    HW119625   0.859   3.087  16.141  0.7905 -0.3599  1.6020
 2722SOL    HW219626   0.959   3.178  16.076 -3.3897  1.0231 -0.3188
 2723SOL     OW19627   3.365   1.295   9.928  0.1145  0.3154  0.4155
 2723SOL    HW119628   3.277   1.258   9.916  0.5373 -0.5186 -0.1164
 2723SOL    HW219629   3.355   1.379   9.974 -0.2497  1.5521 -1.9610
 2724SOL     OW19630   0.023   3.777   4.205  0.2179 -0.2293 -0.1007
 2724SOL    HW119631   0.055   3.854   4.157  0.7195  0.2755  1.0608
 2724SOL    HW219632   0.013   3.814   4.293 -1.2801 -2.2453  0.5675
 2725SOL     OW19633   1.261   2.259   8.376  0.2874 -0.4874 -0.4165
 2725SOL    HW119634   1.170   2.273   8.352  0.6352 -0.1142 -1.5178
 2725SOL    HW219635   1.288   2.173   8.344  1.6914  0.6709 -2.3358
 2726SOL     OW19636   4.497   0.730  17.403  0.0808 -0.3267  0.9115
 2726SOL    HW119637   4.424   0.680  17.439 -0.7341 -0.1473 -0.4757
 2726SOL    HW219638   4.508   0.793  17.473  0.9946 -0.0856  0.5459
 2727SOL     OW19639   2.339   3.171  11.148 -0.4670 -0.6357  0.2466
 2727SOL    HW119640   2.319   3.096  11.205 -1.6045  0.5996  1.4700
 2727SOL    HW219641   2.250   3.190  11.119 -0.7379  0.5989  1.9311
 2728SOL     OW19642   0.625   2.997   6.505  0.0721  0.2237  0.4835
 2728SOL    HW119643   0.595   2.907   6.511 -0.5447  0.1832 -2.9024
 2728SOL    HW219644   0.715   2.990   6.472 -0.5398  2.7751 -1.7466
 2729SOL     OW19645   0.236   1.297   4.844  0.3964  0.0422  0.7238
 2729SOL    HW119646   0.201   1.373   4.797  0.3848  0.0764  0.7875
 2729SOL    HW219647   0.250   1.231   4.777 -1.0105  2.0626 -1.5548
 2730SOL     OW19648   2.839   2.226   7.847 -0.0088  0.6223  1.0099
 2730SOL    HW119649   2.839   2.231   7.751  2.1687 -0.8871  0.9219
 2730SOL    HW219650   2.749   2.211   7.874 -0.1750 -0.1449  0.0508
 2731SOL     OW19651   2.645   1.540  15.273  0.3632  0.3546 -0.0937
 2731SOL    HW119652   2.701   1.554  15.349  1.8888  0.7162 -1.2840
 2731SOL    HW219653   2.672   1.449  15.263  1.1595  0.6569 -0.6629
 2732SOL     OW19654   3.520   2.776   0.211  0.6330 -0.1844 -0.1149
 2732SOL    HW119655   3.550   2.864   0.234  0.5241 -0.4593  1.0580
 2732SOL    HW219656   3.597   2.719   0.218  1.1501  0.4833 -0.3351
 2733SOL     OW19657   2.259   0.542   3.224  0.5607  0.2490 -0.2509
 2733SOL    HW119658   2.329   0.483   3.197  2.8040  2.8680 -0.1675
 2733SOL    HW219659   2.184   0.482   3.231 -0.3385  1.3786 -0.0032
 2734SOL     OW19660   4.233   0.482  11.360  0.2573  0.0037  0.1693
 2734SOL    HW119661   4.223   0.574  11.383  0.2780  0.3384 -1.2009
 2734SOL    HW219662   4.159   0.474  11.300 -1.5171  0.6619  2.2366
 2735SOL     OW19663   1.241   0.622  15.961  0.4306  0.4075  0.0841
 2735SOL    HW119664   1.228   0.687  15.892 -2.3502  0.2320  0.4616
 2735SOL    HW219665   1.316   0.576  15.922  1.2028  2.5785 -0.9785
 2736SOL     OW19666   3.718   4.209  16.526  0.8802 -0.4238  0.1778
 2736SOL    HW119667   3.665   4.287  16.511  0.6095 -0.2498  2.0431
 2736SOL    HW219668   3.671   4.130  16.500  0.1017  0.5210 -1.2971
 2737SOL     OW19669   3.660   3.849   3.446 -0.5454 -0.0252  0.4191
 2737SOL    HW119670   3.725   3.836   3.377  1.1836  1.0419  1.8544
 2737SOL    HW219671   3.578   3.851   3.398  0.8554  2.4275 -1.9049
 2738SOL     OW19672   0.125   0.569   8.770  0.2253 -0.1590 -0.0438
 2738SOL    HW119673   0.212   0.599   8.795  0.5715 -1.6901  0.5286
 2738SOL    HW219674   0.142   0.478   8.745 -0.3004 -0.3484  0.2792
 2739SOL     OW19675   1.007   3.606  12.925  0.7923 -0.5316 -0.3249
 2739SOL    HW119676   1.057   3.585  13.004  1.4015 -3.2610 -1.4596
 2739SOL    HW219677   1.017   3.701  12.937 -1.5550 -0.2519 -0.5832
 2740SOL     OW19678   1.296   2.396   6.023 -0.6091 -0.4018 -0.5277
 2740SOL    HW119679   1.377   2.372   6.067 -0.3136  1.7950  0.1513
 2740SOL    HW219680   1.240   2.371   6.096 -0.7087 -1.4347 -0.9692
 2741SOL     OW19681   3.481   4.689   1.939 -0.3971 -0.0937 -0.6541
 2741SOL    HW119682   3.406   4.678   1.997 -0.4867 -3.0756 -1.3734
 2741SOL    HW219683   3.448   0.022   1.870  0.8851 -0.7798 -1.8435
 2742SOL     OW19684   1.376   1.487   8.528  0.5462 -0.0077  0.2753
 2742SOL    HW119685   1.387   1.545   8.453 -0.9438  1.3319  1.0992
 2742SOL    HW219686   1.428   1.545   8.585 -1.6482  2.1304  0.0956
 2743SOL     OW19687   0.647   0.372   4.647  0.5284  0.1009  0.1488
 2743SOL    HW119688   0.724   0.401   4.598  1.9978 -3.3640  0.3786
 2743SOL    HW219689   0.667   0.387   4.739  0.3606  1.9766 -0.1200
 2744SOL     OW19690   2.755   1.763   1.979 -0.0658  0.8741 -0.5250
 2744SOL    HW119691   2.747   1.835   2.041  1.2061  1.0849 -0.5983
 2744SOL    HW219692   2.664   1.735   1.968 -0.2591  1.7942 -1.2616
 2745SOL     OW19693   2.375   0.916   5.075  0.3230  0.2545  0.3138
 2745SOL    HW119694   2.345   0.877   4.992  1.3982  0.8002 -0.3402
 2745SOL    HW219695   2.352   0.851   5.142  0.1204  0.2570  0.2460
 2746SOL     OW19696   0.488   1.246   9.140  0.1024  0.0719  0.0147
 2746SOL    HW119697   0.476   1.156   9.172 -1.1402 -0.6979 -2.5614
 2746SOL    HW219698   0.444   1.289   9.213 -1.9243  0.1695 -1.2484
 2747SOL     OW19699   3.134   3.044  11.511 -0.1220  0.5388 -0.7486
 2747SOL    HW119700   3.213   3.034  11.457  0.2489  2.5946 -0.5955
 2747SOL    HW219701   3.070   3.000  11.454  0.6893 -0.4677 -0.8739
 2748SOL     OW19702   4.124   1.069  17.188 -0.3295  0.3126 -0.3343
 2748SOL    HW119703   4.059   1.137  17.201  0.1762  0.6379  0.5124
 2748SOL    HW219704   4.068   1.002  17.150  0.9837 -1.2504  0.5002
 2749SOL     OW19705   3.311   1.056  15.600 -0.4883 -0.4450  0.0856
 2749SOL    HW119706   3.235   1.046  15.657  0.9270  1.5662  2.3456
 2749SOL    HW219707   3.297   0.992  15.530 -1.8108  0.4771 -0.4793
 2750SOL     OW19708   4.124   3.234  13.952 -0.6633 -0.2624 -0.2247
 2750SOL    HW119709   4.184   3.237  13.878 -0.5766 -2.2841 -0.2599
 2750SOL    HW219710   4.135   3.144  13.985  0.5778  0.9484  2.6391
 2751SOL     OW19711   2.182   3.832   3.244 -0.1797  0.0994 -0.2411
 2751SOL    HW119712   2.211   3.840   3.336 -0.5894  0.5718 -0.1545
 2751SOL    HW219713   2.259   3.790   3.206 -0.1071 -1.0319  1.1240
 2752SOL     OW19714   1.336   3.154   4.927  0.2528  0.0112  0.2030
 2752SOL    HW119715   1.328   3.074   4.980 -2.8053  1.3604  1.7852
 2752SOL    HW219716   1.427   3.157   4.896 -0.3778  1.9903 -1.4236
 2753SOL     OW19717   1.112   1.779   9.543  0.3830  0.0557  0.2006
 2753SOL    HW119718   1.079   1.714   9.481  0.4413  1.2222 -1.0488
 2753SOL    HW219719   1.204   1.754   9.545  0.0717 -0.8889  2.1194
 2754SOL     OW19720   2.762   3.234   6.869  0.0244 -0.1878 -0.3418
 2754SOL    HW119721   2.750   3.293   6.795 -0.9443 -0.4784 -0.4089
 2754SOL    HW219722   2.785   3.160   6.812  0.8762 -0.9389  0.9814
 2755SOL     OW19723   0.404   2.636   0.499  0.4397  1.0185 -0.2048
 2755SOL    HW119724   0.491   2.647   0.537  0.4652  1.5752 -0.4303
 2755SOL    HW219725   0.408   2.547   0.463  0.6378  0.5914  0.8704
 2756SOL     OW19726   2.147   2.356   7.651 -0.1702 -0.0019  0.5811
 2756SOL    HW119727   2.217   2.399   7.602  0.5712  0.3357  1.9381
 2756SOL    HW219728   2.096   2.307   7.587 -1.2391  2.7621 -0.6932
 2757SOL     OW19729   0.794   4.567   4.674  0.3676 -0.0215  0.1852
 2757SOL    HW119730   0.706   4.601   4.659  1.1522  1.0986 -1.8638
 2757SOL    HW219731   0.770   4.475   4.686  0.1469 -0.2073 -1.7012
 2758SOL     OW19732   3.572   1.466   5.290 -0.1202 -0.3547 -0.4409
 2758SOL    HW119733   3.563   1.405   5.363  0.6009  1.2855  1.0410
 2758SOL    HW219734   3.604   1.407   5.223 -0.5100 -1.3821  0.2696
 2759SOL     OW19735   4.591   0.064  17.368 -0.3373  0.1978 -0.2693
 2759SOL    HW119736   4.549   0.006  17.432 -3.5029  1.0360 -1.5738
 2759SOL    HW219737   4.600   0.145  17.418 -3.0023  0.3112  0.0616
 2760SOL     OW19738   2.011   3.721   3.931  0.1708 -0.1964  0.5727
 2760SOL    HW119739   1.925   3.751   3.962 -0.3943 -0.9232 -0.2991
 2760SOL    HW219740   2.015   3.648   3.992  1.4077 -0.4196  0.2155
 2761SOL     OW19741   2.576   3.718   2.686  0.2823  0.4307  0.2251
 2761SOL    HW119742   2.640   3.737   2.618 -0.3423  0.9852 -0.2017
 2761SOL    HW219743   2.586   3.790   2.749 -1.2214 -0.5749  1.6278
 2762SOL     OW19744   4.505   0.262   4.675  0.2958 -0.0132  0.0368
 2762SOL    HW119745   4.548   0.324   4.616  0.0997  0.8893  0.8325
 2762SOL    HW219746   4.561   0.251   4.753  2.1883 -1.2258 -1.4853
 2763SOL     OW19747   2.531   4.353   4.840 -0.5558 -0.6179  0.4507
 2763SOL    HW119748   2.523   4.438   4.884 -1.0306 -1.4811  2.0362
 2763SOL    HW219749   2.442   4.320   4.858 -0.4985 -0.6867  0.6067
 2764SOL     OW19750   4.166   3.228  15.294  0.3345 -0.7597  0.3126
 2764SOL    HW119751   4.136   3.319  15.290  2.1274 -0.2088 -0.7498
 2764SOL    HW219752   4.257   3.230  15.266 -0.6049 -1.9498 -2.8868
 2765SOL     OW19753   3.181   3.118  10.421  0.2967 -0.1865  0.0846
 2765SOL    HW119754   3.119   3.079  10.483 -0.0192 -1.9973 -1.3821
 2765SOL    HW219755   3.264   3.120  10.469  0.9567  1.6143 -1.1431
 2766SOL     OW19756   3.555   4.353   7.149  0.7708 -0.4324 -0.2792
 2766SOL    HW119757   3.644   4.385   7.163 -1.0328  4.1065  0.5930
 2766SOL    HW219758   3.575   4.260   7.162 -1.6501 -0.5596  2.3835
 2767SOL     OW19759   3.087   2.598   7.253 -0.1745  0.1890 -0.2078
 2767SOL    HW119760   3.103   2.505   7.237  0.6755 -0.0557  2.1075
 2767SOL    HW219761   2.991   2.597   7.250 -0.1785 -0.6387  0.0445
 2768SOL     OW19762   1.604   0.432   7.674 -0.8349  0.6895 -0.0701
 2768SOL    HW119763   1.655   0.421   7.594  0.0476  0.3454  0.5384
 2768SOL    HW219764   1.564   0.515   7.649  0.1443  0.3974 -2.5422
 2769SOL     OW19765   1.929   3.084  11.631 -0.3371 -0.0085 -0.3306
 2769SOL    HW119766   1.931   3.077  11.536  0.9014 -0.0806 -0.3018
 2769SOL    HW219767   2.006   3.031  11.652  1.1530  2.4060  0.3401
 2770SOL     OW19768   0.432   2.322  13.194  0.6476 -0.4343  0.1260
 2770SOL    HW119769   0.356   2.372  13.163  0.6222  0.0164  0.9166
 2770SOL    HW219770   0.500   2.383  13.224 -1.3519  2.0129 -0.2805
 2771SOL     OW19771   0.345   3.523   7.869  0.4849 -1.2620  0.4587
 2771SOL    HW119772   0.373   3.614   7.868 -1.0403 -0.8036 -0.3189
 2771SOL    HW219773   0.355   3.508   7.775 -0.2690  2.7473 -0.2444
 2772SOL     OW19774   2.076   3.492   4.197  0.1753  1.2761 -0.0797
 2772SOL    HW119775   2.140   3.514   4.129  1.0300  1.3341  0.7559
 2772SOL    HW219776   2.135   3.448   4.258  0.1833 -0.5180 -1.3851
 2773SOL     OW19777   0.396   4.653   7.271  0.7435 -0.1825  0.0469
 2773SOL    HW119778   0.360   4.570   7.239 -1.6079 -0.0085  2.2720
 2773SOL    HW219779   0.413   4.700   7.189  2.7644  2.5919  2.0654
 2774SOL     OW19780   1.308   3.314  13.818 -0.2125 -0.4525  0.1244
 2774SOL    HW119781   1.225   3.336  13.861  0.3388 -1.2573  1.5910
 2774SOL    HW219782   1.379   3.363  13.859 -1.0894  1.1692 -0.2637
 2775SOL     OW19783   2.456   3.154   7.010 -0.4706  0.0369 -0.2872
 2775SOL    HW119784   2.373   3.187   7.044 -0.3757  0.2295 -0.2413
 2775SOL    HW219785   2.464   3.206   6.930  0.2887  0.6132  0.1601
 2776SOL     OW19786   0.403   0.859   0.990  0.2377 -0.0442 -0.5096
 2776SOL    HW119787   0.376   0.927   1.051 -2.3045  0.7009 -2.4652
 2776SOL    HW219788   0.362   0.888   0.908  0.9566 -1.2019 -1.2823
 2777SOL     OW19789   2.931   3.087   6.688 -0.3897  0.3300  0.0349
 2777SOL    HW119790   2.904   3.131   6.607 -0.6735 -2.4394 -1.3528
 2777SOL    HW219791   3.026   3.096   6.680 -0.1652 -1.6538  0.5190
 2778SOL     OW19792   1.679   2.845   2.804  0.0754 -0.3338  0.3379
 2778SOL    HW119793   1.690   2.867   2.711  1.2095  0.4698  0.6570
 2778SOL    HW219794   1.750   2.782   2.813  0.3975  0.3905  2.7590
 2779SOL     OW19795   4.617   2.168   2.158 -0.3435  0.0458 -0.2645
 2779SOL    HW119796   4.586   2.089   2.114  0.1035  0.4582 -1.3071
 2779SOL    HW219797   4.643   2.229   2.090 -0.8648 -0.9924 -1.3914
 2780SOL     OW19798   0.348   1.590   2.249 -0.3405  0.1641  0.0195
 2780SOL    HW119799   0.254   1.575   2.257 -0.3928  1.6401  2.1408
 2780SOL    HW219800   0.371   1.517   2.191 -1.1666 -1.1867  1.3869
 2781SOL     OW19801   2.402   2.749   2.247 -0.1078 -0.0117 -0.1668
 2781SOL    HW119802   2.478   2.757   2.304  0.8331  1.6905 -1.6655
 2781SOL    HW219803   2.439   2.786   2.167  1.8264 -0.0826  0.7092
 2782SOL     OW19804   2.366   2.675   8.086  0.3032  0.5415  0.0796
 2782SOL    HW119805   2.408   2.741   8.141  1.0639  1.7792 -2.0067
 2782SOL    HW219806   2.291   2.727   8.057  0.5059  0.9516  0.2883
 2783SOL     OW19807   3.380   1.981  13.690 -0.1589  0.2992 -0.4077
 2783SOL    HW119808   3.321   2.054  13.670  1.1685  1.2023 -0.9986
 2783SOL    HW219809   3.400   1.947  13.603 -1.1300 -1.4462  0.0452
 2784SOL     OW19810   0.277   4.048   2.341 -0.3434 -0.4090  0.1435
 2784SOL    HW119811   0.199   4.009   2.302  0.9229 -1.4544 -1.3205
 2784SOL    HW219812   0.280   4.131   2.293  0.5480  0.0902  1.0677
 2785SOL     OW19813   2.785   4.646   1.868 -0.1036 -0.1031  0.1011
 2785SOL    HW119814   2.799   4.602   1.784 -1.4354 -1.4518  0.5932
 2785SOL    HW219815   2.872   4.657   1.908  1.0362 -0.6062 -2.2608
 2786SOL     OW19816   2.892   2.711   9.598  0.0608  0.0994 -0.1354
 2786SOL    HW119817   2.860   2.624   9.622 -1.4836  0.7633  0.2507
 2786SOL    HW219818   2.819   2.771   9.613  0.3629  0.3991  0.1494
 2787SOL     OW19819   3.246   3.406   7.794  0.5007  0.0321 -0.1561
 2787SOL    HW119820   3.246   3.422   7.888  1.9836 -1.4250  0.0767
 2787SOL    HW219821   3.236   3.311   7.792 -2.1521  0.2854  0.8340
 2788SOL     OW19822   3.045   1.537   3.116 -0.1927  0.0344  0.2652
 2788SOL    HW119823   2.996   1.619   3.125 -2.4378 -1.2843 -0.1948
 2788SOL    HW219824   3.093   1.554   3.035 -1.2965  0.7383 -0.2385
 2789SOL     OW19825   3.011   3.705   0.116  0.0319  0.4230  0.3096
 2789SOL    HW119826   2.982   3.639   0.179 -0.6918  0.3306 -0.1171
 2789SOL    HW219827   3.049   3.644   0.052  1.4874  1.1619  0.4702
 2790SOL     OW19828   4.720   0.393   4.412  0.9911 -0.0458 -0.2601
 2790SOL    HW119829   4.713   0.480   4.372  1.3694 -0.2308 -0.7354
 2790SOL    HW219830   4.655   0.340   4.365 -1.4695  0.8348  2.1647
 2791SOL     OW19831   2.479   2.479   7.818 -0.7084  0.3307 -0.0912
 2791SOL    HW119832   2.543   2.510   7.754 -0.8053 -0.4858 -0.5817
 2791SOL    HW219833   2.431   2.561   7.829 -0.3302  0.5712 -0.2231
 2792SOL     OW19834   3.303   0.296   7.922 -0.0877  0.5198 -0.3611
 2792SOL    HW119835   3.397   0.310   7.921 -0.1530  0.8868 -1.3389
 2792SOL    HW219836   3.291   0.318   8.015 -1.1362 -0.5634 -0.2485
 2793SOL     OW19837   3.008   1.803  16.292  0.7983  0.0400 -0.4040
 2793SOL    HW119838   3.054   1.784  16.210  2.4862  1.9770  0.1008
 2793SOL    HW219839   2.950   1.727  16.296 -0.0911  0.7559  0.1514
 2794SOL     OW19840   2.652   3.946   5.224  0.0387 -0.4660  0.5512
 2794SOL    HW119841   2.619   3.951   5.134  0.8493 -0.9342  0.2341
 2794SOL    HW219842   2.571   3.915   5.265 -1.4659  2.0916 -0.4542
 2795SOL     OW19843   3.046   2.270   3.758 -0.1008  0.4811  0.1487
 2795SOL    HW119844   3.096   2.195   3.727 -2.2268 -0.8841  0.0543
 2795SOL    HW219845   3.115   2.320   3.803  1.0356 -1.8786  1.0403
 2796SOL     OW19846   4.559   0.600   8.752 -0.0019 -0.4318  0.0070
 2796SOL    HW119847   4.576   0.519   8.801  0.7733 -0.2926 -0.0290
 2796SOL    HW219848   4.649   0.619   8.726 -0.6235  1.6820 -0.6011
 2797SOL     OW19849   3.311   3.699  12.272  0.2656  0.5443 -0.7216
 2797SOL    HW119850   3.387   3.643  12.288 -0.5191 -0.5766 -0.8999
 2797SOL    HW219851   3.304   3.690  12.177 -2.1484 -0.1419 -0.4805
 2798SOL     OW19852   2.981   1.775   0.828 -0.1840 -0.8013  0.6942
 2798SOL    HW119853   3.063   1.739   0.794 -0.2910 -1.8005  1.4703
 2798SOL    HW219854   2.969   1.854   0.776 -1.9715 -2.5228 -1.5033
 2799SOL     OW19855   1.976   2.710   4.228 -0.1033  0.0655  0.2522
 2799SOL    HW119856   1.886   2.691   4.256  0.0303  0.7158  1.1501
 2799SOL    HW219857   1.955   2.703   4.135 -0.5659 -2.1583  0.5117
 2800SOL     OW19858   4.024   0.650  10.532  0.2458 -0.0746  0.1566
 2800SOL    HW119859   4.067   0.586  10.589 -1.8413 -1.4656  0.1779
 2800SOL    HW219860   3.979   0.703  10.598 -1.2544 -0.1588 -0.8061
 2801SOL     OW19861   1.058   2.919   8.913  0.0519  0.3418 -0.0832
 2801SOL    HW119862   0.978   2.947   8.958  0.1090  2.5943 -1.3781
 2801SOL    HW219863   1.110   2.996   8.891  1.9981 -0.6316  1.1571
 2802SOL     OW19864   4.478   3.717  11.911  0.2251 -0.0081 -0.3439
 2802SOL    HW119865   4.546   3.784  11.916 -0.9647  1.0939  1.2248
 2802SOL    HW219866   4.418   3.745  11.980 -0.0626 -1.1161 -0.1363
 2803SOL     OW19867   4.110   2.212  13.231  0.0413  0.4892 -0.4055
 2803SOL    HW119868   4.177   2.280  13.228  0.8063 -0.2690 -0.5842
 2803SOL    HW219869   4.026   2.257  13.216 -0.4667 -1.5018 -3.4954
 2804SOL     OW19870   2.037   3.185  14.455 -0.4911  0.5884  0.4839
 2804SOL    HW119871   2.067   3.231  14.377  0.5381  0.2753  0.6943
 2804SOL    HW219872   2.038   3.260  14.515  0.3705  1.4472 -0.6111
 2805SOL     OW19873   0.876   2.256   4.229 -0.2555  0.4192 -0.2163
 2805SOL    HW119874   0.868   2.164   4.256 -0.8065  0.0302 -1.6644
 2805SOL    HW219875   0.786   2.268   4.199  0.7768 -0.2704 -3.6861
 2806SOL     OW19876   3.174   1.763   5.820 -0.1049 -0.1191  0.2401
 2806SOL    HW119877   3.210   1.756   5.731  2.6037 -1.1254  1.4166
 2806SOL    HW219878   3.187   1.857   5.834 -1.0799  0.2806 -1.4786
 2807SOL     OW19879   4.576   2.490   7.382 -1.2129 -0.4393 -0.5284
 2807SOL    HW119880   4.570   2.426   7.311  0.0729  0.7187 -1.6941
 2807SOL    HW219881   4.599   2.435   7.457  0.0675  1.3267  0.3916
 2808SOL     OW19882   3.490   3.853   5.138  0.0320 -0.2836  0.2279
 2808SOL    HW119883   3.527   3.770   5.166 -1.3484 -1.0791 -0.3172
 2808SOL    HW219884   3.553   3.879   5.071  0.4100  0.6298  0.9355
 2809SOL     OW19885   2.213   1.460   7.566 -0.0886  0.2405 -0.1300
 2809SOL    HW119886   2.135   1.505   7.534  0.7993  1.1677 -1.0068
 2809SOL    HW219887   2.261   1.531   7.609 -0.3724  0.3837 -0.0529
 2810SOL     OW19888   2.517   2.209  10.882  1.0969  0.5860 -0.5702
 2810SOL    HW119889   2.504   2.298  10.915 -1.0810  0.8545 -2.1787
 2810SOL    HW219890   2.609   2.198  10.907  0.6706 -0.0212  0.6954
 2811SOL     OW19891   2.260   0.172   5.992 -0.1599 -0.6906  0.1217
 2811SOL    HW119892   2.230   0.238   5.929  2.1445 -0.8802 -1.1689
 2811SOL    HW219893   2.192   0.171   6.060 -1.2602  2.0856 -0.9019
 2812SOL     OW19894   2.194   2.004   6.163  0.1358  0.1240 -0.6680
 2812SOL    HW119895   2.143   2.085   6.168  1.3218  0.7540  1.4410
 2812SOL    HW219896   2.181   1.987   6.070  0.7200  1.4332 -0.9869
 2813SOL     OW19897   1.778   1.913  11.621 -0.3594  0.1825  0.7034
 2813SOL    HW119898   1.783   2.005  11.646 -2.2659  0.1822  1.0800
 2813SOL    HW219899   1.737   1.914  11.535 -1.1085  1.9908  1.0944
 2814SOL     OW19900   2.814   3.010  14.305  0.0431 -0.0506  0.0864
 2814SOL    HW119901   2.833   2.930  14.255 -1.0061  0.1791 -0.6942
 2814SOL    HW219902   2.841   3.076  14.241 -1.3628 -0.6901 -1.1854
 2815SOL     OW19903   2.122   0.911  13.969  0.2656 -0.2503 -0.2227
 2815SOL    HW119904   2.128   0.915  13.874  0.6453 -1.1613 -0.2328
 2815SOL    HW219905   2.188   0.976  13.993  0.8018 -0.2543 -1.7405
 2816SOL     OW19906   2.998   3.857   7.777  0.5741  0.1789  0.5399
 2816SOL    HW119907   3.051   3.791   7.732 -1.0039 -1.1178  0.5972
 2816SOL    HW219908   2.909   3.822   7.780  0.1065  1.4105  1.6189
 2817SOL     OW19909   1.673   3.202   4.701 -0.0984  0.1195 -0.4147
 2817SOL    HW119910   1.661   3.266   4.630  0.9701  1.1828  0.3761
 2817SOL    HW219911   1.759   3.168   4.676  0.4797  2.5359 -1.7555
 2818SOL     OW19912   1.770   3.051   1.162  0.4287 -0.3300  0.1310
 2818SOL    HW119913   1.732   2.964   1.148  2.2377 -0.8987 -1.3804
 2818SOL    HW219914   1.704   3.090   1.219  1.1847  0.2512  0.5994
 2819SOL     OW19915   2.901   2.302   1.692  0.5670 -0.7002  0.3223
 2819SOL    HW119916   2.914   2.214   1.657  2.1657 -1.1546  2.0736
 2819SOL    HW219917   2.982   2.352   1.691  0.4324 -0.4861 -0.2534
 2820SOL     OW19918   4.689   4.472   7.572 -0.6808  0.6688 -0.0134
 2820SOL    HW119919   4.686   4.383   7.537 -0.8708  0.3342  0.8757
 2820SOL    HW219920   4.712   4.516   7.490  0.6225  0.1689  0.0838
 2821SOL     OW19921   0.314   4.129   6.154  0.1504  0.5598 -0.3703
 2821SOL    HW119922   0.353   4.133   6.067 -0.0002 -0.9298 -0.4972
 2821SOL    HW219923   0.320   4.035   6.169 -0.8177  0.3505 -1.2921
 2822SOL     OW19924   2.899   3.888  15.585 -0.4489 -0.1356 -0.5478
 2822SOL    HW119925   2.938   3.973  15.567  2.1426 -0.8068  1.8810
 2822SOL    HW219926   2.808   3.918  15.589 -0.8021 -0.6298 -4.4515
 2823SOL     OW19927   2.113   4.257   5.095 -0.0946 -0.1577 -0.3438
 2823SOL    HW119928   2.053   4.325   5.126  0.4058  0.1293 -0.0096
 2823SOL    HW219929   2.081   4.180   5.142  0.8209  0.1851  0.8217
 2824SOL     OW19930   0.022   2.540  13.216 -0.3058 -0.6019 -0.8348
 2824SOL    HW119931   4.661   2.497  13.218 -0.6422  0.0386 -1.4683
 2824SOL    HW219932   0.034   2.560  13.309 -0.7927  0.0383 -0.9030
 2825SOL     OW19933   0.544   1.796   5.816 -0.2786  0.2003 -0.2000
 2825SOL    HW119934   0.539   1.701   5.808 -0.4810  0.1661  0.3375
 2825SOL    HW219935   0.634   1.815   5.842 -0.0417 -0.5486 -0.4670
 2826SOL     OW19936   2.758   2.467   4.935  0.4000 -0.2476 -0.1048
 2826SOL    HW119937   2.742   2.555   4.899  0.9134 -0.6143 -1.2194
 2826SOL    HW219938   2.719   2.487   5.020 -0.8599 -1.9477 -0.2905
 2827SOL     OW19939   1.693   1.150  10.351 -0.5621  0.4921  0.1860
 2827SOL    HW119940   1.670   1.077  10.409 -1.0132  0.3445 -0.1745
 2827SOL    HW219941   1.747   1.207  10.405 -0.2386 -2.9690  3.5427
 2828SOL     OW19942   2.304   4.564   3.145 -0.2271 -0.8368 -0.3547
 2828SOL    HW119943   2.307   4.510   3.066  1.8437 -0.5807 -0.4589
 2828SOL    HW219944   2.241   4.517   3.200  0.8573  0.0279  1.6368
 2829SOL     OW19945   3.871   3.511   7.774 -0.0959  0.7258 -0.4778
 2829SOL    HW119946   3.856   3.480   7.864 -2.3656  0.8784 -0.8036
 2829SOL    HW219947   3.963   3.539   7.780  0.8249 -2.3924  0.0268
 2830SOL     OW19948   3.503   4.338   1.877 -0.2823  0.0991 -0.2998
 2830SOL    HW119949   3.485   4.382   1.961  2.0876  0.7654 -0.1344
 2830SOL    HW219950   3.594   4.314   1.893 -0.8291 -1.2495  0.8301
 2831SOL     OW19951   0.511   0.600  11.460  0.0465 -0.6260 -0.3831
 2831SOL    HW119952   0.562   0.546  11.400  2.4156  0.4864  0.6311
 2831SOL    HW219953   0.555   0.569  11.539  3.1604  0.5311 -1.6382
 2832SOL     OW19954   3.853   1.735   8.976  0.3458 -0.5089  0.9139
 2832SOL    HW119955   3.786   1.666   8.972  2.5161 -2.6526  1.7352
 2832SOL    HW219956   3.873   1.733   9.069  0.0894  1.0775  1.0010
 2833SOL     OW19957   0.792   3.942  17.673 -0.1615 -0.1370 -0.5666
 2833SOL    HW119958   0.726   3.875  17.692  0.0238  0.0441  0.7239
 2833SOL    HW219959   0.869   3.887  17.686 -1.5024 -0.8675  4.3609
 2834SOL     OW19960   4.408   3.923   6.363  0.5329 -0.1587  0.1001
 2834SOL    HW119961   4.436   4.011   6.388  1.9043 -0.7249  0.5605
 2834SOL    HW219962   4.326   3.953   6.323  0.6513 -0.5031 -0.3967
 2835SOL     OW19963   4.417   2.512   5.909  0.1218 -0.4508 -0.7334
 2835SOL    HW119964   4.462   2.436   5.946  1.0602 -1.0294 -3.1189
 2835SOL    HW219965   4.463   2.581   5.957 -1.9863  0.3031  0.2017
 2836SOL     OW19966   2.443   1.671   1.097  0.1729  0.2966 -0.0886
 2836SOL    HW119967   2.397   1.621   1.164  0.0466  0.9569  0.3136
 2836SOL    HW219968   2.514   1.713   1.146  1.5561  0.3434 -2.1205
 2837SOL     OW19969   3.136   4.612  10.799  0.4200 -0.3523  0.1324
 2837SOL    HW119970   3.117   4.530  10.845 -0.5547  1.7648  3.4858
 2837SOL    HW219971   3.112   4.671  10.871  1.3083  1.9925 -1.5237
 2838SOL     OW19972   3.983   3.693   5.177 -0.1407  0.1057  0.2875
 2838SOL    HW119973   3.950   3.666   5.263  1.7000  1.4320  1.4051
 2838SOL    HW219974   3.914   3.664   5.117 -1.1435 -1.6095  2.2845
 2839SOL     OW19975   1.862   2.010   4.076  0.3585  0.3052  0.0340
 2839SOL    HW119976   1.951   1.995   4.107  0.5735 -0.1256 -0.7960
 2839SOL    HW219977   1.844   1.922   4.043 -0.0204  0.2820  0.3008
 2840SOL     OW19978   2.302   1.547  11.086 -0.0299  0.1909  0.3781
 2840SOL    HW119979   2.226   1.600  11.112  1.4208  2.4242  0.1040
 2840SOL    HW219980   2.268   1.460  11.068 -1.4228  0.9716 -0.8401
 2841SOL     OW19981   2.487   1.172   3.445  0.1575  0.2589 -0.1121
 2841SOL    HW119982   2.474   1.207   3.357 -2.9424  1.1392  0.6690
 2841SOL    HW219983   2.400   1.180   3.484 -1.1449  2.8260 -3.4902
 2842SOL     OW19984   0.356   2.307  13.737  0.0469 -0.1789  0.0341
 2842SOL    HW119985   0.396   2.282  13.820 -2.3640 -1.1833  0.9104
 2842SOL    HW219986   0.370   2.401  13.738  2.3847 -0.5250 -0.6459
 2843SOL     OW19987   2.264   3.133   7.428 -0.8654  0.6996 -0.1048
 2843SOL    HW119988   2.202   3.117   7.357  1.5337 -0.8613 -1.8443
 2843SOL    HW219989   2.343   3.093   7.393 -1.5657 -0.6463 -0.1667
 2844SOL     OW19990   2.304   0.631   4.024 -0.2558 -0.5632 -0.0423
 2844SOL    HW119991   2.293   0.725   4.014  0.1013 -0.4503  0.6636
 2844SOL    HW219992   2.233   0.601   3.966  0.1668  0.9206 -1.3170
 2845SOL     OW19993   2.552   4.472   3.716 -0.7326  0.1562  0.1123
 2845SOL    HW119994   2.547   4.454   3.809 -0.5918  0.5127  0.1869
 2845SOL    HW219995   2.601   4.551   3.692 -2.4763  1.4640  0.8431
 2846SOL     OW19996   0.338   1.656   8.698  0.1851  0.2055  0.5587
 2846SOL    HW119997   0.385   1.585   8.655  0.7672 -0.1824  1.8375
 2846SOL    HW219998   0.343   1.618   8.786  1.6162 -3.3228 -1.0575
 2847SOL     OW19999   1.467   1.551   3.184 -0.1970 -0.5455  0.5055
 2847SOL    HW120000   1.455   1.637   3.143  0.5991 -0.5779  0.2118
 2847SOL    HW220001   1.524   1.506   3.122 -1.3375 -0.5705 -0.5273
 2848SOL     OW20002   0.879   1.411  15.557 -0.5629 -0.1376  0.5418
 2848SOL    HW120003   0.839   1.388  15.473  1.3150 -0.5172 -0.2613
 2848SOL    HW220004   0.839   1.497  15.560  0.0824  0.1670  0.4128
 2849SOL     OW20005   4.247   0.973   8.694  0.6971 -0.0514 -0.0217
 2849SOL    HW120006   4.154   0.954   8.691 -0.1440  4.3016 -2.1743
 2849SOL    HW220007   4.267   0.935   8.780  0.7073 -0.7853 -0.3571
 2850SOL     OW20008   1.859   4.705   9.184  0.0786  0.0535  0.0798
 2850SOL    HW120009   1.818   0.066   9.179  0.8518  0.4782  1.0789
 2850SOL    HW220010   1.799   4.643   9.226  0.6130 -0.7391 -0.3114
 2851SOL     OW20011   1.000   2.050   7.420 -0.1202 -0.3343 -0.0239
 2851SOL    HW120012   1.010   2.039   7.325 -0.1501  0.5341 -0.1330
 2851SOL    HW220013   1.046   2.134   7.426 -0.9681  0.2138 -1.1776
 2852SOL     OW20014   4.384   2.317  13.176 -0.1493  0.2124 -0.3339
 2852SOL    HW120015   4.375   2.407  13.145 -2.7556  0.1982  0.3712
 2852SOL    HW220016   4.458   2.322  13.237  1.0199 -2.7520 -1.4777
 2853SOL     OW20017   4.683   1.123   3.195  0.5005  0.6578  0.2076
 2853SOL    HW120018   0.030   1.181   3.170 -0.9926  1.5035 -2.0274
 2853SOL    HW220019   4.718   1.036   3.174  1.6422  1.3956 -0.9710
 2854SOL     OW20020   1.282   4.055   3.365  0.2849  0.2642 -0.1117
 2854SOL    HW120021   1.209   4.088   3.312  0.3849 -0.7505 -0.8631
 2854SOL    HW220022   1.269   3.961   3.368  0.1720  0.3042  0.7469
 2855SOL     OW20023   0.584   3.897   3.115  0.1730 -0.2915  0.6646
 2855SOL    HW120024   0.569   3.991   3.107 -0.1013 -0.2744  1.3473
 2855SOL    HW220025   0.609   3.860   3.031 -1.5274 -0.6999  0.3376
 2856SOL     OW20026   0.455   2.962   9.592 -0.7525  0.1432 -0.0266
 2856SOL    HW120027   0.377   2.928   9.547  0.2129 -0.7235 -1.0256
 2856SOL    HW220028   0.488   3.032   9.537  0.0074  0.4044  0.7723
 2857SOL     OW20029   1.010   2.538  17.429 -0.1563  0.3890 -0.0063
 2857SOL    HW120030   0.996   2.558  17.521 -1.6435 -1.6780  0.2147
 2857SOL    HW220031   1.032   2.619  17.382  0.0021 -0.3704 -1.2425
 2858SOL     OW20032   0.148   4.079   4.284  0.1041 -0.0846 -0.2755
 2858SOL    HW120033   0.066   4.127   4.289 -0.8637 -1.5426 -1.9384
 2858SOL    HW220034   0.144   4.050   4.192 -2.0381  3.7105 -1.3723
 2859SOL     OW20035   3.522   1.291   9.071 -0.3382  0.4086  0.3624
 2859SOL    HW120036   3.607   1.252   9.089  0.3680  1.7727  0.0359
 2859SOL    HW220037   3.495   1.323   9.157  0.1536  0.1470  0.6125
 2860SOL     OW20038   2.468   3.233   5.372  0.6274 -0.7289 -0.2643
 2860SOL    HW120039   2.522   3.154   5.374  0.9554 -0.4877  0.3937
 2860SOL    HW220040   2.533   3.289   5.414 -0.0230 -0.5463  0.5033
 2861SOL     OW20041   1.819   1.165  10.044  0.2303 -0.2512 -0.9071
 2861SOL    HW120042   1.745   1.160   9.983 -2.3833  0.3766  2.2065
 2861SOL    HW220043   1.837   1.072  10.032 -0.1201 -0.3253 -0.8667
 2862SOL     OW20044   0.883   3.649   7.611  0.2826 -0.7380  0.2331
 2862SOL    HW120045   0.833   3.703   7.550  0.0841 -1.5476 -0.3251
 2862SOL    HW220046   0.972   3.676   7.590 -0.7342  2.5496  0.1649
 2863SOL     OW20047   2.078   0.920  16.693  0.8103  0.1070  0.0282
 2863SOL    HW120048   2.071   0.965  16.609  0.9514 -0.4596 -0.2829
 2863SOL    HW220049   2.173   0.912  16.689  0.7022 -1.2294  0.2147
 2864SOL     OW20050   2.768   3.234  16.111 -0.0071  0.1637  0.4178
 2864SOL    HW120051   2.677   3.233  16.140 -0.3674 -1.1285 -0.7787
 2864SOL    HW220052   2.773   3.159  16.052  1.9190  1.9004 -1.6146
 2865SOL     OW20053   2.050   4.336   7.618  0.0195  0.2152  0.3747
 2865SOL    HW120054   1.966   4.291   7.611  0.5340 -0.9077  1.5900
 2865SOL    HW220055   2.105   4.264   7.647 -1.6283 -0.9500  0.6138
 2866SOL     OW20056   3.512   0.945   7.988  0.1302 -0.1290 -1.2342
 2866SOL    HW120057   3.461   1.025   7.976  2.1148  0.9635 -2.4323
 2866SOL    HW220058   3.492   0.946   8.081  0.6265 -2.5015 -1.1089
 2867SOL     OW20059   4.218   3.517   2.389  0.1555  0.0435 -0.1786
 2867SOL    HW120060   4.291   3.483   2.440 -0.1430  1.0070  0.8889
 2867SOL    HW220061   4.262   3.539   2.306 -1.1478 -0.1479 -0.9141
 2868SOL     OW20062   1.414   2.292   7.508  0.3657  0.4697  0.2414
 2868SOL    HW120063   1.378   2.218   7.459  0.6602 -0.4162  1.3760
 2868SOL    HW220064   1.376   2.280   7.594 -0.5372  0.3133 -0.1827
 2869SOL     OW20065   1.465   2.844   6.786  0.1899  0.0397  0.4133
 2869SOL    HW120066   1.379   2.842   6.745  0.0850  0.8129  0.5931
 2869SOL    HW220067   1.439   2.894   6.863  1.1273 -0.0952  0.8108
 2870SOL     OW20068   2.056   3.097   6.879  0.1292  0.8410  0.7561
 2870SOL    HW120069   2.002   3.020   6.896 -0.9527  1.5028  0.3342
 2870SOL    HW220070   2.096   3.074   6.795  0.5337  1.5991  0.7373
 2871SOL     OW20071   0.108   1.495   4.638  0.0827 -0.0521 -0.4286
 2871SOL    HW120072   0.080   1.563   4.577  2.9587  0.0449 -1.6621
 2871SOL    HW220073   0.021   1.460   4.654  0.6095 -1.1235  0.0882
 2872SOL     OW20074   0.994   4.656   3.221  0.3985 -0.4663  0.4801
 2872SOL    HW120075   0.904   4.684   3.237 -0.2256 -0.9648 -2.1234
 2872SOL    HW220076   1.018   4.700   3.139 -1.5504  0.3010  0.3316
 2873SOL     OW20077   0.304   1.683   9.558 -0.4660 -0.5096 -0.2301
 2873SOL    HW120078   0.333   1.617   9.621 -0.5879 -0.5728 -0.2413
 2873SOL    HW220079   0.235   1.725   9.609 -0.3647  0.7892 -1.1340
 2874SOL     OW20080   3.771   4.289   6.734 -0.5502  0.6205 -0.3791
 2874SOL    HW120081   3.785   4.356   6.801 -0.0924 -1.9763  2.0865
 2874SOL    HW220082   3.692   4.319   6.687 -1.6570 -2.0372 -0.1895
 2875SOL     OW20083   2.996   3.588   7.937 -0.3896 -0.5109  0.4893
 2875SOL    HW120084   2.984   3.681   7.956  0.1623 -0.1060 -1.0802
 2875SOL    HW220085   3.052   3.559   8.008  0.0842  1.4893  0.9351
 2876SOL     OW20086   0.018   0.891   3.061 -0.1173 -0.0643  0.1637
 2876SOL    HW120087   4.689   0.820   3.027 -0.8710  0.5536  0.0585
 2876SOL    HW220088   0.091   0.895   3.000  1.0616  0.0671  1.5675
 2877SOL     OW20089   3.695   4.120   7.239 -0.0270  0.0394 -0.0665
 2877SOL    HW120090   3.664   4.050   7.296 -1.3092  1.1007  0.5443
 2877SOL    HW220091   3.747   4.069   7.177  0.0832  0.9863 -0.7635
 2878SOL     OW20092   2.326   0.685  16.448  0.6726 -0.4657  0.1453
 2878SOL    HW120093   2.276   0.607  16.474  2.0907 -0.7915  1.9151
 2878SOL    HW220094   2.319   0.736  16.529  2.8946 -1.7976  1.1937
 2879SOL     OW20095   2.251   1.874   6.446  0.0617 -0.0304  0.0378
 2879SOL    HW120096   2.248   1.963   6.480 -1.1698  0.4605 -1.3716
 2879SOL    HW220097   2.344   1.877   6.420  0.4226 -0.7240  1.2518
 2880SOL     OW20098   3.130   2.961  11.779  0.1179  0.5605  0.0896
 2880SOL    HW120099   3.104   2.975  11.687 -2.7834  0.1095  0.8528
 2880SOL    HW220100   3.208   3.017  11.781  0.2086  0.3997  1.0157
 2881SOL     OW20101   3.621   0.750   8.832 -0.6232  0.3627 -0.0935
 2881SOL    HW120102   3.607   0.703   8.750 -0.4719  0.1898 -0.0203
 2881SOL    HW220103   3.715   0.736   8.841 -0.5589  2.7582  3.2421
 2882SOL     OW20104   2.796   3.583   9.513  0.0460 -0.1423  0.2638
 2882SOL    HW120105   2.739   3.561   9.440 -0.9938 -0.9438  1.3259
 2882SOL    HW220106   2.769   3.674   9.525 -2.0384 -0.5485 -1.3464
 2883SOL     OW20107   1.900   0.548  10.674 -0.1697 -0.0156  0.8136
 2883SOL    HW120108   1.954   0.600  10.733  0.2696  0.6900 -0.2023
 2883SOL    HW220109   1.906   0.604  10.596  0.1876 -2.7316 -1.0903
 2884SOL     OW20110   4.237   0.549   6.224  0.1366 -0.6301 -0.3038
 2884SOL    HW120111   4.278   0.615   6.167 -0.8854  0.9031  0.7281
 2884SOL    HW220112   4.174   0.590   6.284  2.3085 -0.1411  1.6177
 2885SOL     OW20113   4.037   0.045   4.087 -0.4670 -0.1093  0.0110
 2885SOL    HW120114   3.999   0.058   4.174 -0.4407 -1.4796  0.2200
 2885SOL    HW220115   4.078   0.131   4.077  1.0256 -0.9152 -0.7551
 2886SOL     OW20116   1.709   3.115  14.973 -0.0059 -0.1991  0.1873
 2886SOL    HW120117   1.665   3.127  15.057 -0.9489  0.9052 -0.4685
 2886SOL    HW220118   1.694   3.023  14.951  1.9555 -0.3803 -0.4049
 2887SOL     OW20119   3.193   3.249  17.116 -0.0043  0.4051 -0.3005
 2887SOL    HW120120   3.246   3.256  17.196 -1.0136 -0.4359  0.4429
 2887SOL    HW220121   3.255   3.195  17.066  2.2668  1.5682  1.2257
 2888SOL     OW20122   4.633   3.295   2.844 -0.9648 -0.3281 -0.7855
 2888SOL    HW120123   4.676   3.380   2.838 -2.1261  0.2953 -0.2312
 2888SOL    HW220124   4.682   3.253   2.774 -1.8365  0.6833 -1.9955
 2889SOL     OW20125   1.368   0.367   4.040 -1.1063  0.0035 -0.3808
 2889SOL    HW120126   1.374   0.400   3.950  3.1450  1.6177  0.4880
 2889SOL    HW220127   1.304   0.296   4.040 -0.2416 -0.7873 -0.6254
 2890SOL     OW20128   1.574   3.244  15.426 -0.3509 -0.1958  0.0904
 2890SOL    HW120129   1.536   3.222  15.511 -0.0489 -0.2883  0.1994
 2890SOL    HW220130   1.511   3.310  15.395 -2.2554 -2.0918 -0.0672
 2891SOL     OW20131   3.571   0.120   1.505  0.7196 -0.0406 -0.5876
 2891SOL    HW120132   3.606   0.185   1.443  0.7684 -0.1422 -0.6656
 2891SOL    HW220133   3.509   0.175   1.553  0.9939 -1.8567  1.8527
 2892SOL     OW20134   3.935   0.273   4.958 -0.3460 -0.5350  0.2014
 2892SOL    HW120135   3.896   0.193   4.920 -1.9348  0.8267 -1.0554
 2892SOL    HW220136   3.860   0.332   4.951 -1.4370 -1.9781 -0.5300
 2893SOL     OW20137   4.522   1.862   7.661  0.5844 -0.5782  0.4564
 2893SOL    HW120138   4.566   1.922   7.721  0.7218  0.7062 -0.9193
 2893SOL    HW220139   4.572   1.885   7.582 -0.6177 -1.2533 -0.5078
 2894SOL     OW20140   0.371   0.064  15.166  0.0527 -0.6003  0.8364
 2894SOL    HW120141   0.434   4.723  15.196  0.4020 -1.0324 -0.8815
 2894SOL    HW220142   0.362   0.037  15.075 -0.6559 -0.2911  0.8187
 2895SOL     OW20143   1.842   2.522   5.261 -0.0929  0.2304 -0.5121
 2895SOL    HW120144   1.876   2.504   5.173  1.3072  0.3495 -0.0097
 2895SOL    HW220145   1.755   2.555   5.240 -0.5891 -1.9817 -1.9236
 2896SOL     OW20146   2.237   2.586  15.403  0.5690 -0.3246 -0.3220
 2896SOL    HW120147   2.250   2.513  15.464 -1.0216  2.0109  2.7946
 2896SOL    HW220148   2.304   2.642  15.443 -0.6843  1.2995 -0.5160
 2897SOL     OW20149   4.124   1.393   9.035  0.3883  0.0262  0.3233
 2897SOL    HW120150   4.189   1.342   8.987  1.4088 -0.0861  1.8287
 2897SOL    HW220151   4.173   1.475   9.036  1.5159 -0.6543  2.6179
 2898SOL     OW20152   4.506   2.775   7.595  0.0006 -0.0706 -0.3843
 2898SOL    HW120153   4.484   2.683   7.613 -1.1496 -0.0240 -1.5340
 2898SOL    HW220154   4.455   2.829   7.656 -0.7609  0.7070 -1.7136
 2899SOL     OW20155   4.511   3.726  16.623 -0.1125  0.2809 -0.6199
 2899SOL    HW120156   4.542   3.802  16.673  0.2933  0.4330 -1.0971
 2899SOL    HW220157   4.581   3.729  16.557  1.1440  0.2741  0.6949
 2900SOL     OW20158   3.744   0.862   2.415  0.2486 -0.8421  0.1166
 2900SOL    HW120159   3.776   0.948   2.441  0.0092 -1.0083  0.9589
 2900SOL    HW220160   3.801   0.806   2.468  0.3998 -2.0711 -1.3148
 2901SOL     OW20161   3.408   1.945   0.890 -0.0035  0.2421  0.1188
 2901SOL    HW120162   3.444   1.856   0.898 -0.7816 -0.0260  0.7180
 2901SOL    HW220163   3.384   1.975   0.978 -0.2027 -2.8503  1.1589
 2902SOL     OW20164   2.257   2.233   2.486 -0.2427 -0.8726  0.5707
 2902SOL    HW120165   2.273   2.323   2.458 -2.5329 -0.4420  0.6613
 2902SOL    HW220166   2.164   2.231   2.510  0.1018 -0.0187  1.9746
 2903SOL     OW20167   2.057   1.299   9.713 -0.8198 -0.3582 -0.2229
 2903SOL    HW120168   2.008   1.347   9.646 -2.0498 -1.8150 -0.3712
 2903SOL    HW220169   2.118   1.362   9.753 -0.7825  0.5502 -1.7084
 2904SOL     OW20170   4.079   2.941   9.322  0.4359  0.0265 -0.4027
 2904SOL    HW120171   4.003   2.903   9.365  2.0742 -2.2491  0.4745
 2904SOL    HW220172   4.056   3.034   9.329  1.7203  0.1555  2.0306
 2905SOL     OW20173   0.694   1.969   3.026 -0.3802  0.2988  0.1212
 2905SOL    HW120174   0.613   2.018   3.033 -0.5741  0.2681 -2.1649
 2905SOL    HW220175   0.747   2.035   3.070  0.3009 -0.9919  1.2541
 2906SOL     OW20176   2.215   3.594  13.997 -0.2753 -0.2908  0.0960
 2906SOL    HW120177   2.138   3.635  14.035 -2.1563 -0.0712 -3.9373
 2906SOL    HW220178   2.271   3.568  14.070 -0.0740  0.8233  0.3333
 2907SOL     OW20179   2.207   3.641   1.823  0.0598 -1.1296  0.2242
 2907SOL    HW120180   2.229   3.732   1.805  3.2809 -1.7819  0.7644
 2907SOL    HW220181   2.120   3.644   1.861 -0.0068 -1.0976  0.0709
 2908SOL     OW20182   3.411   3.330  17.595  0.2201 -0.2687 -0.2757
 2908SOL    HW120183   3.492   3.280  17.586 -1.0900 -2.3131 -0.8029
 2908SOL    HW220184   3.359   3.303  17.520 -1.4706  0.5267  0.6084
 2909SOL     OW20185   2.661   0.100   3.322 -0.0923 -0.3276 -0.5261
 2909SOL    HW120186   2.725   0.067   3.384  0.8587  0.8692 -0.8566
 2909SOL    HW220187   2.715   0.167   3.278 -0.7231  0.8612  0.5253
 2910SOL     OW20188   4.253   2.076   2.100 -0.0888 -0.4476  0.1349
 2910SOL    HW120189   4.203   2.155   2.118 -0.4177 -0.8250  0.9047
 2910SOL    HW220190   4.311   2.084   2.024  2.1520  2.0821  2.1132
 2911SOL     OW20191   0.299   4.208  10.614 -0.6942  0.6728 -0.0303
 2911SOL    HW120192   0.381   4.215  10.565 -0.0107  2.7089  1.3767
 2911SOL    HW220193   0.268   4.299  10.610  0.7406  1.1865  0.4845
 2912SOL     OW20194   4.550   4.207   8.616 -0.2332  0.6026  0.4486
 2912SOL    HW120195   4.512   4.136   8.667  0.5301 -1.1696 -1.4159
 2912SOL    HW220196   4.512   4.191   8.529  0.0157  1.1120  0.2451
 2913SOL     OW20197   0.818   2.901   6.938  0.1978 -0.1301 -0.5465
 2913SOL    HW120198   0.893   2.842   6.943  0.1593 -0.1228  0.1664
 2913SOL    HW220199   0.841   2.960   7.010 -0.1778 -1.1636  0.4261
 2914SOL     OW20200   2.684   3.949   7.890 -0.5623 -0.2625  0.2201
 2914SOL    HW120201   2.671   3.909   7.977 -2.0605  0.8249  0.5107
 2914SOL    HW220202   2.726   4.026   7.929  2.6673 -2.4236  0.9486
 2915SOL     OW20203   2.160   0.315   2.404  0.6568 -0.2003  0.1225
 2915SOL    HW120204   2.114   0.265   2.337 -0.1849  1.8297 -0.8100
 2915SOL    HW220205   2.234   0.348   2.353  1.2146 -0.1409  0.9790
 2916SOL     OW20206   2.419   1.299  10.063 -0.7504 -0.0015 -0.6943
 2916SOL    HW120207   2.439   1.391  10.079  0.3051 -0.1134 -1.3935
 2916SOL    HW220208   2.340   1.309  10.009 -3.3805 -0.4989  3.0639
 2917SOL     OW20209   0.964   4.012   0.433  0.0684 -0.0094  1.1313
 2917SOL    HW120210   1.010   3.937   0.472 -2.3056 -1.8212  0.4888
 2917SOL    HW220211   1.030   4.037   0.369  0.3999  1.3015  1.9861
 2918SOL     OW20212   2.480   2.910   2.828 -0.0662 -0.8430 -0.2753
 2918SOL    HW120213   2.480   2.893   2.922 -1.2154  1.0377  0.0821
 2918SOL    HW220214   2.479   3.006   2.818  1.3161 -0.8506 -0.4167
 2919SOL     OW20215   1.721   2.475   1.619 -0.1066 -0.1432 -0.4933
 2919SOL    HW120216   1.718   2.570   1.627 -0.5782 -0.3256  1.5281
 2919SOL    HW220217   1.635   2.452   1.654  1.9029 -0.8981  4.0570
 2920SOL     OW20218   4.302   0.685  16.842  0.2329  0.4205 -0.1583
 2920SOL    HW120219   4.328   0.737  16.766 -0.5537  1.9395  0.6307
 2920SOL    HW220220   4.285   0.604  16.793 -0.5936  1.1222 -1.0281
 2921SOL     OW20221   1.812   2.177   2.128  0.3133  0.2960  0.2962
 2921SOL    HW120222   1.848   2.259   2.162  1.0084  0.8095 -1.6358
 2921SOL    HW220223   1.781   2.203   2.041 -0.4516  1.2720  0.8639
 2922SOL     OW20224   4.288   3.584  14.423  0.2457 -0.6490  0.1492
 2922SOL    HW120225   4.327   3.527  14.356 -0.6815 -0.3308 -0.6540
 2922SOL    HW220226   4.356   3.601  14.488 -0.0304  0.3298  0.1775
 2923SOL     OW20227   2.116   0.268  11.875  0.6719 -0.0434  0.5924
 2923SOL    HW120228   2.175   0.343  11.865 -0.5064  1.0942  2.0952
 2923SOL    HW220229   2.167   0.204  11.826 -1.5521 -1.1732 -0.2188
 2924SOL     OW20230   4.447   1.760   2.875 -0.3204  0.0481  0.3786
 2924SOL    HW120231   4.410   1.848   2.869  0.0750  0.1376 -0.6504
 2924SOL    HW220232   4.374   1.701   2.896  0.4995 -0.7460  0.9972
 2925SOL     OW20233   1.052   1.376   1.564 -0.0153 -0.3173  0.2436
 2925SOL    HW120234   0.977   1.320   1.586 -0.2703 -0.4079 -0.8855
 2925SOL    HW220235   1.120   1.310   1.583 -0.4852 -0.4678  1.4217
 2926SOL     OW20236   4.402   1.810  17.290 -0.0371  0.4276  0.0001
 2926SOL    HW120237   4.459   1.846  17.222  0.7330 -1.0082 -0.1087
 2926SOL    HW220238   4.468   1.783  17.353  1.4414  1.3263 -1.1422
 2927SOL     OW20239   3.167   3.893  12.399  0.0471 -0.2375  0.2842
 2927SOL    HW120240   3.213   3.824  12.351  1.1516  1.3830 -0.9699
 2927SOL    HW220241   3.202   3.973  12.360 -0.9754  0.5111  0.9079
 2928SOL     OW20242   0.603   0.877   5.015  0.7157 -0.1206 -0.4220
 2928SOL    HW120243   0.618   0.965   5.050  0.1917 -0.3254  0.3245
 2928SOL    HW220244   0.690   0.860   4.977  0.9658 -0.7885  0.4460
 2929SOL     OW20245   1.559   3.934   1.240  0.1277 -0.4807 -0.1011
 2929SOL    HW120246   1.627   3.879   1.277  2.0347  1.1658 -1.1460
 2929SOL    HW220247   1.511   3.947   1.323  1.5587 -1.0517  0.8094
 2930SOL     OW20248   3.697   0.562   2.360 -0.5341 -0.0608 -0.3874
 2930SOL    HW120249   3.737   0.614   2.290 -0.0223  1.0060  0.7088
 2930SOL    HW220250   3.758   0.573   2.433  0.6244 -1.2048 -1.1884
 2931SOL     OW20251   0.236   2.448   8.873  0.1692  0.1610  0.6878
 2931SOL    HW120252   0.219   2.366   8.825  1.5193  0.3523 -0.1118
 2931SOL    HW220253   0.327   2.444   8.901  0.3171  0.6428  0.2610
 2932SOL     OW20254   1.407   1.561   6.244  0.5236  0.1393  0.1111
 2932SOL    HW120255   1.380   1.481   6.198  0.3339  1.3199 -1.8089
 2932SOL    HW220256   1.411   1.536   6.336 -1.1920  2.0696  0.7132
 2933SOL     OW20257   4.628   4.139  15.814 -0.3005  0.2380 -0.3560
 2933SOL    HW120258   4.655   4.130  15.722  1.9812  0.6013  0.2686
 2933SOL    HW220259   4.547   4.189  15.802  0.2634  1.5423  1.2445
 2934SOL     OW20260   1.517   1.969  13.101 -0.1199  0.3731  0.1019
 2934SOL    HW120261   1.565   1.886  13.097  3.3614  2.3527  0.5624
 2934SOL    HW220262   1.583   2.033  13.075  0.7307 -0.9413 -0.9253
 2935SOL     OW20263   3.857   1.618   5.873  0.0555 -0.1498 -0.5644
 2935SOL    HW120264   3.770   1.579   5.882  0.2927 -0.5795 -0.1434
 2935SOL    HW220265   3.859   1.626   5.778  0.3950  1.1283 -0.4516
 2936SOL     OW20266   0.372   0.696   8.062  0.1417  0.4189  0.1577
 2936SOL    HW120267   0.336   0.784   8.073 -1.2309  0.1921 -2.6025
 2936SOL    HW220268   0.435   0.701   8.134 -2.7396  1.1644  2.6269
 2937SOL     OW20269   4.625   2.389   7.837 -0.6373  0.0634 -0.0881
 2937SOL    HW120270   4.703   2.334   7.840 -0.2317  0.6853  0.9382
 2937SOL    HW220271   4.661   2.472   7.804  0.7249 -0.7306 -0.5934
 2938SOL     OW20272   1.425   3.989  12.326  0.1791  0.6306  0.5550
 2938SOL    HW120273   1.481   4.015  12.399  0.5161  1.0440  0.1492
 2938SOL    HW220274   1.349   4.047  12.329 -1.2056 -1.0554 -1.7260
 2939SOL     OW20275   0.554   2.874   0.745 -1.1230 -0.0101 -0.2404
 2939SOL    HW120276   0.469   2.916   0.735 -0.2469  2.3970  2.2735
 2939SOL    HW220277   0.581   2.851   0.656 -0.8533  1.3310 -0.5000
 2940SOL     OW20278   3.358   2.471  13.561  0.2723 -0.3662  0.2367
 2940SOL    HW120279   3.453   2.465  13.549  0.2937  0.3245  0.0761
 2940SOL    HW220280   3.343   2.509  13.647 -1.2159 -0.8200  0.1777
 2941SOL     OW20281   2.800   3.351   5.131  0.1341  0.2491 -0.3025
 2941SOL    HW120282   2.747   3.278   5.161 -0.4354  1.6487  2.1333
 2941SOL    HW220283   2.857   3.358   5.208  0.0935 -2.4472 -0.0496
 2942SOL     OW20284   1.338   3.812  10.238  0.1504 -0.3601 -0.4747
 2942SOL    HW120285   1.355   3.896  10.279  2.3534 -0.4242 -1.2719
 2942SOL    HW220286   1.248   3.796  10.267  1.2001 -2.1883  1.7938
 2943SOL     OW20287   3.341   2.057  17.143  0.0339  0.7412  0.7441
 2943SOL    HW120288   3.392   2.077  17.065 -1.8248  0.2927 -0.5831
 2943SOL    HW220289   3.292   1.980  17.112  1.3551 -0.4860  1.6674
 2944SOL     OW20290   2.785   4.249   2.019  0.2357 -0.2315  0.4575
 2944SOL    HW120291   2.879   4.270   2.021  0.4954 -1.5867  2.2012
 2944SOL    HW220292   2.757   4.251   2.110 -0.5028  1.3619  0.1972
 2945SOL     OW20293   3.125   1.658   5.482  0.5461  0.3742 -0.2358
 2945SOL    HW120294   3.124   1.599   5.407 -0.8226 -1.9195  1.5717
 2945SOL    HW220295   3.037   1.635   5.512  0.0805  1.2339 -0.9141
 2946SOL     OW20296   0.350   2.259   5.013 -0.4748  0.2814  0.2501
 2946SOL    HW120297   0.432   2.209   5.010  0.5733  2.0805 -1.0597
 2946SOL    HW220298   0.304   2.203   4.952  0.5572  0.7336 -0.9466
 2947SOL     OW20299   2.830   0.117   6.706 -0.0267 -0.0482 -0.0316
 2947SOL    HW120300   2.764   0.081   6.646  1.4873 -0.6184 -1.3585
 2947SOL    HW220301   2.855   0.196   6.658 -0.3077  0.1083  0.0821
 2948SOL     OW20302   1.763   2.563   1.327 -0.1867  0.0112 -0.2028
 2948SOL    HW120303   1.743   2.650   1.361 -2.9483 -1.0702  0.9490
 2948SOL    HW220304   1.800   2.525   1.406 -0.9865  2.2802  1.2621
 2949SOL     OW20305   0.067   0.996   2.125  0.2139 -0.0003 -0.0808
 2949SOL    HW120306   0.035   0.971   2.038 -1.4109 -2.1581  1.1362
 2949SOL    HW220307   0.066   1.091   2.115  1.6215 -0.1759 -1.9891
 2950SOL     OW20308   1.421   2.710   9.593 -0.4541 -0.0865 -0.1256
 2950SOL    HW120309   1.335   2.673   9.573 -0.2495 -0.4901 -0.2632
 2950SOL    HW220310   1.461   2.703   9.506 -0.8910 -3.5798 -0.0322
 2951SOL     OW20311   2.769   0.776   8.438  0.0433 -0.4825  0.1549
 2951SOL    HW120312   2.790   0.723   8.515 -0.9509 -1.1763 -0.0529
 2951SOL    HW220313   2.839   0.750   8.379  1.1083  0.5807  0.9550
 2952SOL     OW20314   4.452   3.796   2.876  0.6742 -0.0893  0.1036
 2952SOL    HW120315   4.424   3.729   2.814 -0.0346 -0.2383  0.5827
 2952SOL    HW220316   4.510   3.846   2.818 -0.5054  0.6464 -0.4393
 2953SOL     OW20317   0.908   0.911   7.049 -0.2569 -0.0905  0.0481
 2953SOL    HW120318   0.854   0.832   7.047 -0.1073 -0.2092  0.7472
 2953SOL    HW220319   0.890   0.949   6.963  1.6425 -0.0473 -0.3321
 2954SOL     OW20320   2.903   2.077   8.757  0.3007 -0.0544  0.0727
 2954SOL    HW120321   2.943   1.992   8.776  2.0363  0.5785 -0.6620
 2954SOL    HW220322   2.971   2.136   8.790  2.5553 -3.1507  0.9701
 2955SOL     OW20323   4.407   4.382   6.334 -0.5395  0.0462  0.4528
 2955SOL    HW120324   4.430   4.299   6.376  1.4290  0.9026  1.0378
 2955SOL    HW220325   4.436   4.448   6.397 -0.6507  0.9843 -0.4696
 2956SOL     OW20326   1.847   2.704   9.172  0.1718  0.0413 -0.3063
 2956SOL    HW120327   1.898   2.781   9.197 -0.8465  0.7288 -0.3034
 2956SOL    HW220328   1.892   2.630   9.212 -0.4271  0.1292  0.5250
 2957SOL     OW20329   3.881   2.553   2.813 -0.4366 -0.5088  0.3832
 2957SOL    HW120330   3.857   2.641   2.783  2.0764 -0.0249 -0.2132
 2957SOL    HW220331   3.959   2.544   2.758  0.9865 -0.1820  2.3545
 2958SOL     OW20332   3.609   1.185   4.602  0.0914  0.1520 -0.5893
 2958SOL    HW120333   3.542   1.185   4.534 -1.3069  2.3998  0.8004
 2958SOL    HW220334   3.638   1.275   4.589 -0.7031  0.4577 -0.2173
 2959SOL     OW20335   1.226   3.371  16.711 -0.4742  0.1456  0.1606
 2959SOL    HW120336   1.201   3.301  16.772  0.6334  0.0754  0.5221
 2959SOL    HW220337   1.272   3.435  16.765  2.2048  0.3089 -2.3263
 2960SOL     OW20338   2.771   0.504   3.831  0.2914 -0.1029  0.6934
 2960SOL    HW120339   2.773   0.450   3.753 -2.2646  1.6311 -0.5820
 2960SOL    HW220340   2.846   0.558   3.807 -0.6611  1.8770  2.1153
 2961SOL     OW20341   3.346   2.389   9.716  0.4796  0.0105 -0.0386
 2961SOL    HW120342   3.280   2.458   9.718 -0.9662 -1.3907  0.0098
 2961SOL    HW220343   3.295   2.314   9.745  0.3795 -0.1705 -0.6669
 2962SOL     OW20344   2.707   3.329   6.155 -0.0871 -0.1528 -0.0781
 2962SOL    HW120345   2.759   3.289   6.225  0.4436  2.1913  0.8524
 2962SOL    HW220346   2.641   3.379   6.203 -0.1010  0.3709 -0.6491
 2963SOL     OW20347   3.285   3.851   0.425 -0.3738 -0.2096 -0.1244
 2963SOL    HW120348   3.380   3.842   0.434 -0.4851  1.2360  2.4737
 2963SOL    HW220349   3.284   3.907   0.348 -0.6723 -0.4127 -0.2675
 2964SOL     OW20350   2.308   0.119   1.689  0.0433 -0.0149 -0.2535
 2964SOL    HW120351   2.281   0.063   1.763 -2.8133  0.7477 -0.7187
 2964SOL    HW220352   2.385   0.068   1.665 -0.3442 -0.6192 -0.2216
 2965SOL     OW20353   3.234   4.710  16.015  0.0979  0.2911 -0.0775
 2965SOL    HW120354   3.202   0.067  15.976  0.5301 -0.7691 -2.6448
 2965SOL    HW220355   3.231   4.663  15.932  1.0898  0.5778 -0.2770
 2966SOL     OW20356   0.222   1.345  12.971  0.0128  0.1947  0.1354
 2966SOL    HW120357   0.280   1.330  12.896  1.7400  1.0997  1.2854
 2966SOL    HW220358   0.260   1.293  13.041  0.2237  0.7933  0.4661
 2967SOL     OW20359   1.631   1.120   6.070  0.7370  0.4049 -0.0827
 2967SOL    HW120360   1.697   1.139   6.137  1.9187  2.8684 -1.9371
 2967SOL    HW220361   1.565   1.188   6.084  0.1645  0.0108 -0.8576
 2968SOL     OW20362   1.277   0.994   3.216  0.0206  0.3638 -0.0727
 2968SOL    HW120363   1.271   0.976   3.122  0.7991 -0.4405  0.0259
 2968SOL    HW220364   1.366   0.966   3.239  0.2066  1.0172 -0.0031
 2969SOL     OW20365   0.353   1.406   2.006  0.0575 -0.0307 -0.4518
 2969SOL    HW120366   0.357   1.466   1.931 -2.3458  2.4377  1.4251
 2969SOL    HW220367   0.337   1.327   1.954  0.6911 -0.0266 -0.6488
 2970SOL     OW20368   1.723   4.316   4.323 -0.2662  0.1499  0.6581
 2970SOL    HW120369   1.739   4.405   4.293 -0.6560  0.3313  0.9897
 2970SOL    HW220370   1.758   4.326   4.411  0.8863 -0.9295  0.3242
 2971SOL     OW20371   4.578   0.973   4.720 -0.4809  0.5504  0.6097
 2971SOL    HW120372   4.655   1.002   4.671 -1.2728 -0.6473 -1.3338
 2971SOL    HW220373   4.513   0.948   4.655 -0.5129  0.1013  0.8141
 2972SOL     OW20374   0.261   2.919   5.653 -0.5753  0.4695  0.1586
 2972SOL    HW120375   0.263   2.891   5.561 -1.0920  0.7458  0.0603
 2972SOL    HW220376   0.278   3.010   5.631  2.3118  0.0798  0.8541
 2973SOL     OW20377   2.366   2.621   1.664  0.5143 -0.5066 -0.2984
 2973SOL    HW120378   2.378   2.526   1.660  3.7131 -0.0615 -1.0202
 2973SOL    HW220379   2.372   2.642   1.571 -0.6253  0.1805 -0.2162
 2974SOL     OW20380   0.577   2.644   5.166  0.0863 -0.2414 -0.0688
 2974SOL    HW120381   0.604   2.724   5.119  2.1443  0.8407  2.9174
 2974SOL    HW220382   0.530   2.602   5.094 -2.0322 -0.9337  1.7587
 2975SOL     OW20383   3.097   4.008   3.687 -0.2326  0.7262  0.0328
 2975SOL    HW120384   3.123   3.947   3.618  0.8544  2.0323 -0.7066
 2975SOL    HW220385   3.052   3.946   3.745  0.2871  0.2714 -0.0490
 2976SOL     OW20386   3.337   1.474   3.405 -0.4506 -0.1025  0.3161
 2976SOL    HW120387   3.319   1.395   3.353 -1.4963  0.7027 -0.5396
 2976SOL    HW220388   3.416   1.505   3.360  1.3551 -2.9677  1.4706
 2977SOL     OW20389   0.283   1.295   3.384 -0.0624 -0.1231  0.1106
 2977SOL    HW120390   0.200   1.342   3.380  0.2972  0.3053 -2.6699
 2977SOL    HW220391   0.251   1.210   3.413 -0.2707  0.1220  0.5932
 2978SOL     OW20392   3.224   2.838  12.967 -0.1836  0.1593  0.2237
 2978SOL    HW120393   3.173   2.863  12.890  1.2107  2.3155  0.0151
 2978SOL    HW220394   3.164   2.866  13.035  0.1636  0.6742  0.3170
 2979SOL     OW20395   4.369   1.206  12.456 -0.2310 -0.4397 -0.6401
 2979SOL    HW120396   4.384   1.291  12.497 -0.8745 -0.5527 -0.1590
 2979SOL    HW220397   4.353   1.154  12.535  2.1448 -0.5612 -0.2633
 2980SOL     OW20398   2.372   2.014   8.580  0.3913  0.0081  0.1866
 2980SOL    HW120399   2.302   2.053   8.633 -0.6548  0.6869 -1.6768
 2980SOL    HW220400   2.429   2.088   8.559 -0.2118  0.8260  1.4176
 2981SOL     OW20401   0.001   1.941  13.689  0.1814  0.4241  0.4581
 2981SOL    HW120402   0.057   1.864  13.682  0.3999  0.6688 -0.5188
 2981SOL    HW220403   0.022   1.990  13.609 -0.5271 -1.7548 -1.0420
 2982SOL     OW20404   1.214   2.322   1.048  0.1599 -0.5744 -0.0757
 2982SOL    HW120405   1.173   2.356   0.968  0.3945 -1.4700 -0.5843
 2982SOL    HW220406   1.303   2.329   1.011  0.0317  0.6923 -0.1188
 2983SOL     OW20407   2.444   1.359   9.746  0.0155  0.0794 -0.2793
 2983SOL    HW120408   2.456   1.437   9.693 -1.9640 -0.6574 -1.8226
 2983SOL    HW220409   2.375   1.389   9.804  0.4824 -0.5580  0.6125
 2984SOL     OW20410   4.394   0.939   8.493 -0.2749  0.0919  0.1808
 2984SOL    HW120411   4.330   0.921   8.423 -0.8048  0.3848  0.5891
 2984SOL    HW220412   4.334   0.955   8.566 -1.1520  2.2069 -1.0138
 2985SOL     OW20413   4.472   1.386   7.353 -0.0766  0.1280  0.3793
 2985SOL    HW120414   4.509   1.365   7.268  0.4345  0.7739  0.4454
 2985SOL    HW220415   4.427   1.471   7.349 -0.7495 -0.0892  2.8808
 2986SOL     OW20416   3.200   2.157  11.227  0.2300 -0.1858 -0.6456
 2986SOL    HW120417   3.139   2.120  11.292  1.1426  0.1099  0.3678
 2986SOL    HW220418   3.253   2.083  11.199 -1.9441 -1.8761 -0.3145
 2987SOL     OW20419   2.737   2.829   5.064  0.5139 -0.3050  0.0650
 2987SOL    HW120420   2.690   2.858   4.986  0.6986 -0.3453 -0.0622
 2987SOL    HW220421   2.829   2.826   5.036  0.6509 -1.4061  0.6328
 2988SOL     OW20422   4.406   1.506   6.873 -0.5530 -0.3239 -0.1848
 2988SOL    HW120423   4.355   1.577   6.912 -1.2881 -0.8509 -0.1944
 2988SOL    HW220424   4.343   1.470   6.810  1.1092 -0.4950 -1.7433
 2989SOL     OW20425   2.453   2.776   0.028 -0.1451  0.3878  0.0110
 2989SOL    HW120426   2.430   2.792  17.638  1.0224  1.6156 -0.0622
 2989SOL    HW220427   2.373   2.810   0.070  0.3697  2.0474 -0.3413
 2990SOL     OW20428   0.761   1.297   6.836 -0.0134  0.0301  0.1051
 2990SOL    HW120429   0.733   1.363   6.900  0.7407 -0.7664  1.2503
 2990SOL    HW220430   0.773   1.221   6.893 -1.7782  0.9136  1.6565
 2991SOL     OW20431   3.145   1.163   0.548 -0.5237 -0.7417  0.4571
 2991SOL    HW120432   3.172   1.216   0.623  0.5074 -0.4652 -0.1121
 2991SOL    HW220433   3.193   1.083   0.567  1.3806  0.8842  2.5461
 2992SOL     OW20434   4.147   3.736   0.337 -0.5461 -0.1540  0.2522
 2992SOL    HW120435   4.109   3.819   0.307  0.5253  0.4633  0.6243
 2992SOL    HW220436   4.107   3.672   0.277 -0.9216 -0.1369  0.4801
 2993SOL     OW20437   2.347   2.172   4.654  0.1146  0.6408 -0.1158
 2993SOL    HW120438   2.420   2.209   4.703  0.0832 -0.0047  0.4292
 2993SOL    HW220439   2.338   2.239   4.587  1.1964 -2.8208 -3.7681
 2994SOL     OW20440   2.400   0.789   6.167  0.2685  0.5152 -0.0247
 2994SOL    HW120441   2.344   0.764   6.240  3.7065  1.7101  3.0065
 2994SOL    HW220442   2.428   0.878   6.189 -1.5497  0.9721  0.4764
 2995SOL     OW20443   3.268   2.484  11.339  0.1243  0.0191 -0.2093
 2995SOL    HW120444   3.315   2.482  11.422  0.0946  1.3860 -0.1551
 2995SOL    HW220445   3.265   2.578  11.319 -0.0787 -0.3088 -1.7332
 2996SOL     OW20446   2.546   0.625  15.921  0.3058 -0.0139 -0.5726
 2996SOL    HW120447   2.525   0.591  16.008  0.2332  1.6343  0.0539
 2996SOL    HW220448   2.572   0.715  15.940 -1.5598  1.0016 -2.8586
 2997SOL     OW20449   2.274   0.153  11.658 -0.0257  0.6123  0.5431
 2997SOL    HW120450   2.253   0.070  11.613  1.7860  0.3942  0.1189
 2997SOL    HW220451   2.300   0.216  11.591 -0.9490 -1.5549 -1.9027
 2998SOL     OW20452   2.935   0.291  16.928  0.0055  0.1426 -0.4320
 2998SOL    HW120453   2.915   0.307  17.020 -1.8124  1.2584 -1.0228
 2998SOL    HW220454   2.894   0.367  16.887 -1.0468  0.1166  0.5833
 2999SOL     OW20455   2.806   4.533   5.373  0.6417 -0.1002  0.5603
 2999SOL    HW120456   2.779   4.441   5.381 -0.7088  0.0364 -2.2974
 2999SOL    HW220457   2.746   4.574   5.435  0.5673  1.7477 -0.7392
 3000SOL     OW20458   1.659   2.963   7.994 -0.3981 -0.3864 -0.1841
 3000SOL    HW120459   1.690   2.904   7.925  0.3511  0.2238 -0.3779
 3000SOL    HW220460   1.649   3.044   7.944  0.9806  0.0329  0.2250
 3001SOL     OW20461   2.583   1.742   6.135 -0.4809  0.3252 -0.3649
 3001SOL    HW120462   2.516   1.756   6.069  0.1300 -1.3221 -1.3494
 3001SOL    HW220463   2.661   1.718   6.084 -1.1836 -0.9199 -0.8655
 3002SOL     OW20464   0.131   1.043  15.728 -0.4460 -0.6192 -0.0947
 3002SOL    HW120465   0.160   0.976  15.791 -1.8937 -1.1351  0.0248
 3002SOL    HW220466   0.179   1.010  15.652 -1.0607 -1.0969 -0.2698
 3003SOL     OW20467   2.644   1.734   9.953 -0.2915 -0.1450 -0.0468
 3003SOL    HW120468   2.590   1.665   9.990 -0.7052  0.7800  1.0963
 3003SOL    HW220469   2.713   1.700   9.895 -1.2264 -0.5453 -0.9175
 3004SOL     OW20470   0.799   0.849   2.118  0.3370 -0.2171  0.0753
 3004SOL    HW120471   0.841   0.929   2.088 -1.1120 -0.2835 -2.1338
 3004SOL    HW220472   0.792   0.807   2.032 -0.2051  0.5326 -0.2503
 3005SOL     OW20473   0.571   3.723   6.878 -0.1891 -0.4651 -0.1281
 3005SOL    HW120474   0.509   3.698   6.810  1.2262  0.7933 -1.8976
 3005SOL    HW220475   0.619   3.643   6.901 -0.2076 -0.3381  0.3583
 3006SOL     OW20476   1.405   2.239   3.736 -0.0298  0.0461  0.1514
 3006SOL    HW120477   1.430   2.162   3.685 -0.9614 -1.9762  2.7622
 3006SOL    HW220478   1.459   2.301   3.686 -0.3774  2.0220  2.2258
 3007SOL     OW20479   3.500   1.850  14.079  0.1742  0.9642  0.3075
 3007SOL    HW120480   3.475   1.828  14.169 -0.1993  1.2012  0.2632
 3007SOL    HW220481   3.594   1.858  14.091 -0.0649  0.5366  2.5453
 3008SOL     OW20482   1.177   4.000   7.331 -0.6218 -0.3860  0.4627
 3008SOL    HW120483   1.223   3.924   7.295  2.1714  1.8865 -0.7260
 3008SOL    HW220484   1.175   4.067   7.263  0.9771 -1.6325 -0.7848
 3009SOL     OW20485   2.015   3.778   1.211 -0.0292 -0.3734  0.3280
 3009SOL    HW120486   2.072   3.829   1.269 -1.2084 -0.7856  1.8549
 3009SOL    HW220487   1.958   3.855   1.206  2.2186  1.1600 -1.3813
 3010SOL     OW20488   2.369   0.083  16.223 -0.1322 -0.7139 -0.1115
 3010SOL    HW120489   2.311   0.014  16.192  1.0521 -1.1002 -1.4444
 3010SOL    HW220490   2.441   0.033  16.261 -1.8718 -2.6378  0.6679
 3011SOL     OW20491   1.641   0.118   8.578  0.3918  0.3421 -0.1308
 3011SOL    HW120492   1.632   0.207   8.546  0.1480 -0.2266 -1.6152
 3011SOL    HW220493   1.694   0.077   8.510 -1.9167  1.0368 -2.3098
 3012SOL     OW20494   0.772   1.060   4.721 -0.0915  0.1729 -0.5062
 3012SOL    HW120495   0.708   1.100   4.663  0.7961  0.7334 -1.0932
 3012SOL    HW220496   0.734   1.075   4.808 -2.0738 -1.7121 -1.0608
 3013SOL     OW20497   3.626   1.811   6.190 -0.5433  1.1155  0.3389
 3013SOL    HW120498   3.703   1.805   6.133 -0.4965  1.8713  0.3175
 3013SOL    HW220499   3.647   1.759   6.268 -1.6134 -1.4970 -1.1130
 3014SOL     OW20500   0.296   1.550   3.639 -0.6266 -0.6945 -0.1859
 3014SOL    HW120501   0.370   1.489   3.628  0.3244  0.3681  0.2523
 3014SOL    HW220502   0.351   1.625   3.615 -1.6523  0.8428  2.2663
 3015SOL     OW20503   2.551   0.888   3.624  0.1194 -0.4910 -0.1130
 3015SOL    HW120504   2.615   0.887   3.552  0.5511  0.1548  0.2575
 3015SOL    HW220505   2.565   0.802   3.664 -1.6559 -0.7043  0.0436
 3016SOL     OW20506   1.765   0.130   2.195  0.4998  0.3129 -0.6291
 3016SOL    HW120507   1.773   0.155   2.103 -1.5767  0.8950 -0.6699
 3016SOL    HW220508   1.673   0.152   2.211  0.4371 -1.5243  1.4489
 3017SOL     OW20509   1.036   1.919   2.430  0.1636  0.6429  0.0143
 3017SOL    HW120510   1.097   1.993   2.434 -1.0301  1.6477 -0.3734
 3017SOL    HW220511   0.952   1.962   2.446  0.6686  1.7554 -0.3255
 3018SOL     OW20512   0.318   0.918   9.662 -0.2392 -0.1554 -0.3290
 3018SOL    HW120513   0.263   0.839   9.662  1.2418 -1.1971  2.4782
 3018SOL    HW220514   0.405   0.882   9.644  0.0156 -0.8469  2.3175
 3019SOL     OW20515   4.444   2.121   5.393 -0.0688 -0.0320  0.3428
 3019SOL    HW120516   4.518   2.074   5.430  0.8528  0.0652 -1.3784
 3019SOL    HW220517   4.366   2.066   5.396  0.0275 -0.2714 -1.5783
 3020SOL     OW20518   2.379   3.523  14.194  0.3737 -0.1383  0.5297
 3020SOL    HW120519   2.412   3.602  14.152  1.7333 -0.6254  0.6885
 3020SOL    HW220520   2.447   3.463  14.163  1.0846  1.5197 -1.1308
 3021SOL     OW20521   3.281   3.589   2.100 -0.0499 -0.1675 -0.2033
 3021SOL    HW120522   3.328   3.659   2.144 -0.6505  0.4652 -0.5720
 3021SOL    HW220523   3.272   3.629   2.013  0.4470 -1.4210 -0.8442
 3022SOL     OW20524   2.982   3.088   0.217  0.2228  0.3516  0.3959
 3022SOL    HW120525   3.012   3.154   0.154  0.9086  0.1216  0.4848
 3022SOL    HW220526   3.018   3.008   0.177 -2.8941 -1.5460  1.4106
 3023SOL     OW20527   4.394   4.217   6.725  0.4397 -0.7533  0.2086
 3023SOL    HW120528   4.333   4.256   6.789  0.6388  0.5643 -0.4142
 3023SOL    HW220529   4.457   4.191   6.792  0.0833 -0.0646  0.8125
 3024SOL     OW20530   4.255   2.919  12.663  0.3069  0.2532  0.3783
 3024SOL    HW120531   4.192   2.890  12.597 -0.4467 -1.3921  1.8240
 3024SOL    HW220532   4.321   2.957  12.605 -1.6956 -0.3876 -2.3078
 3025SOL     OW20533   1.896   1.042   7.834 -0.0325 -0.2024  0.0198
 3025SOL    HW120534   1.888   0.949   7.813 -0.9254 -0.4476  1.4684
 3025SOL    HW220535   1.981   1.069   7.798 -1.0161  2.2884 -0.4457
 3026SOL     OW20536   4.182   4.503   5.403  0.1595  0.3277 -0.5409
 3026SOL    HW120537   4.251   4.438   5.390  0.0069  0.3001 -1.2043
 3026SOL    HW220538   4.187   4.522   5.497  0.8745  1.2894 -0.7767
 3027SOL     OW20539   3.639   1.617   2.566 -0.1220 -0.2737 -0.1377
 3027SOL    HW120540   3.674   1.693   2.520 -0.7833  0.9907  1.4155
 3027SOL    HW220541   3.711   1.593   2.624  0.8758  2.9646 -0.0345
 3028SOL     OW20542   0.254   3.141   2.911  0.2937  0.5038 -0.0254
 3028SOL    HW120543   0.243   3.089   2.991 -2.0598 -0.1231 -0.7514
 3028SOL    HW220544   0.247   3.225   2.956 -3.9300 -0.6920  1.5411
 3029SOL     OW20545   3.708   4.189   8.064 -0.7514 -0.0805  0.3405
 3029SOL    HW120546   3.731   4.121   8.128  0.4032  0.8695  0.9300
 3029SOL    HW220547   3.699   4.126   7.993  0.1344  0.6338 -0.4028
 3030SOL     OW20548   3.404   0.400   2.426 -0.3697  0.5069 -0.1266
 3030SOL    HW120549   3.314   0.401   2.395  0.0336  0.9148 -1.2869
 3030SOL    HW220550   3.414   0.493   2.449  0.9008 -0.2685  2.4470
 3031SOL     OW20551   3.780   3.254  10.939  0.3048 -0.1260 -0.2665
 3031SOL    HW120552   3.774   3.188  11.008 -2.1752  1.7413  1.3036
 3031SOL    HW220553   3.875   3.260  10.925 -0.2020  2.7063 -2.3845
 3032SOL     OW20554   2.653   0.518   6.631  0.0332 -0.2892  0.0294
 3032SOL    HW120555   2.669   0.607   6.664  1.3197 -0.3797 -0.3669
 3032SOL    HW220556   2.560   0.509   6.654  0.1973 -3.2033 -0.5278
 3033SOL     OW20557   1.759   1.332  10.539 -0.1768  0.6636 -0.1273
 3033SOL    HW120558   1.666   1.352  10.531 -0.1775 -0.1236 -2.2192
 3033SOL    HW220559   1.775   1.424  10.519  0.0334  0.8164  0.7292
 3034SOL     OW20560   1.713   2.760   1.675 -0.2328  0.2681  0.2740
 3034SOL    HW120561   1.774   2.822   1.633  1.3261 -0.7228  1.0804
 3034SOL    HW220562   1.713   2.795   1.764 -1.4307 -0.1425  0.4417
 3035SOL     OW20563   4.424   1.596   2.200  0.2824 -0.5069  0.0171
 3035SOL    HW120564   4.492   1.628   2.141 -0.5191  1.9529  0.4230
 3035SOL    HW220565   4.482   1.543   2.254  2.3432  1.5436 -0.1788
 3036SOL     OW20566   0.621   1.867   9.389 -0.0911 -0.1096 -0.0213
 3036SOL    HW120567   0.663   1.924   9.453 -1.6054  0.0155  0.8590
 3036SOL    HW220568   0.588   1.920   9.316  2.0216  0.1945 -0.7530
 3037SOL     OW20569   1.001   0.820   3.703 -0.1926 -0.3843  0.3117
 3037SOL    HW120570   1.079   0.791   3.657 -0.8702  0.5166 -1.4077
 3037SOL    HW220571   1.029   0.808   3.794 -0.3314  0.4379  0.4578
 3038SOL     OW20572   2.782   0.801   7.156 -0.0639  0.2008 -0.2816
 3038SOL    HW120573   2.710   0.787   7.218 -0.1912  3.0806  0.2326
 3038SOL    HW220574   2.788   0.896   7.150  1.0990  0.2886  2.5411
 3039SOL     OW20575   1.502   1.189  11.252 -0.1433 -1.1389  0.0481
 3039SOL    HW120576   1.455   1.272  11.264 -0.1117 -0.7641 -2.3235
 3039SOL    HW220577   1.544   1.213  11.170 -2.1410  0.0159 -0.6534
 3040SOL     OW20578   4.263   2.870   5.457 -0.1970 -0.7002  0.1785
 3040SOL    HW120579   4.350   2.842   5.486 -0.0644 -0.8541 -0.3499
 3040SOL    HW220580   4.257   2.807   5.385  0.0413 -1.9021  1.2065
 3041SOL     OW20581   4.716   1.821   7.247  0.4817 -0.2527  0.0490
 3041SOL    HW120582   0.066   1.770   7.216  0.6070  0.3979 -0.7180
 3041SOL    HW220583   4.688   1.870   7.169 -1.0094  0.3930  0.9779
 3042SOL     OW20584   1.441   2.776  13.774  0.3963 -0.3089 -0.2578
 3042SOL    HW120585   1.383   2.843  13.809 -0.9724 -1.8863  0.4723
 3042SOL    HW220586   1.507   2.764  13.843 -1.7898  0.9762  2.0437
 3043SOL     OW20587   0.582   4.026   3.691 -0.1880 -0.1115  0.2079
 3043SOL    HW120588   0.608   4.055   3.778 -1.3295  2.9118 -0.4655
 3043SOL    HW220589   0.607   4.105   3.643 -0.7623 -0.8939 -1.3774
 3044SOL     OW20590   4.450   3.090   3.685 -0.2096  0.3190 -0.1655
 3044SOL    HW120591   4.506   3.048   3.751 -0.0395  2.4659  1.0568
 3044SOL    HW220592   4.365   3.058   3.714 -0.4625  2.0351  0.9417
 3045SOL     OW20593   0.419   0.378   6.375 -0.3294  0.2172  0.5996
 3045SOL    HW120594   0.345   0.422   6.417 -0.7373  1.1499 -1.1105
 3045SOL    HW220595   0.491   0.433   6.404 -1.8303  2.9234 -0.8862
 3046SOL     OW20596   3.021   1.429   5.906  0.5011 -0.1865 -0.5659
 3046SOL    HW120597   3.000   1.348   5.859  0.4575  0.7288 -2.1313
 3046SOL    HW220598   2.949   1.429   5.968  0.3680  2.7527 -0.7242
 3047SOL     OW20599   0.406   0.358   7.389  0.1991  0.9549 -0.4118
 3047SOL    HW120600   0.427   0.445   7.422  2.8530  0.7988 -1.6754
 3047SOL    HW220601   0.436   0.310   7.466  1.5643  0.2916 -1.3510
 3048SOL     OW20602   0.995   0.859   8.103 -0.1313 -0.2399 -0.2359
 3048SOL    HW120603   1.084   0.832   8.079  0.1095  0.8032 -0.5053
 3048SOL    HW220604   0.996   0.954   8.095  0.3253 -0.1031  1.3332
 3049SOL     OW20605   2.713   2.033  14.880 -0.2098  0.0980  0.5055
 3049SOL    HW120606   2.659   1.954  14.886 -0.3756  0.2199  0.6152
 3049SOL    HW220607   2.657   2.101  14.917 -1.5096 -2.6585  3.6483
 3050SOL     OW20608   2.446   0.492  12.766  0.1423  0.4203 -0.1450
 3050SOL    HW120609   2.423   0.578  12.731  1.1693  0.2576 -1.1979
 3050SOL    HW220610   2.414   0.437  12.695  1.1472  2.3923 -2.0986
 3051SOL     OW20611   4.542   3.005   8.324  0.0049  0.0601 -0.1627
 3051SOL    HW120612   4.573   2.922   8.287  1.5043  0.9072 -0.7639
 3051SOL    HW220613   4.501   3.045   8.247  0.5004  1.1282  0.1319
 3052SOL     OW20614   3.528   1.795   3.405 -0.3047  0.4411  0.0735
 3052SOL    HW120615   3.450   1.792   3.350 -0.1786  0.2870 -0.0942
 3052SOL    HW220616   3.478   1.820   3.483  1.3104  1.1032  0.8774
 3053SOL     OW20617   1.503   3.294   7.720  0.1422  0.4560  0.2111
 3053SOL    HW120618   1.447   3.217   7.710  1.2209 -0.4682  1.2409
 3053SOL    HW220619   1.587   3.260   7.751 -0.6110 -1.0769  0.5373
 3054SOL     OW20620   0.803   4.586   9.822  0.3187  0.5830 -0.4857
 3054SOL    HW120621   0.755   4.633   9.754 -1.0279  0.5448  0.4365
 3054SOL    HW220622   0.759   4.611   9.903 -0.2958  0.1578 -0.6854
 3055SOL     OW20623   0.271   0.052  14.907 -0.1721 -0.4871 -0.1165
 3055SOL    HW120624   0.296   0.137  14.870  0.3294 -0.0689  1.1833
 3055SOL    HW220625   0.177   0.053  14.885 -0.4257  1.8309  1.0432
 3056SOL     OW20626   1.061   3.485   6.870 -0.3842 -0.9728  0.0811
 3056SOL    HW120627   1.031   3.574   6.855 -0.9314 -1.6262 -2.7271
 3056SOL    HW220628   1.069   3.474   6.965  0.0941  2.3028  0.4147
 3057SOL     OW20629   1.998   2.912   9.217 -0.1533 -0.2955  0.1050
 3057SOL    HW120630   2.035   2.941   9.133  0.0931  2.3479  1.1298
 3057SOL    HW220631   2.080   2.876   9.251  0.0241 -0.3897 -0.4301
 3058SOL     OW20632   4.107   3.866  12.915 -0.9820 -0.1607 -0.4715
 3058SOL    HW120633   4.103   3.784  12.866 -2.6875  0.4853 -1.4305
 3058SOL    HW220634   4.109   3.923  12.837  1.8663 -1.2308 -1.1829
 3059SOL     OW20635   0.846   4.492   7.063 -0.5147  0.2061  1.0127
 3059SOL    HW120636   0.835   4.583   7.090  0.5737  1.0910 -1.5218
 3059SOL    HW220637   0.941   4.480   7.066 -0.8039 -2.4181 -0.2064
 3060SOL     OW20638   2.708   2.900   6.016 -0.2118  0.4336 -0.2662
 3060SOL    HW120639   2.728   2.938   6.101  0.0019  0.2930 -0.2537
 3060SOL    HW220640   2.630   2.950   5.989  0.5717  0.6361 -2.1658
 3061SOL     OW20641   1.058   1.629   0.049  0.7962  0.4091  0.4703
 3061SOL    HW120642   1.076   1.716   0.012 -0.8151 -0.1293 -1.5562
 3061SOL    HW220643   1.075   1.656   0.139  0.6520  2.7631 -0.2021
 3062SOL     OW20644   1.713   4.099  13.568 -0.4081  0.5154 -0.7170
 3062SOL    HW120645   1.775   4.162  13.606 -0.8541  0.4475  0.1257
 3062SOL    HW220646   1.639   4.140  13.613 -2.4691 -0.7608 -2.9646
 3063SOL     OW20647   2.771   2.310   3.734 -0.3663 -0.1506  0.0948
 3063SOL    HW120648   2.862   2.313   3.764 -0.1866  2.5492 -0.6659
 3063SOL    HW220649   2.735   2.392   3.767  1.4377  0.7260 -0.0583
 3064SOL     OW20650   2.635   4.452  15.361  0.1290  0.0747  0.2220
 3064SOL    HW120651   2.716   4.503  15.361 -0.3457  0.8192 -0.6735
 3064SOL    HW220652   2.674   4.366  15.379  0.3425  0.5762  2.1113
 3065SOL     OW20653   0.175   2.146  12.221 -0.1388 -0.3452  0.4006
 3065SOL    HW120654   0.219   2.154  12.137 -1.0413 -0.5028 -0.0780
 3065SOL    HW220655   0.098   2.197  12.198 -0.2171  0.1599  1.7605
 3066SOL     OW20656   2.638   2.459   7.588  0.1812 -0.0556  0.4770
 3066SOL    HW120657   2.637   2.548   7.554  0.5886 -0.3249 -0.2583
 3066SOL    HW220658   2.732   2.448   7.602 -0.0809 -1.5819  1.0717
 3067SOL     OW20659   2.934   0.599   3.232 -0.1406 -0.3600  0.0587
 3067SOL    HW120660   3.014   0.634   3.194 -0.5316  1.6384  1.0780
 3067SOL    HW220661   2.966   0.574   3.319  1.5913  2.1910  0.1473
 3068SOL     OW20662   0.216   1.086   6.887  0.0064  0.2885  0.1397
 3068SOL    HW120663   0.147   1.065   6.825  0.2801 -0.6915  0.1794
 3068SOL    HW220664   0.172   1.105   6.970 -0.9487  0.2650 -0.3602
 3069SOL     OW20665   4.074   2.908   2.358  0.1788 -0.4612 -0.1565
 3069SOL    HW120666   3.982   2.929   2.373 -0.0820 -0.5756 -1.5998
 3069SOL    HW220667   4.096   2.863   2.440  0.5253  2.1188  1.1718
 3070SOL     OW20668   1.590   0.470   2.677  0.4379 -0.6779  0.2283
 3070SOL    HW120669   1.614   0.468   2.770 -1.7472 -0.6731  0.7899
 3070SOL    HW220670   1.636   0.398   2.634  0.6335  0.3302 -1.2448
 3071SOL     OW20671   1.874   1.534   2.836  0.2059 -0.3066 -0.3041
 3071SOL    HW120672   1.913   1.560   2.920  1.1774 -1.9043 -0.2616
 3071SOL    HW220673   1.863   1.440   2.845 -0.2868 -0.2661 -0.4818
 3072SOL     OW20674   2.668   1.824   9.486 -0.4163  0.1639 -0.1814
 3072SOL    HW120675   2.626   1.891   9.432 -2.6571 -2.4565 -1.6896
 3072SOL    HW220676   2.738   1.878   9.523  1.3914  0.0774 -3.5618
 3073SOL     OW20677   0.801   0.321   2.774 -0.3116  0.7760 -0.3451
 3073SOL    HW120678   0.768   0.401   2.814 -0.6129  0.0159  0.9328
 3073SOL    HW220679   0.860   0.370   2.717  1.3002  1.6076  2.0420
 3074SOL     OW20680   0.789   2.282   2.678 -0.2166  0.3328 -0.6724
 3074SOL    HW120681   0.774   2.263   2.585 -1.5890 -2.1914  0.0641
 3074SOL    HW220682   0.773   2.195   2.715 -1.7172  0.1275 -1.7797
 3075SOL     OW20683   1.920   0.717  10.480  0.2832 -0.1145 -0.4451
 3075SOL    HW120684   2.010   0.730  10.448  0.4364 -1.8840 -0.7426
 3075SOL    HW220685   1.866   0.764  10.417 -1.5028 -0.0583  1.1420
 3076SOL     OW20686   2.134   3.695   2.780  0.2159 -0.0846  0.2712
 3076SOL    HW120687   2.164   3.699   2.689  0.6318 -1.9924  0.3371
 3076SOL    HW220688   2.188   3.754   2.832 -0.1068 -1.3254  1.9749
 3077SOL     OW20689   0.528   0.844   2.213  0.3838 -0.1592  0.5291
 3077SOL    HW120690   0.623   0.839   2.203  0.5288  1.0981  1.3542
 3077SOL    HW220691   0.483   0.881   2.137  0.7501 -2.3385 -0.7537
 3078SOL     OW20692   1.528   2.267   4.706  0.1675 -0.7758 -0.2087
 3078SOL    HW120693   1.623   2.280   4.705 -0.2391  2.3185  0.7337
 3078SOL    HW220694   1.505   2.245   4.615 -0.6244 -2.2578  0.3533
 3079SOL     OW20695   1.455   3.654  17.123 -0.1236 -1.1486 -0.4239
 3079SOL    HW120696   1.500   3.734  17.096 -3.1013  0.1355 -1.5578
 3079SOL    HW220697   1.413   3.688  17.202  0.0729 -1.7263 -0.0685
 3080SOL     OW20698   2.643   0.672   2.210 -0.4375 -0.3452  0.3541
 3080SOL    HW120699   2.560   0.641   2.175 -1.1254  1.6037  0.2353
 3080SOL    HW220700   2.703   0.600   2.189 -1.3019 -1.4516  1.6926
 3081SOL     OW20701   2.927   1.216  10.154  0.4373 -0.1409  0.4808
 3081SOL    HW120702   2.839   1.217  10.115 -0.1080  2.5254  1.7957
 3081SOL    HW220703   2.942   1.304  10.121  0.6280 -0.9611 -1.6055
 3082SOL     OW20704   0.592   3.445   4.937 -0.7377  0.3772  0.2505
 3082SOL    HW120705   0.544   3.514   4.982 -1.8413  0.4000 -0.9585
 3082SOL    HW220706   0.536   3.367   4.936  1.8859 -1.5504  2.7897
 3083SOL     OW20707   0.290   1.303   0.671 -0.1323  0.4913 -0.4653
 3083SOL    HW120708   0.218   1.244   0.695 -2.1155  2.7503 -0.9500
 3083SOL    HW220709   0.261   1.391   0.692  1.9224  1.4946 -1.8057
 3084SOL     OW20710   3.394   1.371   2.275 -0.1505  0.2159 -0.0125
 3084SOL    HW120711   3.472   1.422   2.256 -0.0331  0.2663  0.6048
 3084SOL    HW220712   3.322   1.425   2.242 -0.5407  0.6378  1.5539
 3085SOL     OW20713   2.089   4.378   7.184  0.1716  0.2916 -0.0163
 3085SOL    HW120714   2.162   4.427   7.222 -0.6211  0.7199  0.9599
 3085SOL    HW220715   2.026   4.410   7.249  1.6992 -1.1321  2.1397
 3086SOL     OW20716   2.717   3.696   3.873  0.2066 -0.1572 -0.1404
 3086SOL    HW120717   2.719   3.612   3.920 -0.2836 -1.6931 -2.8136
 3086SOL    HW220718   2.672   3.662   3.795 -3.6614  2.3264  0.9834
 3087SOL     OW20719   0.302   3.684  13.520  0.3348 -0.5402 -0.1466
 3087SOL    HW120720   0.394   3.708  13.510 -0.5174  2.2501 -1.1254
 3087SOL    HW220721   0.261   3.770  13.517  0.8139 -0.3270 -0.5624
 3088SOL     OW20722   2.096   2.463   6.236 -0.9748  0.8147 -0.0521
 3088SOL    HW120723   2.002   2.477   6.249 -1.0365  0.5752 -0.2252
 3088SOL    HW220724   2.124   2.486   6.325  1.0339  1.8444 -0.9491
 3089SOL     OW20725   4.322   3.095   9.423  0.3390 -0.2074 -0.3418
 3089SOL    HW120726   4.227   3.104   9.417  0.5469  1.1421 -1.5902
 3089SOL    HW220727   4.347   3.033   9.355 -2.7425 -0.6418 -1.0594
 3090SOL     OW20728   2.628   0.830   5.776  0.9664 -0.0449 -0.9255
 3090SOL    HW120729   2.605   0.748   5.819  0.7228  0.2116 -0.5717
 3090SOL    HW220730   2.723   0.816   5.783  0.7908 -0.4205  0.6724
 3091SOL     OW20731   1.485   0.622  14.144 -0.2840 -0.3643  0.1029
 3091SOL    HW120732   1.399   0.662  14.157  0.7554  2.0228 -0.2837
 3091SOL    HW220733   1.504   0.577  14.226  0.7715 -0.3429 -0.1373
 3092SOL     OW20734   2.837   4.377   2.989  0.7340 -0.5334 -1.1352
 3092SOL    HW120735   2.908   4.349   3.047 -0.6516  2.0166  1.8146
 3092SOL    HW220736   2.861   4.470   2.982  1.3858 -0.8006 -2.5878
 3093SOL     OW20737   3.742   2.315   1.397 -0.1665 -0.0365  0.1907
 3093SOL    HW120738   3.761   2.336   1.306 -0.3201 -0.5832  0.0327
 3093SOL    HW220739   3.792   2.234   1.407 -1.6826 -1.1364 -1.3008
 3094SOL     OW20740   3.239   2.846   7.704  0.2545 -0.6491 -0.3818
 3094SOL    HW120741   3.257   2.778   7.769 -1.5421 -1.7962 -1.0929
 3094SOL    HW220742   3.310   2.824   7.644 -1.7882 -0.3676 -2.8835
 3095SOL     OW20743   2.059   1.535   3.360  0.2394 -0.0134 -0.1640
 3095SOL    HW120744   2.106   1.460   3.324  0.8102  1.2811 -2.1407
 3095SOL    HW220745   2.091   1.548   3.449 -0.5196 -1.0504  0.2594
 3096SOL     OW20746   3.360   0.278   9.615 -0.0777 -0.3752  0.2983
 3096SOL    HW120747   3.454   0.272   9.628 -0.2618  0.3585  2.0464
 3096SOL    HW220748   3.366   0.329   9.534  1.8583 -1.7755 -0.4397
 3097SOL     OW20749   1.818   1.381   9.184 -0.5513  0.4712 -0.2937
 3097SOL    HW120750   1.822   1.390   9.279  0.9655 -0.3661 -0.2715
 3097SOL    HW220751   1.790   1.468   9.158  1.1101  0.6203 -1.6075
 3098SOL     OW20752   3.271   3.513  17.090 -0.1100  0.2200 -0.4286
 3098SOL    HW120753   3.362   3.496  17.064 -1.0143 -5.4832  0.2621
 3098SOL    HW220754   3.240   3.424  17.099  0.3035  0.2459  1.1191
 3099SOL     OW20755   2.850   2.885   9.158 -0.0972  0.3310  0.2258
 3099SOL    HW120756   2.883   2.950   9.220 -2.5992  1.6235  0.1714
 3099SOL    HW220757   2.761   2.874   9.189  0.1240 -1.8472  0.0971
 3100SOL     OW20758   0.472   1.777  16.352  0.1564  0.5830  0.7956
 3100SOL    HW120759   0.531   1.760  16.278 -1.5587  2.7767 -1.0406
 3100SOL    HW220760   0.473   1.872  16.350  0.5783  0.5896  1.2756
 3101SOL     OW20761   0.441   1.583   8.300  0.1940 -0.2891  0.3973
 3101SOL    HW120762   0.389   1.663   8.299  0.6289 -0.0335 -0.9947
 3101SOL    HW220763   0.530   1.617   8.301  0.5042 -1.0916  0.0092
 3102SOL     OW20764   3.311   2.405   1.693  0.2236 -0.0569  0.4561
 3102SOL    HW120765   3.375   2.371   1.630 -0.6690 -0.6193 -0.1378
 3102SOL    HW220766   3.311   2.331   1.753 -1.0968 -0.6294 -0.2582
 3103SOL     OW20767   2.178   2.506   0.878  0.0245  0.2755 -0.0715
 3103SOL    HW120768   2.142   2.503   0.966  1.1566 -1.8539  0.3221
 3103SOL    HW220769   2.108   2.542   0.824  1.1083  0.0943 -1.6212
 3104SOL     OW20770   3.260   2.592   7.480  0.3720  0.8003 -0.0069
 3104SOL    HW120771   3.228   2.591   7.390  0.3369 -1.0232  0.0258
 3104SOL    HW220772   3.320   2.666   7.481  1.8326 -0.3912  1.1061
 3105SOL     OW20773   2.838   2.263  17.413 -0.4986 -0.1639  0.3791
 3105SOL    HW120774   2.838   2.329  17.343 -2.2161  0.0226  0.5518
 3105SOL    HW220775   2.929   2.277  17.438 -0.1370 -0.5271 -0.7044
 3106SOL     OW20776   1.538   0.196   7.778 -0.2533 -0.1382 -0.1376
 3106SOL    HW120777   1.449   0.197   7.742 -0.0740  1.2199 -0.5659
 3106SOL    HW220778   1.564   0.282   7.744  2.8022 -0.5750  1.0670
 3107SOL     OW20779   3.650   3.021   7.431 -0.0664  0.3373 -0.3491
 3107SOL    HW120780   3.704   3.100   7.436 -1.8798  1.4798  1.3254
 3107SOL    HW220781   3.573   3.057   7.387  0.8931  1.2676 -1.2519
 3108SOL     OW20782   0.093   0.445   6.980 -0.3964 -0.3557 -0.1297
 3108SOL    HW120783   0.114   0.444   7.073 -4.2691 -0.0864  0.7404
 3108SOL    HW220784   0.086   0.350   6.965 -1.1813  0.0179 -2.0652
 3109SOL     OW20785   1.431   2.399  15.229 -0.1846  0.6120  0.7527
 3109SOL    HW120786   1.426   2.488  15.194  2.3402  0.0041 -1.0901
 3109SOL    HW220787   1.363   2.351  15.181 -0.6765  2.2115 -0.1609
 3110SOL     OW20788   1.533   0.980  12.468 -0.0605 -0.1702 -0.3074
 3110SOL    HW120789   1.496   1.066  12.488 -0.4813 -0.6019  0.7460
 3110SOL    HW220790   1.590   1.005  12.395  1.0188  1.2360  1.0269
 3111SOL     OW20791   0.414   1.195  14.630 -0.2625 -0.6175  0.2849
 3111SOL    HW120792   0.420   1.278  14.679 -1.0950  0.5475 -1.5672
 3111SOL    HW220793   0.489   1.147  14.665  0.7864  0.9338  0.1489
 3112SOL     OW20794   1.080   4.354   1.426  0.2908 -0.4527 -0.2020
 3112SOL    HW120795   1.163   4.308   1.410 -0.8463 -2.6306  0.1311
 3112SOL    HW220796   1.063   4.326   1.516  0.5665  1.5749  0.4778
 3113SOL     OW20797   4.534   4.467   4.843  0.6136 -0.0197 -0.1528
 3113SOL    HW120798   4.459   4.485   4.900  0.1041  1.5959 -1.3314
 3113SOL    HW220799   4.539   4.549   4.793 -0.0360 -0.0145 -0.2177
 3114SOL     OW20800   2.619   1.421   4.227  0.2821  0.7406  0.1227
 3114SOL    HW120801   2.618   1.495   4.167 -0.4827  0.0937 -0.6622
 3114SOL    HW220802   2.713   1.423   4.246 -0.0242  2.6242  1.4303
 3115SOL     OW20803   1.097   4.622   1.856 -0.1098  0.2724  0.5100
 3115SOL    HW120804   1.015   4.646   1.813 -0.9083 -1.3091  1.1311
 3115SOL    HW220805   1.088   4.533   1.822  0.0352  0.3025  0.3914
 3116SOL     OW20806   4.415   2.924   0.501  0.4960 -0.2622 -0.4671
 3116SOL    HW120807   4.331   2.969   0.496  0.5144 -0.2402 -0.5858
 3116SOL    HW220808   4.396   2.860   0.433 -0.9440  0.6284 -0.9017
 3117SOL     OW20809   0.366   0.514  11.166  0.1578 -0.1033  0.5580
 3117SOL    HW120810   0.461   0.522  11.161  0.2074 -1.6420 -0.7487
 3117SOL    HW220811   0.347   0.428  11.202  1.7521 -0.6240  0.1749
 3118SOL     OW20812   4.336   0.210  12.348 -0.7954  0.6942  0.4876
 3118SOL    HW120813   4.399   0.147  12.314 -1.0367  0.8521 -0.2689
 3118SOL    HW220814   4.323   0.167  12.432  0.6254 -0.1971  0.2482
 3119SOL     OW20815   2.208   1.937   1.997  0.2297  0.3711 -0.2017
 3119SOL    HW120816   2.221   1.994   1.921  0.7690 -0.6403 -0.8584
 3119SOL    HW220817   2.176   2.001   2.061  0.6611  0.2543  0.1248
 3120SOL     OW20818   1.047   3.765   1.730 -0.0615 -0.2790 -0.0610
 3120SOL    HW120819   1.031   3.719   1.812  0.4005  2.3991  1.5211
 3120SOL    HW220820   1.105   3.702   1.687  1.6245  1.5626 -0.4615
 3121SOL     OW20821   2.925   0.478  11.542 -0.1009  0.0731 -0.3794
 3121SOL    HW120822   2.969   0.562  11.558  1.0258 -0.1516 -2.3023
 3121SOL    HW220823   2.986   0.407  11.560  1.1337  0.6803 -2.1636
 3122SOL     OW20824   4.599   3.202  16.628  0.1058  0.8717 -0.0571
 3122SOL    HW120825   4.523   3.160  16.587 -1.1194  2.5873  0.4581
 3122SOL    HW220826   4.568   3.292  16.638 -1.9031  0.0775  0.8329
 3123SOL     OW20827   3.062   2.753  10.345  0.2083  0.4764 -0.2709
 3123SOL    HW120828   3.041   2.844  10.326 -1.1198 -0.0460 -1.3339
 3123SOL    HW220829   3.152   2.752  10.315  1.0638 -1.7046  2.3363
 3124SOL     OW20830   0.107   1.432   0.314  0.2870 -0.1252 -0.0561
 3124SOL    HW120831   0.165   1.489   0.365 -0.7345  0.9333 -0.0630
 3124SOL    HW220832   0.036   1.439   0.378 -0.8254 -0.3574 -1.2573
 3125SOL     OW20833   4.624   0.306  12.008  0.1462  0.2541  1.2906
 3125SOL    HW120834   4.690   0.372  12.030  0.9023 -0.0671  0.0019
 3125SOL    HW220835   4.544   0.357  12.001  1.0250  1.2437 -1.4910
 3126SOL     OW20836   0.783   4.720   0.548 -0.0881  0.0976 -0.0806
 3126SOL    HW120837   0.784   0.082   0.508  2.3851  0.6755  1.2422
 3126SOL    HW220838   0.774   0.025   0.638 -0.5829  0.4051 -0.2267
 3127SOL     OW20839   4.087   1.752   6.775 -0.0631 -0.1508 -0.2208
 3127SOL    HW120840   4.126   1.726   6.859 -1.1009  1.4298  0.7400
 3127SOL    HW220841   4.161   1.798   6.735 -0.6527 -0.3405 -1.5194
 3128SOL     OW20842   4.327   1.335   1.359 -0.2220  0.0295 -0.5940
 3128SOL    HW120843   4.248   1.349   1.411  1.2161  1.8680  1.1170
 3128SOL    HW220844   4.335   1.424   1.326 -2.6810  0.4063 -0.1290
 3129SOL     OW20845   2.514   4.576   3.346  0.0706 -0.1194 -0.0675
 3129SOL    HW120846   2.429   4.583   3.303 -0.1734  0.3585  0.4773
 3129SOL    HW220847   2.558   4.659   3.327  0.4359  0.3690  2.7845
 3130SOL     OW20848   1.025   3.568   4.825  0.1029  0.2488 -0.3960
 3130SOL    HW120849   1.002   3.513   4.900 -0.0511  1.9055  0.7650
 3130SOL    HW220850   1.071   3.640   4.868 -1.6991  1.5326 -0.6029
 3131SOL     OW20851   2.522   1.683   4.358 -0.0332 -0.1897 -0.7686
 3131SOL    HW120852   2.520   1.589   4.377  1.7115 -0.3984 -1.6020
 3131SOL    HW220853   2.591   1.688   4.291 -0.2711  0.6193 -0.9551
 3132SOL     OW20854   1.905   2.790   4.760  0.3748 -0.5146 -0.3196
 3132SOL    HW120855   1.912   2.886   4.758 -0.8915 -0.4482 -0.9816
 3132SOL    HW220856   1.858   2.776   4.842 -1.5213 -1.2016 -1.5279
 3133SOL     OW20857   2.124   1.156  15.997 -0.2634 -0.2475  0.5665
 3133SOL    HW120858   2.144   1.109  15.916  0.2572  1.1085 -0.0995
 3133SOL    HW220859   2.064   1.222  15.963  0.4435 -0.4381 -1.0531
 3134SOL     OW20860   3.677   3.925   4.951  0.5413  0.1764 -0.8998
 3134SOL    HW120861   3.669   4.020   4.960 -1.7341  0.0470 -1.5226
 3134SOL    HW220862   3.767   3.915   4.980  0.2199 -0.2510 -0.0721
 3135SOL     OW20863   3.474   3.629  15.412  0.7085 -0.1084 -1.0977
 3135SOL    HW120864   3.528   3.693  15.366  0.2726  1.4095  0.4446
 3135SOL    HW220865   3.423   3.597  15.338 -1.9882  0.7251  0.3554
 3136SOL     OW20866   0.812   3.511   2.710 -0.2819  0.6336  0.2348
 3136SOL    HW120867   0.903   3.483   2.711 -0.7005 -0.7423 -0.5925
 3136SOL    HW220868   0.809   3.606   2.702  1.9661  0.7671  0.8663
 3137SOL     OW20869   3.928   0.195   1.179 -0.6361  0.5747 -0.3088
 3137SOL    HW120870   3.889   0.236   1.102  3.0724  0.0378 -2.4630
 3137SOL    HW220871   3.854   0.175   1.237 -0.7182  0.5768 -0.4127
 3138SOL     OW20872   3.220   4.165   7.749  0.4814  0.0089 -0.5157
 3138SOL    HW120873   3.260   4.086   7.712  0.7359 -1.1762  2.2832
 3138SOL    HW220874   3.274   4.181   7.826  1.1885 -2.4100 -0.4993
 3139SOL     OW20875   1.591   1.477   6.500 -0.3240 -0.1282 -0.1459
 3139SOL    HW120876   1.653   1.426   6.447 -1.3963 -2.5607  0.9470
 3139SOL    HW220877   1.649   1.495   6.573  0.7387 -1.5417 -0.6408
 3140SOL     OW20878   0.326   0.209   4.329  0.3525  0.4323 -0.3294
 3140SOL    HW120879   0.414   0.180   4.305  0.5637 -0.1412  1.1968
 3140SOL    HW220880   0.350   0.299   4.307  0.7784  1.0768  2.8209
 3141SOL     OW20881   1.760   1.321  13.437 -0.0658 -0.9898  0.4648
 3141SOL    HW120882   1.820   1.390  13.411 -2.6212  0.6333 -1.1216
 3141SOL    HW220883   1.717   1.299  13.354  2.7087  1.8582 -1.7026
 3142SOL     OW20884   4.510   2.077   0.899  0.5889 -0.1978 -1.1263
 3142SOL    HW120885   4.541   2.167   0.908 -0.8790  0.2299 -0.3574
 3142SOL    HW220886   4.480   2.084   0.808  0.2790  1.1784 -0.9130
 3143SOL     OW20887   3.236   0.391   9.827 -0.3270 -0.4171 -0.4821
 3143SOL    HW120888   3.307   0.453   9.843  0.8274 -1.8048 -0.2810
 3143SOL    HW220889   3.281   0.323   9.777 -1.1699 -0.7436 -0.8050
 3144SOL     OW20890   1.875   1.643   7.668  0.3511 -0.1276  0.1490
 3144SOL    HW120891   1.824   1.722   7.686 -2.4095 -1.6851 -0.7314
 3144SOL    HW220892   1.812   1.575   7.694 -3.1116  2.8614 -0.4408
 3145SOL     OW20893   3.336   1.699  10.975  0.3998 -0.2043 -0.1911
 3145SOL    HW120894   3.374   1.613  10.994 -2.6165 -1.4386  0.1829
 3145SOL    HW220895   3.353   1.701  10.880 -1.8723  0.4055 -0.5879
 3146SOL     OW20896   0.643   4.207   8.485 -0.0919 -0.0802 -0.4340
 3146SOL    HW120897   0.613   4.291   8.521  2.5776  0.9835 -0.7371
 3146SOL    HW220898   0.618   4.149   8.557 -1.7006  0.4159 -0.5946
 3147SOL     OW20899   1.188   3.255  17.144 -0.1361  0.2454  0.7628
 3147SOL    HW120900   1.130   3.313  17.193 -1.6107  0.9275 -1.8185
 3147SOL    HW220901   1.271   3.300  17.162  0.2844 -1.3393  2.7614
 3148SOL     OW20902   1.862   3.860   1.674  0.0978 -0.5330 -0.1586
 3148SOL    HW120903   1.824   3.832   1.758 -0.3733  2.6446  0.6965
 3148SOL    HW220904   1.952   3.881   1.700  0.4056 -1.0197 -0.8276
 3149SOL     OW20905   2.486   2.678  12.425 -0.1689 -0.3265 -0.5366
 3149SOL    HW120906   2.492   2.586  12.399  0.8604 -0.0012 -1.4741
 3149SOL    HW220907   2.525   2.685  12.512  1.0600  1.1199 -1.1953
 3150SOL     OW20908   4.435   3.097   7.806 -0.0838  0.6711 -0.6917
 3150SOL    HW120909   4.389   3.019   7.774  1.4491 -0.8203  0.7686
 3150SOL    HW220910   4.379   3.171   7.781 -1.3140  0.4428  1.3925
 3151SOL     OW20911   3.389   2.034  17.418  0.4174  0.0142 -0.0469
 3151SOL    HW120912   3.391   2.016  17.324  1.8014  0.2147 -0.0692
 3151SOL    HW220913   3.338   1.961  17.451  0.9048 -0.0662  0.5271
 3152SOL     OW20914   2.829   3.937   1.077  0.3468 -0.3384  0.4529
 3152SOL    HW120915   2.920   3.954   1.103  0.0785  3.4101 -1.0829
 3152SOL    HW220916   2.804   4.021   1.038 -0.6097 -1.2189 -0.8202
 3153SOL     OW20917   2.483   4.687   4.104 -0.0204  0.0830  0.2557
 3153SOL    HW120918   2.484   4.593   4.082  0.8997  0.2718 -0.5020
 3153SOL    HW220919   2.405   4.694   4.160  0.2514 -0.6406  0.7396
 3154SOL     OW20920   2.911   2.574   2.716  0.4816 -0.1710 -0.3899
 3154SOL    HW120921   2.855   2.616   2.650 -0.3865  3.1427  2.4527
 3154SOL    HW220922   2.995   2.553   2.675  0.7934 -1.6681  1.0126
 3155SOL     OW20923   3.357   3.881   4.865  0.1376  0.3255 -0.5292
 3155SOL    HW120924   3.397   3.916   4.785  1.9257 -0.8564 -0.1612
 3155SOL    HW220925   3.410   3.803   4.881 -1.2313 -0.5757 -0.3848
 3156SOL     OW20926   2.245   1.350  10.738 -0.5263  0.2780 -0.0665
 3156SOL    HW120927   2.178   1.301  10.690  0.3026 -1.7652  0.8363
 3156SOL    HW220928   2.268   1.413  10.670 -0.4015  1.7351  1.3320
 3157SOL     OW20929   3.942   3.905   2.986  0.3962 -0.4471  0.8232
 3157SOL    HW120930   3.984   3.941   2.907 -0.4064 -3.0708 -0.8069
 3157SOL    HW220931   4.013   3.923   3.048 -0.7020  0.9671  1.6570
 3158SOL     OW20932   4.626   4.314   2.805 -0.2396  0.7796 -0.0252
 3158SOL    HW120933   4.671   4.276   2.881 -1.5811  1.0669  0.9229
 3158SOL    HW220934   4.701   4.348   2.755 -0.3604  1.8463  0.5138
 3159SOL     OW20935   2.326   1.179   7.095 -0.3590 -0.1073  0.3869
 3159SOL    HW120936   2.250   1.235   7.078  1.7770  2.1300 -1.7418
 3159SOL    HW220937   2.373   1.224   7.164 -1.1623 -0.4817  1.1753
 3160SOL     OW20938   4.097   3.902   1.145  0.6371  0.1392  0.5842
 3160SOL    HW120939   4.041   3.899   1.068  0.9083  1.3727  0.3438
 3160SOL    HW220940   4.048   3.841   1.201  1.0659 -0.6279  0.1196
 3161SOL     OW20941   0.614   1.322  10.637 -0.2855 -0.1373 -0.0436
 3161SOL    HW120942   0.561   1.242  10.646  0.5457 -0.6564  0.2622
 3161SOL    HW220943   0.654   1.315  10.550  0.1166  1.2224  0.0416
 3162SOL     OW20944   2.355   1.310  15.470  0.0176 -0.4419  0.2981
 3162SOL    HW120945   2.380   1.389  15.517  1.1515 -0.8385  0.3765
 3162SOL    HW220946   2.334   1.341  15.382 -0.7271 -0.5260  0.4456
 3163SOL     OW20947   2.587   2.169   7.544 -0.1218  0.0789 -0.0117
 3163SOL    HW120948   2.498   2.169   7.579  0.2839  0.0051  1.0178
 3163SOL    HW220949   2.609   2.262   7.544  1.5729 -0.3327 -0.4309
 3164SOL     OW20950   0.378   3.703   5.347  0.6971 -0.4740  0.2295
 3164SOL    HW120951   0.332   3.754   5.414 -0.3967 -0.4118 -0.5586
 3164SOL    HW220952   0.326   3.724   5.269  0.4414  1.7739  1.0065
 3165SOL     OW20953   4.654   0.987   6.748 -0.4093  0.0154 -0.3536
 3165SOL    HW120954   0.000   0.973   6.686 -0.9040  1.4781 -1.2592
 3165SOL    HW220955   4.581   0.988   6.686 -1.2644 -0.8835  0.6474
 3166SOL     OW20956   2.986   3.014  10.566 -0.4110  0.1472 -0.0739
 3166SOL    HW120957   3.039   2.984  10.640  0.1904  2.0038  0.2494
 3166SOL    HW220958   2.900   2.992  10.601 -0.4274  1.2375  0.5656
 3167SOL     OW20959   1.115   2.413   0.801 -0.1876  0.2704 -0.2836
 3167SOL    HW120960   1.145   2.375   0.719  1.4267  2.6858 -0.8126
 3167SOL    HW220961   1.028   2.373   0.798 -1.1376  2.0944  1.8264
 3168SOL     OW20962   1.093   2.119   4.970  0.4155  0.4766  0.5778
 3168SOL    HW120963   1.176   2.161   4.947  1.8682 -2.8895 -0.2280
 3168SOL    HW220964   1.033   2.154   4.905  0.9865 -0.8761 -0.6623
 3169SOL     OW20965   0.419   2.327  10.050  0.2089 -0.0179  0.1179
 3169SOL    HW120966   0.465   2.261  10.000 -1.3287 -0.7117 -0.3902
 3169SOL    HW220967   0.461   2.319  10.136 -1.2593 -2.5197  0.6227
 3170SOL     OW20968   4.715   4.421  16.786 -0.2168  0.6116  0.3286
 3170SOL    HW120969   4.720   4.513  16.760  0.2662  0.1251 -1.3279
 3170SOL    HW220970   0.012   4.427  16.879  0.3747  0.6573  0.1910
 3171SOL     OW20971   0.196   0.741   7.620 -0.4490 -0.2422  0.0638
 3171SOL    HW120972   0.173   0.717   7.710 -0.4679  1.0803  0.4081
 3171SOL    HW220973   0.289   0.757   7.638 -1.4155  1.1548  3.6723
 3172SOL     OW20974   0.920   1.775   4.415  0.5210 -0.2325 -0.1673
 3172SOL    HW120975   0.920   1.683   4.443 -1.2339 -0.8172 -2.0293
 3172SOL    HW220976   0.997   1.812   4.458  0.9197 -0.9948 -0.2216
 3173SOL     OW20977   4.260   2.326   5.293  0.3341 -0.0661 -0.7676
 3173SOL    HW120978   4.225   2.414   5.280 -0.3734 -0.4015 -1.1360
 3173SOL    HW220979   4.307   2.338   5.375 -1.4560  1.0101  0.0887
 3174SOL     OW20980   2.610   1.002  10.025  0.0198  0.4450  0.1527
 3174SOL    HW120981   2.690   0.982  10.074 -0.7953 -1.4484  0.7249
 3174SOL    HW220982   2.551   0.977  10.096 -0.5632  0.6898 -0.2484
 3175SOL     OW20983   0.226   1.135   4.626  0.4509  0.6710 -0.5615
 3175SOL    HW120984   0.237   1.041   4.608 -0.9725  0.2423  0.7935
 3175SOL    HW220985   0.157   1.157   4.564 -0.6675 -1.8514 -0.2276
 3176SOL     OW20986   1.593   3.999   2.001 -0.3236 -0.3624 -0.1169
 3176SOL    HW120987   1.602   4.021   2.093  0.5231 -2.9727  0.4195
 3176SOL    HW220988   1.597   4.082   1.954  3.3688 -2.0460 -2.8099
 3177SOL     OW20989   2.206   2.022   5.339 -0.1641 -0.2650  0.1189
 3177SOL    HW120990   2.151   2.094   5.309 -1.5615 -0.1001  3.0945
 3177SOL    HW220991   2.183   2.024   5.432  0.8930 -0.0624  0.3726
 3178SOL     OW20992   4.406   2.311   5.651 -0.0821  0.0735 -0.0515
 3178SOL    HW120993   4.399   2.223   5.690  3.0990 -1.3173 -2.6676
 3178SOL    HW220994   4.500   2.323   5.665  0.1033 -1.1646 -0.2029
 3179SOL     OW20995   0.486   1.848   8.621 -0.2218  0.1798 -0.1176
 3179SOL    HW120996   0.431   1.782   8.663  0.7298 -1.0384 -0.8028
 3179SOL    HW220997   0.417   1.914   8.635  0.4304  1.4376 -2.9211
 3180SOL     OW20998   2.229   2.738  12.569 -0.0582 -0.0086  0.0622
 3180SOL    HW120999   2.215   2.816  12.516 -2.3272 -0.8097 -0.5159
 3180SOL    HW221000   2.283   2.684  12.511  0.0965  1.1943 -0.9064
 3181SOL     OW21001   2.457   3.606   4.868  0.3068 -0.7198  0.2974
 3181SOL    HW121002   2.522   3.676   4.873 -2.5749  2.0935 -1.2155
 3181SOL    HW221003   2.410   3.637   4.791  0.4271 -0.0868  0.4825
 3182SOL     OW21004   0.911   3.423   0.232 -0.0711 -0.2669  0.3971
 3182SOL    HW121005   0.999   3.458   0.216  0.0404 -1.2731 -1.2385
 3182SOL    HW221006   0.856   3.500   0.220  2.0999  1.1648 -0.3227
 3183SOL     OW21007   0.700   1.913   6.650 -0.0801  0.2189 -0.6169
 3183SOL    HW121008   0.619   1.880   6.612 -0.9594  0.5735  0.9426
 3183SOL    HW221009   0.766   1.847   6.631  0.6197  0.5692  0.5741
 3184SOL     OW21010   1.704   4.013  14.906  1.1965  0.8214  0.3726
 3184SOL    HW121011   1.793   4.002  14.874  0.6845  0.4991 -0.9665
 3184SOL    HW221012   1.698   3.936  14.963 -0.2067 -1.3026 -2.6237
 3185SOL     OW21013   3.089   3.989   1.138  0.0458 -0.1723  0.4283
 3185SOL    HW121014   3.138   3.970   1.057  0.8850  0.4311  0.7986
 3185SOL    HW221015   3.157   4.019   1.198  1.4198  0.0547 -1.2099
 3186SOL     OW21016   2.793   2.300  11.696  0.4610  0.2492  0.1392
 3186SOL    HW121017   2.828   2.264  11.778 -1.9286 -4.0315 -0.7061
 3186SOL    HW221018   2.880   2.311  11.659  0.0243  2.6410 -0.2134
 3187SOL     OW21019   3.586   1.588  12.609  0.4234  0.2666  0.6193
 3187SOL    HW121020   3.492   1.571  12.613  0.7998 -1.9445  0.3884
 3187SOL    HW221021   3.596   1.658  12.674  0.2496  2.8254 -2.1134
 3188SOL     OW21022   3.819   4.150  11.662  0.0805  0.3816 -0.0855
 3188SOL    HW121023   3.890   4.208  11.632  0.0298  0.3934 -0.1856
 3188SOL    HW221024   3.852   4.061  11.657  2.3104  1.2677 -1.3321
 3189SOL     OW21025   2.761   1.687   0.975  0.1212  0.2479  0.4855
 3189SOL    HW121026   2.696   1.720   0.913  1.6209 -0.0628 -1.2530
 3189SOL    HW221027   2.847   1.708   0.939 -0.3671 -0.2184 -0.9601
 3190SOL     OW21028   0.756   1.524   4.360 -0.4401 -0.5419  0.3400
 3190SOL    HW121029   0.764   1.461   4.288 -0.4518 -0.1516 -0.0020
 3190SOL    HW221030   0.760   1.477   4.443  1.5894 -0.0974  0.5071
 3191SOL     OW21031   1.453   1.029   9.357 -0.3513 -0.1052 -0.1206
 3191SOL    HW121032   1.464   1.123   9.341 -0.1056 -0.4492 -1.9894
 3191SOL    HW221033   1.376   1.025   9.413  0.8852 -0.1519  1.5710
 3192SOL     OW21034   4.523   0.486   6.763 -0.1823 -0.1811  0.4004
 3192SOL    HW121035   4.502   0.476   6.670 -2.7216 -0.8867  1.0554
 3192SOL    HW221036   4.596   0.424   6.772 -0.5375 -0.8487 -1.3145
 3193SOL     OW21037   1.506   3.061  17.151 -0.1586 -0.2203 -0.1220
 3193SOL    HW121038   1.575   3.127  17.158 -0.3734  0.1529 -1.7020
 3193SOL    HW221039   1.537   2.991  17.209  2.8984  1.3997  0.2049
 3194SOL     OW21040   3.087   0.481   8.585  0.1479  0.4345 -0.0233
 3194SOL    HW121041   3.103   0.550   8.521 -1.3726  0.3913 -0.4701
 3194SOL    HW221042   3.144   0.413   8.552 -0.9270 -0.6098  0.2669
 3195SOL     OW21043   0.353   1.448   5.142  0.1390  0.3272 -0.0451
 3195SOL    HW121044   0.291   1.505   5.097 -0.8386 -0.2260  0.5995
 3195SOL    HW221045   0.330   1.457   5.235 -0.8712 -2.2155 -0.0550
 3196SOL     OW21046   2.266   1.464   0.629  0.3745 -0.4524 -0.2588
 3196SOL    HW121047   2.293   1.464   0.537  0.2925 -1.0849 -0.2840
 3196SOL    HW221048   2.324   1.404   0.678 -0.7177 -1.8900 -0.7214
 3197SOL     OW21049   1.616   0.073   2.988  0.2843 -0.4686  0.1315
 3197SOL    HW121050   1.606   0.068   2.893 -1.5338  0.2062  0.2877
 3197SOL    HW221051   1.699   0.031   3.010  0.3320 -0.2214  0.4230
 3198SOL     OW21052   0.296   2.203   5.695  0.2553  0.2028  0.3820
 3198SOL    HW121053   0.200   2.210   5.691  0.0951 -2.0372  0.3701
 3198SOL    HW221054   0.322   2.175   5.607 -1.6392 -0.0303 -0.1164
 3199SOL     OW21055   3.250   3.426   4.734  0.2212  0.0129 -0.5244
 3199SOL    HW121056   3.182   3.493   4.745  0.3781 -0.2882  2.1311
 3199SOL    HW221057   3.208   3.353   4.688 -2.4618  1.5790 -0.5638
 3200SOL     OW21058   1.842   2.777   2.248 -0.6434  0.2333 -0.4601
 3200SOL    HW121059   1.932   2.790   2.217 -0.1870  0.7864  1.0849
 3200SOL    HW221060   1.794   2.850   2.210 -4.2905 -1.6565  0.5285
 3201SOL     OW21061   0.828   3.878   2.373 -0.1680 -0.2969  0.3592
 3201SOL    HW121062   0.808   3.889   2.280 -2.2558 -0.2625  0.8040
 3201SOL    HW221063   0.826   3.964   2.416 -0.1493  0.0274 -0.2869
 3202SOL     OW21064   3.888   0.527   5.172 -0.7187 -0.3093 -0.6748
 3202SOL    HW121065   3.963   0.493   5.124 -0.1019 -1.7577  1.3110
 3202SOL    HW221066   3.835   0.449   5.190 -1.5518  0.9838  2.4598
 3203SOL     OW21067   3.701   1.583  14.293  0.3450 -0.2892 -0.3580
 3203SOL    HW121068   3.771   1.649  14.300  1.3589 -1.2102 -1.9182
 3203SOL    HW221069   3.630   1.643  14.316 -0.8969 -0.0753 -4.9240
 3204SOL     OW21070   4.357   0.838   3.331  0.6810 -0.7810 -0.0256
 3204SOL    HW121071   4.368   0.877   3.418 -2.4445  1.3646 -0.5714
 3204SOL    HW221072   4.261   0.841   3.321  0.8378  1.0156 -1.0179
 3205SOL     OW21073   4.382   2.909   3.077 -0.0847 -0.3994 -0.0939
 3205SOL    HW121074   4.379   2.969   3.152  0.4998 -1.1647  0.5356
 3205SOL    HW221075   4.476   2.913   3.059  0.1747 -0.5054  1.2333
 3206SOL     OW21076   2.751   3.097   5.176 -0.0342  0.0574  0.9213
 3206SOL    HW121077   2.751   3.001   5.181  2.9452 -0.0635 -1.2682
 3206SOL    HW221078   2.793   3.114   5.260  0.5267 -0.8032  0.8219
 3207SOL     OW21079   1.638   0.963   8.046 -0.2853 -0.4374  0.2754
 3207SOL    HW121080   1.604   0.965   7.956  2.4685 -2.6488 -0.8190
 3207SOL    HW221081   1.576   1.008   8.102 -1.7650 -2.3832  0.2042
 3208SOL     OW21082   1.829   2.512   5.795  0.2237 -0.8447 -0.2736
 3208SOL    HW121083   1.902   2.535   5.737  0.8958  1.3932  1.4410
 3208SOL    HW221084   1.770   2.464   5.737 -1.1674 -0.5941  0.9657
 3209SOL     OW21085   0.256   3.044   2.209  0.1734 -0.4277 -0.3097
 3209SOL    HW121086   0.235   3.094   2.288  0.0453 -1.9340  0.5906
 3209SOL    HW221087   0.188   2.977   2.211 -0.6542  0.3459 -2.4019
 3210SOL     OW21088   4.620   4.091  14.258  0.3408  0.1743  0.1484
 3210SOL    HW121089   4.712   4.068  14.276  0.1588  0.2483  1.1736
 3210SOL    HW221090   4.630   4.136  14.174 -0.1542  3.5735  1.9211
 3211SOL     OW21091   1.144   4.288  17.365 -0.1075 -0.2450 -0.7500
 3211SOL    HW121092   1.234   4.269  17.339  0.0480 -1.6759  0.8416
 3211SOL    HW221093   1.155   4.288  17.460 -2.0055 -2.5431 -0.5020
 3212SOL     OW21094   3.035   2.943   7.083  0.5060  0.2017  0.3826
 3212SOL    HW121095   2.968   2.927   7.017 -0.2041  0.2261  1.0867
 3212SOL    HW221096   3.006   3.032   7.104 -0.5434 -0.5273  2.0358
 3213SOL     OW21097   2.855   2.161   1.962 -0.3063 -0.3433 -0.1884
 3213SOL    HW121098   2.934   2.180   2.012  1.8334 -2.2969 -2.8531
 3213SOL    HW221099   2.877   2.193   1.874  0.1838 -0.7134 -0.1994
 3214SOL     OW21100   0.652   3.679   8.220  0.2908 -0.0981 -0.0492
 3214SOL    HW121101   0.726   3.623   8.243 -0.7108 -1.2924  0.3173
 3214SOL    HW221102   0.619   3.617   8.154  1.8222 -0.8472 -0.1017
 3215SOL     OW21103   3.957   2.406   7.697 -0.6207  0.4463 -0.0319
 3215SOL    HW121104   4.006   2.355   7.762 -2.5910 -0.4429  0.7486
 3215SOL    HW221105   3.942   2.485   7.750 -0.5706 -0.3899  1.2294
 3216SOL     OW21106   2.902   3.176   5.473  0.5089 -0.1558 -0.2895
 3216SOL    HW121107   2.938   3.097   5.513  0.1241 -1.0966 -1.8104
 3216SOL    HW221108   2.966   3.240   5.504 -3.0275  3.4330 -0.5078
 3217SOL     OW21109   1.300   0.917   2.944  0.6019 -0.2538  0.0873
 3217SOL    HW121110   1.221   0.969   2.932 -0.4711 -2.0662 -0.7267
 3217SOL    HW221111   1.351   0.972   2.884 -1.2802 -1.1116 -2.3239
 3218SOL     OW21112   4.501   1.644   8.433 -0.3545  0.0390  0.3549
 3218SOL    HW121113   4.528   1.561   8.395 -1.9997  0.1435 -1.0076
 3218SOL    HW221114   4.492   1.626   8.527  3.6039  2.5261  1.2387
 3219SOL     OW21115   3.024   2.129   2.882 -0.1042  0.4947  0.0704
 3219SOL    HW121116   2.936   2.136   2.920 -0.6244 -0.1305 -1.0218
 3219SOL    HW221117   3.077   2.177   2.946 -0.5555  1.4112 -0.2394
 3220SOL     OW21118   0.053   0.183  14.442  0.3917 -0.0291 -0.2325
 3220SOL    HW121119   0.003   0.129  14.503  0.4646  0.4252  0.2275
 3220SOL    HW221120   0.082   0.235  14.517 -1.3346  1.8485 -0.8525
 3221SOL     OW21121   0.263   0.518   5.771  0.5787  0.5848 -0.3085
 3221SOL    HW121122   0.224   0.542   5.687 -1.4253 -1.9861 -0.1307
 3221SOL    HW221123   0.194   0.458   5.799 -0.6956  2.8051  1.2869
 3222SOL     OW21124   1.410   3.728   8.565 -0.0910  0.4001  0.4158
 3222SOL    HW121125   1.409   3.633   8.574  0.1679  0.5087  1.7073
 3222SOL    HW221126   1.459   3.759   8.642  2.2278 -1.4310 -0.3235
 3223SOL     OW21127   2.533   1.647   2.612 -0.1991 -0.8045  0.0457
 3223SOL    HW121128   2.601   1.704   2.646 -1.0649  0.5776 -0.5368
 3223SOL    HW221129   2.534   1.652   2.516  1.7174  2.6936  0.2790
 3224SOL     OW21130   2.184   0.687  10.330 -0.0785 -0.0104  0.1282
 3224SOL    HW121131   2.194   0.775  10.294 -1.3752  0.2466  0.4176
 3224SOL    HW221132   2.272   0.657  10.355  0.4213  1.4377  0.1208
 3225SOL     OW21133   1.770   3.232  11.780  0.3430  0.5483  0.3342
 3225SOL    HW121134   1.754   3.165  11.846 -1.2272 -0.1461 -0.7711
 3225SOL    HW221135   1.817   3.179  11.715 -1.2241 -0.4718  0.0467
 3226SOL     OW21136   3.924   1.060   5.129 -0.5549  0.0719  0.1573
 3226SOL    HW121137   3.926   1.151   5.097  1.1742 -0.0707 -0.1747
 3226SOL    HW221138   3.969   1.066   5.213  0.3618  0.9520 -0.3795
 3227SOL     OW21139   0.027   0.621  13.991  0.4874 -0.2899  0.8230
 3227SOL    HW121140   0.116   0.636  13.958  0.0839 -1.4791 -0.7946
 3227SOL    HW221141   0.021   0.703  14.040 -0.8220 -0.8286  1.5755
 3228SOL     OW21142   2.937   3.232   7.247 -0.3369  0.3922  0.1438
 3228SOL    HW121143   2.876   3.174   7.201  0.1033  3.0509 -3.8373
 3228SOL    HW221144   2.895   3.317   7.239 -1.2981 -0.3054 -2.2368
 3229SOL     OW21145   2.291   3.898   2.898 -0.0328  0.4750  0.2176
 3229SOL    HW121146   2.362   3.946   2.857  0.7824 -0.3816  0.6393
 3229SOL    HW221147   2.331   3.838   2.961  0.3889  1.0089  0.4514
 3230SOL     OW21148   2.910   3.959  12.381 -0.4259 -0.1732 -0.2785
 3230SOL    HW121149   2.990   3.913  12.407 -0.3770  0.9732  1.6645
 3230SOL    HW221150   2.929   4.011  12.303 -0.0091  0.9477  0.5780
 3231SOL     OW21151   4.446   3.859   4.224 -0.9944  0.0707  0.5110
 3231SOL    HW121152   4.400   3.839   4.143 -0.8230  1.2318  0.1234
 3231SOL    HW221153   4.508   3.786   4.234  0.7625  1.1095 -2.5826
 3232SOL     OW21154   2.899   2.246  13.901 -0.1353 -0.0820  0.7136
 3232SOL    HW121155   2.952   2.193  13.960  1.5916  0.0460 -0.7237
 3232SOL    HW221156   2.952   2.233  13.822 -2.8006  1.6250 -1.3495
 3233SOL     OW21157   2.560   2.418   8.441 -0.5243 -0.4769  0.5678
 3233SOL    HW121158   2.561   2.430   8.346 -3.5849  0.4305  0.6684
 3233SOL    HW221159   2.550   2.322   8.442 -0.9557 -0.4279  1.0465
 3234SOL     OW21160   2.956   2.233   9.384  0.1022  0.0867 -0.3667
 3234SOL    HW121161   2.966   2.305   9.322  0.6611  1.9507  1.8878
 3234SOL    HW221162   3.044   2.196   9.386  0.3451  0.7719  2.1749
 3235SOL     OW21163   1.298   1.538  16.881 -0.0897 -0.3664 -0.3953
 3235SOL    HW121164   1.219   1.507  16.838 -0.9427  0.9783  0.2061
 3235SOL    HW221165   1.299   1.493  16.965 -1.4597 -1.3627 -0.9140
 3236SOL     OW21166   0.908   2.561  15.569 -0.0277  0.1040 -0.1541
 3236SOL    HW121167   0.959   2.642  15.573  2.3589 -1.2614 -2.5768
 3236SOL    HW221168   0.943   2.514  15.644 -1.2486  0.5883  0.7345
 3237SOL     OW21169   2.888   0.467  10.844 -0.1791  0.2712 -0.3111
 3237SOL    HW121170   2.954   0.414  10.799  0.1697  1.3905 -1.1039
 3237SOL    HW221171   2.808   0.417  10.830  0.5558 -0.4092 -1.9948
 3238SOL     OW21172   4.403   3.200   4.461  0.6348  0.4902 -0.0438
 3238SOL    HW121173   4.340   3.145   4.507 -2.5679  1.9514 -2.6671
 3238SOL    HW221174   4.349   3.263   4.413  1.3078 -0.2491 -1.7865
 3239SOL     OW21175   3.906   3.881  10.941 -0.3052 -0.0362 -0.3752
 3239SOL    HW121176   3.929   3.904  11.031 -1.4601 -0.9045  0.1498
 3239SOL    HW221177   3.950   3.796  10.929  0.8451  0.4397  0.4999
 3240SOL     OW21178   1.807   1.711   5.830 -0.3146 -0.0010 -0.2628
 3240SOL    HW121179   1.851   1.782   5.785 -0.2753  0.7953  1.0140
 3240SOL    HW221180   1.880   1.649   5.827 -0.4575 -0.1973  0.2134
 3241SOL     OW21181   4.468   3.289  12.606 -0.4058  0.2977  0.0992
 3241SOL    HW121182   4.420   3.259  12.683  0.8342 -1.8738  0.0106
 3241SOL    HW221183   4.557   3.303  12.639 -0.4131  1.9939 -0.5869
 3242SOL     OW21184   3.149   3.448   2.744  0.2902  0.0263  0.0072
 3242SOL    HW121185   3.142   3.444   2.649 -0.1890  1.5665 -0.0212
 3242SOL    HW221186   3.055   3.456   2.757 -0.0767 -2.2824 -1.2278
 3243SOL     OW21187   1.568   3.658  13.568 -0.0931  0.4894 -0.0216
 3243SOL    HW121188   1.608   3.576  13.598 -0.0072  0.9339  1.0616
 3243SOL    HW221189   1.646   3.702  13.533 -0.6098  1.0629 -0.4322
 3244SOL     OW21190   2.077   3.448  12.173  0.3651 -0.5206  0.0701
 3244SOL    HW121191   2.044   3.424  12.086 -0.8834  1.2037  0.0643
 3244SOL    HW221192   2.170   3.457  12.154 -0.3510 -0.2882 -3.3631
 3245SOL     OW21193   1.351   1.020   7.349  0.4040 -0.4110 -0.1478
 3245SOL    HW121194   1.417   1.056   7.408 -0.8613  0.9559  0.4362
 3245SOL    HW221195   1.395   1.031   7.265  1.4077 -0.2683  0.3980
 3246SOL     OW21196   0.130   4.131  11.336 -0.3886 -0.4101  0.4487
 3246SOL    HW121197   0.195   4.174  11.281  0.4078 -2.3842 -0.1653
 3246SOL    HW221198   0.064   4.092  11.279  0.2679  0.8905 -1.1632
 3247SOL     OW21199   1.276   1.844   7.490 -0.2831  0.2238  0.3115
 3247SOL    HW121200   1.184   1.824   7.504 -0.2024 -1.4110 -1.5172
 3247SOL    HW221201   1.311   1.814   7.574 -0.3159 -0.0150  0.2411
 3248SOL     OW21202   3.354   1.620  16.954 -0.0479 -0.1519  0.3772
 3248SOL    HW121203   3.268   1.645  16.919  0.4714  1.6425  0.3855
 3248SOL    HW221204   3.343   1.620  17.049 -1.5427  0.8725  0.1970
 3249SOL     OW21205   3.074   3.323  17.480  0.9076 -1.0015 -0.8011
 3249SOL    HW121206   3.128   3.344  17.404  1.6266  0.4620  0.1178
 3249SOL    HW221207   2.998   3.377  17.458  1.9678  0.6442 -0.3745
 3250SOL     OW21208   1.967   2.288  11.579 -0.0127  0.2979 -0.1238
 3250SOL    HW121209   2.034   2.225  11.552  0.0059  1.0600 -1.8425
 3250SOL    HW221210   1.894   2.255  11.527 -1.2844  1.2188  1.0605
 3251SOL     OW21211   4.207   2.643   2.897  0.5065  0.3357 -0.1613
 3251SOL    HW121212   4.297   2.673   2.882 -0.2745  2.4494 -0.5757
 3251SOL    HW221213   4.210   2.548   2.904  1.1071  0.4965  2.0066
 3252SOL     OW21214   4.090   2.177  14.831 -0.4696 -0.4226  0.3032
 3252SOL    HW121215   4.122   2.138  14.750 -1.2272 -0.4766  0.0268
 3252SOL    HW221216   4.067   2.263  14.798 -0.9445  1.0110  4.2792
 3253SOL     OW21217   2.861   4.596  15.330 -0.0797 -0.0523 -0.1569
 3253SOL    HW121218   2.854   4.661  15.400 -0.5015  0.4610 -0.6692
 3253SOL    HW221219   2.932   4.638  15.280  1.1132  0.0862  1.6399
 3254SOL     OW21220   0.066   3.749   4.901  0.3997 -0.2379 -0.0468
 3254SOL    HW121221   0.080   3.762   4.807 -1.8143 -1.0155 -0.4922
 3254SOL    HW221222   4.696   3.737   4.900  0.3855 -0.2052  1.1741
 3255SOL     OW21223   1.055   3.409   7.708  0.1154  0.1712 -0.3044
 3255SOL    HW121224   1.028   3.344   7.643 -0.7475  1.1257 -0.9127
 3255SOL    HW221225   1.018   3.496   7.687 -0.3456  0.5432  2.0903
 3256SOL     OW21226   2.007   2.351   2.566 -0.9270 -0.2254  0.2378
 3256SOL    HW121227   2.051   2.374   2.648  0.4809 -2.0694 -0.0113
 3256SOL    HW221228   1.943   2.422   2.564 -1.7400 -0.9771  0.1266
 3257SOL     OW21229   1.272   2.828  16.451  0.1456  0.5550 -0.3243
 3257SOL    HW121230   1.245   2.889  16.382 -0.6067  0.3407 -0.2167
 3257SOL    HW221231   1.272   2.876  16.534 -1.8921  3.0098 -1.7351
 3258SOL     OW21232   0.708   2.538   5.676  0.6507 -0.2467 -0.3908
 3258SOL    HW121233   0.678   2.628   5.682  1.2166  0.0802 -2.5128
 3258SOL    HW221234   0.623   2.495   5.670 -0.5878  2.0841  0.4962
 3259SOL     OW21235   4.099   2.268   7.317  0.0531 -0.1766  0.0966
 3259SOL    HW121236   4.012   2.292   7.346  0.5293 -0.0854  1.4301
 3259SOL    HW221237   4.118   2.342   7.259 -0.4689 -0.3574 -0.3022
 3260SOL     OW21238   4.285   2.245  16.309 -0.4436  0.2827 -0.2988
 3260SOL    HW121239   4.345   2.194  16.255  0.7966  0.9505  0.4632
 3260SOL    HW221240   4.271   2.185  16.382 -0.9440  0.4101 -0.2882
 3261SOL     OW21241   4.018   2.244  10.662 -0.0624  0.2722 -0.1641
 3261SOL    HW121242   3.990   2.318  10.716  0.8770 -0.4745  1.3358
 3261SOL    HW221243   4.017   2.180  10.734 -2.7127  2.3920  1.6880
 3262SOL     OW21244   2.675   1.018   1.611  0.3019  0.0968 -0.0385
 3262SOL    HW121245   2.600   1.016   1.672 -0.0394  1.0261 -0.4322
 3262SOL    HW221246   2.635   0.987   1.530  1.8824  0.6814 -1.0327
 3263SOL     OW21247   2.905   0.944  11.329 -0.4642  0.2837  0.5628
 3263SOL    HW121248   2.981   1.002  11.328 -1.5407  1.6582 -1.8716
 3263SOL    HW221249   2.837   0.997  11.370  0.7374  0.6954  2.0402
 3264SOL     OW21250   3.353   0.993   2.535  1.0504  0.4588  0.3927
 3264SOL    HW121251   3.277   1.049   2.550 -1.3976 -2.4897 -1.0760
 3264SOL    HW221252   3.397   1.038   2.463  0.4325  2.2452  1.1207
 3265SOL     OW21253   2.458   2.992  10.888 -0.4462  0.0598  0.0558
 3265SOL    HW121254   2.466   3.081  10.922 -0.4354 -0.6043  1.7763
 3265SOL    HW221255   2.471   2.930  10.960 -0.4686  0.3677  0.3222
 3266SOL     OW21256   4.433   0.820  14.903  0.0620  0.6573  0.4989
 3266SOL    HW121257   4.502   0.884  14.921  2.5329 -1.9930  0.5093
 3266SOL    HW221258   4.402   0.784  14.986 -0.1273  1.9578  0.9989
 3267SOL     OW21259   0.267   2.915   7.924 -0.3725 -0.0618 -0.5757
 3267SOL    HW121260   0.305   2.996   7.958 -0.8004  0.9043 -2.4117
 3267SOL    HW221261   0.211   2.938   7.850 -0.1499  0.8772 -0.4462
 3268SOL     OW21262   4.546   1.029   7.006  0.2688 -0.5485  0.1842
 3268SOL    HW121263   4.625   1.051   7.055 -0.7130  2.1575  0.5085
 3268SOL    HW221264   4.580   1.013   6.918  0.8725 -1.3381  0.5556
 3269SOL     OW21265   0.159   1.806   8.040  0.2369 -0.1772 -0.0826
 3269SOL    HW121266   0.190   1.786   8.128 -2.7957 -0.5500  0.8918
 3269SOL    HW221267   0.105   1.884   8.047  1.0671  0.1146  2.9902
 3270SOL     OW21268   3.571   1.691   4.476 -0.4505  0.1153  0.1537
 3270SOL    HW121269   3.603   1.778   4.453 -1.6014  0.8441  1.3240
 3270SOL    HW221270   3.477   1.698   4.492 -0.9572 -1.9354 -1.8625
 3271SOL     OW21271   2.740   2.295   8.790  0.5698  0.4543 -0.1543
 3271SOL    HW121272   2.766   2.204   8.776  0.0572  0.6319 -2.2554
 3271SOL    HW221273   2.645   2.284   8.792  0.6382 -0.1253  0.0024
 3272SOL     OW21274   1.470   0.088   3.947 -0.8411 -0.1722 -0.2896
 3272SOL    HW121275   1.411   0.013   3.941  0.3965 -0.9375 -2.9775
 3272SOL    HW221276   1.441   0.130   3.867 -0.4249 -0.4862 -0.6087
 3273SOL     OW21277   1.426   2.614   2.599 -0.0332  0.5359  0.2335
 3273SOL    HW121278   1.500   2.568   2.559 -0.0144  0.3255  0.5039
 3273SOL    HW221279   1.356   2.557   2.566  0.2785  0.8570 -0.9700
 3274SOL     OW21280   3.231   2.110   0.629  0.6369  0.5723  0.3207
 3274SOL    HW121281   3.139   2.121   0.603 -0.1910 -0.4137  2.8536
 3274SOL    HW221282   3.218   2.122   0.723 -2.3898 -3.0217  0.3908
 3275SOL     OW21283   1.262   4.688   5.121  0.0118  0.3938  0.4808
 3275SOL    HW121284   1.306   0.047   5.131 -0.7382  0.9063 -0.5310
 3275SOL    HW221285   1.313   4.649   5.049 -1.2128  0.0906 -0.2290
 3276SOL     OW21286   0.896   4.078   2.816 -0.4268 -0.0441 -0.1927
 3276SOL    HW121287   0.886   4.157   2.869 -0.0565  0.1532 -0.4119
 3276SOL    HW221288   0.922   4.127   2.738 -1.6462 -1.0810 -1.2471
 3277SOL     OW21289   3.320   3.431   0.694  0.4850  0.7402 -0.0133
 3277SOL    HW121290   3.344   3.421   0.602 -0.4896  0.1064 -0.2013
 3277SOL    HW221291   3.225   3.421   0.688  0.6688 -0.8745 -0.3795
 3278SOL     OW21292   0.907   2.070   6.703  0.3326  0.0343  0.3985
 3278SOL    HW121293   0.868   2.150   6.738 -3.6366 -1.7481 -0.0149
 3278SOL    HW221294   0.835   2.017   6.670  0.0598  0.3031  0.5660
 3279SOL     OW21295   2.000   1.023   1.940  0.0315 -0.2692  0.0465
 3279SOL    HW121296   1.962   1.074   2.011 -1.3454 -0.3593 -0.6312
 3279SOL    HW221297   1.940   0.948   1.944  0.1010 -0.3403 -0.2306
 3280SOL     OW21298   1.343   3.762   5.283 -0.0913  0.5021  0.0089
 3280SOL    HW121299   1.266   3.717   5.318  1.1177 -2.4018 -1.0576
 3280SOL    HW221300   1.376   3.714   5.207 -0.4283 -0.4719  0.4801
 3281SOL     OW21301   1.881   2.899   3.626 -0.0132 -0.0508 -0.1476
 3281SOL    HW121302   1.832   2.844   3.564 -1.3781  0.8387  0.1413
 3281SOL    HW221303   1.952   2.838   3.644 -1.2325 -2.1525 -2.4424
 3282SOL     OW21304   2.396   0.564   2.068 -0.1835  0.5119 -0.3228
 3282SOL    HW121305   2.408   0.476   2.105 -1.7203  0.6562  0.4961
 3282SOL    HW221306   2.306   0.560   2.038  0.8849 -0.8485 -3.3524
 3283SOL     OW21307   1.520   2.427   6.197  0.1161  0.1774  0.0614
 3283SOL    HW121308   1.436   2.473   6.201  1.2327  2.0183  2.1392
 3283SOL    HW221309   1.588   2.494   6.204  1.4979 -0.9853 -2.4350
 3284SOL     OW21310   0.868   4.318  14.484 -0.6892 -0.4074 -0.0983
 3284SOL    HW121311   0.849   4.341  14.393  0.7476 -2.4511 -0.9099
 3284SOL    HW221312   0.944   4.260  14.477  0.2522  1.0622 -2.1215
 3285SOL     OW21313   1.783   4.020   7.874  0.0901  0.5029 -0.2349
 3285SOL    HW121314   1.860   4.061   7.913 -0.7141 -0.8980  2.9024
 3285SOL    HW221315   1.719   4.080   7.913  0.4297  1.0568 -0.5339
 3286SOL     OW21316   4.559   2.253   6.352 -0.4219  0.2638  0.2161
 3286SOL    HW121317   4.561   2.343   6.384 -2.4897  0.2555  0.3397
 3286SOL    HW221318   4.498   2.210   6.413 -0.3571 -1.3656 -0.8701
 3287SOL     OW21319   2.204   1.053  11.132 -0.3342 -0.1343  0.2880
 3287SOL    HW121320   2.129   0.995  11.120 -0.8655  0.1934  2.0173
 3287SOL    HW221321   2.164   1.139  11.151  0.8889  0.3158  0.8460
 3288SOL     OW21322   4.225   1.997  14.625 -0.2497  0.6028 -0.0256
 3288SOL    HW121323   4.247   1.911  14.663  0.5400  1.4888  1.5578
 3288SOL    HW221324   4.149   1.985  14.568 -0.3457 -0.7008  0.3853
 3289SOL     OW21325   1.695   4.368   3.466  0.0825 -0.0417 -0.1491
 3289SOL    HW121326   1.759   4.382   3.396 -0.6117 -1.0010 -0.9878
 3289SOL    HW221327   1.626   4.316   3.425 -0.6506 -0.3089  1.4536
 3290SOL     OW21328   0.841   4.422   6.231 -0.2602 -0.1274  0.0848
 3290SOL    HW121329   0.856   4.454   6.320  3.3580 -1.4715 -0.0168
 3290SOL    HW221330   0.872   4.331   6.229  1.7110  0.5773 -2.7375
 3291SOL     OW21331   2.609   3.124   4.532 -0.2530  0.3799 -0.0911
 3291SOL    HW121332   2.704   3.132   4.536  0.0381 -2.2146 -2.1173
 3291SOL    HW221333   2.600   3.049   4.474 -1.4794 -0.5442  1.2762
 3292SOL     OW21334   2.669   2.157   5.029  0.3037 -0.5271  0.5956
 3292SOL    HW121335   2.728   2.093   4.991 -1.1530 -1.8336  0.5133
 3292SOL    HW221336   2.704   2.152   5.118 -0.8153 -1.7135  0.9779
 3293SOL     OW21337   0.744   2.165   3.284 -0.4875  0.3172 -0.2278
 3293SOL    HW121338   0.707   2.250   3.307 -2.4094 -1.0616  1.7488
 3293SOL    HW221339   0.823   2.182   3.232 -0.3472  1.0916  0.2411
 3294SOL     OW21340   3.442   0.714  10.172 -0.0888  0.0003 -0.0678
 3294SOL    HW121341   3.426   0.705  10.266  0.4776  0.5839  0.0827
 3294SOL    HW221342   3.404   0.802  10.177 -0.9662 -0.5112  2.2549
 3295SOL     OW21343   0.636   1.152   7.343  0.1958 -0.3210  0.0706
 3295SOL    HW121344   0.684   1.085   7.392 -0.8241  0.2795  1.8964
 3295SOL    HW221345   0.546   1.124   7.361  0.5609 -1.4298  0.1454
 3296SOL     OW21346   3.196   0.902   3.569  0.0330 -0.0615 -0.4275
 3296SOL    HW121347   3.158   0.825   3.526 -2.9265  0.3025  1.5857
 3296SOL    HW221348   3.122   0.962   3.568 -0.8385 -1.1407 -1.0032
 3297SOL     OW21349   4.548   1.898   5.945  0.3541 -0.2649 -0.2673
 3297SOL    HW121350   4.613   1.962   5.973 -1.7318  1.8367 -0.1885
 3297SOL    HW221351   4.576   1.870   5.858 -1.6454 -0.3150 -0.9036
 3298SOL     OW21352   0.225   0.589   7.391 -0.2212  0.1610 -0.1700
 3298SOL    HW121353   0.272   0.670   7.370  0.0195 -0.2242 -1.1500
 3298SOL    HW221354   0.201   0.601   7.482  1.5067 -0.0098  0.3089
 3299SOL     OW21355   2.677   3.895   8.186 -0.5616 -0.0181 -0.8843
 3299SOL    HW121356   2.584   3.877   8.199  0.3867 -2.8019  1.8097
 3299SOL    HW221357   2.694   3.957   8.257  3.4291 -2.3199  0.1354
 3300SOL     OW21358   1.767   0.417  11.099  0.3879 -0.0691  0.0835
 3300SOL    HW121359   1.830   0.487  11.081 -1.4739  1.0657 -2.1778
 3300SOL    HW221360   1.799   0.355  11.035  0.2224  0.1106 -0.1764
 3301SOL     OW21361   4.226   0.280   6.243  0.5772  0.0538 -0.1199
 3301SOL    HW121362   4.244   0.374   6.243 -2.0013  0.5478  2.9376
 3301SOL    HW221363   4.268   0.259   6.159  1.6450 -0.6626  0.5970
 3302SOL     OW21364   1.608   3.537   5.641  0.2854 -0.1212  0.1037
 3302SOL    HW121365   1.524   3.512   5.603  1.9372 -0.0712 -3.5784
 3302SOL    HW221366   1.616   3.468   5.707 -1.2583  2.2484  2.7411
 3303SOL     OW21367   3.700   0.431   2.672 -0.2287 -0.1628 -0.0887
 3303SOL    HW121368   3.708   0.508   2.727 -0.4369 -1.8910  2.3795
 3303SOL    HW221369   3.788   0.394   2.668  0.6289  1.7997  0.6688
 3304SOL     OW21370   0.318   4.635   6.170  0.0305  0.5379 -0.8339
 3304SOL    HW121371   0.307   4.541   6.186  0.4207  0.5926 -0.2621
 3304SOL    HW221372   0.309   4.674   6.257  2.3415 -1.0372  0.1158
 3305SOL     OW21373   4.557   3.888   5.546 -0.1204  0.1430 -0.3618
 3305SOL    HW121374   4.493   3.840   5.493  0.1760 -0.3694 -0.2552
 3305SOL    HW221375   4.575   3.970   5.501 -1.4949  1.9473  2.3990
 3306SOL     OW21376   3.630   2.997   3.129  0.0718 -0.6938  0.2087
 3306SOL    HW121377   3.580   3.077   3.116  0.4509 -0.4195  0.4328
 3306SOL    HW221378   3.591   2.959   3.208 -2.6274  2.2690  0.2824
 3307SOL     OW21379   2.372   1.791   8.790 -0.0483 -0.2416  0.1901
 3307SOL    HW121380   2.416   1.832   8.715  0.0780  1.1441  1.0374
 3307SOL    HW221381   2.448   1.806   8.846  0.0525 -0.6033  0.1525
 3308SOL     OW21382   1.010   3.944   4.522 -0.7294 -1.5132  0.3444
 3308SOL    HW121383   1.048   4.020   4.479 -0.5869  0.1398  3.3422
 3308SOL    HW221384   1.084   3.910   4.573  0.8116  1.5955  0.1679
 3309SOL     OW21385   0.617   1.486   5.451 -0.2130 -0.0101  0.0718
 3309SOL    HW121386   0.686   1.504   5.513  1.6663  1.8807 -2.5590
 3309SOL    HW221387   0.570   1.568   5.436  1.4438  0.7899 -0.7296
 3310SOL     OW21388   0.914   1.174   8.609  0.0430  0.5137  0.0360
 3310SOL    HW121389   0.822   1.198   8.593 -0.0882  0.2088  0.3178
 3310SOL    HW221390   0.924   1.212   8.696  0.1815 -0.7689  0.5821
 3311SOL     OW21391   3.081   3.392   3.335 -0.0900 -0.5355 -0.0852
 3311SOL    HW121392   3.140   3.459   3.370  0.8306 -1.2095 -0.3439
 3311SOL    HW221393   3.060   3.331   3.406  2.0155 -0.2680  0.7728
 3312SOL     OW21394   3.978   1.113   4.710  0.2885 -0.0516  0.3186
 3312SOL    HW121395   4.026   1.122   4.792 -0.1302  1.0927  0.4432
 3312SOL    HW221396   3.915   1.047   4.739  0.5890 -0.0967  0.8589
 3313SOL     OW21397   2.870   1.851   6.526 -0.2127  0.3209  0.0418
 3313SOL    HW121398   2.896   1.788   6.594  1.1411  1.6053  0.7173
 3313SOL    HW221399   2.915   1.809   6.453  0.4534  0.4236  0.3895
 3314SOL     OW21400   4.661   0.045   5.950  0.0556 -0.1611 -0.4469
 3314SOL    HW121401   4.657   0.025   5.856  1.0330 -0.0241 -0.5206
 3314SOL    HW221402   0.031   0.047   5.966 -0.3234 -1.9633  2.1582
 3315SOL     OW21403   1.700   0.822   5.142 -0.3355  0.6121 -0.2060
 3315SOL    HW121404   1.755   0.884   5.189  0.1484  0.3038 -0.3629
 3315SOL    HW221405   1.767   0.767   5.101 -1.5893 -1.3753  0.3789
 3316SOL     OW21406   0.045   1.446   3.343 -0.2594 -0.0351  0.0649
 3316SOL    HW121407   4.686   1.401   3.348 -0.0960 -0.4367 -0.8713
 3316SOL    HW221408   0.045   1.467   3.250  0.7431  0.7442  0.2387
 3317SOL     OW21409   0.773   0.535  14.760 -0.3580  0.4439  0.1926
 3317SOL    HW121410   0.715   0.609  14.775 -1.5992 -0.4745 -0.0642
 3317SOL    HW221411   0.708   0.467  14.742 -0.5626  0.7471 -0.1967
 3318SOL     OW21412   2.224   2.155   8.785 -0.4635 -0.3657  0.1239
 3318SOL    HW121413   2.140   2.187   8.752  0.3614  3.0572  1.3104
 3318SOL    HW221414   2.186   2.075   8.821  2.3201 -1.0127  1.6929
 3319SOL     OW21415   3.632   3.292   7.643 -0.0521  0.3204 -0.0996
 3319SOL    HW121416   3.605   3.378   7.675  0.0398  0.2769  0.0954
 3319SOL    HW221417   3.676   3.314   7.561 -1.3312  0.6392 -0.7019
 3320SOL     OW21418   3.188   2.835   8.884  0.4488 -0.2804 -0.1219
 3320SOL    HW121419   3.131   2.761   8.863  0.6307 -0.5522  0.3392
 3320SOL    HW221420   3.201   2.818   8.977  0.8814 -0.8115 -0.2796
 3321SOL     OW21421   0.162   2.796  10.111 -0.0868  0.6057 -0.1032
 3321SOL    HW121422   0.090   2.818  10.170 -1.2490 -0.9957 -0.9100
 3321SOL    HW221423   0.193   2.706  10.126 -0.8427  0.2095 -0.9203
 3322SOL     OW21424   1.724   2.583   3.697 -0.1962  0.7190 -0.4924
 3322SOL    HW121425   1.727   2.618   3.608  0.1109 -1.7693 -1.4608
 3322SOL    HW221426   1.782   2.508   3.682 -3.3229 -2.0936  1.3335
 3323SOL     OW21427   4.202   2.986  11.478  0.0431  0.2813  0.0530
 3323SOL    HW121428   4.181   3.077  11.501 -0.0545  0.6981 -1.7128
 3323SOL    HW221429   4.143   2.941  11.539 -0.1220 -2.0801 -1.8719
 3324SOL     OW21430   0.391   3.223   5.117  0.1501 -0.3304  0.2002
 3324SOL    HW121431   0.370   3.315   5.100  0.5682 -0.1928  0.4039
 3324SOL    HW221432   0.320   3.200   5.058  0.9506  0.2805 -0.9875
 3325SOL     OW21433   0.754   1.262   2.299 -0.5698 -0.5073 -0.1483
 3325SOL    HW121434   0.715   1.311   2.227 -1.8783 -0.0317  0.8889
 3325SOL    HW221435   0.788   1.338   2.346 -1.1522 -1.9634  2.6342
 3326SOL     OW21436   4.040   0.426   5.940  0.0200 -0.7269  0.3279
 3326SOL    HW121437   3.991   0.427   5.858 -1.4503 -0.9317  1.2105
 3326SOL    HW221438   4.117   0.370   5.930  0.7592 -0.1473  2.8563
 3327SOL     OW21439   2.022   0.550   8.924 -0.0924 -0.2040  0.2043
 3327SOL    HW121440   2.000   0.613   8.855  0.3725  0.5792  0.7721
 3327SOL    HW221441   1.957   0.570   8.992  0.6692 -1.5114  1.3078
 3328SOL     OW21442   2.472   2.856  11.121  0.0195 -0.0825 -0.5078
 3328SOL    HW121443   2.567   2.842  11.121  0.2511  1.6133 -1.3265
 3328SOL    HW221444   2.469   2.894  11.209 -0.2191 -1.2221 -0.0103
 3329SOL     OW21445   1.052   0.525   5.081 -0.0925 -0.3310  0.1346
 3329SOL    HW121446   1.133   0.548   5.127 -1.6356  2.0858  1.6411
 3329SOL    HW221447   1.092   0.505   4.996 -0.7428  2.1768 -0.7691
 3330SOL     OW21448   1.095   0.454   1.053  0.1710  0.6470 -0.1043
 3330SOL    HW121449   1.067   0.545   1.038  0.1037  0.4773 -0.9951
 3330SOL    HW221450   1.004   0.432   1.075  0.1690 -0.5834 -1.3010
 3331SOL     OW21451   2.344   3.164  10.402  0.0463  0.0721 -0.3760
 3331SOL    HW121452   2.378   3.200  10.320  2.8171  0.0811  0.7755
 3331SOL    HW221453   2.363   3.237  10.461  1.0479 -0.0495 -0.5455
 3332SOL     OW21454   3.335   2.960  17.333  0.1477 -0.2661  0.6237
 3332SOL    HW121455   3.378   2.898  17.273  0.1443 -0.2138  0.5679
 3332SOL    HW221456   3.361   2.943  17.424  1.3719  0.4519  0.4098
 3333SOL     OW21457   1.862   3.858  11.186 -0.3151  0.3153 -0.5074
 3333SOL    HW121458   1.864   3.880  11.279 -0.9391 -1.1188 -0.1589
 3333SOL    HW221459   1.816   3.774  11.183 -1.2620  0.7889  0.5816
 3334SOL     OW21460   1.413   3.345  12.276 -0.7583  0.4909 -0.6893
 3334SOL    HW121461   1.436   3.425  12.324 -2.1301  1.9668 -2.4867
 3334SOL    HW221462   1.439   3.287  12.348  2.8680  3.4365  0.3787
 3335SOL     OW21463   3.336   1.725   4.856 -0.1542 -0.3023  0.1430
 3335SOL    HW121464   3.340   1.796   4.920  1.9901  1.0896 -1.5463
 3335SOL    HW221465   3.241   1.722   4.851 -0.3627  4.1005  1.3543
 3336SOL     OW21466   4.614   2.288   5.936 -0.2972  0.2195  0.3684
 3336SOL    HW121467   4.635   2.312   5.845 -2.2210  1.2168  0.1808
 3336SOL    HW221468   4.704   2.268   5.962 -0.7836 -0.5341  1.4518
 3337SOL     OW21469   3.000   2.749  11.531 -0.1303  0.7393 -0.0636
 3337SOL    HW121470   3.083   2.716  11.565  0.3620  1.6432 -0.3792
 3337SOL    HW221471   2.950   2.742  11.613 -0.7991 -1.1387 -0.6259
 3338SOL     OW21472   2.583   3.627   8.369  0.4573 -0.2443 -0.3540
 3338SOL    HW121473   2.492   3.599   8.359  0.4898 -0.6253  0.4610
 3338SOL    HW221474   2.587   3.701   8.308 -1.1400 -0.7621 -1.1026
 3339SOL     OW21475   1.789   0.826   1.907  0.1508 -0.4174 -0.4306
 3339SOL    HW121476   1.788   0.732   1.924 -0.8225 -0.6007 -1.4906
 3339SOL    HW221477   1.712   0.852   1.957  0.2207  0.6543 -0.8844
 3340SOL     OW21478   1.384   3.009   1.112  0.6747 -0.3039 -0.1503
 3340SOL    HW121479   1.431   3.023   1.194  0.0362  1.1453 -0.0260
 3340SOL    HW221480   1.356   2.918   1.118  2.9253 -0.8299  2.4718
 3341SOL     OW21481   2.571   0.989   5.569 -0.2060 -0.2172  0.4082
 3341SOL    HW121482   2.578   0.911   5.515 -0.0080  0.0127  0.1042
 3341SOL    HW221483   2.585   0.945   5.652 -0.8787  1.6282  1.5146
 3342SOL     OW21484   1.227   2.214   1.308  0.2961 -0.1342  0.0354
 3342SOL    HW121485   1.246   2.131   1.266  1.6065 -0.6031  1.5623
 3342SOL    HW221486   1.233   2.271   1.231 -1.6477 -1.7311 -1.3173
 3343SOL     OW21487   1.893   2.332   7.967  0.0485 -0.3728  0.2633
 3343SOL    HW121488   1.964   2.275   7.994 -0.7994 -0.8307  1.5125
 3343SOL    HW221489   1.818   2.273   7.974  0.3340 -0.7163  0.4245
 3344SOL     OW21490   2.806   3.662   1.250  0.6630 -0.3433  0.0002
 3344SOL    HW121491   2.712   3.680   1.255  0.7176 -0.0175 -0.1814
 3344SOL    HW221492   2.829   3.716   1.175  1.2869 -1.2974 -0.4994
 3345SOL     OW21493   3.694   4.632   2.263  0.4642 -0.1278  0.2306
 3345SOL    HW121494   3.625   4.687   2.300  1.8206  1.8058 -0.1244
 3345SOL    HW221495   3.652   4.591   2.187  1.3538 -2.0750  0.7912
 3346SOL     OW21496   0.641   2.191  12.455 -0.3743 -0.6794 -0.0589
 3346SOL    HW121497   0.613   2.266  12.508 -1.4672 -0.6336 -0.7059
 3346SOL    HW221498   0.554   2.153  12.441 -1.0043  0.5542  0.4757
 3347SOL     OW21499   1.924   3.355   4.850  0.5581 -0.1690 -0.7997
 3347SOL    HW121500   1.967   3.284   4.803 -1.1267 -0.4719 -1.9028
 3347SOL    HW221501   1.961   3.336   4.936 -0.4358 -1.1382 -0.5837
 3348SOL     OW21502   3.360   0.626  15.012  0.2213  0.1000 -0.1677
 3348SOL    HW121503   3.444   0.607  14.969 -0.8144 -2.1986 -1.1835
 3348SOL    HW221504   3.345   0.713  14.975  0.6911  0.0358 -0.5082
 3349SOL     OW21505   4.025   2.641  11.683  0.2020  0.3165 -0.1883
 3349SOL    HW121506   4.091   2.659  11.750  0.7603  0.8033 -0.8799
 3349SOL    HW221507   3.946   2.658  11.734  1.2219  0.8049  1.2238
 3350SOL     OW21508   2.897   3.096  14.582 -0.2123  0.1890 -0.2507
 3350SOL    HW121509   2.806   3.119  14.599 -1.2074 -1.5084 -3.4048
 3350SOL    HW221510   2.940   3.124  14.663  0.9136  2.6213 -1.6755
 3351SOL     OW21511   3.779   4.295  10.169 -0.2993  0.2904  0.0477
 3351SOL    HW121512   3.795   4.330  10.082  2.1871 -0.5319  0.1851
 3351SOL    HW221513   3.835   4.218  10.161 -0.5935  0.2335 -1.3627
 3352SOL     OW21514   0.865   1.201   5.329 -0.5546  0.5194 -0.4997
 3352SOL    HW121515   0.908   1.248   5.257  2.6722 -1.0496  0.3962
 3352SOL    HW221516   0.779   1.232   5.301  0.7749  0.6347 -4.4586
 3353SOL     OW21517   1.443   3.896   5.550  0.1206 -0.2590 -0.3148
 3353SOL    HW121518   1.420   3.879   5.458 -0.1143  1.0192 -0.4958
 3353SOL    HW221519   1.533   3.869   5.535  0.0834 -0.9466  0.7287
 3354SOL     OW21520   1.336   4.237   1.455 -0.3891 -0.2116 -0.4499
 3354SOL    HW121521   1.358   4.149   1.485  0.5311  0.0319 -0.4183
 3354SOL    HW221522   1.410   4.291   1.483 -0.9336 -0.2143  0.9796
 3355SOL     OW21523   1.420   4.045   6.694 -0.1098  0.3233  0.4708
 3355SOL    HW121524   1.506   4.048   6.653 -0.5121  3.1496 -0.1581
 3355SOL    HW221525   1.428   3.984   6.767  3.5018  0.5074  0.2119
 3356SOL     OW21526   1.610   1.192  13.682 -0.0400 -0.1152 -0.2729
 3356SOL    HW121527   1.517   1.175  13.665  0.0432 -0.2501 -0.6006
 3356SOL    HW221528   1.646   1.116  13.637 -0.1308 -0.6545  0.5738
 3357SOL     OW21529   0.110   0.158   6.433  0.1403  0.3951 -0.2841
 3357SOL    HW121530   0.193   0.111   6.430 -0.5533 -0.9230  1.2769
 3357SOL    HW221531   0.089   0.167   6.526 -3.4389  1.7362 -1.2052
 3358SOL     OW21532   1.842   1.123   9.366  0.0688  0.5285  0.1603
 3358SOL    HW121533   1.831   1.133   9.271 -0.1315  2.2955  0.3594
 3358SOL    HW221534   1.798   1.202   9.398 -0.7894  0.6776 -1.3825
 3359SOL     OW21535   0.805   1.275  10.825 -0.3033 -0.0552 -0.1239
 3359SOL    HW121536   0.736   1.315  10.771  1.1024  2.0527 -0.3256
 3359SOL    HW221537   0.779   1.185  10.806 -0.5403  0.0116 -0.1203
 3360SOL     OW21538   2.828   3.451   7.762  0.3602 -0.2190 -0.3528
 3360SOL    HW121539   2.771   3.528   7.755  0.8405  0.1452 -0.2975
 3360SOL    HW221540   2.889   3.490   7.825 -0.7883 -1.3955  1.4734
 3361SOL     OW21541   2.688   4.713   3.686 -0.3367  0.2185 -0.0491
 3361SOL    HW121542   2.761   0.046   3.665 -0.5712 -0.7121 -3.3340
 3361SOL    HW221543   2.623   0.054   3.709  0.6489  0.4527  2.0685
 3362SOL     OW21544   1.563   1.613   7.408 -0.6433  0.2829 -0.2658
 3362SOL    HW121545   1.569   1.598   7.313  1.0508  2.3988 -0.4911
 3362SOL    HW221546   1.581   1.707   7.410 -0.3948  0.2015  1.2083
 3363SOL     OW21547   0.056   2.005   6.011  0.3302  0.0372  0.6604
 3363SOL    HW121548   0.134   2.057   5.994  1.0013 -1.2774 -0.2581
 3363SOL    HW221549   0.038   2.028   6.102  2.2014 -0.7069  1.1928
 3364SOL     OW21550   4.653   0.722   4.472  0.3065  0.6472 -0.1228
 3364SOL    HW121551   4.709   0.687   4.541 -1.3518 -0.4685  0.6526
 3364SOL    HW221552   4.587   0.770   4.522 -0.7351 -1.5040  0.5715
 3365SOL     OW21553   0.948   1.001   5.995  0.5567 -0.5461 -0.9166
 3365SOL    HW121554   0.903   1.015   6.078  0.3621  1.1003 -1.2980
 3365SOL    HW221555   0.872   0.985   5.938 -1.3681 -2.5366  2.2342
 3366SOL     OW21556   0.755   0.186  13.615  0.4733  0.2629  0.0486
 3366SOL    HW121557   0.680   0.238  13.583  0.6995  0.1704 -0.6302
 3366SOL    HW221558   0.781   0.235  13.693 -1.7396  1.7786 -0.1382
 3367SOL     OW21559   1.854   2.905   6.859 -0.2727 -0.2145  0.3150
 3367SOL    HW121560   1.787   2.956   6.904 -1.1864 -2.3994  1.4276
 3367SOL    HW221561   1.802   2.825   6.852 -0.0957 -0.2527 -0.5385
 3368SOL     OW21562   0.587   2.459   1.615  0.9152 -0.5504  0.2118
 3368SOL    HW121563   0.589   2.453   1.711 -3.6622  0.4957  0.3509
 3368SOL    HW221564   0.544   2.379   1.586  0.1558  0.0889 -0.4158
 3369SOL     OW21565   2.528   1.069   6.733 -0.0640 -0.1342 -0.4337
 3369SOL    HW121566   2.594   1.038   6.795  0.1771  0.4045 -0.4184
 3369SOL    HW221567   2.551   1.162   6.728 -0.9405  0.0660 -0.7208
 3370SOL     OW21568   4.503   2.979  12.473  0.8079 -0.0704 -0.2398
 3370SOL    HW121569   4.571   3.045  12.488 -2.0965  3.5167 -2.8637
 3370SOL    HW221570   4.549   2.896  12.487 -1.9684 -1.5750  0.0545
 3371SOL     OW21571   2.512   4.467  11.577 -0.1405 -0.0988  0.0108
 3371SOL    HW121572   2.512   4.372  11.585  4.7670  0.0123  1.3166
 3371SOL    HW221573   2.582   4.492  11.518  1.2207  1.1661  2.1685
 3372SOL     OW21574   2.666   4.096   1.291  0.1578 -0.1411  0.9223
 3372SOL    HW121575   2.683   4.030   1.224 -1.6756  0.9670 -0.6344
 3372SOL    HW221576   2.577   4.070   1.314  0.0687 -0.8044 -0.1426
 3373SOL     OW21577   0.054   1.957   2.403  0.2325 -0.2639  0.0590
 3373SOL    HW121578   0.062   2.048   2.433  3.0534 -0.5147  0.0397
 3373SOL    HW221579   4.688   1.942   2.432 -0.5790 -0.7425 -2.7755
 3374SOL     OW21580   2.121   2.427   4.789 -0.0152 -0.0441 -0.5329
 3374SOL    HW121581   2.151   2.365   4.856  1.3888  2.7315  1.3745
 3374SOL    HW221582   2.188   2.495   4.795  0.5038 -0.5835 -0.2037
 3375SOL     OW21583   1.632   4.423   6.965 -0.0881 -0.4989  0.6161
 3375SOL    HW121584   1.691   4.461   7.031 -0.1594 -0.1032  0.4542
 3375SOL    HW221585   1.610   4.338   7.003 -3.0988  0.7628  1.6164
 3376SOL     OW21586   0.014   1.161  15.481  0.3553 -0.4749 -0.1244
 3376SOL    HW121587   0.017   1.168  15.576  0.4654  1.0040 -0.2459
 3376SOL    HW221588   0.076   1.089  15.470 -1.2423 -1.8186 -0.3938
 3377SOL     OW21589   0.528   4.022  10.208 -0.2759  0.0740 -0.5548
 3377SOL    HW121590   0.608   4.069  10.185 -1.6829  2.7688  0.1429
 3377SOL    HW221591   0.563   3.971  10.281 -1.2319 -3.7298 -2.7302
 3378SOL     OW21592   2.227   1.670   7.779  0.1743 -0.0143  0.8090
 3378SOL    HW121593   2.150   1.707   7.824  0.2740  0.2808  0.7411
 3378SOL    HW221594   2.291   1.686   7.848 -0.5597 -0.2974  1.5619
 3379SOL     OW21595   4.308   4.662   3.576 -0.2506 -0.0218 -0.3217
 3379SOL    HW121596   4.336   4.595   3.639  2.3169 -1.0125 -2.5135
 3379SOL    HW221597   4.252   4.622   3.510 -0.0436 -1.2627  0.2466
 3380SOL     OW21598   4.409   2.861  10.950 -0.1209 -0.4363  0.5474
 3380SOL    HW121599   4.470   2.887  11.020  0.6726 -0.0407 -0.2868
 3380SOL    HW221600   4.457   2.793  10.902  1.1933 -0.6096  2.0874
 3381SOL     OW21601   4.659   2.763   4.257 -0.2196  0.2569  0.4945
 3381SOL    HW121602   4.601   2.703   4.211  0.6213  0.2046 -0.4901
 3381SOL    HW221603   4.598   2.837   4.264  1.0732  1.4724 -0.9448
 3382SOL     OW21604   1.548   0.680  13.588 -0.0987  0.2853 -0.4958
 3382SOL    HW121605   1.461   0.668  13.627  1.0241 -0.1684  1.9011
 3382SOL    HW221606   1.523   0.695  13.497 -2.0250 -1.1476 -0.2114
 3383SOL     OW21607   1.562   4.622  15.206 -0.2402 -0.2004  0.0130
 3383SOL    HW121608   1.542   4.620  15.299  0.7173 -0.2301  0.2222
 3383SOL    HW221609   1.470   4.628  15.180 -0.4842  0.8190  1.1379
 3384SOL     OW21610   3.358   1.514  13.152  0.0250  0.2965 -0.1479
 3384SOL    HW121611   3.426   1.504  13.218 -0.2844 -0.9731 -0.0110
 3384SOL    HW221612   3.337   1.606  13.164 -1.2814 -0.2049  1.2796
 3385SOL     OW21613   0.673   2.844  13.728 -0.3871  0.0503 -0.5041
 3385SOL    HW121614   0.640   2.904  13.796 -0.1155 -0.6200  0.2097
 3385SOL    HW221615   0.767   2.859  13.741 -1.2235  2.3860  2.8226
 3386SOL     OW21616   2.381   1.215  10.314  0.4583  0.2027 -0.5977
 3386SOL    HW121617   2.390   1.236  10.221  2.3586  0.4370 -0.3746
 3386SOL    HW221618   2.301   1.264  10.330  0.6627  0.2793  0.1795
 3387SOL     OW21619   4.152   1.187   6.609  0.4946 -0.3357 -0.4583
 3387SOL    HW121620   4.205   1.187   6.529  0.1355 -0.6947 -0.6960
 3387SOL    HW221621   4.078   1.132   6.583  0.9018 -0.0402 -2.2719
 3388SOL     OW21622   3.012   0.423  11.248 -0.0496  0.3310  0.3500
 3388SOL    HW121623   3.068   0.430  11.326 -2.7507 -1.5376  2.4553
 3388SOL    HW221624   2.972   0.510  11.239  1.2856  0.9641  0.5303
 3389SOL     OW21625   2.045   0.683  16.822  0.1710  0.1523  0.2487
 3389SOL    HW121626   2.052   0.761  16.766 -1.9453 -1.0407 -1.6723
 3389SOL    HW221627   2.124   0.637  16.793  0.2117  1.1657 -1.2717
 3390SOL     OW21628   3.632   2.986   2.668  0.1609 -0.2069 -0.6827
 3390SOL    HW121629   3.605   3.047   2.736 -0.9588  0.2244 -1.5066
 3390SOL    HW221630   3.650   3.048   2.598 -0.0861  2.6792  1.8119
 3391SOL     OW21631   3.584   0.146   6.719 -0.0316  0.2280  0.1966
 3391SOL    HW121632   3.502   0.171   6.762  0.1231 -0.1639  0.7233
 3391SOL    HW221633   3.631   0.093   6.783 -2.8247  0.8680  2.7857
 3392SOL     OW21634   0.945   4.165   5.095 -0.4685  0.3431  0.2257
 3392SOL    HW121635   0.895   4.132   5.171 -0.4534 -2.0041 -0.7779
 3392SOL    HW221636   0.961   4.254   5.126 -2.7789  1.1551 -0.8951
 3393SOL     OW21637   0.906   3.712   4.618  1.0218  0.4624 -0.3614
 3393SOL    HW121638   0.953   3.699   4.700 -0.6502 -0.0217  0.5312
 3393SOL    HW221639   0.942   3.797   4.593 -3.7070  2.4351 -0.5676
 3394SOL     OW21640   4.162   1.923  13.215 -0.3096 -0.9389 -0.1342
 3394SOL    HW121641   4.155   2.015  13.188  0.9845 -0.5293  0.8885
 3394SOL    HW221642   4.147   1.925  13.310  0.2842  0.9951 -0.0729
 3395SOL     OW21643   4.487   4.550   5.686  0.4470  0.3353 -0.5387
 3395SOL    HW121644   4.534   4.633   5.694  0.3433  0.0935  2.7507
 3395SOL    HW221645   4.533   4.513   5.610 -0.9720  0.1739 -1.3145
 3396SOL     OW21646   1.212   1.921  11.376 -0.5408 -0.3598  0.5568
 3396SOL    HW121647   1.232   1.838  11.418  0.9155 -0.5693 -0.5626
 3396SOL    HW221648   1.290   1.971  11.400 -0.6484  0.5032 -0.8516
 3397SOL     OW21649   1.447   0.644   8.811  0.6645  0.5770 -0.1241
 3397SOL    HW121650   1.510   0.716   8.806  1.5118 -0.3389 -2.3999
 3397SOL    HW221651   1.416   0.664   8.899  1.1887  0.2308  0.1370
 3398SOL     OW21652   2.065   4.628  11.606  0.2511  0.3026  0.0131
 3398SOL    HW121653   2.015   4.700  11.645 -0.4312 -0.1176 -0.0889
 3398SOL    HW221654   2.103   4.676  11.532  0.4845  1.1769  0.6923
 3399SOL     OW21655   1.408   0.591   6.011 -0.5545  0.2196 -0.0432
 3399SOL    HW121656   1.449   0.523   5.957 -1.2507  0.1604 -0.4978
 3399SOL    HW221657   1.475   0.597   6.079 -1.7863  1.2909  1.0738
 3400SOL     OW21658   4.717   3.017   8.012 -0.2745  0.0996 -0.4618
 3400SOL    HW121659   4.693   2.926   7.995 -2.7637  0.6292  0.2029
 3400SOL    HW221660   4.630   3.041   8.047  0.3169 -0.3690  1.3675
 3401SOL     OW21661   4.630   4.218   1.834 -0.3008 -0.0213  0.4418
 3401SOL    HW121662   4.719   4.252   1.842 -0.2071  0.1456 -1.3842
 3401SOL    HW221663   4.611   4.275   1.759 -0.2675  0.5953  0.8979
 3402SOL     OW21664   2.807   0.060  15.096 -0.0056 -0.2224  0.3891
 3402SOL    HW121665   2.855   4.703  15.098  0.0073 -0.2652 -1.8156
 3402SOL    HW221666   2.719   0.026  15.111  0.3074 -0.4951  1.5879
 3403SOL     OW21667   0.961   3.634   4.179 -0.0979  0.5750  0.1375
 3403SOL    HW121668   0.953   3.546   4.143  0.5688  0.2483  0.8064
 3403SOL    HW221669   0.886   3.653   4.235  0.2455 -0.0538  0.8097
 3404SOL     OW21670   2.553   2.861   9.254 -0.1911 -0.1045  0.4723
 3404SOL    HW121671   2.551   2.828   9.344  3.5729 -0.2608  0.5191
 3404SOL    HW221672   2.506   2.796   9.202  1.1065 -0.6516 -0.0157
 3405SOL     OW21673   1.059   2.595  16.242 -0.5005 -0.5200  0.0225
 3405SOL    HW121674   0.988   2.534  16.262  1.3706 -1.3918  4.1641
 3405SOL    HW221675   1.023   2.683  16.248  1.1603  0.0578  1.5516
 3406SOL     OW21676   4.673   2.181   3.741  0.1886 -0.1432 -0.1777
 3406SOL    HW121677   0.015   2.246   3.761  1.7955 -1.6244 -0.7485
 3406SOL    HW221678   0.009   2.114   3.709 -1.7416 -2.0032  0.0715
 3407SOL     OW21679   4.057   3.217   9.362 -0.0747 -0.8849  0.2018
 3407SOL    HW121680   4.099   3.288   9.314 -3.1890  0.1883 -0.9812
 3407SOL    HW221681   3.989   3.269   9.406  0.2194  0.8580 -1.4140
 3408SOL     OW21682   4.540   1.012   0.503 -0.0680  0.2709  0.7694
 3408SOL    HW121683   4.588   0.930   0.489  1.0397  0.7268  1.9716
 3408SOL    HW221684   4.571   1.071   0.434 -0.7899 -0.7775 -0.4453
 3409SOL     OW21685   3.894   0.549   9.417  0.0860  0.4646 -0.2720
 3409SOL    HW121686   3.931   0.481   9.473 -3.3295 -1.7787 -0.6781
 3409SOL    HW221687   3.806   0.561   9.453 -0.3182  0.1419 -1.1468
 3410SOL     OW21688   2.812   0.576  10.552 -0.0682  0.5788 -0.6012
 3410SOL    HW121689   2.773   0.646  10.604  0.6985 -0.7150  1.6808
 3410SOL    HW221690   2.894   0.620  10.529  0.9566 -0.8448  0.3383
 3411SOL     OW21691   0.920   3.773   9.124  0.0324  0.3365  0.1099
 3411SOL    HW121692   0.854   3.832   9.088 -0.2700  0.5568  1.0506
 3411SOL    HW221693   0.990   3.838   9.131  0.4087  0.1092 -1.4135
 3412SOL     OW21694   1.825   0.897   9.996  0.3005 -0.1216 -0.0176
 3412SOL    HW121695   1.844   0.866  10.085 -0.9087  0.2884  0.3874
 3412SOL    HW221696   1.881   0.840   9.944  0.9891  0.3203  0.2351
 3413SOL     OW21697   3.552   4.088   7.678  0.8280 -0.1514  0.1125
 3413SOL    HW121698   3.502   4.011   7.651  2.3397 -1.8653  2.1493
 3413SOL    HW221699   3.594   4.065   7.761  0.6914  0.4760  0.3571
 3414SOL     OW21700   0.088   1.792  11.058 -0.0517  0.5475 -0.2158
 3414SOL    HW121701   0.038   1.773  10.979 -0.7185  1.5231 -0.0346
 3414SOL    HW221702   0.176   1.792  11.022  0.1426  1.5795  0.2437
 3415SOL     OW21703   0.735   1.939  16.432  0.2857  0.3755  0.7381
 3415SOL    HW121704   0.704   1.883  16.504  1.1130 -0.6429  0.2964
 3415SOL    HW221705   0.662   2.000  16.425  1.4369  1.5466 -0.8514
 3416SOL     OW21706   0.011   3.508   4.384 -0.3278  0.0274  0.2220
 3416SOL    HW121707   4.685   3.526   4.463  0.9289 -0.5926  1.1598
 3416SOL    HW221708   0.056   3.592   4.376 -1.1308  0.4585  0.1537
 3417SOL     OW21709   2.287   1.572  10.577  0.1740  0.0522 -0.1511
 3417SOL    HW121710   2.327   1.610  10.654  2.0927 -0.9918 -0.6157
 3417SOL    HW221711   2.210   1.627  10.587 -1.0140 -1.2743 -1.8908
 3418SOL     OW21712   2.660   0.557   3.264  0.1172 -0.1897  0.1517
 3418SOL    HW121713   2.752   0.569   3.242  0.4560 -0.0873  1.6140
 3418SOL    HW221714   2.646   0.608   3.344 -1.0190  0.4727 -0.4602
 3419SOL     OW21715   3.910   3.660   6.694 -0.1627 -0.4139  0.2587
 3419SOL    HW121716   3.886   3.604   6.768 -0.7697  1.2819  1.3393
 3419SOL    HW221717   3.902   3.598   6.621 -3.0243  0.2211  0.0630
 3420SOL     OW21718   2.759   3.153   0.325  0.5149 -0.2324 -0.1135
 3420SOL    HW121719   2.825   3.174   0.259 -0.1138  0.2525 -0.5916
 3420SOL    HW221720   2.792   3.066   0.346  1.0349  0.1060  0.4575
 3421SOL     OW21721   0.797   0.219   6.503  0.3694 -0.6281 -0.1686
 3421SOL    HW121722   0.884   0.237   6.469  0.3517 -2.9332 -1.4074
 3421SOL    HW221723   0.750   0.301   6.488  1.8031  0.4468  1.2370
 3422SOL     OW21724   2.505   1.447   7.846  0.1639 -0.4023  0.1251
 3422SOL    HW121725   2.477   1.516   7.906  0.3461 -1.4083  1.3474
 3422SOL    HW221726   2.573   1.488   7.792  1.2685  0.1113  1.9197
 3423SOL     OW21727   2.873   2.467   5.714 -0.1108 -0.4688 -0.3777
 3423SOL    HW121728   2.783   2.473   5.746 -1.2706 -0.0971 -3.8265
 3423SOL    HW221729   2.915   2.532   5.771 -0.3716  2.0898 -3.1049
 3424SOL     OW21730   1.176   3.100   7.723  0.5912 -0.3918 -0.5177
 3424SOL    HW121731   1.137   3.184   7.747 -0.2183 -1.0929  0.6183
 3424SOL    HW221732   1.227   3.074   7.801  0.9369  2.5646  0.2473
 3425SOL     OW21733   2.923   3.392   5.981 -0.2494 -0.5742 -0.1437
 3425SOL    HW121734   2.848   3.380   6.040  1.1135 -1.9056  1.3264
 3425SOL    HW221735   2.903   3.314   5.930 -0.8153 -1.5002  1.4645
 3426SOL     OW21736   0.513   0.677   3.869 -0.5203  0.4782 -0.5440
 3426SOL    HW121737   0.581   0.666   3.936 -2.0762  0.1092  0.9578
 3426SOL    HW221738   0.438   0.696   3.925 -0.9699  0.7467 -1.2347
 3427SOL     OW21739   1.324   0.904   3.962  0.4890  0.0464 -0.4348
 3427SOL    HW121740   1.268   0.971   4.002 -1.2147 -1.2717 -0.5901
 3427SOL    HW221741   1.401   0.907   4.019 -0.1204 -0.7898  0.4440
 3428SOL     OW21742   2.853   2.505   8.593 -0.0873 -0.3124  0.2136
 3428SOL    HW121743   2.782   2.497   8.529  0.6953 -0.9839 -0.5689
 3428SOL    HW221744   2.818   2.453   8.665  1.2887 -1.4369  0.0567
 3429SOL     OW21745   1.626   2.968   4.168  0.6259  0.9732 -0.9360
 3429SOL    HW121746   1.582   2.885   4.186  1.8561 -0.1868 -3.1081
 3429SOL    HW221747   1.550   3.021   4.144  0.0424  0.2556 -0.6697
 3430SOL     OW21748   2.473   3.988   1.467 -0.1391 -0.3624  0.1685
 3430SOL    HW121749   2.458   3.894   1.451  2.1090 -0.8827  1.1670
 3430SOL    HW221750   2.402   4.026   1.519  0.6280  0.3834  0.6554
 3431SOL     OW21751   0.302   0.562   4.856 -0.1677 -0.3206  0.1211
 3431SOL    HW121752   0.284   0.598   4.943 -0.1627  0.9452 -0.4031
 3431SOL    HW221753   0.386   0.603   4.834  0.0297 -2.3787 -2.8454
 3432SOL     OW21754   3.847   2.047   2.584  0.3724  0.7577 -0.0800
 3432SOL    HW121755   3.934   2.053   2.544  0.3994  0.9558  0.0076
 3432SOL    HW221756   3.822   2.139   2.596 -1.0775  0.3328  0.1436
 3433SOL     OW21757   1.338   1.733   2.436 -0.1423 -0.2347  0.0876
 3433SOL    HW121758   1.271   1.669   2.457  0.4052  0.2372  3.3555
 3433SOL    HW221759   1.413   1.675   2.425 -0.1894 -0.0913 -0.9847
 3434SOL     OW21760   1.869   2.346  16.083 -0.9590 -0.0367 -0.0307
 3434SOL    HW121761   1.960   2.373  16.070 -2.0304  2.5890 -1.9292
 3434SOL    HW221762   1.844   2.382  16.168  2.2402  0.6886  0.5835
 3435SOL     OW21763   0.413   3.802   6.435 -0.4746  0.0278 -0.0250
 3435SOL    HW121764   0.399   3.782   6.342  0.0101  0.4772 -0.1943
 3435SOL    HW221765   0.427   3.712   6.465 -0.7078 -1.2415 -3.7424
 3436SOL     OW21766   1.194   3.892   4.698 -0.0870 -0.4996  0.4294
 3436SOL    HW121767   1.186   3.847   4.783  2.5681 -3.0454 -0.6379
 3436SOL    HW221768   1.285   3.870   4.676 -0.4454 -1.4750 -0.0689
 3437SOL     OW21769   3.709   3.793  10.089 -0.2535  0.3303 -0.2351
 3437SOL    HW121770   3.709   3.851  10.013 -0.8546  2.6008  1.4998
 3437SOL    HW221771   3.721   3.853  10.163  1.0631  0.4960 -0.5719
 3438SOL     OW21772   1.722   3.051   2.210  0.0729  0.7398 -0.1021
 3438SOL    HW121773   1.636   3.046   2.168 -0.3977 -0.4138  0.9883
 3438SOL    HW221774   1.764   3.124   2.164 -1.0938  0.7496 -1.1610
 3439SOL     OW21775   4.007   0.882   6.834 -0.8391  0.2409 -0.1632
 3439SOL    HW121776   4.097   0.908   6.854 -1.3668  2.9513 -1.3511
 3439SOL    HW221777   4.014   0.787   6.841  1.3309  0.3195 -1.1791
 3440SOL     OW21778   1.695   4.616  11.859 -0.2647 -0.5265  0.1304
 3440SOL    HW121779   1.670   4.599  11.950 -1.2402 -1.4920 -0.3164
 3440SOL    HW221780   1.775   4.665  11.876 -0.3369 -0.8096  1.2775
 3441SOL     OW21781   0.143   3.801   2.860 -0.0698  0.3704  0.0162
 3441SOL    HW121782   0.152   3.891   2.827 -1.8050  0.4132 -0.3514
 3441SOL    HW221783   0.151   3.754   2.777 -1.6823 -1.1068  0.7041
 3442SOL     OW21784   3.251   0.714   2.630  0.4851  0.1862  0.3128
 3442SOL    HW121785   3.314   0.687   2.563  1.5223  1.6141  0.7118
 3442SOL    HW221786   3.241   0.805   2.603  1.3517 -0.3494 -1.8568
 3443SOL     OW21787   3.611   2.404  14.982  0.2597  0.0879  0.1688
 3443SOL    HW121788   3.695   2.449  14.987 -0.2069  1.1726 -2.1059
 3443SOL    HW221789   3.573   2.423  14.896  0.6239  2.1148  0.4765
 3444SOL     OW21790   0.204   1.798   1.700 -0.0842  0.2031 -0.2055
 3444SOL    HW121791   0.177   1.714   1.662 -0.1007  0.0939  0.0520
 3444SOL    HW221792   0.125   1.826   1.746 -0.0305 -0.7757  0.4751
 3445SOL     OW21793   1.178   4.179   8.032  0.0634  0.6997 -0.2050
 3445SOL    HW121794   1.111   4.115   8.055  0.5771 -1.0125 -3.4302
 3445SOL    HW221795   1.135   4.261   8.056 -0.1711  0.0595  1.6058
 3446SOL     OW21796   3.681   0.359   4.828 -0.4170  0.2342  0.0646
 3446SOL    HW121797   3.611   0.369   4.892  1.3015  2.0884  1.6474
 3446SOL    HW221798   3.654   0.275   4.791  2.5609  0.0932 -1.7711
 3447SOL     OW21799   4.239   4.519   8.828  0.6448 -0.6400 -0.4328
 3447SOL    HW121800   4.231   4.614   8.839  0.2985 -0.6534 -0.5839
 3447SOL    HW221801   4.253   4.501   8.735 -1.6142  2.0282 -1.2699
 3448SOL     OW21802   4.063   1.962   7.328  0.4561  0.1408  0.0205
 3448SOL    HW121803   4.040   2.054   7.317 -1.0855 -0.2442  0.0070
 3448SOL    HW221804   4.046   1.950   7.422  0.1552  0.3204 -0.0118
 3449SOL     OW21805   1.330   4.346   8.324  0.0423 -0.3796 -0.1291
 3449SOL    HW121806   1.255   4.335   8.266 -1.3334  0.9858  1.3913
 3449SOL    HW221807   1.389   4.284   8.283 -0.6421 -2.0589  1.4059
 3450SOL     OW21808   0.911   3.749   5.468 -0.2012  0.1922 -0.2694
 3450SOL    HW121809   0.831   3.716   5.509  1.0491 -0.0829  1.9466
 3450SOL    HW221810   0.878   3.773   5.381  1.2222  0.7930 -0.6519
 3451SOL     OW21811   0.382   4.719   7.813 -0.1644  0.0339  0.1036
 3451SOL    HW121812   0.380   0.069   7.872 -0.5478 -0.3951  0.6302
 3451SOL    HW221813   0.398   4.655   7.881  3.1417  0.4724 -0.2832
 3452SOL     OW21814   2.992   1.870   0.536  0.0477 -0.2470  0.0432
 3452SOL    HW121815   2.986   1.965   0.520 -0.1421 -0.6911 -2.4767
 3452SOL    HW221816   3.043   1.836   0.462  0.0499  1.6448 -0.8393
 3453SOL     OW21817   3.342   2.778  12.248  0.2767 -0.3337  0.2092
 3453SOL    HW121818   3.350   2.801  12.156 -1.5667  3.0210  0.8964
 3453SOL    HW221819   3.258   2.818  12.270  0.1233 -0.8751  0.5983
 3454SOL     OW21820   2.096   2.053  13.994 -0.3693 -0.3089 -0.1886
 3454SOL    HW121821   2.136   2.124  14.044 -0.6204  1.8038 -2.9857
 3454SOL    HW221822   2.008   2.090  13.992 -0.7668 -1.1624  1.3438
 3455SOL     OW21823   2.068   0.077  13.935 -0.1815  0.2391 -0.1752
 3455SOL    HW121824   1.985   0.090  13.891 -0.7231 -2.4462  0.0367
 3455SOL    HW221825   2.097   0.008  13.875 -0.6521 -0.1354  0.0232
 3456SOL     OW21826   4.528   1.003  17.069  0.2110 -0.6917  0.0089
 3456SOL    HW121827   4.515   1.034  16.979  1.8314  1.4380  0.4999
 3456SOL    HW221828   4.494   1.077  17.121  0.8507  0.0161 -0.5769
 3457SOL     OW21829   2.732   1.801   7.920  0.3663  0.9623  0.6330
 3457SOL    HW121830   2.697   1.835   8.002 -0.4380  0.8392  0.3401
 3457SOL    HW221831   2.808   1.857   7.907  2.4322 -1.9834 -0.1957
 3458SOL     OW21832   2.786   3.216  13.292  0.2988 -0.1448 -0.8701
 3458SOL    HW121833   2.853   3.186  13.353 -1.1776 -2.0261 -0.1440
 3458SOL    HW221834   2.719   3.150  13.312  0.7451 -0.3437 -0.0110
 3459SOL     OW21835   4.461   3.745   8.792  0.4077  0.0989 -0.0937
 3459SOL    HW121836   4.545   3.701   8.809  1.2196  1.9497  0.7368
 3459SOL    HW221837   4.402   3.670   8.789  2.8908 -1.9118  0.6992
 3460SOL     OW21838   0.575   1.517   5.830  0.1649 -0.1962  0.2343
 3460SOL    HW121839   0.606   1.492   5.917 -1.4645  1.0994  1.1840
 3460SOL    HW221840   0.659   1.515   5.784 -0.4154  0.0894 -0.8387
 3461SOL     OW21841   0.456   0.228   3.022 -0.0479 -0.9027 -0.2298
 3461SOL    HW121842   0.474   0.263   3.109 -2.1959 -1.0448  0.2689
 3461SOL    HW221843   0.375   0.278   3.012  0.0331 -1.1161 -1.9888
 3462SOL     OW21844   1.060   2.061   4.469 -0.2676 -0.2706 -0.5072
 3462SOL    HW121845   1.087   1.987   4.523  1.1737  0.2285 -0.5285
 3462SOL    HW221846   1.122   2.041   4.398  1.0912  1.2589  0.2500
 3463SOL     OW21847   3.912   0.822   2.766  0.0208  0.3475  0.3284
 3463SOL    HW121848   3.874   0.909   2.749  0.0367  0.0188 -1.4044
 3463SOL    HW221849   3.999   0.853   2.792  2.0488 -3.0541 -2.4526
 3464SOL     OW21850   3.383   1.061   4.481  0.4479 -0.0061 -0.7800
 3464SOL    HW121851   3.319   1.122   4.445 -0.4016 -0.8315 -0.6579
 3464SOL    HW221852   3.327   1.030   4.552  0.2001 -0.4529 -1.1654
 3465SOL     OW21853   0.657   2.197   8.338 -0.1231 -0.8535  0.0981
 3465SOL    HW121854   0.727   2.140   8.370  0.9098  0.5581  0.3659
 3465SOL    HW221855   0.690   2.281   8.370  0.3246 -1.4340  1.1344
 3466SOL     OW21856   0.569   1.739   6.473  0.3962  0.6081 -0.8741
 3466SOL    HW121857   0.496   1.759   6.414 -1.7410  1.0155  1.8556
 3466SOL    HW221858   0.640   1.764   6.414 -0.2431  1.8769 -1.1070
 3467SOL     OW21859   0.583   2.830   6.822 -0.2640  0.0336 -0.2549
 3467SOL    HW121860   0.620   2.756   6.774 -1.6404 -2.0077  1.7978
 3467SOL    HW221861   0.661   2.840   6.877 -0.5842 -1.8524  0.5494
 3468SOL     OW21862   2.565   2.268   4.802  0.1711  0.0349  0.2659
 3468SOL    HW121863   2.573   2.229   4.888 -1.0282  1.3470  0.9675
 3468SOL    HW221864   2.628   2.338   4.818  2.2325 -1.3700 -1.7123
 3469SOL     OW21865   3.523   2.371   2.822  0.0881 -0.6655 -0.2558
 3469SOL    HW121866   3.491   2.358   2.911  0.3777  0.1949 -0.0314
 3469SOL    HW221867   3.492   2.299   2.766  3.1533 -2.1670 -0.0402
 3470SOL     OW21868   1.596   4.291   3.712 -0.1091 -0.0880 -0.1471
 3470SOL    HW121869   1.654   4.318   3.783 -0.0569  0.3851 -0.3721
 3470SOL    HW221870   1.633   4.333   3.634  0.2345  2.0078  1.1587
 3471SOL     OW21871   3.479   1.020   3.018  0.0896 -0.1005 -0.7006
 3471SOL    HW121872   3.475   0.950   3.083  0.9954 -0.3841 -0.9529
 3471SOL    HW221873   3.534   0.987   2.946  0.7340  1.9684 -1.1523
 3472SOL     OW21874   3.112   4.620   6.998 -0.1689  0.1515  0.3448
 3472SOL    HW121875   3.110   4.668   6.916  1.4339 -0.9617 -0.3630
 3472SOL    HW221876   3.026   4.638   7.035 -0.3204  1.3853 -0.6253
 3473SOL     OW21877   0.090   3.421   7.930  0.1575 -0.1396  0.0998
 3473SOL    HW121878   0.072   3.411   7.837 -1.2017 -0.9472  0.4531
 3473SOL    HW221879   0.185   3.433   7.923 -0.0264  0.3644 -1.4908
 3474SOL     OW21880   3.833   3.569   4.986  0.0197  0.1147  0.0890
 3474SOL    HW121881   3.805   3.596   4.898 -1.2799 -0.8993  0.1808
 3474SOL    HW221882   3.838   3.473   4.983 -1.4414  0.0318  0.0965
 3475SOL     OW21883   1.532   0.224   8.099 -0.2396 -0.5833  0.4203
 3475SOL    HW121884   1.572   0.290   8.155  1.3070 -0.0757 -1.2689
 3475SOL    HW221885   1.459   0.275   8.064  0.8203 -1.8385 -3.6581
 3476SOL     OW21886   0.385   3.935   1.900 -0.2721 -0.4050  0.8128
 3476SOL    HW121887   0.307   3.956   1.848 -0.0960 -0.8967  0.3558
 3476SOL    HW221888   0.424   3.862   1.853  1.5414 -0.2998  2.1646
 3477SOL     OW21889   1.796   4.699   8.380 -0.2468  0.6073 -0.2600
 3477SOL    HW121890   1.879   4.666   8.415 -0.2994  0.6688 -0.0742
 3477SOL    HW221891   1.825   0.035   8.312  1.5047  1.1039  0.9131
 3478SOL     OW21892   2.778   4.646   0.851  0.0421 -0.4999 -0.2789
 3478SOL    HW121893   2.858   4.658   0.902 -0.0536  0.3603 -0.3232
 3478SOL    HW221894   2.805   4.670   0.763 -0.9243  0.1356 -0.4117
 3479SOL     OW21895   3.094   0.664   7.827  0.3932 -0.1325  0.4304
 3479SOL    HW121896   3.172   0.700   7.786 -0.3149 -0.3765 -1.1437
 3479SOL    HW221897   3.032   0.737   7.820  2.3592  1.3463 -1.2400
 3480SOL     OW21898   0.937   3.681   2.976  0.1595 -0.1682  0.2515
 3480SOL    HW121899   0.967   3.737   2.904  1.8358 -1.2058  0.1361
 3480SOL    HW221900   0.894   3.740   3.038  1.2224 -0.7546  1.5465
 3481SOL     OW21901   4.604   1.115  14.705  0.2841 -0.0882  0.5830
 3481SOL    HW121902   4.649   1.068  14.774 -0.3621 -0.3002  0.8583
 3481SOL    HW221903   4.676   1.170  14.674  1.2842 -0.9183  1.4904
 3482SOL     OW21904   3.363   4.322   5.603  0.5816 -0.0728  0.1660
 3482SOL    HW121905   3.430   4.255   5.592  0.9072  0.4006 -0.6955
 3482SOL    HW221906   3.357   4.329   5.699  0.3883 -1.2284  0.2338
 3483SOL     OW21907   1.510   2.677   7.656 -0.5457 -0.0850 -0.1000
 3483SOL    HW121908   1.428   2.689   7.703  0.1608  0.3495  1.0396
 3483SOL    HW221909   1.492   2.669   7.563  2.2567 -1.4708 -0.5421
 3484SOL     OW21910   2.879   1.510   5.516 -0.6143  0.0995 -0.1626
 3484SOL    HW121911   2.819   1.460   5.462  0.0136 -1.3960  0.5317
 3484SOL    HW221912   2.855   1.455   5.591 -0.9472 -0.9279 -1.0244
 3485SOL     OW21913   3.941   1.246   7.843  0.0025 -0.0119 -0.3957
 3485SOL    HW121914   3.917   1.165   7.887 -0.7313 -0.3223 -1.3628
 3485SOL    HW221915   4.034   1.247   7.863 -0.0055 -1.3838 -0.2817
 3486SOL     OW21916   3.395   1.643   8.045  0.2727  0.1397 -0.0142
 3486SOL    HW121917   3.382   1.729   8.005 -0.4592  0.0021 -0.0743
 3486SOL    HW221918   3.308   1.609   8.068  0.1637  1.1679  1.0827
 3487SOL     OW21919   3.308   2.650   0.380  0.1383 -0.0739  0.5048
 3487SOL    HW121920   3.368   2.669   0.308 -0.7025 -2.4095 -0.7818
 3487SOL    HW221921   3.260   2.573   0.352  1.2626 -1.4479  2.3610
 3488SOL     OW21922   2.722   3.262  14.371 -0.4652 -0.5040  0.4118
 3488SOL    HW121923   2.740   3.169  14.358 -0.8513 -0.8546  2.4745
 3488SOL    HW221924   2.646   3.264  14.429 -1.2377 -1.5269 -0.5762
 3489SOL     OW21925   1.452   3.957   9.443  0.4548 -0.0138  0.0717
 3489SOL    HW121926   1.370   4.006   9.455  1.5039  1.9545 -0.7534
 3489SOL    HW221927   1.457   3.897   9.518 -0.8419  1.3853  1.2869
 3490SOL     OW21928   4.003   0.717   5.430  0.1003 -0.2889  0.1937
 3490SOL    HW121929   4.010   0.651   5.361  0.8035 -0.5406  0.5174
 3490SOL    HW221930   3.994   0.799   5.381 -2.6396  0.8939  2.6675
 3491SOL     OW21931   4.470   4.087  17.536  0.5113  0.1358  0.0883
 3491SOL    HW121932   4.556   4.102  17.497  0.9119  1.0586  1.3350
 3491SOL    HW221933   4.499   4.020  17.598 -1.2858 -1.4064 -0.7148
 3492SOL     OW21934   3.820   3.938   6.600 -0.4086 -1.0093 -0.2609
 3492SOL    HW121935   3.845   3.850   6.629  1.0667 -0.3271  0.5233
 3492SOL    HW221936   3.903   3.984   6.593  0.3217 -2.0532  1.6362
 3493SOL     OW21937   4.466   0.947  12.410  0.0057  0.1600 -0.0961
 3493SOL    HW121938   4.426   1.034  12.411 -0.8466 -0.2748  2.6930
 3493SOL    HW221939   4.531   0.948  12.480 -0.0410 -0.9041 -0.0459
 3494SOL     OW21940   1.287   0.655   9.595  0.0937 -0.2183 -0.0400
 3494SOL    HW121941   1.200   0.642   9.556 -0.0378 -1.7293  0.7539
 3494SOL    HW221942   1.297   0.746   9.567 -0.2641  0.6760  2.8316
 3495SOL     OW21943   1.105   4.480   6.040  0.0610  0.0047  0.6136
 3495SOL    HW121944   1.029   4.538   6.047 -1.6576 -2.4306  2.0793
 3495SOL    HW221945   1.106   4.441   6.127  0.9742 -1.0328  0.1365
 3496SOL     OW21946   2.965   1.183  11.558 -0.3048  0.4923 -0.3861
 3496SOL    HW121947   2.989   1.274  11.539  3.1984 -0.4931 -0.5947
 3496SOL    HW221948   2.874   1.180  11.588  0.1312  2.8072  1.1906
 3497SOL     OW21949   2.945   4.139  13.245  0.3629 -0.3140 -0.4551
 3497SOL    HW121950   3.031   4.101  13.263 -0.5098 -2.5637 -1.0291
 3497SOL    HW221951   2.939   4.206  13.314 -1.5516  0.1902 -1.1102
 3498SOL     OW21952   3.343   4.131   1.224  0.1958 -0.5986 -0.0888
 3498SOL    HW121953   3.360   4.147   1.131  0.0286 -0.3009 -0.0664
 3498SOL    HW221954   3.384   4.048   1.251  2.6231 -0.0097 -1.8816
 3499SOL     OW21955   0.180   2.735   2.665  0.2954 -0.4413 -0.3559
 3499SOL    HW121956   0.148   2.744   2.576  0.9322 -0.2865 -0.5675
 3499SOL    HW221957   0.235   2.813   2.657 -0.8967  0.4422  0.0108
 3500SOL     OW21958   1.369   0.296   3.287  0.0886 -0.2804 -0.1813
 3500SOL    HW121959   1.338   0.345   3.363 -1.1424 -0.2894 -0.6756
 3500SOL    HW221960   1.278   0.283   3.261 -0.6833  2.5258  1.1278
 3501SOL     OW21961   4.256   3.955   4.406  0.6093  0.1696 -0.0697
 3501SOL    HW121962   4.207   3.887   4.452 -0.8233  1.3368  0.1102
 3501SOL    HW221963   4.288   3.914   4.326 -0.6962 -0.0958 -0.4521
 3502SOL     OW21964   3.435   2.607   5.100 -0.2302  0.3630  0.1218
 3502SOL    HW121965   3.508   2.608   5.038 -0.4927  0.6611 -0.1848
 3502SOL    HW221966   3.475   2.633   5.183 -0.6753  0.5552  0.2752
 3503SOL     OW21967   1.518   2.825  13.518  0.2697  0.0634  0.3709
 3503SOL    HW121968   1.589   2.764  13.537  2.6592  3.8934  3.7929
 3503SOL    HW221969   1.485   2.834  13.608  0.6872 -1.0992  0.6425
 3504SOL     OW21970   0.437   1.455   2.476  0.0208  0.0968 -0.0914
 3504SOL    HW121971   0.397   1.493   2.397  2.3853  1.8341 -0.4575
 3504SOL    HW221972   0.462   1.537   2.518 -0.4609  0.4633 -0.5133
 3505SOL     OW21973   4.533   1.180   6.170  0.4336  0.4955 -0.4839
 3505SOL    HW121974   4.513   1.233   6.247  0.7043 -0.1527  0.0320
 3505SOL    HW221975   4.499   1.243   6.108 -0.1734  0.4930 -0.1487
 3506SOL     OW21976   3.174   2.511   2.802  0.0039 -0.1481 -0.0686
 3506SOL    HW121977   3.144   2.477   2.886  0.4397 -1.6103 -0.5102
 3506SOL    HW221978   3.268   2.494   2.799  0.1677  0.4885  1.2725
 3507SOL     OW21979   2.804   0.293   5.690 -0.7286 -0.5846  0.5421
 3507SOL    HW121980   2.859   0.280   5.613 -1.8631 -3.2701  0.2028
 3507SOL    HW221981   2.794   0.203   5.721  0.9024 -1.0486 -0.2599
 3508SOL     OW21982   3.591   3.878  15.914  0.1546  0.1287  0.1711
 3508SOL    HW121983   3.569   3.936  15.841 -1.6802 -1.5213 -0.5973
 3508SOL    HW221984   3.622   3.940  15.980  0.7084  0.2690 -0.2215
 3509SOL     OW21985   1.469   2.048  11.503  0.4455  0.1202 -0.9041
 3509SOL    HW121986   1.504   2.109  11.569 -0.1318 -0.4732 -0.0442
 3509SOL    HW221987   1.466   2.104  11.425  1.0292 -0.8348 -1.6090
 3510SOL     OW21988   3.195   2.871   3.954 -0.0895  0.1430  0.5013
 3510SOL    HW121989   3.275   2.889   3.905 -0.2812 -0.3590  0.0019
 3510SOL    HW221990   3.183   2.777   3.937 -1.4851  0.6304 -1.1792
 3511SOL     OW21991   3.643   0.929   6.981  0.3241  0.7542  0.5216
 3511SOL    HW121992   3.605   0.841   6.980 -1.4129  1.4965  0.9528
 3511SOL    HW221993   3.617   0.964   6.896  1.3871  0.6547  0.1663
 3512SOL     OW21994   3.729   4.541   0.423 -0.0657 -0.3407  0.0092
 3512SOL    HW121995   3.760   4.453   0.446 -1.2531 -1.3355 -2.2416
 3512SOL    HW221996   3.673   4.531   0.346  0.7985 -0.0321 -0.6488
 3513SOL     OW21997   2.055   2.328  13.355 -0.3545  0.2800 -0.3653
 3513SOL    HW121998   2.094   2.415  13.349  2.8969 -1.2134 -1.3159
 3513SOL    HW221999   2.128   2.275  13.322 -0.2967 -0.1558  0.4705
 3514SOL     OW22000   3.857   1.188   7.575 -0.4105 -0.2370 -0.2015
 3514SOL    HW122001   3.896   1.236   7.648 -0.3581 -0.2830 -0.1988
 3514SOL    HW222002   3.921   1.119   7.557 -2.1283 -1.6700 -0.8356
 3515SOL     OW22003   4.312   3.913   7.290  0.0866  0.5149 -0.1311
 3515SOL    HW122004   4.265   3.985   7.333  0.7883  1.3454 -0.7402
 3515SOL    HW222005   4.357   3.961   7.220  1.3954 -1.7797 -0.8778
 3516SOL     OW22006   4.060   3.003   3.443  0.4584 -0.3201  0.0190
 3516SOL    HW122007   4.115   3.038   3.513 -1.2135 -0.2039  1.2644
 3516SOL    HW222008   4.002   3.076   3.423  1.2480  0.6719  1.3752
 3517SOL     OW22009   1.403   0.470  11.179 -0.1456  0.8301  0.3898
 3517SOL    HW122010   1.370   0.382  11.199 -1.9662  0.6109 -3.6320
 3517SOL    HW222011   1.389   0.511  11.264  1.2081  0.7672  0.6454
 3518SOL     OW22012   3.663   2.147   9.988  0.2439 -0.1063 -0.1008
 3518SOL    HW122013   3.627   2.070  10.031  1.6717  0.4186  2.0320
 3518SOL    HW222014   3.731   2.179  10.048  0.3486 -2.2507  0.9176
 3519SOL     OW22015   3.379   1.995   8.336  0.0361 -0.2038  0.0082
 3519SOL    HW122016   3.450   1.941   8.370  2.0616  2.1647 -0.5180
 3519SOL    HW222017   3.325   1.923   8.302  0.9628 -0.3116 -1.2373
 3520SOL     OW22018   1.570   4.518   6.668  0.0239  0.1558  0.2538
 3520SOL    HW122019   1.515   4.478   6.735  0.9320 -1.9724 -0.2698
 3520SOL    HW222020   1.653   4.480   6.698  0.2091  0.0122 -0.4400
 3521SOL     OW22021   4.468   2.421  15.007 -0.2951  0.0341 -0.2251
 3521SOL    HW122022   4.468   2.502  15.059  0.1892 -1.0460  1.4471
 3521SOL    HW222023   4.378   2.413  14.975  0.8253 -0.2242 -3.2605
 3522SOL     OW22024   3.314   1.184  10.198 -0.5186 -0.5338 -0.3642
 3522SOL    HW122025   3.353   1.271  10.196 -0.8235 -0.3962 -0.3147
 3522SOL    HW222026   3.316   1.170  10.103  0.3608  0.3595 -0.4752
 3523SOL     OW22027   2.092   4.091   4.016 -0.6073 -0.3538 -0.6297
 3523SOL    HW122028   2.150   4.131   4.080  1.7168 -1.4742 -2.0121
 3523SOL    HW222029   2.071   4.168   3.963  0.5963  0.2840 -0.1686
 3524SOL     OW22030   2.281   1.115   8.181  0.0227 -0.0946  0.5008
 3524SOL    HW122031   2.255   1.199   8.218 -1.0233  0.6071 -1.8433
 3524SOL    HW222032   2.197   1.084   8.149  0.3399 -0.9513  0.4944
 3525SOL     OW22033   3.564   4.150   5.574 -0.1374  0.0136  0.0253
 3525SOL    HW122034   3.628   4.214   5.541  0.2160 -0.2528  0.2029
 3525SOL    HW222035   3.622   4.109   5.638 -0.6759  0.8683  1.0483
 3526SOL     OW22036   2.681   2.600   6.671 -0.5882  0.3766 -0.5054
 3526SOL    HW122037   2.727   2.558   6.744  1.0103 -0.0409 -1.7512
 3526SOL    HW222038   2.707   2.546   6.597 -0.8931 -0.1209 -0.2483
 3527SOL     OW22039   3.867   0.294  14.151 -0.8226 -0.1872 -0.1444
 3527SOL    HW122040   3.902   0.206  14.139  2.3147  0.9661  0.6092
 3527SOL    HW222041   3.795   0.296  14.087 -0.4106 -0.4053 -0.6118
 3528SOL     OW22042   3.343   3.437  15.198 -0.0462  0.5525  0.3570
 3528SOL    HW122043   3.341   3.433  15.102 -0.6769  0.3236  0.3796
 3528SOL    HW222044   3.249   3.436  15.211  0.3481 -1.7325  3.0355
 3529SOL     OW22045   4.698   1.238   8.616 -0.3405 -0.5364 -0.0068
 3529SOL    HW122046   0.040   1.293   8.656  2.0340 -3.8642  0.6379
 3529SOL    HW222047   4.629   1.231   8.682  0.0339 -1.2451  0.3201
 3530SOL     OW22048   0.854   2.089   8.480  0.3928  0.0867 -0.0775
 3530SOL    HW122049   0.948   2.098   8.465  0.3257  0.9433  0.0596
 3530SOL    HW222050   0.856   1.993   8.484  1.2561  0.0516 -1.1449
 3531SOL     OW22051   0.398   2.943   4.765  0.0496 -0.4121 -0.6415
 3531SOL    HW122052   0.466   2.987   4.816 -1.9942  1.0099  0.9044
 3531SOL    HW222053   0.415   2.850   4.777 -0.1845  0.0522  3.2373
 3532SOL     OW22054   0.820   4.088   5.320 -0.0544 -0.0461 -0.6358
 3532SOL    HW122055   0.744   4.142   5.297 -0.3770  0.9211  2.7255
 3532SOL    HW222056   0.798   4.045   5.403  0.7664  0.3775 -0.2014
 3533SOL     OW22057   3.058   0.428   0.724 -0.0435  0.3436 -0.2299
 3533SOL    HW122058   3.092   0.507   0.766  1.4394 -0.3731 -0.1019
 3533SOL    HW222059   3.134   0.372   0.738  0.4478  1.0916  0.0424
 3534SOL     OW22060   0.488   1.271   2.690  0.3130  0.1441  0.4690
 3534SOL    HW122061   0.474   1.196   2.633  0.9618  0.6483 -0.3645
 3534SOL    HW222062   0.461   1.340   2.629 -0.0075  0.6725  1.2108
 3535SOL     OW22063   1.320   2.486  14.420 -0.3002 -0.2504 -0.9371
 3535SOL    HW122064   1.331   2.533  14.503 -2.6176 -0.6219 -0.4085
 3535SOL    HW222065   1.230   2.455  14.432 -0.5491  0.5028 -0.7857
 3536SOL     OW22066   1.061   3.765   6.360  0.3889 -0.8500  0.3458
 3536SOL    HW122067   1.047   3.848   6.404  1.9377 -0.1587 -0.4632
 3536SOL    HW222068   1.115   3.725   6.428  2.9733 -0.2979 -1.3989
 3537SOL     OW22069   3.062   1.766   7.606  0.7103 -0.1306  0.5172
 3537SOL    HW122070   3.134   1.826   7.589  1.1434 -0.6538  0.5261
 3537SOL    HW222071   3.024   1.808   7.683  0.6221 -0.1174  0.4666
 3538SOL     OW22072   0.894   0.591   6.979  0.2760 -0.2282 -0.0217
 3538SOL    HW122073   0.905   0.546   7.062  2.8872 -1.3592 -0.9789
 3538SOL    HW222074   0.807   0.563   6.950  0.7480 -1.2096 -0.4860
 3539SOL     OW22075   2.059   3.079   9.008 -0.2066  0.0582  0.2676
 3539SOL    HW122076   2.036   3.111   8.921 -0.0773 -2.1261 -0.5577
 3539SOL    HW222077   2.032   3.158   9.055  1.3757  0.6818  0.1259
 3540SOL     OW22078   2.291   3.387   1.768 -0.3340 -0.1778  0.2037
 3540SOL    HW122079   2.268   3.477   1.795 -0.9091 -0.5000  0.7985
 3540SOL    HW222080   2.329   3.403   1.681 -2.5382  2.4748 -0.2960
 3541SOL     OW22081   1.201   4.541   0.331  0.3090  0.6244 -0.5434
 3541SOL    HW122082   1.209   4.459   0.283 -0.0827  0.4569 -0.3243
 3541SOL    HW222083   1.275   4.541   0.391 -0.6627 -2.3867  0.6160
 3542SOL     OW22084   2.200   2.001   4.506 -0.2416  0.0848 -0.2386
 3542SOL    HW122085   2.253   2.065   4.553 -2.1159 -0.0939  2.1547
 3542SOL    HW222086   2.117   2.015   4.552 -0.2819  4.3314 -1.6065
 3543SOL     OW22087   3.439   0.895   6.288  0.1644 -0.2561  0.3393
 3543SOL    HW122088   3.376   0.844   6.338 -3.0116 -0.8697 -4.3066
 3543SOL    HW222089   3.465   0.827   6.225  1.0235 -0.7055  1.1797
 3544SOL     OW22090   3.940   4.395   5.507  0.1367  0.0033 -0.2678
 3544SOL    HW122091   4.028   4.420   5.479  0.8770 -0.9302  1.2551
 3544SOL    HW222092   3.950   4.303   5.530 -1.2261  0.0093  0.3871
 3545SOL     OW22093   0.233   0.800   3.905  0.2796 -0.6498 -0.0947
 3545SOL    HW122094   0.275   0.847   3.978  1.8365  1.6137 -2.4500
 3545SOL    HW222095   0.260   0.861   3.836 -0.1655 -0.2779  0.0572
 3546SOL     OW22096   1.464   0.212   1.429  0.9210  0.0701  0.0576
 3546SOL    HW122097   1.536   0.255   1.383  0.5618  1.5279  0.8768
 3546SOL    HW222098   1.486   0.119   1.416  0.0090  0.0946 -1.6283
 3547SOL     OW22099   1.086   1.281   1.865 -0.0145 -0.4887  0.5687
 3547SOL    HW122100   1.130   1.220   1.806 -3.5229  2.1665 -4.7653
 3547SOL    HW222101   1.057   1.217   1.930 -0.9092  0.2976  0.9428
 3548SOL     OW22102   0.923   0.304  12.364 -0.1723  0.0730 -0.2458
 3548SOL    HW122103   0.971   0.375  12.322  1.6703 -0.7897  0.4394
 3548SOL    HW222104   0.953   0.230  12.312 -0.2355 -0.6758  0.7969
 3549SOL     OW22105   1.726   1.170   1.950 -0.2650  0.0976  0.4761
 3549SOL    HW122106   1.760   1.250   1.990 -0.1610  0.1505  0.2843
 3549SOL    HW222107   1.634   1.183   1.969 -0.1532  2.2187 -0.4032
 3550SOL     OW22108   3.209   1.603   0.462  0.1294 -0.0734 -0.0574
 3550SOL    HW122109   3.207   1.654   0.381  0.1614 -0.4348 -0.2819
 3550SOL    HW222110   3.219   1.514   0.429 -1.7739 -0.3760  0.1860
 3551SOL     OW22111   2.485   4.170   9.616  0.7389 -0.3517  0.0016
 3551SOL    HW122112   2.411   4.113   9.637 -1.4672  2.5617  0.1372
 3551SOL    HW222113   2.555   4.129   9.667 -1.1515 -0.9539  2.1212
 3552SOL     OW22114   1.469   1.952   5.033 -0.2291  0.3295 -0.3558
 3552SOL    HW122115   1.430   2.037   5.052 -0.7822 -0.5071  2.3209
 3552SOL    HW222116   1.552   1.983   4.997 -0.2418 -0.0773 -0.7393
 3553SOL     OW22117   2.471   1.182   3.124 -0.2331  0.5784  0.0773
 3553SOL    HW122118   2.459   1.190   3.029 -0.3968  1.0235  0.1331
 3553SOL    HW222119   2.566   1.185   3.127 -0.2920  1.0216  1.4288
 3554SOL     OW22120   4.551   0.589   7.659 -0.0686 -0.6382  0.0064
 3554SOL    HW122121   4.458   0.568   7.648 -0.8872  1.1514  3.3515
 3554SOL    HW222122   4.551   0.605   7.754 -1.0628 -1.1879  0.0964
 3555SOL     OW22123   0.798   0.330   8.791  0.3670  0.0470 -0.3245
 3555SOL    HW122124   0.746   0.409   8.809  1.1350  0.4329  0.1576
 3555SOL    HW222125   0.738   0.278   8.737  0.3964 -0.3973  0.0715
 3556SOL     OW22126   3.478   2.487   8.838  0.2979 -0.1647 -0.4648
 3556SOL    HW122127   3.468   2.514   8.929 -1.3580  1.8489 -1.2513
 3556SOL    HW222128   3.461   2.565   8.785 -0.9993  1.1288  1.8331
 3557SOL     OW22129   1.176   0.876   4.341 -0.8093 -0.0106  0.2106
 3557SOL    HW122130   1.271   0.875   4.340 -0.8367 -2.3095 -1.2206
 3557SOL    HW222131   1.166   0.920   4.257 -1.6589 -0.6354 -0.0239
 3558SOL     OW22132   2.791   3.607  16.713  0.8074 -0.7434  0.8195
 3558SOL    HW122133   2.851   3.536  16.733  0.2457 -0.9257  1.8428
 3558SOL    HW222134   2.785   3.620  16.618 -0.2736  0.2366  1.0158
 3559SOL     OW22135   1.087   4.362  17.667 -0.4136  0.3075  0.4240
 3559SOL    HW122136   1.068   4.456  17.676 -0.1978  0.2988  0.9304
 3559SOL    HW222137   1.117   4.341   0.054 -1.9392  0.4388  0.9761
 3560SOL     OW22138   0.652   4.058   7.809  0.6149 -0.8567  0.5449
 3560SOL    HW122139   0.615   4.131   7.858  0.8662  0.2678 -0.9565
 3560SOL    HW222140   0.663   3.995   7.880 -0.6378 -1.8563 -0.1332
 3561SOL     OW22141   2.963   0.279   4.070 -0.0745  0.0418  0.5214
 3561SOL    HW122142   2.872   0.252   4.060 -0.3458  1.8116 -1.8322
 3561SOL    HW222143   2.998   0.226   4.141  1.4118  1.1586  0.6309
 3562SOL     OW22144   2.829   0.566  13.672 -0.4115 -0.1783  0.3284
 3562SOL    HW122145   2.852   0.606  13.588 -0.8177 -0.6535 -0.0126
 3562SOL    HW222146   2.909   0.522  13.699 -0.5134 -2.0115 -2.3249
 3563SOL     OW22147   4.017   2.093  14.179 -0.2907  0.0402  0.4300
 3563SOL    HW122148   3.962   2.112  14.255 -1.3267  2.1384 -0.8320
 3563SOL    HW222149   4.105   2.104  14.215  0.1708 -2.7441  0.1654
 3564SOL     OW22150   1.080   0.546  11.223 -0.3501  0.1801  0.3696
 3564SOL    HW122151   1.005   0.536  11.281 -1.5118  1.3441 -0.9373
 3564SOL    HW222152   1.154   0.533  11.283  1.5708 -0.9401 -2.2229
 3565SOL     OW22153   3.583   3.947   9.469  0.0228 -0.0697 -0.3241
 3565SOL    HW122154   3.641   3.914   9.538  0.3880  2.2654  0.4667
 3565SOL    HW222155   3.498   3.929   9.509 -0.0193  0.4782 -0.1728
 3566SOL     OW22156   4.285   0.202   8.278 -0.7117 -0.6034 -0.6497
 3566SOL    HW122157   4.233   0.167   8.206  0.2547  0.0782 -1.6773
 3566SOL    HW222158   4.272   0.125   8.334 -0.8512  1.7041  2.4837
 3567SOL     OW22159   2.799   3.281   3.473 -0.0211  0.3625 -0.5155
 3567SOL    HW122160   2.882   3.238   3.494 -0.9006 -1.4321 -0.6578
 3567SOL    HW222161   2.771   3.229   3.397  0.2523 -1.6500  0.7639
 3568SOL     OW22162   2.763   4.047  14.738 -0.2214 -0.6049  0.5107
 3568SOL    HW122163   2.687   4.097  14.706 -0.7578 -1.5517  0.3269
 3568SOL    HW222164   2.843   4.097  14.721 -1.2495  0.8226 -0.2467
 3569SOL     OW22165   1.418   3.205  13.279  0.8109 -0.0797 -0.0568
 3569SOL    HW122166   1.441   3.113  13.267  0.6632 -0.0710 -0.3949
 3569SOL    HW222167   1.398   3.206  13.373 -1.5026 -0.7562 -0.5444
 3570SOL     OW22168   0.873   3.814   3.191  0.2072 -0.0139 -0.3791
 3570SOL    HW122169   0.849   3.768   3.272  2.8651 -1.6188 -0.4899
 3570SOL    HW222170   0.864   3.906   3.215 -1.8109 -0.9493  2.4655
 3571SOL     OW22171   0.045   0.643   8.291  0.3881 -0.4138  0.3619
 3571SOL    HW122172   4.710   0.591   8.345 -0.3149 -0.3731 -0.3808
 3571SOL    HW222173   0.047   0.733   8.324 -0.1660  0.1827 -1.2669
 3572SOL     OW22174   3.908   2.979   3.060 -0.5804  0.6334 -0.3030
 3572SOL    HW122175   3.822   2.956   3.095 -1.0086  2.2442 -0.2996
 3572SOL    HW222176   3.952   2.895   3.057 -2.3983 -0.3366  0.1251
 3573SOL     OW22177   4.619   4.389   1.594  0.2036 -1.0256  0.0392
 3573SOL    HW122178   4.524   4.394   1.603  0.4123 -0.3691  1.9406
 3573SOL    HW222179   4.632   4.447   1.519  0.7936 -0.4749  0.5640
 3574SOL     OW22180   1.778   2.573   7.470  0.1445 -0.1613 -0.0617
 3574SOL    HW122181   1.694   2.614   7.491  1.0672  1.8396 -0.2994
 3574SOL    HW222182   1.815   2.537   7.550 -2.2271 -1.6805  0.3641
 3575SOL     OW22183   1.175   2.067   6.130 -0.2028 -0.4021  0.1818
 3575SOL    HW122184   1.191   1.987   6.180  0.3798  0.9797  2.2031
 3575SOL    HW222185   1.231   2.054   6.053  1.7676 -2.1083  1.8993
 3576SOL     OW22186   2.975   3.051   8.943 -0.2048 -0.1547 -0.7798
 3576SOL    HW122187   2.980   2.985   9.011 -0.7960 -0.4849 -1.0614
 3576SOL    HW222188   2.931   3.004   8.872 -1.6966  2.0186 -1.3230
 3577SOL     OW22189   0.456   1.214  10.840  0.7054 -0.2563 -0.3753
 3577SOL    HW122190   0.436   1.305  10.861  0.8929 -0.0378 -1.1300
 3577SOL    HW222191   0.372   1.167  10.839  0.5244  0.1127 -1.8667
 3578SOL     OW22192   4.454   3.214   5.444  0.1047  0.3592 -0.5804
 3578SOL    HW122193   4.512   3.138   5.458 -1.5876 -1.0851 -1.3714
 3578SOL    HW222194   4.468   3.265   5.523  1.4245 -1.8786  0.6297
 3579SOL     OW22195   2.799   3.342   0.812  0.1232 -0.2524  0.1444
 3579SOL    HW122196   2.819   3.349   0.718  2.4621 -0.9940  0.5783
 3579SOL    HW222197   2.792   3.434   0.836  0.0416 -0.5386  1.2365
 3580SOL     OW22198   4.145   4.508   5.904 -0.0282  0.7067  0.0619
 3580SOL    HW122199   4.111   4.521   5.992 -0.1139  0.9904 -0.0127
 3580SOL    HW222200   4.174   4.417   5.897  0.6925  0.7541  2.4621
 3581SOL     OW22201   3.756   3.656  15.954  0.3152 -0.2330  0.5021
 3581SOL    HW122202   3.836   3.708  15.966 -0.2501  0.9369 -0.8279
 3581SOL    HW222203   3.691   3.721  15.928  1.3000  0.4868 -0.1574
 3582SOL     OW22204   3.730   0.098  12.385  0.1056 -0.9224  0.0867
 3582SOL    HW122205   3.722   0.184  12.427 -0.5629 -1.0856  0.2962
 3582SOL    HW222206   3.824   0.085  12.395  0.2506 -0.0671 -0.1062
 3583SOL     OW22207   1.929   1.702  14.915  0.6375  0.1277  0.3522
 3583SOL    HW122208   1.962   1.752  14.840  0.9452  0.9166  1.0086
 3583SOL    HW222209   1.865   1.764  14.951  0.3266  0.2238 -0.3619
 3584SOL     OW22210   2.739   2.916   4.182 -0.0889 -0.0816 -0.1804
 3584SOL    HW122211   2.757   2.830   4.220  3.6895  1.4112  1.4348
 3584SOL    HW222212   2.751   2.981   4.252 -2.5664  1.6357 -1.3567
 3585SOL     OW22213   2.495   2.523   0.633  0.8067 -0.5921 -0.1250
 3585SOL    HW122214   2.436   2.474   0.690  1.0795  1.2373  1.7667
 3585SOL    HW222215   2.551   2.569   0.697 -0.3901 -1.2218  1.3741
 3586SOL     OW22216   1.677   0.313   2.458  0.4124 -0.2894  0.3309
 3586SOL    HW122217   1.705   0.324   2.367 -0.9101  0.4647  0.0126
 3586SOL    HW222218   1.746   0.256   2.491  1.0201  1.2874  1.8221
 3587SOL     OW22219   3.670   0.165   2.028  0.4520 -0.5902 -0.3437
 3587SOL    HW122220   3.610   0.096   2.000 -0.2492  0.4624 -1.4134
 3587SOL    HW222221   3.608   0.222   2.074 -0.5598 -0.0805 -2.3648
 3588SOL     OW22222   0.921   3.636  16.171  0.0724  0.1661  0.5404
 3588SOL    HW122223   0.855   3.669  16.111  0.1794  1.7089  1.2700
 3588SOL    HW222224   0.997   3.629  16.113  1.1241  0.6154  1.8661
 3589SOL     OW22225   3.431   2.022   1.473 -0.1138  0.5949 -0.4909
 3589SOL    HW122226   3.383   1.954   1.521 -1.8191  1.3620 -1.0956
 3589SOL    HW222227   3.504   1.976   1.431 -0.1721 -0.6896  0.8029
 3590SOL     OW22228   0.019   2.700   6.404 -0.0264  0.9636 -0.5251
 3590SOL    HW122229   0.015   2.780   6.455  1.2785 -0.0325  1.1397
 3590SOL    HW222230   4.717   2.737   6.320 -1.9296  0.0618 -0.3023
 3591SOL     OW22231   2.541   3.828  11.125 -0.5824 -0.0179  0.1708
 3591SOL    HW122232   2.532   3.806  11.033  0.0389  0.8461 -0.0892
 3591SOL    HW222233   2.476   3.769  11.165 -2.2044  0.7834 -1.3157
 3592SOL     OW22234   0.390   3.226   3.240  0.0472  0.2562 -0.0461
 3592SOL    HW122235   0.420   3.291   3.176 -1.8830  0.9582 -0.2407
 3592SOL    HW222236   0.419   3.270   3.320  1.1244  2.3642 -1.5864
 3593SOL     OW22237   1.754   1.854  16.150 -0.2822  0.0221  0.2786
 3593SOL    HW122238   1.687   1.863  16.217  0.4557  1.8727  0.7638
 3593SOL    HW222239   1.695   1.858  16.075 -0.9019 -0.9381  0.7231
 3594SOL     OW22240   3.283   1.798   3.312  0.4552 -0.3573 -0.1638
 3594SOL    HW122241   3.259   1.724   3.257 -2.9863  1.3762 -1.0574
 3594SOL    HW222242   3.287   1.870   3.248  0.5628 -0.4164 -0.2228
 3595SOL     OW22243   0.920   2.936   6.401 -1.3493 -0.6029  0.2935
 3595SOL    HW122244   0.952   2.883   6.474 -1.1215 -0.2520  0.4527
 3595SOL    HW222245   0.915   3.019   6.449  2.4539  0.6827 -1.5435
 3596SOL     OW22246   0.500   2.364  17.544  0.3460  0.2196  0.4383
 3596SOL    HW122247   0.576   2.339  17.596 -0.4264 -2.1063  0.4160
 3596SOL    HW222248   0.529   2.455  17.533  0.7906  0.1164  0.7713
 3597SOL     OW22249   1.529   4.140   8.632  0.4727  0.1793  0.2575
 3597SOL    HW122250   1.589   4.102   8.568  0.8256 -0.9007  1.2331
 3597SOL    HW222251   1.560   4.231   8.637 -0.9379  0.7427 -1.0324
 3598SOL     OW22252   1.380   4.313   6.406 -0.2603  0.0222  0.6954
 3598SOL    HW122253   1.381   4.407   6.421  0.2100  0.2979 -1.0293
 3598SOL    HW222254   1.473   4.292   6.392 -1.2982 -3.1064 -1.4855
 3599SOL     OW22255   2.864   1.885   6.096  0.9649  0.3209  0.6539
 3599SOL    HW122256   2.781   1.929   6.110 -0.3645 -1.2800 -2.2354
 3599SOL    HW222257   2.914   1.960   6.064 -1.3969  0.6055 -2.3625
 3600SOL     OW22258   3.407   4.201   6.766  0.5064 -0.0628  0.5106
 3600SOL    HW122259   3.473   4.134   6.750  0.2977 -0.5078  1.5213
 3600SOL    HW222260   3.332   4.157   6.726  3.1251 -2.1902 -2.0686
 3601SOL     OW22261   3.343   0.058   6.992 -0.4793  0.0508 -0.1982
 3601SOL    HW122262   3.394   0.031   7.068 -2.3036 -0.0299  0.9978
 3601SOL    HW222263   3.272   4.720   7.008  0.9731 -1.3286  0.8111
 3602SOL     OW22264   2.302   4.090   6.084  0.1123 -0.5651 -0.7506
 3602SOL    HW122265   2.340   4.040   6.012  0.2204 -0.0713 -1.0349
 3602SOL    HW222266   2.214   4.116   6.058  0.2211  0.3212 -0.2597
 3603SOL     OW22267   0.888   1.344  13.039 -0.3968 -0.3057 -0.0381
 3603SOL    HW122268   0.892   1.343  12.943 -2.2980 -1.4703 -0.1218
 3603SOL    HW222269   0.829   1.419  13.046  0.1909  0.1286  0.2736
 3604SOL     OW22270   1.228   3.254   9.489 -0.5264 -0.4583  0.3499
 3604SOL    HW122271   1.193   3.173   9.450  0.1550  0.6737 -2.5399
 3604SOL    HW222272   1.155   3.311   9.466  1.7898  2.4730  0.3175
 3605SOL     OW22273   0.371   2.455   9.215 -0.3718  0.0975  0.4171
 3605SOL    HW122274   0.283   2.439   9.248  0.2363  0.8616  2.4084
 3605SOL    HW222275   0.413   2.430   9.296 -0.2639  1.9025  0.9298
 3606SOL     OW22276   2.850   4.703   0.585  0.0143 -0.0881  0.1773
 3606SOL    HW122277   2.858   0.071   0.605  0.6178  0.5084 -2.8066
 3606SOL    HW222278   2.780   4.702   0.521  0.1631 -0.3046  0.0166
 3607SOL     OW22279   4.019   1.277   4.995 -0.3109  0.1343  0.1050
 3607SOL    HW122280   3.963   1.353   4.979 -1.3414 -0.3948  1.2156
 3607SOL    HW222281   4.106   1.310   4.970  0.2407 -1.0609  0.4263
 3608SOL     OW22282   2.528   2.582   5.672  0.6528 -0.2969 -0.1426
 3608SOL    HW122283   2.442   2.609   5.705  1.1844  1.7208 -0.3911
 3608SOL    HW222284   2.494   2.508   5.622  1.5452  0.0413 -1.2446
 3609SOL     OW22285   0.788   0.799   6.229  0.2358  0.1908  0.1624
 3609SOL    HW122286   0.794   0.782   6.136  1.7003  1.3406  0.0596
 3609SOL    HW222287   0.873   0.766   6.258 -0.5807 -2.4092 -0.3807
 3610SOL     OW22288   1.460   1.444  17.566 -0.1836  0.8221  0.5558
 3610SOL    HW122289   1.502   1.364  17.596 -1.1066  0.5697  1.1636
 3610SOL    HW222290   1.367   1.429  17.581 -0.4071  2.3836  0.7543
 3611SOL     OW22291   1.414   2.978  14.495 -0.2942 -0.1045 -0.4888
 3611SOL    HW122292   1.481   2.923  14.453  1.9953  1.1202  1.5290
 3611SOL    HW222293   1.339   2.983  14.436 -2.4853  0.3276  2.3864
 3612SOL     OW22294   3.258   4.689   3.156 -0.1349 -0.5421  0.3160
 3612SOL    HW122295   3.309   4.614   3.185  1.4266  0.2793 -0.3380
 3612SOL    HW222296   3.314   4.719   3.084  0.4645  0.1875  1.1048
 3613SOL     OW22297   4.065   0.991   9.026  0.0688  0.2555  0.0066
 3613SOL    HW122298   4.062   0.895   9.034  0.3119  0.1942 -0.5933
 3613SOL    HW222299   4.054   1.002   8.931  1.6511 -1.4343 -0.3827
 3614SOL     OW22300   2.319   3.854   8.724  0.5254 -0.1510  1.1667
 3614SOL    HW122301   2.386   3.891   8.666 -0.4273 -0.2072  0.0354
 3614SOL    HW222302   2.320   3.918   8.795  2.3297  0.0792  0.9315
 3615SOL     OW22303   3.925   3.030  13.875  0.1129 -0.2469  0.5677
 3615SOL    HW122304   3.991   3.006  13.940  0.7822  0.9582  0.3318
 3615SOL    HW222305   3.875   3.101  13.915 -0.2034 -1.3491  2.1225
 3616SOL     OW22306   4.653   1.455  14.902 -0.1931 -0.3999 -0.3982
 3616SOL    HW122307   4.680   1.476  14.991 -1.3786 -1.6805  0.2539
 3616SOL    HW222308   4.587   1.524  14.892 -0.0774 -0.2353 -0.0385
 3617SOL     OW22309   4.011   0.745  14.960  0.2049  0.2167 -0.2274
 3617SOL    HW122310   4.034   0.652  14.955 -0.5946  0.0525 -0.9316
 3617SOL    HW222311   3.939   0.739  14.896  0.3326  0.8685 -0.4328
 3618SOL     OW22312   2.409   0.220  12.680 -0.0221 -0.3615 -0.0927
 3618SOL    HW122313   2.386   0.129  12.661 -1.0774 -0.2484  0.6857
 3618SOL    HW222314   2.498   0.209  12.713 -0.5942 -2.3525  0.7865
 3619SOL     OW22315   1.054   0.443   8.869 -0.3350  0.2176 -0.6007
 3619SOL    HW122316   0.975   0.390   8.859 -0.0614 -0.2257 -0.4192
 3619SOL    HW222317   1.048   0.454   8.964 -1.7987 -1.3206 -0.5141
 3620SOL     OW22318   1.074   4.532  10.092  0.4567 -0.2567 -0.1240
 3620SOL    HW122319   1.118   4.548  10.175  1.3741  0.4194 -0.7378
 3620SOL    HW222320   1.136   4.554  10.021  1.7995 -1.7730  0.5715
 3621SOL     OW22321   2.979   0.002   2.396 -0.0995  0.2232 -0.5689
 3621SOL    HW122322   2.939   4.704   2.312 -1.4613 -2.5243  0.8145
 3621SOL    HW222323   2.984   4.640   2.435 -0.4204  0.2962 -0.3643
 3622SOL     OW22324   1.243   4.285   2.792  0.8486  0.2839  0.6664
 3622SOL    HW122325   1.252   4.225   2.866  1.8417 -0.0848  0.2379
 3622SOL    HW222326   1.289   4.243   2.719 -0.6609  0.1563 -0.2101
 3623SOL     OW22327   4.238   2.577   1.019 -0.2397 -1.2906 -0.4221
 3623SOL    HW122328   4.314   2.635   1.026 -0.0725 -1.6736  0.8742
 3623SOL    HW222329   4.272   2.518   0.952 -1.8463 -0.0729 -2.3177
 3624SOL     OW22330   2.620   3.167   9.313  0.1439  0.0390  0.1849
 3624SOL    HW122331   2.601   3.077   9.288 -0.8691  0.1503  0.5513
 3624SOL    HW222332   2.579   3.182   9.398  1.2085  1.7804  0.3850
 3625SOL     OW22333   0.353   3.946  11.388 -0.0075 -0.0479  0.1117
 3625SOL    HW122334   0.264   3.981  11.393 -0.0018 -0.1576  1.1250
 3625SOL    HW222335   0.411   4.022  11.403 -1.8866  1.2628  0.6996
 3626SOL     OW22336   3.560   0.400   2.204  0.4583  0.2342 -0.3260
 3626SOL    HW122337   3.488   0.408   2.267 -1.0169 -0.3021 -1.9456
 3626SOL    HW222338   3.632   0.436   2.256  0.2268 -1.1383  0.9545
 3627SOL     OW22339   4.329   1.598   8.983  0.0837  0.4710 -0.1368
 3627SOL    HW122340   4.331   1.546   8.903 -2.0212  0.5535 -0.2392
 3627SOL    HW222341   4.383   1.675   8.966  0.4466  0.1332 -0.4981
 3628SOL     OW22342   2.389   3.659   6.557 -0.2404 -0.3123 -0.3988
 3628SOL    HW122343   2.331   3.706   6.617  0.3110  1.2548 -1.0926
 3628SOL    HW222344   2.452   3.725   6.529 -1.4554  1.1384  0.2714
 3629SOL     OW22345   2.506   1.639  10.390 -0.4533 -0.5876  0.4815
 3629SOL    HW122346   2.427   1.658  10.441 -0.4309  0.6809  0.0360
 3629SOL    HW222347   2.555   1.720  10.400  0.4915 -0.9208 -1.4760
 3630SOL     OW22348   3.531   3.682   0.283 -0.0016 -0.1190 -0.2176
 3630SOL    HW122349   3.587   3.753   0.314  0.5452  1.1483 -4.1397
 3630SOL    HW222350   3.498   3.717   0.200 -1.6009 -0.0511  0.4308
 3631SOL     OW22351   3.224   1.813   9.128  0.3647  0.2452  0.3007
 3631SOL    HW122352   3.183   1.757   9.062 -0.7058  2.4338 -0.9012
 3631SOL    HW222353   3.212   1.749   9.198 -0.9979 -1.1088 -1.1572
 3632SOL     OW22354   2.209   3.359   6.755 -0.2184  0.0001 -0.3523
 3632SOL    HW122355   2.232   3.411   6.832  0.2032 -0.8388  0.0822
 3632SOL    HW222356   2.113   3.356   6.759 -0.3283  2.4584 -0.7112
 3633SOL     OW22357   3.159   3.954   5.395 -0.2819 -0.2204 -0.0359
 3633SOL    HW122358   3.212   3.876   5.377 -0.4747 -0.5905  1.0102
 3633SOL    HW222359   3.088   3.935   5.334 -1.2093  0.1730  0.9222
 3634SOL     OW22360   1.387   0.375   5.382 -0.0520 -0.5645 -0.4445
 3634SOL    HW122361   1.343   0.330   5.310  2.2206 -1.4842 -1.2417
 3634SOL    HW222362   1.430   0.298   5.421  0.5061 -0.9559 -1.8269
 3635SOL     OW22363   1.617   0.542   1.433  0.2688 -0.1243  0.1953
 3635SOL    HW122364   1.587   0.516   1.346 -1.8055  0.6761  0.6796
 3635SOL    HW222365   1.704   0.582   1.424  0.5354 -1.3442 -2.7289
 3636SOL     OW22366   3.200   1.606   2.265 -0.3741 -0.0298  0.0004
 3636SOL    HW122367   3.182   1.630   2.356  1.6185 -1.6780  0.8314
 3636SOL    HW222368   3.110   1.588   2.235  0.5309 -3.5712 -0.6033
 3637SOL     OW22369   1.998   1.036   4.174 -0.6244 -0.3624  0.5658
 3637SOL    HW122370   2.046   1.099   4.120 -0.4798  0.4730  1.6577
 3637SOL    HW222371   1.972   1.097   4.243  0.0139 -0.8070  1.1994
 3638SOL     OW22372   1.472   0.888  15.625 -0.6506  0.0142 -0.2294
 3638SOL    HW122373   1.488   0.976  15.658  0.2072 -0.1823 -0.1334
 3638SOL    HW222374   1.536   0.892  15.554 -0.4682  0.2953 -0.0482
 3639SOL     OW22375   4.260   1.746  11.753  0.1412 -0.0317 -0.5385
 3639SOL    HW122376   4.196   1.758  11.823 -0.7208 -1.3127 -1.1047
 3639SOL    HW222377   4.253   1.652  11.740  1.0454 -0.2165  0.2689
 3640SOL     OW22378   0.911   4.667   7.381  0.4994  0.1373  0.7374
 3640SOL    HW122379   0.818   4.676   7.404  0.3668 -0.7269  0.5383
 3640SOL    HW222380   0.924   4.573   7.394  2.3397  0.2170 -0.5424
 3641SOL     OW22381   4.319   1.976   4.231 -0.4873  0.2756 -0.2402
 3641SOL    HW122382   4.264   1.898   4.239  1.4919 -1.4234 -3.1407
 3641SOL    HW222383   4.284   2.014   4.151  2.4047  2.5840 -0.4265
 3642SOL     OW22384   3.483   2.182  15.188  0.1485 -0.1022  0.2087
 3642SOL    HW122385   3.510   2.152  15.101 -3.0803  1.0713 -1.1968
 3642SOL    HW222386   3.467   2.275  15.174 -1.0840 -0.3888 -0.3170
 3643SOL     OW22387   0.406   4.133   4.364 -0.0699 -0.0490  0.3833
 3643SOL    HW122388   0.382   4.209   4.417 -1.8172 -0.9745  0.9276
 3643SOL    HW222389   0.322   4.099   4.334  0.0738 -0.9793  1.0325
 3644SOL     OW22390   2.397   2.629   3.055 -0.2054 -0.4286 -0.2563
 3644SOL    HW122391   2.459   2.656   3.122  0.2398 -0.5303 -0.6255
 3644SOL    HW222392   2.316   2.623   3.106  1.2372 -2.4648  1.7515
 3645SOL     OW22393   4.381   2.662   7.309 -0.5074 -0.4507 -0.0562
 3645SOL    HW122394   4.456   2.630   7.360  0.7197  0.9812 -0.9657
 3645SOL    HW222395   4.305   2.625   7.354  1.0906 -0.3187  2.7831
 3646SOL     OW22396   3.040   0.541   5.229  0.0857  0.3277  0.1298
 3646SOL    HW122397   3.076   0.471   5.174 -0.8320  0.9196 -1.2111
 3646SOL    HW222398   3.118   0.565   5.279  0.8170  0.2979 -0.9902
 3647SOL     OW22399   0.903   2.268  13.703  0.0449 -0.6571 -0.3338
 3647SOL    HW122400   0.865   2.354  13.684  0.4472 -0.7016 -1.3506
 3647SOL    HW222401   0.895   2.261  13.798  1.3199  1.1183 -0.0998
 3648SOL     OW22402   2.492   2.577   7.256  0.3953  0.7090  0.1930
 3648SOL    HW122403   2.566   2.607   7.202  1.8192  0.5558  2.0502
 3648SOL    HW222404   2.483   2.488   7.224  1.6227  0.7617 -0.2973
 3649SOL     OW22405   0.775   1.592   2.641 -0.5127 -0.4476  0.4150
 3649SOL    HW122406   0.807   1.551   2.560 -0.1401 -0.8963  0.7820
 3649SOL    HW222407   0.689   1.616   2.609 -0.6805  0.6582  1.7205
 3650SOL     OW22408   4.368   0.567   3.102  0.1637 -0.2259 -0.0199
 3650SOL    HW122409   4.311   0.495   3.131 -1.8001  0.9059 -1.0424
 3650SOL    HW222410   4.300   0.635   3.107  1.4694  1.0912 -0.2142
 3651SOL     OW22411   2.195   1.069   6.209 -0.5736  0.3343 -0.3133
 3651SOL    HW122412   2.266   1.109   6.259 -3.6302  1.6838  2.9297
 3651SOL    HW222413   2.201   0.981   6.246 -1.4987  0.7210  0.7499
 3652SOL     OW22414   1.247   0.036   8.942 -0.2114 -0.5033 -0.9227
 3652SOL    HW122415   1.200   0.061   9.022 -1.1145  0.2120 -1.6671
 3652SOL    HW222416   1.331   0.005   8.975  0.7774  0.8590 -2.1645
 3653SOL     OW22417   3.652   1.671   6.930 -0.2986 -0.1521 -0.0533
 3653SOL    HW122418   3.704   1.735   6.882 -1.5866  2.8258  2.5062
 3653SOL    HW222419   3.705   1.657   7.009  0.2675 -1.7970 -0.7069
 3654SOL     OW22420   1.993   0.531   9.475 -0.3052 -0.1393 -0.0527
 3654SOL    HW122421   1.951   0.522   9.560 -1.9391  1.4394 -0.6734
 3654SOL    HW222422   2.013   0.625   9.481  0.5164 -0.4075  1.5405
 3655SOL     OW22423   4.559   4.470  12.500 -0.5525 -0.2698 -0.0724
 3655SOL    HW122424   4.531   4.484  12.590  0.4776 -1.6152  0.4674
 3655SOL    HW222425   4.546   4.556  12.460  0.3626 -1.2301 -2.4576
 3656SOL     OW22426   3.263   1.152  15.330  0.2124  0.0162 -0.4887
 3656SOL    HW122427   3.187   1.173  15.385  1.8903  1.4882  1.2565
 3656SOL    HW222428   3.228   1.081  15.276  0.2050 -1.0366  0.8912
 3657SOL     OW22429   1.637   4.285  15.250 -0.5777 -0.6216  0.5125
 3657SOL    HW122430   1.623   4.380  15.257 -1.3007 -0.5610 -1.8873
 3657SOL    HW222431   1.592   4.261  15.331  0.7048  0.1792  1.4672
 3658SOL     OW22432   4.506   4.269   1.269 -0.4194  0.0556 -0.1924
 3658SOL    HW122433   4.586   4.236   1.228 -0.8001 -0.3932 -0.5690
 3658SOL    HW222434   4.541   4.259   1.358  0.4665  1.0284 -0.4346
 3659SOL     OW22435   4.410   3.403   7.033  0.0708 -0.1385  0.1824
 3659SOL    HW122436   4.369   3.439   7.113 -0.5662  0.3356 -0.3570
 3659SOL    HW222437   4.417   3.482   6.980  2.2868 -0.8488 -0.5613
 3660SOL     OW22438   3.437   2.261  14.502 -0.3283  0.4134 -0.1768
 3660SOL    HW122439   3.375   2.331  14.523  0.5561  0.8029  1.0954
 3660SOL    HW222440   3.521   2.303  14.521  0.6566 -1.0116 -1.3631
 3661SOL     OW22441   3.988   1.575   3.794 -0.0572 -0.4848 -0.5494
 3661SOL    HW122442   4.002   1.655   3.844 -3.1416 -0.6301  0.5619
 3661SOL    HW222443   3.971   1.506   3.858  1.6031  1.4532  1.9293
 3662SOL     OW22444   1.042   0.121   9.954 -0.6767 -0.3720  0.3597
 3662SOL    HW122445   1.041   0.092   9.862 -2.3155  1.4459 -0.1894
 3662SOL    HW222446   1.128   0.082   9.972  0.2896  1.0992 -0.9803
 3663SOL     OW22447   1.916   0.281   9.176  0.3498 -0.0377  0.0459
 3663SOL    HW122448   1.833   0.300   9.220  0.0008  1.2335 -1.1733
 3663SOL    HW222449   1.906   0.344   9.104  2.8520  0.0482 -0.2445
 3664SOL     OW22450   1.203   2.486   4.606  0.2154  0.5113  0.2631
 3664SOL    HW122451   1.180   2.575   4.578 -1.7894 -0.1175 -0.0995
 3664SOL    HW222452   1.149   2.439   4.542 -1.2018  1.7903  0.5074
 3665SOL     OW22453   3.502   0.976  10.455 -0.0390 -0.4978  0.9562
 3665SOL    HW122454   3.584   0.946  10.415 -1.4885 -0.3569 -2.0770
 3665SOL    HW222455   3.500   0.944  10.545  2.8733  0.2031  1.2945
 3666SOL     OW22456   4.672   4.078   2.499  0.1678 -0.1409 -0.0760
 3666SOL    HW122457   0.021   4.048   2.445 -0.3036  0.8228 -1.2553
 3666SOL    HW222458   4.600   4.102   2.440  0.4852  1.6493  0.2599
 3667SOL     OW22459   2.905   0.138  10.781  0.2779  0.1104  0.1947
 3667SOL    HW122460   2.969   0.207  10.762  0.9392 -0.0613  1.8684
 3667SOL    HW222461   2.820   0.178  10.761  0.5116 -1.0968 -3.3422
 3668SOL     OW22462   2.650   1.812  17.537 -0.0083 -0.1420 -0.2653
 3668SOL    HW122463   2.664   1.895  17.493  1.4820 -0.9364 -1.3058
 3668SOL    HW222464   2.570   1.833  17.585  0.1267 -1.0508  0.3799
 3669SOL     OW22465   3.153   1.260   7.017  0.3655 -0.0665 -0.6154
 3669SOL    HW122466   3.114   1.295   7.097 -1.9089 -1.5613 -1.0684
 3669SOL    HW222467   3.135   1.331   6.957 -1.2478  1.3690  1.5756
 3670SOL     OW22468   4.275   1.296  16.499 -0.0045  0.2280  0.1515
 3670SOL    HW122469   4.187   1.324  16.525  0.9283  3.2803  0.0211
 3670SOL    HW222470   4.279   1.200  16.503 -1.8447  0.1785  1.1195
 3671SOL     OW22471   2.970   1.337   2.318 -0.0925  0.4749  0.0780
 3671SOL    HW122472   2.918   1.408   2.356 -0.7286  0.7684 -1.3733
 3671SOL    HW222473   2.982   1.377   2.232  1.5077 -1.1001 -0.4273
 3672SOL     OW22474   3.388   0.206   8.245  0.2219 -0.5588 -0.2872
 3672SOL    HW122475   3.432   0.187   8.162  0.1590 -0.6320 -0.3042
 3672SOL    HW222476   3.455   0.260   8.286 -1.0422 -0.9182  2.2076
 3673SOL     OW22477   3.264   2.803   7.174 -0.1694 -0.2038 -0.1172
 3673SOL    HW122478   3.195   2.855   7.131 -0.6360 -1.2732 -0.6648
 3673SOL    HW222479   3.210   2.749   7.231  0.6468 -1.4716 -0.5574
 3674SOL     OW22480   1.470   1.093   2.814  0.1034  0.5017 -0.3560
 3674SOL    HW122481   1.445   1.184   2.828  1.1764  0.8011 -0.3998
 3674SOL    HW222482   1.469   1.080   2.719 -0.0452  1.1489 -0.4375
 3675SOL     OW22483   0.118   1.422   7.098 -0.4990  0.7403 -0.3144
 3675SOL    HW122484   0.070   1.504   7.082  0.8215  1.5719  0.0020
 3675SOL    HW222485   0.066   1.362   7.044  4.6051 -0.1044 -4.2885
 3676SOL     OW22486   1.972   4.095   6.282 -0.0070 -0.0790 -0.2154
 3676SOL    HW122487   2.012   4.016   6.244  1.2575  1.5121 -2.2239
 3676SOL    HW222488   1.885   4.079   6.245  1.3200 -1.4716 -2.7639
 3677SOL     OW22489   3.740   4.034   8.715 -0.2016 -0.2012 -0.4106
 3677SOL    HW122490   3.688   4.077   8.783  1.2190  0.1545  0.4559
 3677SOL    HW222491   3.684   4.039   8.637 -0.2922 -1.8863 -0.4521
 3678SOL     OW22492   2.396   2.933  14.402 -0.1817 -0.3322  0.0497
 3678SOL    HW122493   2.371   2.845  14.371  1.9289 -0.0994 -2.3222
 3678SOL    HW222494   2.309   2.970  14.416 -0.9930 -2.5205  0.8661
 3679SOL     OW22495   3.795   0.729   3.140 -0.5242 -0.4920  0.6802
 3679SOL    HW122496   3.715   0.720   3.087 -0.1257 -0.1226  0.0243
 3679SOL    HW222497   3.788   0.821   3.167  1.0803 -0.2714  0.2990
 3680SOL     OW22498   0.032   1.904   2.747  0.0516 -0.5323  0.1779
 3680SOL    HW122499   4.688   1.899   2.813 -2.6887 -0.8360 -2.6852
 3680SOL    HW222500   4.714   1.860   2.673 -0.4298  0.8810 -0.3876
 3681SOL     OW22501   1.834   4.187  10.295  0.8232  0.2625 -0.2108
 3681SOL    HW122502   1.770   4.255  10.272 -1.6700 -3.3603 -4.0385
 3681SOL    HW222503   1.775   4.112  10.284  1.6359 -0.7758  2.6445
 3682SOL     OW22504   4.571   0.060  10.841 -0.0427 -0.2873  0.2304
 3682SOL    HW122505   4.515   0.136  10.857 -0.7154 -0.7483  0.0600
 3682SOL    HW222506   4.537   0.000  10.908  2.5844 -0.0672  1.7478
 3683SOL     OW22507   4.592   1.221   8.972  0.5695 -0.1301  0.2373
 3683SOL    HW122508   4.603   1.129   8.997  2.5147  0.0039 -0.2032
 3683SOL    HW222509   4.606   1.265   9.056  0.1838  0.1059  0.1791
 3684SOL     OW22510   2.328   0.257   3.253 -0.3200 -0.0676  0.3525
 3684SOL    HW122511   2.276   0.185   3.217 -1.0446  0.8509 -0.4235
 3684SOL    HW222512   2.404   0.257   3.195  0.2597  0.0680  1.1076
 3685SOL     OW22513   3.576   2.058   0.650 -0.1204 -0.7463 -0.2858
 3685SOL    HW122514   3.607   2.113   0.722  0.9729 -0.4156 -1.0178
 3685SOL    HW222515   3.572   2.131   0.588 -1.2415 -0.2744  0.3441
 3686SOL     OW22516   1.295   0.855   5.162  0.4963  0.0664  0.2175
 3686SOL    HW122517   1.218   0.893   5.120  0.4570 -1.0255 -0.6875
 3686SOL    HW222518   1.357   0.912   5.118 -0.0273  0.2148 -0.3353
 3687SOL     OW22519   0.664   0.741  13.545  0.0745  0.1490  0.2524
 3687SOL    HW122520   0.624   0.828  13.535  0.6374  0.4368  0.5239
 3687SOL    HW222521   0.640   0.711  13.633 -0.1608 -0.0852  0.1123
 3688SOL     OW22522   0.283   2.190   6.308  0.1236  0.5376 -0.5088
 3688SOL    HW122523   0.211   2.133   6.280 -1.3169  1.4694  1.3468
 3688SOL    HW222524   0.258   2.215   6.397 -2.9208  0.2677 -1.3109
 3689SOL     OW22525   2.476   0.184   2.744  0.0363  0.3214  0.4432
 3689SOL    HW122526   2.541   0.251   2.766 -0.5465  1.0144  0.0849
 3689SOL    HW222527   2.500   0.161   2.654 -1.2125  0.6990  0.0089
 3690SOL     OW22528   0.708   1.057   0.793 -0.1762 -0.1282  1.0524
 3690SOL    HW122529   0.708   1.007   0.874  0.1426  0.3639  1.3556
 3690SOL    HW222530   0.619   1.091   0.786  0.1706  1.4587  4.1380
 3691SOL     OW22531   2.549   2.455  11.024  0.6137  0.1779 -0.7727
 3691SOL    HW122532   2.513   2.420  11.106 -1.2480 -3.8988 -3.3278
 3691SOL    HW222533   2.632   2.488  11.057  1.8860 -2.7688 -1.0147
 3692SOL     OW22534   3.395   0.925   3.784 -0.8315 -0.1189  0.4090
 3692SOL    HW122535   3.334   0.955   3.717  0.7849 -0.4930 -1.2474
 3692SOL    HW222536   3.448   1.005   3.791 -0.9185  0.0130 -0.4080
 3693SOL     OW22537   1.991   0.806  11.306 -0.0688 -0.0459 -0.4779
 3693SOL    HW122538   1.953   0.719  11.296 -0.1306 -0.1006  0.2162
 3693SOL    HW222539   1.935   0.873  11.268 -2.0823 -0.9103  0.9863
 3694SOL     OW22540   0.400   2.238   8.499  0.0066 -0.3113  0.4599
 3694SOL    HW122541   0.424   2.293   8.574  1.3709 -0.1770 -0.0694
 3694SOL    HW222542   0.486   2.200   8.481  0.3943  0.2882  1.0400
 3695SOL     OW22543   4.651   2.621   8.719  0.3616 -0.1837 -0.1269
 3695SOL    HW122544   0.005   2.584   8.680 -0.2536  0.6304 -2.1259
 3695SOL    HW222545   4.652   2.588   8.809 -1.2108 -1.9055 -0.7327
 3696SOL     OW22546   1.018   3.319  13.861 -0.1194  0.1553  0.3181
 3696SOL    HW122547   0.927   3.309  13.892 -0.0981 -2.4622 -0.4733
 3696SOL    HW222548   1.018   3.278  13.775  1.0915 -1.1952  0.9529
 3697SOL     OW22549   2.926   3.292   1.279  0.4871  0.3629  0.2037
 3697SOL    HW122550   2.842   3.337   1.289 -0.4783 -1.5948  0.9908
 3697SOL    HW222551   2.976   3.353   1.333 -0.6440 -0.4122  2.1219
 3698SOL     OW22552   1.449   0.395  10.191 -0.3125 -0.2993 -0.1117
 3698SOL    HW122553   1.423   0.484  10.167  1.4045  0.3077  0.2701
 3698SOL    HW222554   1.372   0.342  10.170  0.7108 -1.6175 -0.5811
 3699SOL     OW22555   4.403   4.218   2.692 -0.0698  0.0422  0.6589
 3699SOL    HW122556   4.380   4.293   2.638 -2.1177 -1.4496 -0.5335
 3699SOL    HW222557   4.473   4.264   2.738  1.5162 -0.7777 -0.9389
 3700SOL     OW22558   2.227   1.252   8.894  0.0601 -0.5642  0.0355
 3700SOL    HW122559   2.273   1.210   8.966 -0.6644 -0.2716  0.6658
 3700SOL    HW222560   2.279   1.332   8.884  0.8645 -1.3254 -1.7827
 3701SOL     OW22561   0.215   3.934   3.267  0.5011  0.0762  0.0625
 3701SOL    HW122562   0.240   3.846   3.240 -0.3108 -0.9051  2.5169
 3701SOL    HW222563   0.136   3.948   3.214  0.5905  0.5413  0.0557
 3702SOL     OW22564   2.902   0.548   5.811 -0.0462 -0.1299 -0.3757
 3702SOL    HW122565   2.866   0.548   5.900 -2.4175 -2.0593 -1.3333
 3702SOL    HW222566   2.872   0.461   5.786 -0.9519 -0.0330  0.3412
 3703SOL     OW22567   1.753   3.815  15.082  0.4758 -0.0079  0.5419
 3703SOL    HW122568   1.721   3.835  15.170 -2.2209 -0.0535 -0.4184
 3703SOL    HW222569   1.780   3.725  15.099 -0.1871 -0.4858 -0.9496
 3704SOL     OW22570   1.918   3.298   9.429 -0.4764 -0.3087 -0.3747
 3704SOL    HW122571   1.861   3.298   9.506  1.3388 -0.5119  0.9745
 3704SOL    HW222572   1.969   3.373   9.461 -0.3566 -0.4558 -0.2223
 3705SOL     OW22573   1.716   3.562   6.035 -0.1537 -0.0652  0.5343
 3705SOL    HW122574   1.632   3.583   5.995 -1.0669 -0.8233  2.0566
 3705SOL    HW222575   1.693   3.488   6.092 -1.3885  0.1183  0.2629
 3706SOL     OW22576   4.567   3.009  16.866  0.1723 -0.3134 -0.1141
 3706SOL    HW122577   4.567   3.088  16.920 -0.3780 -0.7862  0.5707
 3706SOL    HW222578   4.581   3.060  16.786  1.1208 -2.7767 -1.5206
 3707SOL     OW22579   2.683   1.767   0.401 -0.1827  0.0543  0.1950
 3707SOL    HW122580   2.636   1.811   0.330 -1.8997  1.4932  2.2648
 3707SOL    HW222581   2.655   1.676   0.409 -0.0139  0.1069  1.3797
 3708SOL     OW22582   2.005   3.212   7.841  0.3415 -0.6529 -0.1390
 3708SOL    HW122583   1.994   3.125   7.802 -1.5931  0.3023 -1.7569
 3708SOL    HW222584   1.989   3.272   7.768  1.9603  0.0622  0.0986
 3709SOL     OW22585   0.093   0.986  10.395 -0.0107 -0.6707  0.1610
 3709SOL    HW122586   0.134   1.030  10.469 -1.4008  2.2531 -0.8057
 3709SOL    HW222587   0.001   1.008  10.410  0.3642 -0.4728  2.2038
 3710SOL     OW22588   3.585   1.487  13.791  0.1902  0.3538  0.3211
 3710SOL    HW122589   3.526   1.556  13.760 -1.7700 -1.4806 -0.0012
 3710SOL    HW222590   3.622   1.524  13.871  0.1167  0.7382  0.1775
 3711SOL     OW22591   2.132   2.129   0.829  0.4191  0.2837 -0.9602
 3711SOL    HW122592   2.040   2.156   0.829  0.0867 -0.8391 -0.6386
 3711SOL    HW222593   2.126   2.037   0.852 -1.6802  0.3024 -1.4023
 3712SOL     OW22594   3.158   2.583   8.113 -0.3800  0.3895 -0.3452
 3712SOL    HW122595   3.096   2.651   8.140 -0.8883 -0.6743  1.1891
 3712SOL    HW222596   3.092   2.523   8.077 -0.9219 -0.3793  1.9573
 3713SOL     OW22597   3.916   4.375   8.073  0.7652  0.1040 -0.3738
 3713SOL    HW122598   3.843   4.315   8.057  0.2759  0.7940 -0.6825
 3713SOL    HW222599   3.914   4.401   7.981 -0.6671 -1.5377 -0.8057
 3714SOL     OW22600   1.801   4.670   6.336 -0.3659 -0.1355 -0.2882
 3714SOL    HW122601   1.799   4.575   6.326 -0.2244 -0.5307  3.4813
 3714SOL    HW222602   1.717   4.705   6.306 -0.2352 -0.9797 -1.6280
 3715SOL     OW22603   2.222   3.795   1.030 -0.3902  0.2896 -0.4090
 3715SOL    HW122604   2.174   3.866   0.988 -0.8782  1.5910  2.4214
 3715SOL    HW222605   2.163   3.769   1.100 -0.5589 -0.6190 -0.8809
 3716SOL     OW22606   1.944   1.813   7.245 -0.0321  0.8964  0.6770
 3716SOL    HW122607   1.925   1.736   7.298  2.0781  1.5077  2.3313
 3716SOL    HW222608   1.915   1.794   7.156  2.2653 -1.2952  0.4090
 3717SOL     OW22609   0.701   1.123   5.952 -0.5123  0.8999 -0.9436
 3717SOL    HW122610   0.640   1.107   6.024  1.2974 -1.4533  0.0481
 3717SOL    HW222611   0.772   1.165   6.001 -2.9655  3.0914  0.7848
 3718SOL     OW22612   2.803   2.130   4.490 -0.3745  0.0126  0.1718
 3718SOL    HW122613   2.818   2.215   4.532  2.8376 -2.1275  3.3324
 3718SOL    HW222614   2.884   2.118   4.440  0.3719 -0.8416  1.5875
 3719SOL     OW22615   1.384   3.620   7.032  0.2379  0.2894 -0.3447
 3719SOL    HW122616   1.471   3.599   7.066  0.2547  0.8032 -0.0686
 3719SOL    HW222617   1.352   3.531   7.015  1.9289 -0.1338 -1.3687
 3720SOL     OW22618   3.104   0.706  13.604  0.6856  0.6581 -0.4558
 3720SOL    HW122619   3.175   0.733  13.662  0.1587  2.2022 -0.5328
 3720SOL    HW222620   3.162   0.656  13.546 -0.4706 -0.5263 -0.5919
 3721SOL     OW22621   0.592   4.531   2.163  0.6370  0.1930 -0.0069
 3721SOL    HW122622   0.610   4.515   2.070 -0.9620  1.2612 -0.5150
 3721SOL    HW222623   0.677   4.567   2.187  0.2499  0.5590  0.8192
 3722SOL     OW22624   0.525   3.050  17.456 -0.0941  0.4128 -0.1539
 3722SOL    HW122625   0.521   3.105  17.378  2.3887  0.3584 -0.3076
 3722SOL    HW222626   0.433   3.061  17.482  0.0960  0.9974  0.2777
 3723SOL     OW22627   3.652   1.372   8.645  0.0526 -0.0249  0.4974
 3723SOL    HW122628   3.626   1.381   8.553 -0.9730  2.0993  0.9893
 3723SOL    HW222629   3.725   1.432   8.656 -1.3734  1.8513 -0.3001
 3724SOL     OW22630   0.478   2.288   9.443  0.2495  0.3353 -0.4748
 3724SOL    HW122631   0.428   2.209   9.462  0.9339  0.2303  0.8586
 3724SOL    HW222632   0.412   2.349   9.477 -0.0045  1.3899 -2.8507
 3725SOL     OW22633   3.994   1.647  13.505  0.3010  0.4568 -0.2023
 3725SOL    HW122634   4.082   1.612  13.491 -0.6812 -1.8390 -0.6312
 3725SOL    HW222635   3.967   1.578  13.565 -1.0837 -0.5429 -1.9552
 3726SOL     OW22636   2.061   3.754   4.311 -0.1618 -0.0080 -0.3146
 3726SOL    HW122637   2.088   3.669   4.277  0.5362  0.1065 -0.0430
 3726SOL    HW222638   2.141   3.806   4.315 -0.3283  0.0761  2.0692
 3727SOL     OW22639   3.756   3.375  12.687  0.0365 -0.5271  0.3754
 3727SOL    HW122640   3.776   3.385  12.780  0.3685  1.8779  0.0485
 3727SOL    HW222641   3.840   3.343  12.654  0.7051  0.1671  1.3971
 3728SOL     OW22642   0.456   2.992  11.266  0.4171 -0.5329 -0.6393
 3728SOL    HW122643   0.373   2.955  11.297  0.2288 -0.0908 -0.6105
 3728SOL    HW222644   0.510   2.972  11.342 -1.5765  2.6384  1.5970
 3729SOL     OW22645   0.576   1.919   6.114  0.2031 -0.2217 -0.0161
 3729SOL    HW122646   0.503   1.893   6.057 -0.6892  1.0697  0.5343
 3729SOL    HW222647   0.634   1.845   6.130 -0.8801 -0.5585  2.3263
 3730SOL     OW22648   0.766   3.771   2.612  0.0688 -0.1902 -0.1354
 3730SOL    HW122649   0.782   3.766   2.518  2.0838  0.5918  0.1566
 3730SOL    HW222650   0.785   3.861   2.637  1.3682 -0.2794 -0.7966
 3731SOL     OW22651   0.474   4.540  16.133  0.3521 -0.4990  0.1297
 3731SOL    HW122652   0.393   4.539  16.082  0.8765 -2.4380 -0.6678
 3731SOL    HW222653   0.533   4.581  16.070 -1.6205 -0.6088 -1.8071
 3732SOL     OW22654   2.420   3.081   2.254 -0.0015  0.0985 -0.1109
 3732SOL    HW122655   2.459   3.094   2.341 -0.2390  0.5771 -0.0723
 3732SOL    HW222656   2.334   3.123   2.264 -1.0366 -1.4964 -2.3512
 3733SOL     OW22657   3.444   0.368   5.904 -0.4626 -1.1234 -0.1243
 3733SOL    HW122658   3.401   0.362   5.989 -0.5946  1.8663  0.0283
 3733SOL    HW222659   3.386   0.312   5.853 -2.9799  1.6362 -0.2879
 3734SOL     OW22660   3.082   0.784   9.228 -0.0641 -0.4744  0.2819
 3734SOL    HW122661   3.110   0.857   9.174  0.2102 -1.2170 -0.5796
 3734SOL    HW222662   3.162   0.732   9.218  0.3250 -0.1211  1.4723
 3735SOL     OW22663   0.643   1.481   8.922  0.0338  0.0136  0.2411
 3735SOL    HW122664   0.547   1.487   8.927  0.1026 -0.4462  1.9764
 3735SOL    HW222665   0.645   1.393   8.883 -0.8292  0.7350 -1.4384
 3736SOL     OW22666   0.397   1.053   9.329  0.0281 -0.3052  0.5121
 3736SOL    HW122667   0.395   0.957   9.329 -0.8264 -0.3004 -1.7044
 3736SOL    HW222668   0.315   1.072   9.375 -0.6288 -2.5742  0.3146
 3737SOL     OW22669   1.802   3.756  10.496 -0.8260 -0.0641  0.2340
 3737SOL    HW122670   1.834   3.791  10.413 -1.0802  0.8130  0.5096
 3737SOL    HW222671   1.715   3.796  10.501 -0.2384  0.8063  3.2717
 3738SOL     OW22672   2.703   0.933   0.249  0.1298 -0.2849 -0.0071
 3738SOL    HW122673   2.754   0.907   0.326  3.0522  2.6473 -0.9582
 3738SOL    HW222674   2.768   0.903   0.186 -0.5007 -2.1675  0.2543
 3739SOL     OW22675   1.721   1.701   2.056  0.1961 -0.0025  0.6300
 3739SOL    HW122676   1.805   1.736   2.026 -0.3200  0.2955 -0.4618
 3739SOL    HW222677   1.735   1.611   2.028 -0.1254  0.1124  0.1075
 3740SOL     OW22678   1.818   3.342   1.296  0.2046  0.0575  0.3650
 3740SOL    HW122679   1.771   3.424   1.279 -0.3466 -0.3632 -0.1271
 3740SOL    HW222680   1.740   3.286   1.307 -0.5319  1.0023 -0.0512
 3741SOL     OW22681   3.374   2.465   6.103  0.0692  0.3177  0.0609
 3741SOL    HW122682   3.326   2.401   6.049  0.2987 -1.1034  1.5364
 3741SOL    HW222683   3.298   2.502   6.148 -0.2953 -1.8904  1.3032
 3742SOL     OW22684   2.186   4.517   6.900  0.4278 -0.8216  0.1191
 3742SOL    HW122685   2.135   4.444   6.935 -2.9883  0.4744 -2.0878
 3742SOL    HW222686   2.180   4.580   6.971  2.4231 -0.2601 -0.2167
 3743SOL     OW22687   4.260   3.844   7.847  0.4679  0.3406 -0.8942
 3743SOL    HW122688   4.234   3.936   7.841 -0.5440  0.1319  0.2664
 3743SOL    HW222689   4.340   3.860   7.898 -0.4489  1.6827  0.1361
 3744SOL     OW22690   2.522   0.371   3.441 -0.1459  0.3333  0.2361
 3744SOL    HW122691   2.468   0.301   3.403  1.4627  0.1865 -1.7611
 3744SOL    HW222692   2.558   0.419   3.367 -0.3349  0.2751  0.1043
 3745SOL     OW22693   4.272   3.119   6.908 -0.2767  0.3627  0.7197
 3745SOL    HW122694   4.210   3.067   6.959 -1.6440  0.9330 -0.3630
 3745SOL    HW222695   4.314   3.176   6.972  4.2221 -0.6797 -1.2670
 3746SOL     OW22696   3.329   3.145   7.915 -0.4153 -0.1546  0.3560
 3746SOL    HW122697   3.301   3.054   7.921  0.9734 -0.5859  0.2577
 3746SOL    HW222698   3.309   3.166   8.007  0.6405 -0.6983  0.7090
 3747SOL     OW22699   3.022   1.744  14.306 -0.0009 -0.2791 -0.5090
 3747SOL    HW122700   2.926   1.755  14.307 -0.4688 -4.4577 -0.9333
 3747SOL    HW222701   3.030   1.696  14.389 -0.9492  0.6169  0.1008
 3748SOL     OW22702   0.332   0.861   9.063  0.5349 -0.5491 -0.4718
 3748SOL    HW122703   0.386   0.841   9.139 -0.4865 -0.9434  0.1638
 3748SOL    HW222704   0.321   0.956   9.062 -0.1688 -0.6089  2.3489
 3749SOL     OW22705   3.858   3.842   7.682  0.2996 -0.5320  0.5845
 3749SOL    HW122706   3.942   3.854   7.638  0.4237  0.2753  1.0464
 3749SOL    HW222707   3.873   3.813   7.771 -3.8752 -1.5136  0.9643
 3750SOL     OW22708   3.349   4.429   8.211 -0.2638  0.6123  0.2295
 3750SOL    HW122709   3.416   4.441   8.144  1.5532 -2.5882  1.4659
 3750SOL    HW222710   3.352   4.503   8.272 -0.0168  1.4929 -0.8552
 3751SOL     OW22711   0.793   4.066  10.517 -0.2304  0.4680 -1.5611
 3751SOL    HW122712   0.771   4.111  10.435 -0.9511  0.8518 -1.1608
 3751SOL    HW222713   0.877   4.106  10.538  0.0987 -1.1028  0.0499
 3752SOL     OW22714   3.576   3.559   5.939 -0.1251 -1.1383  0.9844
 3752SOL    HW122715   3.594   3.641   5.986 -0.4803 -0.8831  0.6762
 3752SOL    HW222716   3.607   3.581   5.852  1.5759 -3.2409  1.0542
 3753SOL     OW22717   0.305   3.852   6.143  0.3739 -0.8501 -0.1580
 3753SOL    HW122718   0.245   3.781   6.165  0.2042 -0.7875 -0.4165
 3753SOL    HW222719   0.305   3.843   6.048  0.0725  0.1457 -0.2538
 3754SOL     OW22720   1.563   4.398   9.531 -0.4566  0.1831 -0.1905
 3754SOL    HW122721   1.472   4.368   9.530 -0.9162  1.5384  0.3199
 3754SOL    HW222722   1.567   4.446   9.614  1.4449 -0.0759 -0.1338
 3755SOL     OW22723   1.813   3.950  10.886  0.2587 -0.0526  0.4294
 3755SOL    HW122724   1.783   3.935  10.976 -0.1768  1.2743  0.5112
 3755SOL    HW222725   1.819   4.045  10.893  0.0389  0.0228 -0.3248
 3756SOL     OW22726   0.837   1.028  10.504  0.0633  0.0680  0.4544
 3756SOL    HW122727   0.788   0.950  10.480 -0.5165  0.3799  0.6344
 3756SOL    HW222728   0.873   0.995  10.587 -0.1892 -2.3562 -0.4037
 3757SOL     OW22729   1.310   1.838   3.808 -0.3230 -0.1668  0.2070
 3757SOL    HW122730   1.359   1.765   3.770 -1.4703  0.7072 -2.9412
 3757SOL    HW222731   1.228   1.802   3.843 -1.2438  3.5408  1.8441
 3758SOL     OW22732   0.600   2.791   5.667 -0.2389 -0.5559 -0.4706
 3758SOL    HW122733   0.547   2.772   5.589  0.1259 -1.4072 -0.5165
 3758SOL    HW222734   0.600   2.886   5.663  1.9270 -0.4898  1.0075
 3759SOL     OW22735   1.220   0.907   8.974 -0.4012  0.3170 -0.1028
 3759SOL    HW122736   1.148   0.850   8.998 -0.3558  1.7871  3.5197
 3759SOL    HW222737   1.193   0.986   9.020  0.4069 -0.3797  1.5742
 3760SOL     OW22738   0.807   2.701   0.701 -0.1897  0.5075  0.0328
 3760SOL    HW122739   0.741   2.762   0.733  1.0590  1.8291  0.1179
 3760SOL    HW222740   0.810   2.649   0.781 -0.0943 -0.1895 -0.4308
 3761SOL     OW22741   3.922   4.537   5.775 -0.1250  0.0654 -0.6030
 3761SOL    HW122742   3.937   4.618   5.824  1.9836 -0.8095  0.1934
 3761SOL    HW222743   3.998   4.490   5.810  0.0682  0.0101 -1.0969
 3762SOL     OW22744   2.901   1.323  16.312  0.1219 -0.5915 -0.3910
 3762SOL    HW122745   2.976   1.265  16.315  1.9079  1.7872  1.1518
 3762SOL    HW222746   2.872   1.327  16.221 -1.1969 -0.2717  0.0383
 3763SOL     OW22747   0.348   0.190   2.185  0.3616  0.4850 -0.6200
 3763SOL    HW122748   0.386   0.187   2.097  0.8811 -1.4890 -0.3335
 3763SOL    HW222749   0.396   0.266   2.216 -2.9528  1.6361  1.7227
 3764SOL     OW22750   3.169   1.589   8.932  0.0729 -0.2119  0.1489
 3764SOL    HW122751   3.260   1.608   8.910  0.6547 -2.7039  0.3780
 3764SOL    HW222752   3.166   1.506   8.884  4.4558 -0.3973  0.1399
 3765SOL     OW22753   1.347   4.595   4.859 -0.6621  0.1140 -0.2880
 3765SOL    HW122754   1.257   4.563   4.866 -0.4312 -0.6871 -0.9279
 3765SOL    HW222755   1.382   4.514   4.821 -1.0375  0.2174 -0.8561
 3766SOL     OW22756   3.615   4.201  16.808  0.7108 -0.1740 -0.2858
 3766SOL    HW122757   3.568   4.203  16.725  0.4401 -1.9492 -0.1742
 3766SOL    HW222758   3.702   4.171  16.781  0.4317 -0.1573 -1.1978
 3767SOL     OW22759   3.882   3.393   0.753 -0.4455  0.5436  0.7527
 3767SOL    HW122760   3.790   3.371   0.767 -0.3739  0.2344  0.7457
 3767SOL    HW222761   3.878   3.448   0.675  1.4046  2.8589  2.3259
 3768SOL     OW22762   1.658   0.957  15.443 -0.0713  0.0110  0.1867
 3768SOL    HW122763   1.725   1.002  15.494  2.3223 -1.8599 -1.2883
 3768SOL    HW222764   1.610   1.032  15.406  1.8902  0.4166 -1.5748
 3769SOL     OW22765   4.303   4.447   4.241 -0.2537 -0.1315 -0.7168
 3769SOL    HW122766   4.389   4.457   4.199  0.3084 -0.2934  0.3855
 3769SOL    HW222767   4.268   4.365   4.207 -1.0933  0.7633 -1.9939
 3770SOL     OW22768   1.805   3.324   7.117 -0.0863 -0.2667  0.0646
 3770SOL    HW122769   1.748   3.302   7.191  1.8559 -0.7160  1.4041
 3770SOL    HW222770   1.755   3.381   7.058  0.0885 -0.8536 -0.6476
 3771SOL     OW22771   3.244   0.614  17.520  0.3189  0.3041  0.3305
 3771SOL    HW122772   3.302   0.599  17.594 -0.2965  0.8721  0.9246
 3771SOL    HW222773   3.217   0.522  17.511 -0.8288  0.5838  0.8904
 3772SOL     OW22774   4.574   3.333   9.641  0.1277 -0.6178  0.7157
 3772SOL    HW122775   4.575   3.358   9.733 -0.6015 -0.0404  0.5654
 3772SOL    HW222776   4.490   3.371   9.613  0.0573  0.1238  1.9581
 3773SOL     OW22777   1.014   3.871  13.276 -0.2200  0.4422  0.1701
 3773SOL    HW122778   1.100   3.846  13.244  0.2535  2.4260 -0.1604
 3773SOL    HW222779   0.976   3.915  13.200  0.2284 -2.8336 -1.9431
 3774SOL     OW22780   2.249   3.409   2.575  0.0436 -0.1992  0.1332
 3774SOL    HW122781   2.286   3.488   2.536  1.1039 -0.6262  0.2761
 3774SOL    HW222782   2.325   3.352   2.585  0.4666  0.8098  2.7704
 3775SOL     OW22783   1.950   2.757   2.848 -0.4061  0.3083  0.4491
 3775SOL    HW122784   2.028   2.773   2.901 -0.0952  0.9429 -0.2005
 3775SOL    HW222785   1.988   2.765   2.761 -5.1466  2.6666 -1.4122
 3776SOL     OW22786   1.223   3.443   8.975  0.2729 -0.1680 -0.7586
 3776SOL    HW122787   1.242   3.370   9.033  0.0260 -0.5687 -1.1820
 3776SOL    HW222788   1.256   3.518   9.024  0.8684  0.4335 -2.0816
 3777SOL     OW22789   4.416   1.184   5.230 -0.1356  0.2865 -0.5731
 3777SOL    HW122790   4.421   1.203   5.136 -0.1921 -0.3094 -0.6944
 3777SOL    HW222791   4.501   1.141   5.241 -0.3866 -0.1245 -0.2693
 3778SOL     OW22792   0.227   0.030   8.393 -0.9268 -0.0373  0.2710
 3778SOL    HW122793   0.254   0.005   8.304 -0.4162 -0.3865  0.5258
 3778SOL    HW222794   0.236   0.124   8.407  0.4327 -0.1594  0.2618
 3779SOL     OW22795   2.740   2.583  15.824  0.1213 -0.0586  0.5213
 3779SOL    HW122796   2.801   2.614  15.758 -1.0006  2.1052  0.5151
 3779SOL    HW222797   2.690   2.664  15.831  0.0613 -0.1918  1.7436
 3780SOL     OW22798   0.265   2.336  15.122 -0.0298 -0.6063 -0.5950
 3780SOL    HW122799   0.203   2.325  15.195  1.7902  1.0061  1.1828
 3780SOL    HW222800   0.201   2.359  15.055 -1.2892  0.9608  1.1317
 3781SOL     OW22801   0.220   0.820  15.903 -0.3489 -0.3517  0.5001
 3781SOL    HW122802   0.192   0.728  15.902 -1.6815  0.0621 -1.6809
 3781SOL    HW222803   0.217   0.844  15.995 -3.0834 -2.1661  0.8752
 3782SOL     OW22804   0.630   4.219   2.760 -0.2501  0.1455 -0.3398
 3782SOL    HW122805   0.638   4.285   2.691 -0.8823 -1.2289 -1.7187
 3782SOL    HW222806   0.642   4.137   2.713 -0.1706  0.9314 -1.6923
 3783SOL     OW22807   0.111   0.879   8.837 -0.0475 -0.1333 -0.7521
 3783SOL    HW122808   0.136   0.908   8.750 -2.1726 -0.3898 -1.4653
 3783SOL    HW222809   0.141   0.788   8.834  1.5702  0.3555  0.6738
 3784SOL     OW22810   0.127   0.417  12.084 -0.8724 -0.4734 -0.2756
 3784SOL    HW122811   0.136   0.448  11.994  0.6368 -1.2173 -0.3980
 3784SOL    HW222812   0.107   0.495  12.135  1.2895 -0.2838  0.2854
 3785SOL     OW22813   2.128   1.151   4.792 -0.3411 -0.4597  0.7427
 3785SOL    HW122814   2.125   1.221   4.727  3.0256 -0.5966  0.4042
 3785SOL    HW222815   2.037   1.142   4.819 -1.0600  2.8616 -0.7002
 3786SOL     OW22816   1.322   3.528   7.653 -0.2844  0.3492 -0.2563
 3786SOL    HW122817   1.242   3.524   7.706 -0.6061  0.2026 -0.7619
 3786SOL    HW222818   1.367   3.450   7.686 -0.5413  0.1497 -0.3798
 3787SOL     OW22819   0.979   0.724   7.771 -0.1055 -0.1547 -0.2021
 3787SOL    HW122820   1.043   0.748   7.839 -0.3457  1.6959 -0.6262
 3787SOL    HW222821   1.024   0.771   7.701 -1.6535  0.4759 -0.7720
 3788SOL     OW22822   0.688   0.882   1.001 -0.3570  0.4146 -0.0552
 3788SOL    HW122823   0.598   0.854   0.989  0.5522 -1.8020 -1.7237
 3788SOL    HW222824   0.696   0.872   1.096 -0.3089 -0.3874 -0.1507
 3789SOL     OW22825   1.463   2.046   7.379  0.0368 -0.6519 -0.0532
 3789SOL    HW122826   1.380   2.010   7.411  0.2520 -0.2051  1.0150
 3789SOL    HW222827   1.445   2.044   7.285 -0.2090  1.3840 -0.0510
 3790SOL     OW22828   1.254   2.630   5.271 -0.1186  0.6917 -0.9705
 3790SOL    HW122829   1.238   2.536   5.266 -0.4614  0.7054 -0.0658
 3790SOL    HW222830   1.165   2.659   5.251  0.0628  1.9192 -0.0183
 3791SOL     OW22831   2.889   3.193   2.091 -0.5643  0.0380 -0.1924
 3791SOL    HW122832   2.964   3.142   2.121 -0.1723  0.2007 -0.9026
 3791SOL    HW222833   2.918   3.272   2.044  2.1522  0.4788  2.2619
 3792SOL     OW22834   1.683   0.461   2.224 -0.3455  0.4513 -0.4630
 3792SOL    HW122835   1.727   0.417   2.151  0.5723 -0.3548  0.5752
 3792SOL    HW222836   1.601   0.481   2.178 -0.8727  2.4168  1.3252
 3793SOL     OW22837   4.715   2.608   3.801  0.0944  0.2308 -0.3529
 3793SOL    HW122838   0.032   2.541   3.746 -0.6206  0.6098 -1.3635
 3793SOL    HW222839   0.060   2.661   3.838 -0.1072  0.0647  0.2708
 3794SOL     OW22840   4.545   0.231   3.337  0.6588  0.2194 -0.1303
 3794SOL    HW122841   4.583   0.233   3.424 -0.4764 -0.3473  0.3767
 3794SOL    HW222842   4.483   0.160   3.350  0.5698  0.3541  0.1748
 3795SOL     OW22843   4.425   3.154  15.311 -0.4525  0.3326  0.2690
 3795SOL    HW122844   4.397   3.064  15.331  0.6720 -0.4652 -1.6436
 3795SOL    HW222845   4.481   3.187  15.381  1.0862 -2.1547  0.2550
 3796SOL     OW22846   2.935   1.921   2.438  0.2505  0.2638  0.5507
 3796SOL    HW122847   2.874   1.857   2.400 -0.6874  1.5526 -0.1265
 3796SOL    HW222848   3.001   1.862   2.474 -0.1057 -0.6668 -0.3059
 3797SOL     OW22849   2.838   3.441  10.122  0.2833  0.5027  0.7545
 3797SOL    HW122850   2.826   3.509  10.188 -0.8695  2.5146 -1.5348
 3797SOL    HW222851   2.839   3.364  10.179 -0.6020  0.2259  0.3922
 3798SOL     OW22852   3.459   3.748  14.505 -0.0980  0.3220 -0.1475
 3798SOL    HW122853   3.524   3.750  14.434  2.6112 -2.8299  2.2395
 3798SOL    HW222854   3.378   3.736  14.455  0.7403 -0.1314 -1.4100
 3799SOL     OW22855   4.114   2.411   3.110  0.9015  0.9434 -0.2540
 3799SOL    HW122856   4.045   2.348   3.088 -0.1593  1.2487  2.1639
 3799SOL    HW222857   4.169   2.397   3.033  1.9187  1.3649  0.4107
 3800SOL     OW22858   1.225   1.680  10.223 -0.1959 -0.2611  0.2456
 3800SOL    HW122859   1.241   1.772  10.241 -0.0233 -0.0041 -1.2370
 3800SOL    HW222860   1.306   1.643  10.257 -0.5660 -2.5527 -1.2777
 3801SOL     OW22861   3.858   2.135  13.000  1.0023 -0.3220 -0.5223
 3801SOL    HW122862   3.867   2.201  13.069  1.9575 -2.6692  1.6372
 3801SOL    HW222863   3.762   2.145  12.999  0.9626 -0.5995  0.6460
 3802SOL     OW22864   0.652   3.987  15.215 -0.0562 -0.1718  0.0966
 3802SOL    HW122865   0.705   3.966  15.291 -0.9124 -3.6402 -0.2974
 3802SOL    HW222866   0.569   4.002  15.260  0.5506  0.8695  0.8637
 3803SOL     OW22867   2.019   1.524   3.675 -0.0037  0.0894  0.2119
 3803SOL    HW122868   2.035   1.431   3.663  1.7221  0.2623  1.2902
 3803SOL    HW222869   1.956   1.515   3.746 -0.2119  0.7198  0.1113
 3804SOL     OW22870   2.541   1.139   4.120  0.0916 -0.3018 -0.1148
 3804SOL    HW122871   2.583   1.215   4.161  1.6019 -0.6042 -1.1067
 3804SOL    HW222872   2.576   1.068   4.173  3.2555  0.5333 -1.0791
 3805SOL     OW22873   2.099   1.297  11.276 -0.2038  0.0154  0.2728
 3805SOL    HW122874   2.017   1.333  11.240 -0.4640 -0.8462 -0.0055
 3805SOL    HW222875   2.096   1.309  11.371 -0.6574 -1.5479  0.4608
 3806SOL     OW22876   3.559   0.274   0.871 -0.0220  0.0442 -0.0866
 3806SOL    HW122877   3.646   0.312   0.883 -0.1495 -0.6527  3.0689
 3806SOL    HW222878   3.542   0.214   0.944 -0.7887 -0.7157 -0.9063
 3807SOL     OW22879   2.008   1.232   2.499  0.0029 -0.3274  0.1808
 3807SOL    HW122880   2.057   1.155   2.527  0.1620 -0.3158 -0.0618
 3807SOL    HW222881   1.920   1.197   2.512 -0.4117  1.8568  3.3377
 3808SOL     OW22882   1.096   1.563   1.789 -0.0652  0.3161  0.1407
 3808SOL    HW122883   1.088   1.475   1.826 -0.5846  0.0898 -0.4919
 3808SOL    HW222884   1.067   1.540   1.700 -0.1449  1.4310 -0.1209
 3809SOL     OW22885   1.737   2.664  13.607 -0.7190 -0.4310  0.2009
 3809SOL    HW122886   1.719   2.696  13.695 -2.7714  0.1626 -0.4310
 3809SOL    HW222887   1.823   2.701  13.590 -0.9527  0.2101  0.4061
 3810SOL     OW22888   0.317   4.599   6.892  0.3641 -0.1629 -0.2205
 3810SOL    HW122889   0.288   4.510   6.873 -0.1648 -0.2793  1.1593
 3810SOL    HW222890   0.306   4.644   6.808 -1.5684 -1.1016 -0.4524
 3811SOL     OW22891   0.050   1.157  11.793 -0.0744  0.5051  0.0205
 3811SOL    HW122892   0.069   1.082  11.737 -0.5801 -0.4733  1.1526
 3811SOL    HW222893   0.047   1.118  11.880  0.5636 -0.5876 -0.4520
 3812SOL     OW22894   1.479   3.401   1.132 -0.0031 -0.1781  0.2134
 3812SOL    HW122895   1.544   3.454   1.179  1.6178 -1.8310 -0.1483
 3812SOL    HW222896   1.494   3.315   1.171  2.0798 -0.1762 -0.5408
 3813SOL     OW22897   4.304   2.123   6.469  0.2665  0.1261  0.8416
 3813SOL    HW122898   4.295   2.090   6.379 -0.8173  1.4603  0.4473
 3813SOL    HW222899   4.222   2.173   6.473  0.4093  0.3960  0.3783
 3814SOL     OW22900   1.714   2.306   9.634 -0.4249 -0.0549 -0.2162
 3814SOL    HW122901   1.619   2.301   9.644 -0.5886 -0.2282 -1.9577
 3814SOL    HW222902   1.724   2.272   9.545  0.4845  0.2087 -0.2064
 3815SOL     OW22903   4.056   1.536  12.237 -0.2083  0.1533  0.0678
 3815SOL    HW122904   4.084   1.508  12.150  0.9587 -0.6984  0.7196
 3815SOL    HW222905   3.992   1.469  12.260 -0.7635  0.4069 -0.7479
 3816SOL     OW22906   2.735   2.099   3.925 -1.0770 -0.2506  0.6112
 3816SOL    HW122907   2.724   2.175   3.868 -0.2883  0.4454  1.3829
 3816SOL    HW222908   2.753   2.147   4.007 -0.0213 -0.3973  0.4576
 3817SOL     OW22909   0.949   3.413   5.030 -0.1682 -0.5173 -0.4411
 3817SOL    HW122910   0.856   3.421   5.009  0.7282  2.9188 -3.1052
 3817SOL    HW222911   0.943   3.318   5.043  1.6622 -0.5655  0.0284
 3818SOL     OW22912   1.069   1.470   3.096 -0.1571  0.4332  0.0545
 3818SOL    HW122913   1.021   1.402   3.048 -0.5922  1.6139 -1.1888
 3818SOL    HW222914   1.145   1.419   3.124 -1.1059  0.1978  2.2180
 3819SOL     OW22915   0.796   0.591  12.105 -0.0338 -0.6539  0.0990
 3819SOL    HW122916   0.869   0.533  12.127 -0.3469 -0.5723  1.3823
 3819SOL    HW222917   0.755   0.619  12.187  0.3943 -0.2169  0.1632
 3820SOL     OW22918   0.905   3.202   3.313 -0.0015  0.1702  0.5723
 3820SOL    HW122919   0.880   3.169   3.226 -0.6178  0.5217  0.6142
 3820SOL    HW222920   0.861   3.286   3.305  0.0519  0.2277  0.8796
 3821SOL     OW22921   1.182   0.154   4.039 -0.1117 -0.1965  0.1781
 3821SOL    HW122922   1.208   0.098   4.112 -3.6210 -0.1874  1.4506
 3821SOL    HW222923   1.087   0.156   4.050 -0.4606  0.9886 -2.9594
 3822SOL     OW22924   1.670   3.785  15.368 -0.0774  0.5931  0.3816
 3822SOL    HW122925   1.628   3.713  15.414  0.4894 -0.2607 -0.4514
 3822SOL    HW222926   1.595   3.844  15.355 -0.4703 -0.0616 -0.2975
 3823SOL     OW22927   3.459   4.586   1.191 -0.5333  0.1758 -0.1412
 3823SOL    HW122928   3.515   4.527   1.141  1.1557  0.7630  1.0689
 3823SOL    HW222929   3.398   4.519   1.222 -0.1450  1.2120  2.8940
 3824SOL     OW22930   3.878   2.492  14.972 -0.0998  0.5431 -0.0847
 3824SOL    HW122931   3.929   2.471  14.894  0.0767  1.0041 -0.0896
 3824SOL    HW222932   3.915   2.425  15.030  1.8723  1.6254 -0.1220
 3825SOL     OW22933   0.699   2.159   6.143  0.5085 -0.6709 -0.4134
 3825SOL    HW122934   0.635   2.089   6.136 -0.3924 -0.2571  4.0098
 3825SOL    HW222935   0.735   2.139   6.056  2.1222  0.9111 -0.1199
 3826SOL     OW22936   1.539   2.448   7.828 -0.3262  0.3012 -0.1531
 3826SOL    HW122937   1.560   2.514   7.762 -0.7267  0.9353  0.3494
 3826SOL    HW222938   1.560   2.367   7.780  2.4450 -0.5322  2.5236
 3827SOL     OW22939   2.357   0.930   3.198 -0.5735 -0.0306 -0.0020
 3827SOL    HW122940   2.383   1.021   3.207 -0.9747  0.1026 -0.2389
 3827SOL    HW222941   2.442   0.887   3.182 -1.9253 -1.6953 -2.6790
 3828SOL     OW22942   3.189   0.011   5.376  0.2317 -0.6126 -0.8622
 3828SOL    HW122943   3.106   4.694   5.357 -0.2795 -0.9212  1.9417
 3828SOL    HW222944   3.247   4.663   5.400 -1.3629 -0.8073  2.4204
 3829SOL     OW22945   0.606   4.119   4.885 -0.0120 -0.0125 -0.1348
 3829SOL    HW122946   0.614   4.039   4.832 -0.6260  1.1076 -1.9364
 3829SOL    HW222947   0.515   4.113   4.916  0.0918  1.4320  0.4222
 3830SOL     OW22948   2.106   1.994   4.240  0.2303 -0.3099  0.0458
 3830SOL    HW122949   2.188   2.044   4.244 -0.5265  0.7813  1.8977
 3830SOL    HW222950   2.097   1.985   4.335 -1.8175 -0.1573 -0.1442
 3831SOL     OW22951   0.950   3.489  16.754  0.7213 -0.0519  0.0313
 3831SOL    HW122952   0.999   3.414  16.719 -0.1579 -0.5684 -0.1025
 3831SOL    HW222953   1.000   3.498  16.835 -0.7753 -0.7586  1.0424
 3832SOL     OW22954   1.553   2.995   0.899 -0.3216 -0.0915 -0.2118
 3832SOL    HW122955   1.593   2.936   0.962  1.9752  0.9341 -0.7189
 3832SOL    HW222956   1.477   3.018   0.953 -0.9496 -2.0520 -0.2686
 3833SOL     OW22957   0.119   1.246  15.088 -0.2012  0.1814 -0.2711
 3833SOL    HW122958   0.043   1.302  15.100 -0.2469  0.1534 -0.4311
 3833SOL    HW222959   0.174   1.302  15.034  0.9762 -1.6587 -0.9783
 3834SOL     OW22960   0.461   4.321   2.277 -0.4713 -0.2557  0.2790
 3834SOL    HW122961   0.516   4.395   2.250  0.2460 -1.3361 -1.2282
 3834SOL    HW222962   0.465   4.266   2.198  1.4758  0.6519 -0.2581
 3835SOL     OW22963   1.649   4.552   1.652  0.2762  0.0263  0.1712
 3835SOL    HW122964   1.681   4.639   1.672  1.5700  0.1414 -2.4056
 3835SOL    HW222965   1.556   4.574   1.648  0.2808 -0.2257 -1.1672
 3836SOL     OW22966   4.544   0.208   7.835 -0.3392  0.5699 -0.4715
 3836SOL    HW122967   4.480   0.137   7.834  1.3657 -1.0264  4.2834
 3836SOL    HW222968   4.620   0.174   7.786 -0.1536 -0.6127  0.6557
 3837SOL     OW22969   4.210   2.112   9.326 -0.1422 -0.1008 -0.6246
 3837SOL    HW122970   4.269   2.037   9.317 -1.3303 -1.2745  1.3826
 3837SOL    HW222971   4.132   2.056   9.318 -0.1402 -0.1782 -0.1432
 3838SOL     OW22972   3.336   0.101  13.546 -0.6334 -0.0737 -0.1597
 3838SOL    HW122973   3.369   0.188  13.570 -3.4008  1.1786 -0.8864
 3838SOL    HW222974   3.404   0.047  13.586  0.0554  1.3394  0.5956
 3839SOL     OW22975   4.506   2.375  15.872  0.5936  0.2320  0.3990
 3839SOL    HW122976   4.541   2.446  15.925 -1.0025  0.2886  1.3612
 3839SOL    HW222977   4.412   2.375  15.892  1.0935  0.4149  2.7479
 3840SOL     OW22978   3.767   0.704   1.219  0.3033 -0.6417  0.0841
 3840SOL    HW122979   3.821   0.702   1.298  1.8411  1.2782 -0.9183
 3840SOL    HW222980   3.765   0.798   1.202  0.3699 -0.3800  1.5130
 3841SOL     OW22981   4.119   1.109  12.197  0.0611 -0.0206 -0.2455
 3841SOL    HW122982   4.113   1.105  12.293  1.1604  2.9886 -0.0458
 3841SOL    HW222983   4.202   1.154  12.180  0.5038 -0.5106  0.5710
 3842SOL     OW22984   3.119   2.023  15.603 -0.0534 -0.0879 -0.2507
 3842SOL    HW122985   3.198   2.025  15.657  1.0462 -1.1052 -1.8273
 3842SOL    HW222986   3.082   2.103  15.640  0.9576  0.9586 -1.5052
 3843SOL     OW22987   4.672   2.704  11.903 -0.4176 -0.0804  0.1861
 3843SOL    HW122988   0.032   2.749  11.906  0.1029 -1.1237  1.1840
 3843SOL    HW222989   4.687   2.629  11.961  0.0549 -1.2650 -1.4623
 3844SOL     OW22990   2.417   0.396  13.236  0.8293  0.7426 -0.8626
 3844SOL    HW122991   2.440   0.342  13.160  2.5520  2.4088 -1.5078
 3844SOL    HW222992   2.334   0.438  13.215 -0.4805 -1.5983 -0.3724
 3845SOL     OW22993   3.007   4.190   6.298  0.3381 -0.0498  0.0356
 3845SOL    HW122994   3.045   4.209   6.384  0.1724  0.1629  0.0621
 3845SOL    HW222995   2.982   4.098   6.301  0.7466 -0.1251  1.4390
 3846SOL     OW22996   0.471   0.270  11.270  0.3815  0.0389 -0.4527
 3846SOL    HW122997   0.482   0.178  11.291 -0.4441 -0.2096 -1.0862
 3846SOL    HW222998   0.553   0.314  11.292  0.8410 -1.0261 -0.0618
 3847SOL     OW22999   4.470   2.740   2.664  0.0516  0.1657  0.0776
 3847SOL    HW123000   4.424   2.819   2.694 -0.3264  1.0966 -2.9661
 3847SOL    HW223001   4.532   2.776   2.601 -0.1134 -0.4440 -0.4281
 3848SOL     OW23002   2.280   0.302   0.891  0.0387  0.0447 -0.2249
 3848SOL    HW123003   2.283   0.393   0.861  1.2250 -0.3062 -1.1527
 3848SOL    HW223004   2.197   0.300   0.939  0.9894  0.1775  1.4566
 3849SOL     OW23005   0.621   0.455  13.577 -0.2723  0.5833 -0.2066
 3849SOL    HW123006   0.691   0.471  13.514 -0.5203 -1.6236 -1.0373
 3849SOL    HW223007   0.567   0.404  13.517  0.3881  0.6252 -0.8279
 3850SOL     OW23008   1.078   4.540   3.733  0.1955  0.0219 -0.2120
 3850SOL    HW123009   1.062   4.600   3.660  1.8062  1.4551  0.6220
 3850SOL    HW223010   1.143   4.482   3.692  0.7520  0.4065  0.1269
 3851SOL     OW23011   1.890   2.379   4.045  0.0281 -0.2237 -0.1354
 3851SOL    HW123012   1.867   2.461   4.001 -0.2959 -0.5174 -0.5153
 3851SOL    HW223013   1.986   2.380   4.038 -0.2056  0.2108 -3.5868
 3852SOL     OW23014   0.169   0.123   8.140 -0.1944 -0.0829 -0.8469
 3852SOL    HW123015   0.218   0.193   8.097  1.3264 -1.8382 -1.9602
 3852SOL    HW223016   0.085   0.168   8.152  1.1469  1.6941  1.6803
 3853SOL     OW23017   2.611   2.433  15.594  0.4154  0.2785  0.4999
 3853SOL    HW123018   2.625   2.362  15.656  1.8083  1.4898  1.5693
 3853SOL    HW223019   2.651   2.506  15.641  0.4835 -0.1449  1.1114
 3854SOL     OW23020   1.015   0.874   2.522 -0.1423 -0.2403  0.6944
 3854SOL    HW123021   0.956   0.946   2.500 -0.5911 -1.0119 -0.6057
 3854SOL    HW223022   0.976   0.826   2.595  0.0997  0.8252  1.5211
 3855SOL     OW23023   2.414   2.883   7.319 -0.0491  0.0806 -0.2868
 3855SOL    HW123024   2.503   2.917   7.324 -0.1890  0.4243 -0.1609
 3855SOL    HW223025   2.412   2.842   7.233  0.7973 -0.9264  0.1784
 3856SOL     OW23026   3.190   4.674  15.673 -0.0122  0.4681 -0.3437
 3856SOL    HW123027   3.216   0.041  15.663 -0.7488  0.5782 -1.2875
 3856SOL    HW223028   3.100   4.676  15.639  0.6526 -0.9020 -2.1599
 3857SOL     OW23029   2.576   3.417   2.413  0.2816  0.0448 -0.3161
 3857SOL    HW123030   2.583   3.455   2.326  1.4667 -0.4656 -0.4428
 3857SOL    HW223031   2.606   3.329   2.392  1.0599  0.1004  0.5302
 3858SOL     OW23032   1.265   0.439  16.309 -0.1235 -0.2267 -0.3691
 3858SOL    HW123033   1.247   0.523  16.266  0.3571  0.6803  1.2300
 3858SOL    HW223034   1.277   0.378  16.236  0.0409  0.8799 -1.2663
 3859SOL     OW23035   3.366   4.430   7.847 -0.3972  0.1983  0.0645
 3859SOL    HW123036   3.351   4.378   7.768  0.0962  1.4491 -0.8501
 3859SOL    HW223037   3.300   4.500   7.844 -1.0054 -0.3705  0.0731
 3860SOL     OW23038   3.139   4.573   4.015  0.2208  0.4588  0.4697
 3860SOL    HW123039   3.204   4.599   3.950  1.4131 -1.9532  0.6937
 3860SOL    HW223040   3.155   4.479   4.005 -0.0246  0.6476 -1.6305
 3861SOL     OW23041   2.754   1.813   7.577  0.0930 -0.6910  0.0604
 3861SOL    HW123042   2.784   1.889   7.627  1.0385 -0.6207 -0.6155
 3861SOL    HW223043   2.767   1.835   7.484 -0.8479  1.9199  0.5409
 3862SOL     OW23044   1.532   1.203   3.545  0.3333  0.0006 -0.4030
 3862SOL    HW123045   1.602   1.164   3.599 -0.7540  1.8349  2.2957
 3862SOL    HW223046   1.572   1.272   3.492  0.9365 -1.2543 -1.5864
 3863SOL     OW23047   3.059   2.232   0.178 -0.2448 -0.3977  0.3138
 3863SOL    HW123048   3.120   2.177   0.129 -1.1810 -1.3730  0.2584
 3863SOL    HW223049   2.973   2.205   0.148 -0.5995  2.4589 -1.3263
 3864SOL     OW23050   2.684   0.774  16.253  0.0097  0.7284 -0.0901
 3864SOL    HW123051   2.625   0.699  16.241 -0.6659  1.2890 -0.2410
 3864SOL    HW223052   2.660   0.827  16.178  1.7843  0.6049 -0.7468
 3865SOL     OW23053   0.875   3.068   2.655 -0.5691 -0.0313 -0.6469
 3865SOL    HW123054   0.943   3.041   2.717 -0.7598 -2.1027 -1.3094
 3865SOL    HW223055   0.858   2.985   2.609  2.4269 -0.5588 -0.8343
 3866SOL     OW23056   0.215   3.680   2.480  0.5077  0.3119 -0.0048
 3866SOL    HW123057   0.127   3.716   2.470 -0.3835 -2.4263 -1.7585
 3866SOL    HW223058   0.207   3.588   2.454  1.1749  0.9139 -2.3162
 3867SOL     OW23059   1.255   4.717   5.527 -0.0106 -0.0162 -0.2698
 3867SOL    HW123060   1.269   4.686   5.617  0.2962 -0.7194 -0.5603
 3867SOL    HW223061   1.337   0.036   5.503  0.1946 -1.1918 -1.6808
 3868SOL     OW23062   0.312   3.396   8.498 -0.2524  0.4545  0.0787
 3868SOL    HW123063   0.329   3.302   8.508  1.3394  0.6074 -1.1488
 3868SOL    HW223064   0.387   3.426   8.446  0.3082 -0.3978  0.3794
 3869SOL     OW23065   0.950   1.915  15.774 -0.2313 -0.0034  0.1907
 3869SOL    HW123066   0.904   1.990  15.738 -0.5640  0.3877  1.4650
 3869SOL    HW223067   1.033   1.912  15.726  0.1328 -1.1259  0.8817
 3870SOL     OW23068   4.298   2.956  16.779 -0.4153  0.1764 -0.2697
 3870SOL    HW123069   4.382   2.973  16.822 -0.1774  2.2364 -1.5031
 3870SOL    HW223070   4.314   2.882  16.721 -0.4256 -1.4071  1.7575
 3871SOL     OW23071   2.586   2.953   3.402 -0.3267 -0.0038 -0.2831
 3871SOL    HW123072   2.650   2.995   3.345  0.8569  1.0393  1.7951
 3871SOL    HW223073   2.587   3.010   3.480  0.1388  0.9522 -0.9888
 3872SOL     OW23074   3.924   3.395  13.884 -0.1096 -0.0959 -0.6371
 3872SOL    HW123075   3.964   3.453  13.820  0.9244  2.2950  2.2005
 3872SOL    HW223076   3.995   3.332  13.893  0.0075  0.3211  1.4378
 3873SOL     OW23077   1.992   4.488   8.149 -0.2731 -0.2530  0.1694
 3873SOL    HW123078   2.007   4.576   8.184 -1.1064  0.1093 -0.3867
 3873SOL    HW223079   1.916   4.502   8.092  0.2882  0.4746 -0.4004
 3874SOL     OW23080   3.995   4.141   5.797  0.5478 -0.1157  0.0601
 3874SOL    HW123081   4.017   4.060   5.844  2.0538 -0.2652 -0.9047
 3874SOL    HW223082   4.075   4.194   5.805  0.7643 -0.3786 -0.3388
 3875SOL     OW23083   3.721   3.514   3.267 -0.0718  0.2306  0.2325
 3875SOL    HW123084   3.753   3.603   3.277  1.0689 -0.2603  0.9628
 3875SOL    HW223085   3.682   3.514   3.179  0.1034 -1.5281  0.1456
 3876SOL     OW23086   0.815   4.536   1.966 -0.3472 -0.1466 -0.5861
 3876SOL    HW123087   0.873   4.462   1.946 -1.0643 -0.9768  0.3615
 3876SOL    HW223088   0.737   4.490   1.933 -1.3200  0.2358  1.1433
 3877SOL     OW23089   0.633   1.201  13.138 -0.4979  0.4187 -0.2925
 3877SOL    HW123090   0.654   1.187  13.046 -2.1388 -4.5474  0.0814
 3877SOL    HW223091   0.547   1.243  13.140 -0.1485  1.0526  1.8908
 3878SOL     OW23092   1.909   0.486  13.346 -0.5726 -0.0535  0.1545
 3878SOL    HW123093   1.868   0.542  13.280 -0.8543  0.1415  0.4958
 3878SOL    HW223094   1.974   0.544  13.384  0.8684  0.6461 -3.4016
 3879SOL     OW23095   1.635   4.682   2.731 -0.3598  0.1629  0.5851
 3879SOL    HW123096   1.558   4.629   2.751 -0.2448 -0.7759 -1.5286
 3879SOL    HW223097   1.705   4.624   2.760 -1.5730 -1.5695  0.0103
 3880SOL     OW23098   3.900   3.545   4.075  0.3112  0.3387  0.6597
 3880SOL    HW123099   3.841   3.562   4.149 -2.2887 -0.7867 -1.1352
 3880SOL    HW223100   3.835   3.526   4.008  0.6087  3.9664 -0.6721
 3881SOL     OW23101   0.693   0.874   8.266  0.0566  0.5275 -0.2125
 3881SOL    HW123102   0.771   0.865   8.212  0.2113 -1.2032  0.2752
 3881SOL    HW223103   0.731   0.912   8.346 -0.0996  0.1639  0.0378
 3882SOL     OW23104   2.005   0.321   3.157  0.4733 -0.4883 -1.0313
 3882SOL    HW123105   2.086   0.271   3.168 -0.4682 -1.5723  1.0199
 3882SOL    HW223106   1.969   0.316   3.245  3.1128  1.4907  0.1408
 3883SOL     OW23107   1.367   3.996  14.550 -0.3926 -0.7058  0.2869
 3883SOL    HW123108   1.343   4.024  14.462  0.0528  0.2356  0.4595
 3883SOL    HW223109   1.362   4.076  14.603  0.9599 -0.1775 -0.3636
 3884SOL     OW23110   4.546   2.207   7.532  0.0925 -0.6826 -0.1875
 3884SOL    HW123111   4.588   2.177   7.612 -0.1435  0.2629  0.3025
 3884SOL    HW223112   4.566   2.139   7.469 -0.7048 -1.3723  0.3046
 3885SOL     OW23113   1.896   2.402   3.635  0.0454  0.2243  0.6317
 3885SOL    HW123114   1.989   2.385   3.651 -0.2037 -1.8172 -0.1056
 3885SOL    HW223115   1.889   2.389   3.540 -0.2932 -1.0808  0.8329
 3886SOL     OW23116   1.710   2.681   4.305 -0.2413 -0.1308 -0.4695
 3886SOL    HW123117   1.742   2.647   4.388 -0.9059 -2.2014 -1.0718
 3886SOL    HW223118   1.619   2.650   4.310  0.1870 -1.5054 -1.2597
 3887SOL     OW23119   3.448   0.380   9.389 -0.5509 -0.2011  0.5963
 3887SOL    HW123120   3.446   0.448   9.321  0.5122 -3.0919 -2.3069
 3887SOL    HW223121   3.436   0.302   9.334 -2.9228  0.2430  0.4512
 3888SOL     OW23122   2.348   0.309   4.482 -0.3171  0.0807  0.0238
 3888SOL    HW123123   2.355   0.289   4.388 -4.3841  0.2733 -0.3132
 3888SOL    HW223124   2.269   0.362   4.477 -0.9577 -1.0100 -1.6918
 3889SOL     OW23125   2.724   4.421   4.052  0.1373 -0.0671 -0.6353
 3889SOL    HW123126   2.767   4.504   4.069  1.1577 -0.5917 -0.6470
 3889SOL    HW223127   2.798   4.376   4.011 -0.2311  1.2181 -2.7204
 3890SOL     OW23128   1.454   3.297   9.664  0.1132 -0.0186  0.1194
 3890SOL    HW123129   1.442   3.342   9.747 -1.9837  1.7189 -1.1388
 3890SOL    HW223130   1.365   3.288   9.631  0.0050  0.8312  0.1942
 3891SOL     OW23131   2.085   0.528   5.008  0.3432  0.1052 -0.2322
 3891SOL    HW123132   2.080   0.489   4.920 -1.3154  3.0940 -1.4581
 3891SOL    HW223133   2.158   0.589   4.999 -1.0570  1.9008  0.7107
 3892SOL     OW23134   1.591   1.875  11.860  0.0701 -0.4587  0.1007
 3892SOL    HW123135   1.599   1.860  11.766 -1.9208  2.2744 -0.5071
 3892SOL    HW223136   1.647   1.952  11.872 -0.3182 -0.1009 -0.3650
 3893SOL     OW23137   4.294   0.573   4.744  0.1317 -0.1177  0.6167
 3893SOL    HW123138   4.384   0.598   4.763  0.0105  1.6070 -1.0587
 3893SOL    HW223139   4.239   0.635   4.792  0.8495  1.4337 -0.5865
 3894SOL     OW23140   4.351   0.650   3.801  0.0992 -0.1454 -0.0290
 3894SOL    HW123141   4.357   0.622   3.710  0.6012  0.4685 -0.1822
 3894SOL    HW223142   4.262   0.684   3.807  0.6504  1.5888 -1.8204
 3895SOL     OW23143   4.579   1.370   8.397  0.5878 -0.1558 -0.6205
 3895SOL    HW123144   4.622   1.322   8.468  0.9958  0.2077 -0.6243
 3895SOL    HW223145   4.631   1.335   8.325 -0.1272 -0.6524 -0.9026
 3896SOL     OW23146   2.502   0.717   9.545  0.0880 -0.2011 -0.1734
 3896SOL    HW123147   2.530   0.759   9.626  2.8180  0.9079 -1.6641
 3896SOL    HW223148   2.521   0.789   9.484  1.0351 -0.9797 -0.7857
 3897SOL     OW23149   3.089   0.506   4.155 -0.5759  0.6268 -0.1442
 3897SOL    HW123150   3.114   0.451   4.229  0.8146 -1.6750 -2.3516
 3897SOL    HW223151   3.025   0.450   4.112 -2.9132  3.9472 -1.0186
 3898SOL     OW23152   0.776   4.044   4.672  0.3357  0.4460  0.5513
 3898SOL    HW123153   0.839   3.986   4.629  0.4157  0.8820  0.0712
 3898SOL    HW223154   0.719   4.044   4.595 -0.0515  0.7251  0.8388
 3899SOL     OW23155   1.573   4.005   5.240 -0.2225  0.3647  0.0092
 3899SOL    HW123156   1.481   4.024   5.259 -0.0372  2.4319 -1.1355
 3899SOL    HW223157   1.621   4.060   5.302  4.1697 -2.3949 -0.9596
 3900SOL     OW23158   1.535   4.034   7.641 -0.2530  0.3431  0.1034
 3900SOL    HW123159   1.532   3.992   7.555  1.7584  0.0081  0.1898
 3900SOL    HW223160   1.467   4.093   7.610  0.5995  0.7242 -1.0414
 3901SOL     OW23161   4.184   1.484  11.801  0.0210  0.3317  0.0032
 3901SOL    HW123162   4.233   1.426  11.859 -1.0346 -0.1000  0.4570
 3901SOL    HW223163   4.090   1.472  11.817 -0.4718  2.9175 -0.8635
 3902SOL     OW23164   0.208   3.958   6.539 -0.5990 -0.1678  0.3914
 3902SOL    HW123165   0.231   3.896   6.609 -0.7906  1.2833  1.7418
 3902SOL    HW223166   0.251   3.912   6.467 -2.6485 -0.5620 -0.5687
 3903SOL     OW23167   1.967   2.388  15.467  0.1855  0.8738  0.3779
 3903SOL    HW123168   1.946   2.480  15.479 -0.0260  0.5125  2.6958
 3903SOL    HW223169   1.975   2.354  15.556  1.6481  1.8862  0.6232
 3904SOL     OW23170   3.570   1.649   3.733 -0.0869 -0.5599 -0.1432
 3904SOL    HW123171   3.619   1.712   3.787 -0.8328  0.9224 -1.2000
 3904SOL    HW223172   3.640   1.589   3.708  0.4278  0.5760 -1.3840
 3905SOL     OW23173   0.834   3.192   6.820  0.1517 -0.1881  0.1455
 3905SOL    HW123174   0.800   3.241   6.895  2.6825 -1.4076  2.1232
 3905SOL    HW223175   0.812   3.100   6.836  2.8391 -0.7624  0.6899
 3906SOL     OW23176   4.278   3.585   6.518 -0.0864 -0.7432  0.0269
 3906SOL    HW123177   4.358   3.637   6.508 -2.2381  2.3546 -0.8430
 3906SOL    HW223178   4.211   3.642   6.482  2.5588  1.2192 -1.7772
 3907SOL     OW23179   2.067   2.154   3.859 -0.9243  0.3429  0.2711
 3907SOL    HW123180   2.100   2.156   3.949 -0.4901  1.0755  0.0946
 3907SOL    HW223181   1.974   2.168   3.879 -1.4124 -0.9235 -1.1273
 3908SOL     OW23182   3.735   3.665   8.438 -0.1337 -0.4217  0.2287
 3908SOL    HW123183   3.645   3.684   8.414 -0.6418 -1.0948  1.5873
 3908SOL    HW223184   3.717   3.576   8.470  1.2961 -1.1704 -1.0489
 3909SOL     OW23185   2.799   3.949   3.047  0.0075  0.1111 -0.5500
 3909SOL    HW123186   2.891   3.950   3.019  1.2217 -1.2471  3.4347
 3909SOL    HW223187   2.752   3.934   2.965  0.9618  0.1134 -1.0956
 3910SOL     OW23188   2.528   2.267   6.492 -0.7310 -0.1392 -0.3322
 3910SOL    HW123189   2.599   2.331   6.490 -1.0815  0.1703 -3.0984
 3910SOL    HW223190   2.574   2.184   6.490  0.7154  0.6105  1.7862
 3911SOL     OW23191   0.912   2.310  15.997  0.4052 -0.0120 -0.6290
 3911SOL    HW123192   0.878   2.337  16.082  1.8818  0.7904 -0.2834
 3911SOL    HW223193   0.914   2.215  16.008 -2.2238  0.1744  1.3516
 3912SOL     OW23194   0.394   1.832   4.159 -0.3575 -0.5953 -1.0255
 3912SOL    HW123195   0.418   1.845   4.067  2.4137 -1.8259 -0.4881
 3912SOL    HW223196   0.450   1.759   4.184 -1.9871 -1.5680 -0.2411
 3913SOL     OW23197   1.934   4.397   6.264 -0.1895 -0.0926 -0.4213
 3913SOL    HW123198   1.917   4.305   6.242 -0.0647 -0.2346  0.0790
 3913SOL    HW223199   1.989   4.428   6.193 -0.5498  0.4203 -0.4763
 3914SOL     OW23200   2.949   1.250   6.243 -0.9813 -0.2235 -0.0576
 3914SOL    HW123201   3.036   1.224   6.211 -0.9796 -1.3783  0.8950
 3914SOL    HW223202   2.942   1.341   6.215  1.2405  0.5898  2.0372
 3915SOL     OW23203   0.509   2.681   2.762 -0.2621 -0.0421 -0.3134
 3915SOL    HW123204   0.516   2.696   2.668 -1.3911  0.0147 -0.3899
 3915SOL    HW223205   0.594   2.708   2.796 -0.9216  0.0037  1.3412
 3916SOL     OW23206   2.998   3.349  16.261  0.4901 -0.1682  0.5992
 3916SOL    HW123207   2.932   3.318  16.199 -0.3928  1.1380  0.8910
 3916SOL    HW223208   3.083   3.328  16.222 -1.1288 -0.8606 -2.5180
 3917SOL     OW23209   1.365   1.068   8.075  0.0928 -0.5480  0.2358
 3917SOL    HW123210   1.272   1.078   8.097 -0.2073 -0.3831 -1.1331
 3917SOL    HW223211   1.403   1.140   8.125  1.9176 -0.6273 -1.0491
 3918SOL     OW23212   3.098   4.418   1.591 -0.5073 -0.2622 -0.2599
 3918SOL    HW123213   3.160   4.361   1.545  1.6880  1.3782  0.7151
 3918SOL    HW223214   3.055   4.451   1.512 -2.4374  0.0882  0.9294
 3919SOL     OW23215   2.205   2.769   9.319  0.4135  0.2543 -0.5737
 3919SOL    HW123216   2.153   2.742   9.395  2.5072 -0.6611  0.5092
 3919SOL    HW223217   2.274   2.827   9.350  1.9943 -1.7019 -0.4450
 3920SOL     OW23218   4.407   3.476   2.052 -0.6277  0.1001  0.3088
 3920SOL    HW123219   4.415   3.400   2.109  1.2763  0.4258  0.4521
 3920SOL    HW223220   4.425   3.440   1.965 -1.3356 -0.8243  0.5384
 3921SOL     OW23221   2.030   3.486   0.541 -0.1868 -0.0375 -0.2836
 3921SOL    HW123222   2.008   3.563   0.593  0.7393  0.2102 -0.2494
 3921SOL    HW223223   1.992   3.426   0.604  0.7384 -0.0778  0.2379
 3922SOL     OW23224   4.285   0.278   5.915  0.0183  0.3807 -0.1063
 3922SOL    HW123225   4.361   0.274   5.973 -1.6246 -1.3263  1.9722
 3922SOL    HW223226   4.265   0.185   5.923  2.8855 -0.1059  1.2366
 3923SOL     OW23227   3.925   2.454   2.348  0.3234  0.0658 -0.7193
 3923SOL    HW123228   3.942   2.420   2.260  0.5252  1.1977 -1.1136
 3923SOL    HW223229   3.870   2.526   2.319  0.1257 -0.2020 -1.0138
 3924SOL     OW23230   4.234   1.364  13.223 -0.3486  0.1299 -0.2096
 3924SOL    HW123231   4.319   1.368  13.180  0.6896  1.8763  2.0300
 3924SOL    HW223232   4.242   1.422  13.299 -3.6612  2.0213 -1.3069
 3925SOL     OW23233   0.815   0.398   5.708 -0.3255  0.4497 -0.0198
 3925SOL    HW123234   0.907   0.402   5.681 -0.1991  0.7555  0.4476
 3925SOL    HW223235   0.765   0.432   5.634 -1.9547 -0.5953  0.6104
 3926SOL     OW23236   3.237   2.542   5.533 -0.2500  0.1532 -0.2820
 3926SOL    HW123237   3.320   2.524   5.489  0.6725  1.0745  1.0864
 3926SOL    HW223238   3.192   2.600   5.472 -0.7817  0.8465  0.7658
 3927SOL     OW23239   0.852   3.627   3.694 -0.3517 -0.1885 -0.0472
 3927SOL    HW123240   0.838   3.563   3.763 -0.7645  1.3005  1.2452
 3927SOL    HW223241   0.785   3.693   3.713  0.7818  1.2590 -1.0668
 3928SOL     OW23242   2.446   3.174   2.796 -0.3937 -0.0086  0.1490
 3928SOL    HW123243   2.457   3.269   2.789 -1.0227  0.1243  1.0274
 3928SOL    HW223244   2.405   3.170   2.882 -1.3817  0.7781 -0.2764
 3929SOL     OW23245   1.102   2.095  12.737 -0.0212  0.1428  0.1949
 3929SOL    HW123246   1.167   2.105  12.806 -0.2270 -1.0517  0.5646
 3929SOL    HW223247   1.160   2.075  12.663 -0.8979 -0.6431 -0.2744
 3930SOL     OW23248   0.128   4.343   1.740 -0.1284  0.2984  0.2086
 3930SOL    HW123249   0.068   4.363   1.668  1.7935  1.9055 -0.9510
 3930SOL    HW223250   0.176   4.425   1.734  0.6231  0.0407  2.8791
 3931SOL     OW23251   3.784   2.778   5.179 -0.0770 -0.0847  0.0154
 3931SOL    HW123252   3.689   2.780   5.180 -0.0737 -0.0017  0.1864
 3931SOL    HW223253   3.802   2.766   5.086  1.1590 -1.2815  0.3971
 3932SOL     OW23254   3.824   4.085  14.572  0.1886  0.0648 -0.3880
 3932SOL    HW123255   3.919   4.091  14.574  0.2041  0.0315 -1.0041
 3932SOL    HW223256   3.812   3.991  14.584 -1.0397  0.2589 -0.1242
 3933SOL     OW23257   2.350   4.113   6.822 -0.1588 -0.4123  0.1329
 3933SOL    HW123258   2.421   4.126   6.885  1.1895  1.7344 -1.8236
 3933SOL    HW223259   2.377   4.174   6.754  2.9365 -2.9859 -0.9225
 3934SOL     OW23260   4.430   1.155  14.484  0.5918 -0.9194  0.3803
 3934SOL    HW123261   4.408   1.242  14.518  1.6636  0.2242 -1.9243
 3934SOL    HW223262   4.464   1.112  14.563 -0.6190 -1.7692  0.4406
 3935SOL     OW23263   4.152   4.563  16.964 -0.2012 -0.1072  0.0078
 3935SOL    HW123264   4.101   4.499  16.913  1.0909 -1.3041  0.2308
 3935SOL    HW223265   4.088   4.582  17.033 -0.0253  2.2371 -0.4530
 3936SOL     OW23266   1.687   3.256   8.980  0.2816  0.6919 -0.0314
 3936SOL    HW123267   1.738   3.179   8.954 -1.5395 -0.1307 -1.2679
 3936SOL    HW223268   1.608   3.216   9.017 -0.0444  0.0705 -1.3882
 3937SOL     OW23269   3.768   1.058   2.690 -0.0115 -0.9150  0.1076
 3937SOL    HW123270   3.825   1.053   2.613 -1.0245 -0.6409 -0.6656
 3937SOL    HW223271   3.786   1.150   2.710  2.4440 -1.0600 -1.4360
 3938SOL     OW23272   3.051   3.704  10.642 -0.4273 -0.0888  0.3422
 3938SOL    HW123273   2.992   3.702  10.567 -1.2187  3.1900  0.8548
 3938SOL    HW223274   3.057   3.618  10.684  2.7290  0.5912  1.2977
 3939SOL     OW23275   3.239   2.853   1.410 -0.4689 -0.0433 -0.1758
 3939SOL    HW123276   3.289   2.881   1.487  3.6221 -1.1599 -2.4189
 3939SOL    HW223277   3.230   2.760   1.433  0.8549  0.5839  2.8864
 3940SOL     OW23278   2.878   1.550   7.044  0.3401  0.7685  0.0834
 3940SOL    HW123279   2.949   1.520   7.101 -2.0488 -1.2420  1.9917
 3940SOL    HW223280   2.839   1.463   7.033  2.5353 -0.0379 -1.2449
 3941SOL     OW23281   2.250   2.235   4.188  0.6804  0.3941 -0.0575
 3941SOL    HW123282   2.253   2.279   4.273 -0.1984  0.6800 -0.1710
 3941SOL    HW223283   2.236   2.316   4.138  1.9605 -0.9818 -2.5956
 3942SOL     OW23284   3.876   3.843   8.286  0.2323  0.3336  0.3839
 3942SOL    HW123285   3.807   3.903   8.258 -1.3918 -2.1387 -0.8843
 3942SOL    HW223286   3.824   3.784   8.340  0.5259  0.2352  0.5581
 3943SOL     OW23287   3.624   1.487   6.752  0.0331 -0.1190  0.5175
 3943SOL    HW123288   3.608   1.545   6.826 -1.5602 -0.1849  0.2308
 3943SOL    HW223289   3.707   1.523   6.719 -0.3155 -0.9353 -1.2577
 3944SOL     OW23290   1.248   0.436   2.995  0.1332  0.1013  0.2625
 3944SOL    HW123291   1.234   0.342   2.992 -1.0719  0.2622  0.6879
 3944SOL    HW223292   1.343   0.443   2.984  0.1949  1.5685  1.7488
 3945SOL     OW23293   2.698   1.713  15.068 -0.6680 -0.3575  0.1441
 3945SOL    HW123294   2.723   1.789  15.120  1.2101 -0.2601 -0.9026
 3945SOL    HW223295   2.673   1.648  15.133 -0.7327 -0.5212 -0.0428
 3946SOL     OW23296   3.577   1.940   8.840  0.2163 -0.4185 -0.3032
 3946SOL    HW123297   3.600   2.033   8.840  0.5806 -0.5074 -1.0825
 3946SOL    HW223298   3.536   1.935   8.926 -1.3070  2.1369 -0.8977
 3947SOL     OW23299   2.977   1.652   5.112  0.2177 -0.0679 -0.0550
 3947SOL    HW123300   2.893   1.682   5.146  1.1644  1.8351  0.5742
 3947SOL    HW223301   2.990   1.573   5.164  1.0810  0.8575  1.1229
 3948SOL     OW23302   1.391   0.899   5.999  0.3866  0.4875 -0.2492
 3948SOL    HW123303   1.311   0.908   6.050  0.8457  2.4575  0.1064
 3948SOL    HW223304   1.374   0.811   5.964  0.0768  0.3664  0.2080
 3949SOL     OW23305   1.149   1.876   1.476 -0.0732 -0.1375  0.0394
 3949SOL    HW123306   1.132   1.782   1.478  0.1192 -0.1993 -1.4272
 3949SOL    HW223307   1.215   1.889   1.407 -1.0172 -0.0291 -0.8395
 3950SOL     OW23308   4.646   3.452   2.474 -0.2656 -0.2768 -0.0830
 3950SOL    HW123309   4.671   3.540   2.504  0.8495 -1.7483  3.3543
 3950SOL    HW223310   4.624   3.475   2.384  1.7204 -0.8922 -0.7064
 3951SOL     OW23311   1.320   2.913   6.997 -0.0649  0.5418  0.4012
 3951SOL    HW123312   1.361   2.926   7.083 -0.5682  0.5885  0.6364
 3951SOL    HW223313   1.242   2.968   7.004  0.5761  1.4130  0.7375
 3952SOL     OW23314   4.056   2.554   8.426  0.6194 -0.2398 -0.4242
 3952SOL    HW123315   4.070   2.506   8.345 -1.1120 -2.6790  0.7176
 3952SOL    HW223316   4.101   2.490   8.482 -0.7496  0.1696  1.1489
 3953SOL     OW23317   0.716   1.100   1.855  0.0665 -0.3240  0.1673
 3953SOL    HW123318   0.743   1.024   1.803 -0.3137  0.4918 -1.2393
 3953SOL    HW223319   0.624   1.075   1.864  0.1467 -0.4450  0.6383
 3954SOL     OW23320   2.885   3.172   5.857 -0.3829  0.1414 -0.1265
 3954SOL    HW123321   2.942   3.098   5.880  1.4547  1.3106 -0.9462
 3954SOL    HW223322   2.800   3.133   5.834 -0.8183 -0.8677  3.2103
 3955SOL     OW23323   4.359   0.711   6.812 -0.8373 -0.0779 -0.5007
 3955SOL    HW123324   4.429   0.653   6.782 -0.2467  0.1235  0.4700
 3955SOL    HW223325   4.409   0.758   6.879 -2.8788  0.2526  0.7970
 3956SOL     OW23326   0.863   2.550   2.558  0.3319 -0.3489  0.6065
 3956SOL    HW123327   0.911   2.586   2.633  0.3059  0.8615  0.0281
 3956SOL    HW223328   0.826   2.472   2.601 -1.5296  1.0510  1.5425
 3957SOL     OW23329   0.842   2.900   3.276 -0.0368  0.4139 -0.1357
 3957SOL    HW123330   0.877   2.967   3.218 -0.4189  1.6894  1.1107
 3957SOL    HW223331   0.774   2.950   3.320 -1.5505 -0.6980 -1.1920
 3958SOL     OW23332   1.284   0.020  10.025  0.2840 -0.3218 -0.1834
 3958SOL    HW123333   1.347   0.045   9.957  0.5291 -1.9748 -0.5749
 3958SOL    HW223334   1.334   4.683  10.079 -0.6983 -2.0043 -1.1983
 3959SOL     OW23335   2.523   1.827   2.352 -0.1497  0.0595  0.4091
 3959SOL    HW123336   2.500   1.915   2.382 -1.4505 -0.1883  0.1227
 3959SOL    HW223337   2.476   1.810   2.270  0.0350 -0.5967  0.4393
 3960SOL     OW23338   4.236   1.194   4.600  0.3311  0.3143 -0.4413
 3960SOL    HW123339   4.146   1.164   4.587 -0.4888  1.2510  3.3180
 3960SOL    HW223340   4.224   1.226   4.689 -0.5567 -0.8389 -0.1572
 3961SOL     OW23341   1.096   4.066   6.052 -0.2016 -0.0067 -0.5384
 3961SOL    HW123342   1.050   4.131   6.106 -1.3595  0.9332 -2.6829
 3961SOL    HW223343   1.033   4.010   6.007 -1.1442  0.9017 -0.3719
 3962SOL     OW23344   3.150   0.808  13.244 -0.3151  0.3587 -0.1665
 3962SOL    HW123345   3.073   0.834  13.295 -0.2344  2.3086 -1.0185
 3962SOL    HW223346   3.123   0.836  13.157 -3.8326 -0.6555  0.6136
 3963SOL     OW23347   1.055   4.663   3.494  0.1165  0.6593  0.9048
 3963SOL    HW123348   1.036   4.660   3.400 -1.1523  2.0099  1.1071
 3963SOL    HW223349   1.145   4.694   3.497  0.3602  0.0312 -0.0767
 3964SOL     OW23350   2.733   2.507   6.411 -0.1380  0.1420  0.0250
 3964SOL    HW123351   2.761   2.429   6.363  3.6813 -0.7245  3.6817
 3964SOL    HW223352   2.695   2.554   6.337  0.0983  0.3660  0.0494
 3965SOL     OW23353   3.476   3.623  15.864  0.1965  0.6859  0.2481
 3965SOL    HW123354   3.382   3.643  15.856  0.7593  3.6816  0.8063
 3965SOL    HW223355   3.509   3.706  15.899  1.1523  0.1515  0.5912
 3966SOL     OW23356   1.300   1.339   3.154 -0.0964 -0.2811 -0.2905
 3966SOL    HW123357   1.344   1.320   3.071  1.1780 -0.1663  0.3692
 3966SOL    HW223358   1.361   1.404   3.189 -0.9517  0.0574  0.5752
 3967SOL     OW23359   1.104   0.634   8.690  0.0364 -0.1343  0.0008
 3967SOL    HW123360   1.082   0.554   8.737 -1.0413  0.0869 -0.1321
 3967SOL    HW223361   1.198   0.643   8.707  0.2054 -1.3922 -0.2966
 3968SOL     OW23362   4.696   1.239   5.859 -0.4903 -0.3940  0.1778
 3968SOL    HW123363   0.020   1.212   5.782  0.8606  0.9729  0.5702
 3968SOL    HW223364   4.620   1.182   5.847 -0.3077 -0.4860 -0.5204
 3969SOL     OW23365   4.296   1.249  16.165  0.4883 -0.8516 -0.1526
 3969SOL    HW123366   4.361   1.273  16.099  0.9036 -1.3697  0.0648
 3969SOL    HW223367   4.349   1.201  16.229  0.9181 -0.8025 -0.4740
 3970SOL     OW23368   0.244   1.224   5.402 -0.1884  0.9260 -0.2728
 3970SOL    HW123369   0.324   1.179   5.430 -1.1579 -2.0951 -2.3534
 3970SOL    HW223370   0.198   1.170   5.338  1.3201  0.4358 -0.9428
 3971SOL     OW23371   3.723   3.616   4.273 -0.7390  0.2367 -0.2045
 3971SOL    HW123372   3.760   3.699   4.302  1.5194 -0.3379 -1.3997
 3971SOL    HW223373   3.692   3.578   4.355  3.2906 -0.3109  1.0869
 3972SOL     OW23374   1.318   0.792  11.440 -0.1686 -0.3036 -0.5103
 3972SOL    HW123375   1.413   0.780  11.445 -0.2783 -1.4674 -1.1572
 3972SOL    HW223376   1.295   0.705  11.474 -1.0311 -0.3404 -1.1928
 3973SOL     OW23377   2.040   0.589   5.777  0.1988 -0.4458  0.1496
 3973SOL    HW123378   2.069   0.667   5.824  1.2633 -0.8297  0.1175
 3973SOL    HW223379   1.964   0.624   5.730  0.5696  1.0960  0.6992
 3974SOL     OW23380   3.704   1.049   4.845 -0.1123  0.6673 -0.1073
 3974SOL    HW123381   3.676   1.084   4.761  0.9307 -0.3867 -0.8950
 3974SOL    HW223382   3.659   1.105   4.908 -1.8392 -1.1518  0.2969
 3975SOL     OW23383   0.408   1.681   6.800  0.0988  0.7499  0.2635
 3975SOL    HW123384   0.494   1.669   6.760  0.3288  0.3094  0.8721
 3975SOL    HW223385   0.401   1.590   6.831 -2.0571  1.1645  1.0084
 3976SOL     OW23386   0.003   3.017  16.122 -0.4784 -0.3708 -0.5557
 3976SOL    HW123387   4.720   2.951  16.190 -1.6629 -1.2980 -1.5967
 3976SOL    HW223388   0.095   3.008  16.094  0.2947 -0.7091  2.1042
 3977SOL     OW23389   4.588   1.491  17.358 -0.2648 -0.3191  0.0196
 3977SOL    HW123390   4.550   1.578  17.369 -0.4462 -0.2187 -1.4200
 3977SOL    HW223391   4.589   1.475  17.264 -1.0310 -1.4551  0.2094
 3978SOL     OW23392   4.569   3.195   3.481  0.1671 -0.0905 -0.2846
 3978SOL    HW123393   4.511   3.158   3.547 -0.3786 -0.5160 -1.0115
 3978SOL    HW223394   4.581   3.123   3.419 -0.7788 -0.9245  0.5016
 3979SOL     OW23395   0.151   0.393  13.707  0.4760 -0.1235  0.0130
 3979SOL    HW123396   0.233   0.429  13.741  0.4490  2.4876 -2.6611
 3979SOL    HW223397   0.112   0.348  13.782  0.2827 -0.2034 -0.1379
 3980SOL     OW23398   4.181   1.445   5.246  0.4396  0.5528  0.5204
 3980SOL    HW123399   4.253   1.452   5.309  1.7777  2.4981 -1.2244
 3980SOL    HW223400   4.102   1.450   5.299  0.1271  0.2813  0.0749
 3981SOL     OW23401   0.184   4.501   2.306  0.1799 -0.1235 -0.4575
 3981SOL    HW123402   0.188   4.544   2.221  0.5476 -1.9180 -1.3457
 3981SOL    HW223403   0.199   4.410   2.283  1.5615 -0.2505  0.9585
 3982SOL     OW23404   4.157   0.380  13.778 -0.4648  0.6339  0.1930
 3982SOL    HW123405   4.090   0.379  13.709 -0.8232 -3.3330  0.5832
 3982SOL    HW223406   4.139   0.456  13.832 -0.6435  1.4847 -1.0604
 3983SOL     OW23407   3.353   1.458  14.457  0.0752 -0.1027 -0.3464
 3983SOL    HW123408   3.402   1.376  14.448  0.5247 -0.0484  1.6546
 3983SOL    HW223409   3.367   1.496  14.370 -0.4673 -0.3006 -0.5251
 3984SOL     OW23410   0.221   0.135   5.633 -0.1400 -0.6416  0.2847
 3984SOL    HW123411   0.297   0.116   5.579 -1.1815 -1.5063 -0.8936
 3984SOL    HW223412   0.252   0.093   5.713  0.2324  1.3281  1.1663
 3985SOL     OW23413   3.433   2.501   3.893 -0.1368 -0.6048 -0.2918
 3985SOL    HW123414   3.451   2.410   3.919  0.1631 -1.2178 -2.5412
 3985SOL    HW223415   3.344   2.495   3.926  0.2077 -1.0428  0.5594
 3986SOL     OW23416   0.862   3.595  13.281  0.5222  0.3293  0.4518
 3986SOL    HW123417   0.929   3.531  13.258 -1.8259 -2.1760  0.6187
 3986SOL    HW223418   0.915   3.673  13.266 -0.6047  0.8369 -0.9181
 3987SOL     OW23419   1.439   2.752   9.304 -0.3107 -0.6376 -0.2570
 3987SOL    HW123420   1.496   2.677   9.318 -0.3351 -0.4972  0.6342
 3987SOL    HW223421   1.502   2.823   9.292 -1.3655  0.0158 -1.9398
 3988SOL     OW23422   4.621   4.521   7.205 -0.7560  0.0996  0.6234
 3988SOL    HW123423   4.540   4.571   7.215 -0.7164  0.4266 -0.7231
 3988SOL    HW223424   4.687   4.554   7.268  0.0600  3.2547 -1.8771
 3989SOL     OW23425   1.552   3.182  10.246  0.2294 -0.0722  0.1366
 3989SOL    HW123426   1.534   3.121  10.175 -0.7153 -1.9320  1.9666
 3989SOL    HW223427   1.495   3.258  10.242  1.1887  0.8053  2.8600
 3990SOL     OW23428   1.827   3.278   2.079 -0.1681  0.1464  0.5457
 3990SOL    HW123429   1.907   3.327   2.101 -0.3608  0.7476 -0.1179
 3990SOL    HW223430   1.821   3.297   1.986 -0.3676 -0.3313  0.4620
 3991SOL     OW23431   3.728   3.930   1.230  0.0090  0.2632  0.1598
 3991SOL    HW123432   3.736   3.945   1.136 -0.9721 -0.6437 -0.0661
 3991SOL    HW223433   3.796   3.862   1.227 -0.5837 -0.3340  0.1642
 3992SOL     OW23434   1.843   3.470   0.917  0.8204 -0.4319 -0.5375
 3992SOL    HW123435   1.770   3.412   0.891 -0.5724  1.1172 -0.0882
 3992SOL    HW223436   1.884   3.400   0.968  0.6633  0.3956  0.7232
 3993SOL     OW23437   3.989   2.739   5.331 -0.4338  0.0605  0.8294
 3993SOL    HW123438   3.911   2.729   5.275 -0.8184  1.8783  1.0632
 3993SOL    HW223439   3.936   2.725   5.409  0.3037 -3.5224  0.6989
 3994SOL     OW23440   1.311   3.389   2.823 -0.1471 -0.3847  0.4190
 3994SOL    HW123441   1.282   3.371   2.912 -0.0172 -0.6701  0.4021
 3994SOL    HW223442   1.225   3.411   2.786  0.0768  1.4127  0.9512
 3995SOL     OW23443   1.271   2.227   8.685  0.1848  0.2781  0.1028
 3995SOL    HW123444   1.276   2.225   8.589  0.1985  0.8970  0.0929
 3995SOL    HW223445   1.304   2.315   8.704 -1.7262  1.2822 -1.2499
 3996SOL     OW23446   0.169   2.323   9.936 -0.3340  0.0524  0.0821
 3996SOL    HW123447   0.257   2.312   9.971  0.4912  2.1482 -1.3139
 3996SOL    HW223448   0.125   2.259   9.993 -2.1404  1.1470 -0.0623
 3997SOL     OW23449   1.535   0.849  13.033 -0.5380 -0.0236 -0.2275
 3997SOL    HW123450   1.540   0.926  13.090 -0.1040  0.7165 -1.2693
 3997SOL    HW223451   1.613   0.853  12.978  1.1589 -0.4400  2.1259
 3998SOL     OW23452   4.706   2.247   6.703  0.2489 -0.3328 -0.1978
 3998SOL    HW123453   4.681   2.306   6.773 -1.1391 -0.8882 -0.2356
 3998SOL    HW223454   4.624   2.198   6.697  0.8500 -1.3235 -0.3960
 3999SOL     OW23455   2.681   3.348   1.379 -0.1317  0.3555  0.4278
 3999SOL    HW123456   2.729   3.309   1.452  2.2846 -0.0268 -1.3527
 3999SOL    HW223457   2.627   3.275   1.350  0.8301 -0.8088  1.5737
 4000SOL     OW23458   4.504   4.143  13.558  0.1888 -0.1423  0.2789
 4000SOL    HW123459   4.580   4.201  13.562  2.4459 -2.9562 -1.8894
 4000SOL    HW223460   4.466   4.153  13.646  3.5337  0.3428  1.6648
 4001SOL     OW23461   0.040   0.502   4.147  0.3256 -0.7025 -0.5611
 4001SOL    HW123462   0.134   0.496   4.131  0.6033  1.9809  0.0199
 4001SOL    HW223463   0.013   0.537   4.062 -0.4492  1.2447  0.4855
 4002SOL     OW23464   2.132   3.781   5.391 -0.2884  0.0254 -0.0263
 4002SOL    HW123465   2.065   3.717   5.417 -0.9315  1.0709  0.8535
 4002SOL    HW223466   2.104   3.861   5.435  0.6691  0.1926  0.2725
 4003SOL     OW23467   2.644   3.220  16.565 -0.3586  0.7133 -0.4623
 4003SOL    HW123468   2.593   3.148  16.530  1.8024 -0.9693 -0.1427
 4003SOL    HW223469   2.725   3.218  16.514  0.5893 -0.5834  1.0688
 4004SOL     OW23470   3.594   2.203  13.057  0.0847 -0.1128  0.4333
 4004SOL    HW123471   3.568   2.294  13.046 -2.2992 -0.5575  2.3808
 4004SOL    HW223472   3.532   2.182  13.127 -2.5986  0.2648 -1.8402
 4005SOL     OW23473   2.007   2.232  10.498 -0.2430 -0.2006  0.4064
 4005SOL    HW123474   2.099   2.215  10.476 -0.9969  0.3950 -3.1040
 4005SOL    HW223475   2.004   2.325  10.519 -0.2910 -0.6189  2.2562
 4006SOL     OW23476   4.211   4.028   0.222  0.1291 -0.0320  0.2183
 4006SOL    HW123477   4.171   4.114   0.236 -0.9955 -0.3865 -0.8303
 4006SOL    HW223478   4.281   4.033   0.287  0.3767  0.7950 -0.0997
 4007SOL     OW23479   3.072   4.285   2.318 -0.2326  0.0460 -0.7509
 4007SOL    HW123480   3.141   4.221   2.301  0.7075  0.6518  0.7436
 4007SOL    HW223481   3.056   4.327   2.234  0.1573  1.7659  0.0276
 4008SOL     OW23482   4.628   2.780  12.583 -0.0450  0.6490 -0.3492
 4008SOL    HW123483   4.571   2.759  12.657  1.7080 -2.7254  0.0756
 4008SOL    HW223484   4.709   2.785  12.634  0.1132  1.9982 -0.7386
 4009SOL     OW23485   1.778   0.974   4.434 -0.2197  0.3218 -0.0428
 4009SOL    HW123486   1.835   1.050   4.426 -0.0174 -0.0097 -1.6779
 4009SOL    HW223487   1.818   0.926   4.507  0.4417 -0.1122 -0.6875
 4010SOL     OW23488   1.176   2.484   2.040 -0.0032 -0.3270  0.0512
 4010SOL    HW123489   1.115   2.557   2.031  0.2552  0.0017  1.1032
 4010SOL    HW223490   1.119   2.407   2.036 -0.1768 -0.2417  0.8990
 4011SOL     OW23491   0.404   1.395   9.355 -0.1458 -0.4551  0.2791
 4011SOL    HW123492   0.431   1.486   9.349 -1.4192  0.0046  1.5271
 4011SOL    HW223493   0.453   1.359   9.429  1.6054 -1.5112 -1.3755
 4012SOL     OW23494   1.968   3.697   2.235  0.3328 -0.3685  0.1089
 4012SOL    HW123495   1.980   3.641   2.311  3.7965 -1.1875 -1.0203
 4012SOL    HW223496   1.962   3.633   2.164  0.2071 -1.6026  1.2433
 4013SOL     OW23497   0.885   4.631   8.958  0.0620  0.0540  0.0239
 4013SOL    HW123498   0.960   4.572   8.969 -2.5500 -3.7915 -2.3266
 4013SOL    HW223499   0.886   4.644   8.863 -0.2105 -0.5266 -0.0616
 4014SOL     OW23500   0.945   4.549  15.769 -0.3857 -0.0475 -0.6238
 4014SOL    HW123501   0.953   4.464  15.813 -1.7353 -0.9604 -2.1503
 4014SOL    HW223502   0.850   4.546  15.766 -0.5036  1.6485  1.4894
 4015SOL     OW23503   2.813   3.861   8.566 -0.1800  0.6480  0.1080
 4015SOL    HW123504   2.853   3.948   8.568 -1.3107  1.1664  0.3428
 4015SOL    HW223505   2.852   3.818   8.642 -1.0787  0.5808  0.5287
 4016SOL     OW23506   3.064   0.768  10.250 -0.8575 -0.6433  0.5003
 4016SOL    HW123507   3.036   0.784  10.340  1.7648  1.4871  0.8991
 4016SOL    HW223508   3.140   0.825  10.258 -0.4780 -1.4746  2.8386
 4017SOL     OW23509   0.113   3.174   4.312  0.1143  0.6416  0.4056
 4017SOL    HW123510   0.038   3.197   4.366  1.5363  0.3355  2.5244
 4017SOL    HW223511   0.154   3.261   4.308  2.3551 -0.3286  2.7191
 4018SOL     OW23512   2.808   0.296  11.091  0.0438 -0.1479  0.6252
 4018SOL    HW123513   2.815   0.359  11.019 -1.7518 -0.5031  0.1333
 4018SOL    HW223514   2.874   0.322  11.154 -2.5570  2.2787  2.3737
 4019SOL     OW23515   2.324   2.120   0.522 -0.3489  0.3096  0.0888
 4019SOL    HW123516   2.297   2.034   0.557 -0.0554 -0.6453 -2.0412
 4019SOL    HW223517   2.327   2.180   0.597 -0.7040 -0.4336  0.7024
 4020SOL     OW23518   2.924   2.416   8.177 -0.3448  0.5704 -0.5635
 4020SOL    HW123519   2.928   2.472   8.255  1.0480  1.0872 -1.0251
 4020SOL    HW223520   2.856   2.462   8.128  0.3742  0.3702 -1.7287
 4021SOL     OW23521   4.427   0.541   9.165  0.4963  0.1054  0.9570
 4021SOL    HW123522   4.354   0.519   9.223 -2.0254  0.7079 -1.9873
 4021SOL    HW223523   4.492   0.572   9.228 -2.8580  2.6835  3.1057
 4022SOL     OW23524   3.495   3.257   3.119 -0.3817  0.0083  0.1789
 4022SOL    HW123525   3.510   3.322   3.188  1.9562 -1.5386  1.1375
 4022SOL    HW223526   3.402   3.236   3.120 -0.3523 -0.1162  0.3063
 4023SOL     OW23527   3.353   4.719   7.913  0.0456 -0.0324  0.9515
 4023SOL    HW123528   3.389   4.711   8.002  3.6955  1.4223 -0.4107
 4023SOL    HW223529   3.366   0.088   7.902 -0.2618 -0.2086 -0.8779
 4024SOL     OW23530   1.233   3.967   8.879  0.6757 -0.2694 -0.3902
 4024SOL    HW123531   1.243   4.045   8.825  1.7180 -0.0735  0.0767
 4024SOL    HW223532   1.301   3.911   8.843  2.0769 -0.0785  1.9260
 4025SOL     OW23533   3.085   3.459   2.482  0.2934  0.5559  0.0877
 4025SOL    HW123534   3.013   3.396   2.482 -1.2276  2.3156 -0.8190
 4025SOL    HW223535   3.102   3.459   2.388  0.4818  0.3442  0.1206
 4026SOL     OW23536   0.690   3.478   6.969  0.0925 -0.1883 -0.2137
 4026SOL    HW123537   0.761   3.514   7.022 -0.0189 -0.3195  0.0232
 4026SOL    HW223538   0.731   3.472   6.882 -1.7842  2.1835 -1.2873
 4027SOL     OW23539   2.320   3.432   4.368 -0.0196 -0.1869 -0.1604
 4027SOL    HW123540   2.285   3.344   4.359 -0.8114 -0.0615  1.5488
 4027SOL    HW223541   2.410   3.401   4.367  0.2586  0.6771 -1.7242
 4028SOL     OW23542   2.169   1.301  10.997  0.6949 -0.4216 -0.2997
 4028SOL    HW123543   2.191   1.304  10.904  0.3184  0.9963 -0.3462
 4028SOL    HW223544   2.086   1.348  10.997  2.7709  3.2618 -1.0733
 4029SOL     OW23545   4.128   0.415   5.091 -0.1705  0.3695  0.1173
 4029SOL    HW123546   4.079   0.349   5.042 -0.3899  2.6404 -2.7159
 4029SOL    HW223547   4.219   0.411   5.060 -0.5035 -0.8429 -0.6651
 4030SOL     OW23548   1.590   2.066   3.991 -0.3056  0.2466  0.2324
 4030SOL    HW123549   1.593   2.016   3.910  0.7996 -0.5596  0.7674
 4030SOL    HW223550   1.681   2.077   4.016 -0.0059  0.0306 -0.7840
 4031SOL     OW23551   2.134   3.064  14.831  0.1692  0.0375  0.5974
 4031SOL    HW123552   2.125   3.159  14.826  0.4351  0.0497  0.3847
 4031SOL    HW223553   2.127   3.060  14.927  0.2762 -2.9465  0.4638
 4032SOL     OW23554   4.493   1.110   4.956 -0.1538 -0.1231 -0.7111
 4032SOL    HW123555   4.574   1.108   5.007 -1.1256  0.8929  0.8709
 4032SOL    HW223556   4.524   1.049   4.889 -0.1917  0.7672 -1.5320
 4033SOL     OW23557   1.598   1.465   1.952  0.1516 -0.8132  0.3357
 4033SOL    HW123558   1.561   1.526   2.015 -0.5257  1.9429 -2.7231
 4033SOL    HW223559   1.548   1.384   1.968  0.0182 -1.0427 -1.1751
 4034SOL     OW23560   3.705   2.028   7.035 -0.0630  0.7266  0.7906
 4034SOL    HW123561   3.759   1.966   7.084 -1.9867 -1.8942 -0.3983
 4034SOL    HW223562   3.730   2.004   6.946  1.5216  1.0755  1.1457
 4035SOL     OW23563   0.487   0.493  10.022  0.4221  0.4714 -0.3930
 4035SOL    HW123564   0.537   0.423   9.982  0.3629  0.2354 -0.0589
 4035SOL    HW223565   0.546   0.569  10.012 -0.7590  1.3751 -0.5220
 4036SOL     OW23566   1.779   4.361   3.915  0.7204 -0.1611  0.3161
 4036SOL    HW123567   1.860   4.411   3.908 -1.8142  3.6920 -1.3758
 4036SOL    HW223568   1.803   4.281   3.962  1.2366  1.3831  2.7037
 4037SOL     OW23569   4.666   2.987  10.505  0.0746 -0.2180 -0.2251
 4037SOL    HW123570   0.005   3.054  10.528  0.3372 -0.7894  0.6981
 4037SOL    HW223571   4.635   2.963  10.593 -1.6094 -0.5132 -0.9041
 4038SOL     OW23572   3.964   0.077  11.133 -0.1768 -0.3412  0.0317
 4038SOL    HW123573   3.995   0.045  11.048 -0.3164 -0.1328 -0.0943
 4038SOL    HW223574   3.957   0.171  11.121  0.6466 -0.4401 -1.2162
 4039SOL     OW23575   0.576   1.550  14.248 -0.2694 -0.4350 -0.1244
 4039SOL    HW123576   0.510   1.492  14.209 -0.6403  0.4033 -0.7550
 4039SOL    HW223577   0.579   1.628  14.192 -3.4318  0.2173  0.6122
 4040SOL     OW23578   1.504   2.115   5.692 -0.0624 -0.4291  0.2829
 4040SOL    HW123579   1.489   2.081   5.780 -0.3656 -0.0443  0.3806
 4040SOL    HW223580   1.435   2.181   5.689  2.0177  1.6530 -1.2230
 4041SOL     OW23581   1.879   1.957   5.186 -0.3583 -0.2728 -0.6694
 4041SOL    HW123582   1.918   2.044   5.190 -0.3041 -0.4354  2.8412
 4041SOL    HW223583   1.874   1.941   5.280  1.0214  2.0596 -0.1943
 4042SOL     OW23584   3.771   0.024   4.084  0.3580 -0.4056 -0.1145
 4042SOL    HW123585   3.789   0.014   4.178  0.9319  2.1973  0.0394
 4042SOL    HW223586   3.857   0.002   4.048  0.2123 -3.4805  1.3607
 4043SOL     OW23587   3.463   1.115   8.875 -0.5799  0.2469  0.4752
 4043SOL    HW123588   3.547   1.126   8.831 -0.3417  0.6655  1.0343
 4043SOL    HW223589   3.466   1.186   8.939  0.0134  2.1330 -1.6521
 4044SOL     OW23590   2.583   0.297   5.476 -0.3799 -0.0320  0.4521
 4044SOL    HW123591   2.655   0.357   5.460 -1.2785  1.2085  1.1041
 4044SOL    HW223592   2.617   0.225   5.421 -0.0887  3.2988 -3.7368
 4045SOL     OW23593   0.302   2.998   3.900  0.0686 -0.3721  0.3846
 4045SOL    HW123594   0.388   2.992   3.943  0.5391  1.8879 -0.2408
 4045SOL    HW223595   0.234   3.014   3.965 -1.0701  0.0142 -0.9202
 4046SOL     OW23596   1.184   0.077   6.426  0.0689  0.4335 -0.1546
 4046SOL    HW123597   1.145   0.110   6.345  3.0055  1.9078 -0.9590
 4046SOL    HW223598   1.215   4.717   6.393 -0.8003  0.1342 -0.2046
 4047SOL     OW23599   0.613   4.562   4.956  0.2936 -0.6134 -0.2489
 4047SOL    HW123600   0.599   4.634   4.895 -1.1904 -2.4256 -2.0517
 4047SOL    HW223601   0.526   4.525   4.969  0.4948 -1.6594 -1.8863
 4048SOL     OW23602   0.562   0.142   4.218 -0.5884  0.0608 -0.1331
 4048SOL    HW123603   0.641   0.101   4.254 -0.6064  0.1293 -0.0130
 4048SOL    HW223604   0.573   0.141   4.123  1.4853 -0.8557  0.1183
 4049SOL     OW23605   1.559   1.561   2.341 -0.3963 -0.2724  0.2427
 4049SOL    HW123606   1.504   1.583   2.266  1.1014 -2.3114 -1.4770
 4049SOL    HW223607   1.631   1.525   2.289 -1.3656  1.3505 -2.2543
 4050SOL     OW23608   3.918   1.925   4.582  0.4358  0.1326 -0.3714
 4050SOL    HW123609   3.989   1.861   4.576 -0.8449 -1.1849 -1.6293
 4050SOL    HW223610   3.909   1.932   4.487 -0.6086  4.2211  0.0287
 4051SOL     OW23611   3.759   2.833  14.803 -0.1056  0.5294 -0.2870
 4051SOL    HW123612   3.713   2.898  14.855 -0.3687  1.0846 -1.2204
 4051SOL    HW223613   3.811   2.891  14.748  1.1317 -0.4557 -0.1684
 4052SOL     OW23614   0.060   1.350   6.236  0.1086  0.1185 -1.2372
 4052SOL    HW123615   0.027   1.279   6.292 -0.1434  0.4362 -0.9878
 4052SOL    HW223616   0.067   1.407   6.312 -3.6141 -1.0311 -0.0228
 4053SOL     OW23617   2.138   3.624   7.737  0.4180 -0.5634  0.3843
 4053SOL    HW123618   2.177   3.687   7.677  1.1854 -1.4984 -0.1113
 4053SOL    HW223619   2.054   3.664   7.756  0.7980 -0.2415  1.4116
 4054SOL     OW23620   3.474   4.597   3.456 -0.1603 -0.2422 -0.3013
 4054SOL    HW123621   3.546   4.647   3.495  0.9815 -0.7512 -1.7735
 4054SOL    HW223622   3.422   4.591   3.536 -1.7801  2.6312 -1.1202
 4055SOL     OW23623   3.316   0.422   0.816 -0.0442  0.6311  0.1646
 4055SOL    HW123624   3.400   0.376   0.825  0.6418  1.4902 -1.9492
 4055SOL    HW223625   3.292   0.411   0.908  0.6026  0.7759  0.3469
 4056SOL     OW23626   4.060   1.387  15.712  0.0178  0.6841 -0.1157
 4056SOL    HW123627   4.103   1.368  15.629  1.1664 -1.1185  0.8885
 4056SOL    HW223628   3.979   1.431  15.688 -0.9571 -0.5805  0.8424
 4057SOL     OW23629   0.094   0.625   4.680  0.2621  0.1590 -0.7528
 4057SOL    HW123630   0.081   0.532   4.664  1.6702  0.0273 -1.1753
 4057SOL    HW223631   0.172   0.623   4.735  1.1991  0.4130 -2.0721
 4058SOL     OW23632   3.437   2.676  12.009  0.7462 -0.2855  0.7102
 4058SOL    HW123633   3.530   2.698  12.007  0.6668 -0.0091  0.0047
 4058SOL    HW223634   3.433   2.635  11.923 -0.5640  3.4993 -1.0065
 4059SOL     OW23635   1.858   1.701  11.252  0.4418 -0.4864 -0.4551
 4059SOL    HW123636   1.837   1.623  11.304 -3.5651 -1.5067 -3.6312
 4059SOL    HW223637   1.782   1.755  11.274 -0.2026 -0.9245 -1.6305
 4060SOL     OW23638   1.893   2.271   5.994 -0.1303 -0.2260 -0.4855
 4060SOL    HW123639   1.871   2.364   5.995  1.0690  0.0586  0.0722
 4060SOL    HW223640   1.918   2.248   5.905 -0.5897  0.9837 -0.9237
 4061SOL     OW23641   4.387   4.432   8.248 -0.3763 -0.2729  0.0387
 4061SOL    HW123642   4.441   4.454   8.172 -0.5496 -0.4549 -0.1343
 4061SOL    HW223643   4.436   4.359   8.287  0.0157 -0.8376 -1.5294
 4062SOL     OW23644   0.681   4.377   3.887  0.8156  0.1176 -0.1746
 4062SOL    HW123645   0.648   4.303   3.937 -3.8087  2.8362  0.8257
 4062SOL    HW223646   0.757   4.406   3.938  0.9466  1.3341 -1.0395
 4063SOL     OW23647   0.012   1.497   8.811 -0.3156  0.2803 -0.2712
 4063SOL    HW123648   0.094   1.489   8.762 -1.6603 -1.8628 -2.2277
 4063SOL    HW223649   0.037   1.437   8.881  1.2380 -0.6364 -1.6073
 4064SOL     OW23650   3.451   0.571   9.942  0.6949  0.4267  0.0768
 4064SOL    HW123651   3.449   0.597  10.034 -1.8652 -1.1933  0.4687
 4064SOL    HW223652   3.438   0.660   9.909  2.3326  0.8641  0.6146
 4065SOL     OW23653   2.363   2.321   1.154  0.2947 -0.8427 -0.1885
 4065SOL    HW123654   2.283   2.349   1.110  0.0361  0.6041  1.1999
 4065SOL    HW223655   2.395   2.409   1.174 -2.1852  0.1887 -0.7697
 4066SOL     OW23656   4.306   4.487  11.700 -0.7788 -0.5163  0.3151
 4066SOL    HW123657   4.239   4.526  11.757 -0.3536 -1.6554  1.5917
 4066SOL    HW223658   4.334   4.565  11.652 -0.1986 -1.5438 -1.0207
 4067SOL     OW23659   0.333   2.214   2.683 -0.2647  0.2547  0.3142
 4067SOL    HW123660   0.266   2.222   2.615  0.0907  0.1899 -0.0475
 4067SOL    HW223661   0.362   2.303   2.701  0.3152  0.3018 -0.8308
 4068SOL     OW23662   0.760   3.560   7.846 -0.9840  0.4211  0.0766
 4068SOL    HW123663   0.682   3.602   7.882  0.6357  1.9344  1.8213
 4068SOL    HW223664   0.788   3.619   7.776  0.5003 -2.7462 -1.9987
 4069SOL     OW23665   1.254   1.550   8.066 -0.3055  0.4321 -0.1494
 4069SOL    HW123666   1.310   1.475   8.046  0.4939  0.6180  1.3521
 4069SOL    HW223667   1.238   1.586   7.979  0.0556  2.0406  0.4513
 4070SOL     OW23668   4.476   1.642   7.819  0.0532 -0.0964 -0.5271
 4070SOL    HW123669   4.568   1.630   7.842  0.3137  1.0214 -0.9644
 4070SOL    HW223670   4.480   1.718   7.761 -1.4296 -1.7938 -2.8478
 4071SOL     OW23671   4.265   1.541   1.124 -0.0326 -0.1960  0.5436
 4071SOL    HW123672   4.260   1.584   1.038  1.3560 -0.9490  0.0834
 4071SOL    HW223673   4.248   1.451   1.097  0.8597  0.1297 -1.1469
 4072SOL     OW23674   3.279   0.237   6.142  0.4801 -0.1918  0.3007
 4072SOL    HW123675   3.323   0.231   6.227  0.5108  1.0703  0.3784
 4072SOL    HW223676   3.282   0.148   6.109 -0.0028  0.2838 -1.0103
 4073SOL     OW23677   3.370   4.180   7.357  0.3331 -0.0988  0.2470
 4073SOL    HW123678   3.296   4.120   7.346  1.5562 -1.5818  0.1606
 4073SOL    HW223679   3.437   4.129   7.314  1.1915  1.2680 -0.0432
 4074SOL     OW23680   2.626   4.326  12.807 -0.0432 -0.1127 -0.3467
 4074SOL    HW123681   2.605   4.233  12.811 -1.3883  0.1988  0.0651
 4074SOL    HW223682   2.572   4.357  12.734  0.7341 -0.0097 -0.8711
 4075SOL     OW23683   4.076   0.708   6.405  0.3638 -0.1021 -0.3975
 4075SOL    HW123684   3.987   0.678   6.424 -0.2349  1.4234 -0.7536
 4075SOL    HW223685   4.070   0.793   6.450 -0.2130 -0.7742  0.7927
 4076SOL     OW23686   2.447   1.263   5.227 -0.1350 -0.3520  0.2711
 4076SOL    HW123687   2.385   1.236   5.160  1.3254  2.1075 -2.0464
 4076SOL    HW223688   2.528   1.226   5.191  1.0080  1.4166  1.0292
 4077SOL     OW23689   4.535   3.639   5.082  0.6209  0.1611 -0.6280
 4077SOL    HW123690   4.569   3.550   5.090 -2.2203 -1.0650 -2.2905
 4077SOL    HW223691   4.445   3.621   5.054  0.1577 -0.5366  1.3197
 4078SOL     OW23692   0.064   2.230   5.408  0.5053 -0.1184 -0.3759
 4078SOL    HW123693   0.098   2.251   5.321 -1.0276  0.0292 -0.9475
 4078SOL    HW223694   0.075   2.135   5.410  0.6046 -0.0762  0.9088
 4079SOL     OW23695   1.811   1.536   7.199  0.5970  0.0196 -0.1096
 4079SOL    HW123696   1.723   1.531   7.163  0.4514  1.1948  0.0941
 4079SOL    HW223697   1.843   1.487   7.124 -2.0751 -0.9958 -0.5640
 4080SOL     OW23698   2.756   2.412  11.206  0.1195  0.9625 -0.3140
 4080SOL    HW123699   2.846   2.432  11.234  0.5817 -4.4267  2.1111
 4080SOL    HW223700   2.746   2.332  11.259 -0.1587  0.9217 -0.4280
 4081SOL     OW23701   4.370   1.879   1.832  0.6666  0.5173  0.1069
 4081SOL    HW123702   4.389   1.882   1.738  1.5888  3.4176  0.3817
 4081SOL    HW223703   4.417   1.953   1.869  2.3034 -1.0829  1.2497
 4082SOL     OW23704   4.394   4.473   2.295 -0.6928 -0.7339  0.2693
 4082SOL    HW123705   4.458   4.521   2.242 -4.6178  2.3329 -1.6824
 4082SOL    HW223706   4.439   4.459   2.379  0.6305 -0.7052 -0.4346
 4083SOL     OW23707   2.408   2.171   2.993 -0.8954  0.3332  0.8307
 4083SOL    HW123708   2.360   2.120   2.927  0.0019  0.7631 -0.1590
 4083SOL    HW223709   2.418   2.243   2.931  1.5706 -0.0173  0.7886
 4084SOL     OW23710   4.257   2.026   6.190 -0.1120 -0.1347 -0.4440
 4084SOL    HW123711   4.295   2.089   6.130  0.9920  0.0245  0.4387
 4084SOL    HW223712   4.165   2.052   6.195  0.3605  0.9256  2.3752
 4085SOL     OW23713   3.352   4.347   3.672 -0.0482 -0.3134 -0.3937
 4085SOL    HW123714   3.352   4.327   3.579 -0.3014  0.3821 -0.5437
 4085SOL    HW223715   3.287   4.417   3.668  0.2355  0.0015  0.4469
 4086SOL     OW23716   1.124   0.397   7.833 -0.4777 -0.0693  0.4331
 4086SOL    HW123717   1.122   0.394   7.737 -2.7328  3.2781  0.3466
 4086SOL    HW223718   1.029   0.403   7.846 -0.5289 -1.2441  0.5230
 4087SOL     OW23719   2.765   0.627   2.596  0.3612 -0.1238  0.1413
 4087SOL    HW123720   2.812   0.657   2.673 -0.3186 -0.3247  0.6303
 4087SOL    HW223721   2.779   0.685   2.521  1.9399 -2.2096 -1.1636
 4088SOL     OW23722   2.358   1.375   6.532  0.1481  0.1694  0.4913
 4088SOL    HW123723   2.428   1.439   6.544 -0.8129  1.1383  0.9177
 4088SOL    HW223724   2.288   1.439   6.521  0.6671  0.6092 -0.2993
 4089SOL     OW23725   2.073   1.761   0.330  0.5372  0.1037 -0.1819
 4089SOL    HW123726   1.991   1.808   0.347  0.4113  0.1015 -0.7957
 4089SOL    HW223727   2.088   1.718   0.414 -0.1639 -0.3483 -0.2832
 4090SOL     OW23728   3.037   4.370   2.034 -0.2816  0.0168  0.1645
 4090SOL    HW123729   3.056   4.464   2.026  1.6769 -0.4142 -0.2945
 4090SOL    HW223730   3.101   4.345   1.967  0.3087 -1.2811  1.2117
 4091SOL     OW23731   1.291   1.280   4.236  0.1282 -0.2368  0.1654
 4091SOL    HW123732   1.327   1.275   4.324 -3.5458  0.1325  1.6945
 4091SOL    HW223733   1.271   1.372   4.219  2.2146  0.5654  2.0341
 4092SOL     OW23734   2.727   4.596  10.381  0.3379  0.7281 -0.2905
 4092SOL    HW123735   2.746   4.681  10.422  0.8117 -0.5222  2.0717
 4092SOL    HW223736   2.709   4.548  10.461  0.3397  0.4570 -0.4531
 4093SOL     OW23737   4.449   2.997   2.225  0.1777 -0.0956  0.0512
 4093SOL    HW123738   4.496   2.931   2.175 -0.3086  1.1181 -2.0134
 4093SOL    HW223739   4.360   2.976   2.196  0.5636 -1.1576 -0.3575
 4094SOL     OW23740   1.665   2.632  16.048  0.2003  0.2778 -0.5351
 4094SOL    HW123741   1.579   2.638  16.006  0.0462  2.7090  0.1148
 4094SOL    HW223742   1.712   2.616  15.966 -0.8386 -3.8456 -0.3020
 4095SOL     OW23743   4.190   3.953   4.856  0.1506 -0.3819 -0.8021
 4095SOL    HW123744   4.174   3.869   4.813 -1.5005 -0.2753 -0.3681
 4095SOL    HW223745   4.120   4.005   4.818  1.1629  0.2029 -1.8738
 4096SOL     OW23746   1.750   4.587   1.241 -0.0813 -0.0984  0.2683
 4096SOL    HW123747   1.677   4.547   1.289 -2.4275  0.4440 -2.8705
 4096SOL    HW223748   1.752   4.521   1.172 -0.9106 -0.1152  0.2566
 4097SOL     OW23749   1.791   2.311   6.349  0.3687  0.2915  0.0989
 4097SOL    HW123750   1.796   2.406   6.340 -2.7211  0.6857  2.3878
 4097SOL    HW223751   1.710   2.298   6.398  1.2189  0.9680  1.6594
 4098SOL     OW23752   4.721   0.755  12.662 -0.1183 -0.2227  0.2916
 4098SOL    HW123753   0.033   0.756  12.751  0.4350 -0.0936  0.0573
 4098SOL    HW223754   4.660   0.829  12.658  0.7026  0.3481 -1.6903
 4099SOL     OW23755   4.025   2.003   8.477  0.1857  0.4834  0.5679
 4099SOL    HW123756   4.040   1.928   8.534 -0.6261  1.9085  2.6656
 4099SOL    HW223757   4.102   2.010   8.421 -2.0678 -0.3866 -2.6399
 4100SOL     OW23758   1.084   0.945   4.993 -0.0825 -0.4123 -0.0756
 4100SOL    HW123759   1.058   1.034   5.016 -1.8398 -0.5847 -1.3449
 4100SOL    HW223760   1.000   0.900   5.005 -0.7573  1.4751  2.2122
 4101SOL     OW23761   1.380   2.464  15.716  0.7332 -0.1101  0.8234
 4101SOL    HW123762   1.371   2.399  15.786  1.4008 -1.0838  0.0152
 4101SOL    HW223763   1.402   2.544  15.764  0.7957 -1.0512  2.3591
 4102SOL     OW23764   1.078   1.197   3.687 -0.2700 -0.5524 -0.1498
 4102SOL    HW123765   1.113   1.147   3.614  0.9167  1.9444 -1.3098
 4102SOL    HW223766   1.159   1.232   3.725 -0.9910  1.4702 -0.4778
 4103SOL     OW23767   2.027   2.511   1.446  0.2243  0.0441 -0.1480
 4103SOL    HW123768   2.056   2.595   1.411  1.9886 -0.4648  0.0802
 4103SOL    HW223769   2.045   2.522   1.539 -1.0449  0.0889  0.0939
 4104SOL     OW23770   0.590   0.615   7.337 -0.1865 -0.1489 -0.1597
 4104SOL    HW123771   0.503   0.653   7.326 -0.3487 -0.1857  1.0419
 4104SOL    HW223772   0.585   0.551   7.408  3.1319 -2.4864 -2.0478
 4105SOL     OW23773   2.024   1.479   8.526 -0.3978 -0.4148 -0.4276
 4105SOL    HW123774   1.989   1.453   8.611  1.1557 -1.1423 -0.0128
 4105SOL    HW223775   2.097   1.527   8.565  1.2169 -2.7705 -0.5535
 4106SOL     OW23776   0.914   4.691   8.697  0.7523 -0.5052 -0.0792
 4106SOL    HW123777   0.992   0.022   8.698 -1.5180  2.6881 -0.2160
 4106SOL    HW223778   0.895   4.673   8.605 -0.5291  0.8749 -0.0739
 4107SOL     OW23779   1.479   3.519   7.930  0.4489  0.2480  0.5194
 4107SOL    HW123780   1.386   3.538   7.920 -0.1489 -2.9163  0.1163
 4107SOL    HW223781   1.497   3.453   7.863 -0.8043 -0.0833  0.5067
 4108SOL     OW23782   3.229   0.152   2.314 -0.1309  0.1388 -0.6128
 4108SOL    HW123783   3.190   0.239   2.323 -1.1873 -0.1431 -2.4855
 4108SOL    HW223784   3.167   0.089   2.349  1.1720  0.6218  2.5108
 4109SOL     OW23785   1.162   4.524  11.787  0.3315 -1.1085  0.0838
 4109SOL    HW123786   1.089   4.502  11.845  1.3913 -0.5919  1.6320
 4109SOL    HW223787   1.175   4.452  11.726  2.7175 -0.3153 -0.3290
 4110SOL     OW23788   0.206   2.172   3.510  0.2453 -0.5245  0.4168
 4110SOL    HW123789   0.174   2.101   3.565 -0.0954 -2.3714 -2.1815
 4110SOL    HW223790   0.130   2.225   3.486  2.0052  0.4960 -2.9176
 4111SOL     OW23791   1.258   1.496   4.712 -0.2845  0.3978  0.3287
 4111SOL    HW123792   1.271   1.424   4.773  0.7068  0.2834 -0.0122
 4111SOL    HW223793   1.278   1.569   4.772  3.5760 -0.4850  0.1457
 4112SOL     OW23794   1.509   1.950  13.401 -0.1052 -0.1839  0.2640
 4112SOL    HW123795   1.560   1.912  13.473 -0.4424 -1.5811 -0.2443
 4112SOL    HW223796   1.531   1.899  13.323 -0.2677 -0.7917  0.6165
 4113SOL     OW23797   1.668   4.549  13.752  0.2877  0.3065  0.2718
 4113SOL    HW123798   1.587   4.601  13.748  1.8628  2.8656  1.3509
 4113SOL    HW223799   1.721   4.603  13.693  2.2867 -1.0330  0.8558
 4114SOL     OW23800   0.373   3.342   6.325 -0.1432  0.2452  0.0149
 4114SOL    HW123801   0.343   3.381   6.407 -0.1383 -1.3277  0.7455
 4114SOL    HW223802   0.452   3.300   6.358 -1.4832 -0.4546  2.3460
 4115SOL     OW23803   3.778   1.048   4.169 -0.5699  0.0375  0.4336
 4115SOL    HW123804   3.742   0.960   4.168 -0.8020  0.1359 -0.0146
 4115SOL    HW223805   3.825   1.050   4.252  0.3375 -1.3455 -0.0433
 4116SOL     OW23806   3.406   0.605  11.260  0.5688 -0.2023 -0.3338
 4116SOL    HW123807   3.351   0.566  11.328  1.4787  2.8405  2.1331
 4116SOL    HW223808   3.333   0.625  11.200  2.5844 -0.0424 -2.7171
 4117SOL     OW23809   3.584   0.256   7.945 -0.3664  0.3744  0.3516
 4117SOL    HW123810   3.625   0.185   7.994 -0.0487  0.0977 -0.3164
 4117SOL    HW223811   3.602   0.226   7.856  0.2586  2.3180 -0.1702
 4118SOL     OW23812   0.747   1.758   4.673 -0.2545 -0.4510 -0.1745
 4118SOL    HW123813   0.661   1.751   4.714 -1.3143  3.1483 -1.7315
 4118SOL    HW223814   0.726   1.762   4.580  2.0195 -2.5964 -0.7870
 4119SOL     OW23815   2.316   2.668   6.725  0.5200  0.1100  0.0660
 4119SOL    HW123816   2.268   2.672   6.808 -1.2725 -0.4404 -0.9416
 4119SOL    HW223817   2.359   2.583   6.734 -0.4852 -0.3675  0.3212
 4120SOL     OW23818   2.355   2.074   7.680  0.8571  0.0565  0.7042
 4120SOL    HW123819   2.273   2.118   7.702 -0.0263 -0.7504 -0.8786
 4120SOL    HW223820   2.377   2.028   7.761 -1.5815 -2.3952  0.0043
 4121SOL     OW23821   0.269   0.418  14.925  0.3276 -0.5041 -0.7869
 4121SOL    HW123822   0.303   0.357  14.859  1.9519  1.9552 -2.2001
 4121SOL    HW223823   0.223   0.361  14.987  0.0266  1.8899  1.1636
 4122SOL     OW23824   4.603   0.105  17.091 -0.1070 -0.5052  0.0547
 4122SOL    HW123825   4.548   0.031  17.068 -2.8292  0.9697  1.9023
 4122SOL    HW223826   4.598   0.086  17.185 -2.6028  1.4224  0.3172
 4123SOL     OW23827   0.284   1.567   7.528 -0.2099 -0.1716 -0.1607
 4123SOL    HW123828   0.198   1.589   7.494 -0.1173  0.3979 -0.0270
 4123SOL    HW223829   0.328   1.566   7.443  2.1591 -1.5746  1.0669
 4124SOL     OW23830   3.801   4.520   6.991  0.2605 -0.3260 -0.6493
 4124SOL    HW123831   3.754   4.559   7.065 -1.7831 -1.0044 -1.5824
 4124SOL    HW223832   3.795   4.588   6.924 -2.7841  1.7749  1.7736
 4125SOL     OW23833   1.937   4.633   1.707  0.0773  0.0717 -0.0899
 4125SOL    HW123834   2.013   4.586   1.672 -0.2588 -0.7643  0.3181
 4125SOL    HW223835   1.863   4.576   1.686  0.5098 -0.3014 -0.5837
 4126SOL     OW23836   3.251   4.325   4.016  0.2720  0.7962 -0.0441
 4126SOL    HW123837   3.313   4.289   4.080 -0.5784  0.3171  0.5121
 4126SOL    HW223838   3.259   4.255   3.950  0.7415  0.3585  0.4788
 4127SOL     OW23839   3.752   1.251   3.109  0.5292  0.3522  0.1601
 4127SOL    HW123840   3.770   1.276   3.199  0.2513 -0.4197  0.4252
 4127SOL    HW223841   3.836   1.270   3.067  1.4496 -2.3481  0.8055
 4128SOL     OW23842   3.337   3.362  13.731  0.0880 -0.1839 -0.8454
 4128SOL    HW123843   3.260   3.308  13.713 -1.3142  0.8163  2.1313
 4128SOL    HW223844   3.401   3.303  13.693  0.2369 -1.0609  0.7954
 4129SOL     OW23845   1.941   0.031   4.331  0.2794 -0.6962 -0.2472
 4129SOL    HW123846   1.953   4.661   4.331  0.1601 -0.7053  1.0745
 4129SOL    HW223847   1.944   0.042   4.236  0.1758  0.0011 -0.1662
 4130SOL     OW23848   4.434   0.445  13.725 -0.2460  0.2362  0.3932
 4130SOL    HW123849   4.419   0.504  13.651 -0.8800  0.8143  0.9783
 4130SOL    HW223850   4.349   0.401  13.726 -0.8417  1.3853  1.2119
 4131SOL     OW23851   1.705   0.280   5.570  0.0257  0.2937 -0.3555
 4131SOL    HW123852   1.797   0.257   5.587 -0.0119  1.4164  1.3191
 4131SOL    HW223853   1.700   0.343   5.499  1.1368 -0.7710 -1.3862
 4132SOL     OW23854   0.731   0.284   8.513  0.1643 -0.3394 -0.0747
 4132SOL    HW123855   0.802   0.249   8.458  1.4193 -0.6177  1.7294
 4132SOL    HW223856   0.667   0.302   8.444 -1.9180 -0.7490  1.7497
 4133SOL     OW23857   4.321   1.420   6.287 -0.3997  1.0219  0.2490
 4133SOL    HW123858   4.257   1.350   6.275  1.1798 -0.2491 -0.8539
 4133SOL    HW223859   4.313   1.467   6.204 -0.5996  2.7316  1.2333
 4134SOL     OW23860   4.560   2.975  12.186  1.1754  0.3905 -0.7365
 4134SOL    HW123861   4.615   2.918  12.240  0.3605  2.1202  1.9051
 4134SOL    HW223862   4.489   2.981  12.250  0.7266 -2.3406 -0.9814
 4135SOL     OW23863   0.930   1.526   7.678  0.1079  0.1856 -0.1469
 4135SOL    HW123864   0.960   1.572   7.600  0.5381 -0.4348 -0.3501
 4135SOL    HW223865   0.899   1.439   7.655  0.5217 -0.1346  0.5019
 4136SOL     OW23866   4.150   0.280   2.897 -0.4306  0.3349 -0.5608
 4136SOL    HW123867   4.082   0.239   2.843 -2.3202  0.1481  1.9648
 4136SOL    HW223868   4.177   0.351   2.839 -1.9556  0.1014 -1.5740
 4137SOL     OW23869   0.744   0.332   5.402 -0.4686 -0.4587 -1.0469
 4137SOL    HW123870   0.792   0.259   5.441 -2.5130 -1.0318  0.3579
 4137SOL    HW223871   0.811   0.356   5.337  0.7396 -0.7840  0.0926
 4138SOL     OW23872   2.752   4.699   8.503 -0.2475 -0.0998 -0.0270
 4138SOL    HW123873   2.804   4.655   8.570  1.1532  1.8016  0.1257
 4138SOL    HW223874   2.787   4.662   8.421  0.1626  3.8784 -1.6682
 4139SOL     OW23875   2.372   4.404   7.723  0.3100 -0.1083  0.2625
 4139SOL    HW123876   2.415   4.398   7.638  0.5243 -0.3290  0.3860
 4139SOL    HW223877   2.390   4.494   7.750 -1.6457  0.8368 -1.5545
 4140SOL     OW23878   1.678   3.014  13.713  0.1928  0.1693  0.2675
 4140SOL    HW123879   1.756   3.069  13.714  1.0559 -1.0122 -1.2259
 4140SOL    HW223880   1.651   3.019  13.805 -0.6740  0.2365  0.0110
 4141SOL     OW23881   1.996   4.433   6.542  0.2769 -0.6184 -0.2102
 4141SOL    HW123882   2.088   4.455   6.526 -0.0804  0.3932 -0.8549
 4141SOL    HW223883   1.966   4.411   6.454 -1.5494 -1.3239  0.5814
 4142SOL     OW23884   4.490   1.211   4.545  0.0495 -0.2278  0.7894
 4142SOL    HW123885   4.476   1.265   4.467  3.0319 -0.7961 -0.1160
 4142SOL    HW223886   4.404   1.192   4.584  1.3598 -3.4850  2.0517
 4143SOL     OW23887   3.319   2.228   8.918 -0.6278  0.3456  0.5036
 4143SOL    HW123888   3.235   2.186   8.936 -1.3185  0.9858 -1.2552
 4143SOL    HW223889   3.369   2.231   9.000  2.7154  0.1194 -1.5249
 4144SOL     OW23890   0.999   1.775   5.598  0.5118 -0.3751  0.3707
 4144SOL    HW123891   1.075   1.820   5.561 -1.8159  1.1033 -2.6498
 4144SOL    HW223892   0.927   1.838   5.589  1.1299  0.6480  2.5856
 4145SOL     OW23893   1.832   0.585   5.087  0.5302  0.5409  0.2539
 4145SOL    HW123894   1.921   0.582   5.052 -0.3123 -1.2706 -1.8165
 4145SOL    HW223895   1.788   0.522   5.029  0.3903 -0.0679  1.0337
 4146SOL     OW23896   3.192   0.873  17.430 -0.4603 -0.3894  0.2916
 4146SOL    HW123897   3.279   0.913  17.433 -0.4482 -0.3702 -0.2926
 4146SOL    HW223898   3.201   0.778  17.432 -0.9175 -0.4084  1.1934
 4147SOL     OW23899   4.481   0.012  13.977 -0.1555 -0.3436 -0.5344
 4147SOL    HW123900   4.529   4.655  13.966 -1.4562 -0.9835 -1.5027
 4147SOL    HW223901   4.438   0.028  13.892 -1.5452 -0.8496  0.0618
 4148SOL     OW23902   1.717   3.219   5.539  0.1871  0.4093  0.3083
 4148SOL    HW123903   1.731   3.313   5.554 -0.5364  0.4171  0.9099
 4148SOL    HW223904   1.738   3.196   5.449  1.3921 -0.6862  0.8673
 4149SOL     OW23905   2.662   3.857   9.135 -0.1668  0.1169  0.1529
 4149SOL    HW123906   2.646   3.763   9.130  0.7784 -0.1844  2.8856
 4149SOL    HW223907   2.663   3.887   9.044  2.1763 -0.1700  0.0976
 4150SOL     OW23908   3.324   4.147   1.978 -0.0622 -0.0644 -0.0081
 4150SOL    HW123909   3.335   4.174   2.069 -0.0991  1.6804 -0.5270
 4150SOL    HW223910   3.383   4.208   1.934  0.4110  0.4606  1.3625
 4151SOL     OW23911   2.047   0.129  11.111 -0.1159 -0.1512  0.5082
 4151SOL    HW123912   2.006   0.047  11.137  0.5622 -1.1152 -1.5151
 4151SOL    HW223913   2.090   0.102  11.030  1.5708 -1.6789  1.9219
 4152SOL     OW23914   2.224   2.436   9.586 -0.2367 -0.2220 -0.0659
 4152SOL    HW123915   2.185   2.401   9.506 -0.8883 -2.0745  1.0431
 4152SOL    HW223916   2.152   2.425   9.648  0.6577  1.7060  1.3280
 4153SOL     OW23917   3.978   0.901   8.750 -0.2856 -0.0249  0.6112
 4153SOL    HW123918   3.952   0.820   8.795  2.2708 -0.8299  0.6057
 4153SOL    HW223919   3.894   0.942   8.731 -0.7710 -0.7794  1.1165
 4154SOL     OW23920   3.788   2.751   0.203  0.3027  0.0820  0.4974
 4154SOL    HW123921   3.793   2.668   0.154  2.3275  0.8955 -0.6813
 4154SOL    HW223922   3.831   2.816   0.148 -3.2512 -0.3014 -2.7113
 4155SOL     OW23923   3.841   1.456  13.674 -0.2544  0.4001 -0.1568
 4155SOL    HW123924   3.820   1.378  13.623  0.2879  0.4440 -0.4457
 4155SOL    HW223925   3.760   1.462  13.725 -0.8199  1.9123 -1.2236
 4156SOL     OW23926   1.900   1.222   3.307  0.7974  0.1694 -0.6184
 4156SOL    HW123927   1.914   1.292   3.243  1.0042 -1.8667 -2.8084
 4156SOL    HW223928   1.894   1.161   3.234  0.7191 -1.4442  0.7418
 4157SOL     OW23929   3.255   3.112   8.834 -0.4086  0.0349 -0.1994
 4157SOL    HW123930   3.262   3.024   8.869  0.7368  0.3579  0.3702
 4157SOL    HW223931   3.162   3.132   8.847 -0.6081 -2.5421  2.1372
 4158SOL     OW23932   3.364   3.482  14.922 -0.0937  0.8463 -0.2944
 4158SOL    HW123933   3.318   3.544  14.865 -0.3083  2.6819  1.8939
 4158SOL    HW223934   3.405   3.414  14.868  2.3228  1.6147  0.5908
 4159SOL     OW23935   1.788   3.489   3.168  0.1206 -0.2352  0.2112
 4159SOL    HW123936   1.783   3.582   3.145 -0.2822 -0.7134 -1.7093
 4159SOL    HW223937   1.814   3.494   3.260  0.4955  1.8096 -0.0059
 4160SOL     OW23938   3.375   3.932   5.669  0.5059 -0.3996 -0.3036
 4160SOL    HW123939   3.419   3.998   5.616  0.9336 -1.0813 -0.8164
 4160SOL    HW223940   3.294   3.975   5.696  0.2483  0.6012 -2.7193
 4161SOL     OW23941   2.676   0.374   6.362  0.0923  0.7866 -0.1407
 4161SOL    HW123942   2.603   0.371   6.424  0.4699  0.3172  0.2873
 4161SOL    HW223943   2.665   0.468   6.345  0.5124  0.6648 -1.0492
 4162SOL     OW23944   3.515   1.549   6.090  0.1629  0.2384  0.5313
 4162SOL    HW123945   3.514   1.642   6.112  0.1466  0.5415 -0.7461
 4162SOL    HW223946   3.424   1.530   6.066 -0.3361  1.8272  1.1460
 4163SOL     OW23947   0.605   0.070   5.646 -0.1407  0.3680  0.4599
 4163SOL    HW123948   0.616   0.147   5.701  1.9148  0.0624  0.4702
 4163SOL    HW223949   0.546   0.016   5.699 -0.7888  0.7882  0.1638
 4164SOL     OW23950   2.228   4.092   8.108 -0.3446 -0.3514 -0.3453
 4164SOL    HW123951   2.265   4.055   8.188  1.5097 -1.0104 -1.5114
 4164SOL    HW223952   2.248   4.016   8.053 -1.4402 -0.8597 -0.0590
 4165SOL     OW23953   3.890   3.421   2.824 -0.1870  0.6634  0.8431
 4165SOL    HW123954   3.936   3.378   2.896 -1.6376 -0.1756  1.2795
 4165SOL    HW223955   3.953   3.393   2.758 -1.4021 -2.1243  0.8571
 4166SOL     OW23956   0.256   2.484   9.497  0.2839  0.4591 -0.3518
 4166SOL    HW123957   0.213   2.426   9.560  0.1240 -0.7884 -1.6177
 4166SOL    HW223958   0.193   2.555   9.512  0.4067  0.2283  1.2574
 4167SOL     OW23959   1.711   0.056   1.915 -0.4234 -0.4100 -0.2941
 4167SOL    HW123960   1.740   0.076   1.826  0.1268  0.7358  0.1506
 4167SOL    HW223961   1.636   0.115   1.911 -0.7200 -0.6457  1.8467
 4168SOL     OW23962   0.351   4.496  13.626 -0.1788  0.4571 -0.7834
 4168SOL    HW123963   0.364   4.456  13.540 -1.3106  0.1212 -0.8123
 4168SOL    HW223964   0.388   4.583  13.624 -1.7789  1.1318 -1.2385
 4169SOL     OW23965   1.492   0.236   9.907 -0.0943  0.1835 -0.6747
 4169SOL    HW123966   1.578   0.277   9.915 -0.9841  1.9353  0.0836
 4169SOL    HW223967   1.436   0.314   9.915  0.5720  0.6971 -1.0573
 4170SOL     OW23968   2.453   4.688  10.342 -0.1519 -0.5598  0.0101
 4170SOL    HW123969   2.406   4.706  10.423  0.2498 -0.6372  0.2610
 4170SOL    HW223970   2.541   4.701  10.376 -0.1871  0.6445 -0.3573
 4171SOL     OW23971   0.786   2.015   2.757  0.6499 -0.3460  0.5262
 4171SOL    HW123972   0.700   2.034   2.720  0.1537 -1.8362  0.9008
 4171SOL    HW223973   0.754   1.974   2.838 -0.3399 -0.9246 -0.1700
 4172SOL     OW23974   0.292   2.085   0.281 -0.3657 -0.0084 -0.2441
 4172SOL    HW123975   0.220   2.123   0.332  1.8981  1.0491  2.1961
 4172SOL    HW223976   0.281   2.134   0.200 -1.2573 -0.8757 -0.6415
 4173SOL     OW23977   1.592   0.215  16.704  0.0896  0.1809  0.4441
 4173SOL    HW123978   1.562   0.257  16.624  0.4543 -1.7749 -0.7265
 4173SOL    HW223979   1.630   0.287  16.755  3.6618 -0.3584 -1.4931
 4174SOL     OW23980   3.401   0.590   4.176  0.1599  0.3781 -0.1498
 4174SOL    HW123981   3.311   0.572   4.148  0.4822 -0.4710 -0.6408
 4174SOL    HW223982   3.425   0.511   4.225 -1.1668 -0.1660 -0.3709
 4175SOL     OW23983   0.880   1.252   2.955 -0.1356 -0.6525  0.3126
 4175SOL    HW123984   0.823   1.323   2.925  0.1304 -0.8994 -0.7637
 4175SOL    HW223985   0.828   1.220   3.029 -0.9462 -1.4483 -0.6041
 4176SOL     OW23986   2.192   1.599   6.529 -0.3755 -0.3963  0.5694
 4176SOL    HW123987   2.099   1.607   6.508  0.1371 -0.8899 -1.8850
 4176SOL    HW223988   2.214   1.691   6.514  0.0686 -0.3878  1.2773
 4177SOL     OW23989   3.293   3.856   2.005  0.6735  0.0611 -0.9985
 4177SOL    HW123990   3.281   3.860   1.911 -0.5205  1.0505 -0.8035
 4177SOL    HW223991   3.299   3.950   2.023  2.1499 -0.4860  1.3972
 4178SOL     OW23992   1.949   0.879   8.282  0.3400 -0.2673 -0.5582
 4178SOL    HW123993   1.928   0.823   8.208  1.5008 -0.7261 -0.5449
 4178SOL    HW223994   1.986   0.955   8.235  2.8520 -1.9638 -1.3541
 4179SOL     OW23995   3.963   1.981   9.293  0.0436  0.9034  0.5702
 4179SOL    HW123996   3.933   2.004   9.205  1.0558  0.2642  0.0476
 4179SOL    HW223997   3.913   1.903   9.317 -1.9010  1.2907 -2.2422
 4180SOL     OW23998   4.598   1.899   2.057 -0.0618  0.3956 -0.2976
 4180SOL    HW123999   4.671   1.862   2.106 -1.3325  0.0842  1.3890
 4180SOL    HW224000   4.618   1.865   1.969 -0.3096  0.7221 -0.4790
 4181SOL     OW24001   1.239   3.020   3.030  0.4703  0.1187 -0.0260
 4181SOL    HW124002   1.292   2.942   3.011 -1.3136 -1.3087  0.8388
 4181SOL    HW224003   1.308   3.081   3.057  1.0549 -0.7271  0.3968
 4182SOL     OW24004   0.215   4.685   2.785  0.6889  0.2840  0.0236
 4182SOL    HW124005   0.238   0.052   2.774  1.0456  0.5358  2.9477
 4182SOL    HW224006   0.287   4.638   2.742 -0.5145 -2.1307  0.5957
 4183SOL     OW24007   1.576   2.614  14.566  0.1741 -0.0661 -0.1598
 4183SOL    HW124008   1.503   2.616  14.628  1.3433 -0.1163  1.2236
 4183SOL    HW224009   1.641   2.550  14.594 -1.1681 -0.4487  2.0959
 4184SOL     OW24010   1.426   0.497   4.781 -0.6182  0.0181 -0.1039
 4184SOL    HW124011   1.352   0.557   4.784 -0.2196  0.4241  1.6400
 4184SOL    HW224012   1.445   0.499   4.687 -4.3644 -0.0099 -0.8263
 4185SOL     OW24013   0.659   2.136  13.499  0.4328  0.5605  0.0945
 4185SOL    HW124014   0.746   2.141  13.459  0.9992 -0.9100  1.1656
 4185SOL    HW224015   0.642   2.230  13.512  2.0720  0.7601  0.7062
 4186SOL     OW24016   2.441   2.375   1.921  0.4515 -0.4592  0.1095
 4186SOL    HW124017   2.351   2.398   1.944  0.1717 -0.5719 -0.8351
 4186SOL    HW224018   2.430   2.378   1.826  1.0394  1.2212  0.1003
 4187SOL     OW24019   3.962   0.675   4.207 -0.0980 -0.3597  0.2812
 4187SOL    HW124020   3.897   0.694   4.274  1.8185 -0.6566  2.2440
 4187SOL    HW224021   4.037   0.673   4.267 -1.5607 -0.8669  2.0960
 4188SOL     OW24022   2.099   1.096   9.914  0.4692  0.2046  0.3691
 4188SOL    HW124023   2.086   1.183   9.876 -2.1192 -0.4057 -0.1417
 4188SOL    HW224024   2.069   1.043   9.840  1.2450  0.6322 -0.2503
 4189SOL     OW24025   2.333   3.185  15.353 -0.1183 -0.1530 -0.1910
 4189SOL    HW124026   2.299   3.199  15.441  3.0060  1.0460  0.8199
 4189SOL    HW224027   2.282   3.250  15.306  2.2918  1.1427 -1.0318
 4190SOL     OW24028   0.697   2.669   7.197  0.1692  0.0828  0.1539
 4190SOL    HW124029   0.708   2.763   7.212 -1.0044  0.0536  1.1846
 4190SOL    HW224030   0.629   2.662   7.264  1.6913 -0.5380  1.6329
 4191SOL     OW24031   1.058   1.668  15.506  0.5059  0.3047  0.2619
 4191SOL    HW124032   1.141   1.624  15.489  0.3450  0.3024 -0.5258
 4191SOL    HW224033   1.073   1.763  15.507  0.4899  0.3072  0.2663
 4192SOL     OW24034   0.642   2.893   3.776 -0.5645 -0.3284  0.2562
 4192SOL    HW124035   0.665   2.880   3.684  0.2800  0.8992  0.3001
 4192SOL    HW224036   0.664   2.804   3.802  1.7302  0.4093  0.8095
 4193SOL     OW24037   0.402   3.423  16.465  0.3019 -0.0535  0.8406
 4193SOL    HW124038   0.446   3.382  16.391 -0.0987 -1.6330  1.4807
 4193SOL    HW224039   0.433   3.371  16.539  1.8300  1.0937  0.9925
 4194SOL     OW24040   3.604   4.137   2.705 -0.8006  0.1101  0.0871
 4194SOL    HW124041   3.554   4.057   2.718 -0.5704 -0.0263  0.1449
 4194SOL    HW224042   3.625   4.158   2.796  1.9205  0.7308 -0.6659
 4195SOL     OW24043   4.044   2.479   1.243 -0.1710 -0.1987 -0.7112
 4195SOL    HW124044   3.966   2.445   1.199  0.4373 -0.4467 -1.5989
 4195SOL    HW224045   4.099   2.510   1.171  1.4519 -0.1152  0.5832
 4196SOL     OW24046   0.132   1.281   2.536 -0.3549 -0.2692  0.0322
 4196SOL    HW124047   0.199   1.220   2.566 -0.3496 -1.2831 -2.0653
 4196SOL    HW224048   0.075   1.296   2.611  1.0299 -1.4187  1.3135
 4197SOL     OW24049   4.489   3.650   7.663 -0.3209  0.3228 -0.2862
 4197SOL    HW124050   4.575   3.621   7.633 -1.4011 -2.3127 -0.8160
 4197SOL    HW224051   4.507   3.678   7.753  1.5264 -1.5646 -0.0866
 4198SOL     OW24052   3.560   3.445   4.454  0.3533 -0.3115 -0.8033
 4198SOL    HW124053   3.581   3.419   4.544 -0.9897  1.5116  0.0375
 4198SOL    HW224054   3.556   3.357   4.418 -1.1900 -1.0456  1.1802
 4199SOL     OW24055   4.397   0.441   7.300  0.0240  0.2693 -0.8398
 4199SOL    HW124056   4.408   0.458   7.207  0.3408  0.1561 -0.8225
 4199SOL    HW224057   4.305   0.465   7.313  0.0337 -0.6086  0.9222
 4200SOL     OW24058   1.691   0.446   4.910 -0.9355 -0.0904 -0.2020
 4200SOL    HW124059   1.603   0.473   4.885 -1.6290 -1.9765  0.1964
 4200SOL    HW224060   1.745   0.457   4.832 -1.0377 -2.3442 -0.5873
 4201SOL     OW24061   2.391   2.748   6.216 -0.6228 -0.3729  0.1895
 4201SOL    HW124062   2.303   2.785   6.225 -0.3231  0.0934  1.2161
 4201SOL    HW224063   2.430   2.744   6.303 -0.9070 -0.5235  0.3076
 4202SOL     OW24064   0.255   4.368   3.498  0.5988 -0.1518  0.2114
 4202SOL    HW124065   0.223   4.320   3.422  0.6351  1.2615 -0.6916
 4202SOL    HW224066   0.249   4.294   3.560  1.4200 -0.5910 -0.2265
 4203SOL     OW24067   0.830   0.119   4.342 -0.3012  0.1044 -0.0599
 4203SOL    HW124068   0.880   0.053   4.391  1.8255  1.6328 -0.1480
 4203SOL    HW224069   0.849   0.195   4.397  2.2093 -0.8125  0.3581
 4204SOL     OW24070   2.776   3.716  17.404  0.1946 -0.4766 -0.7265
 4204SOL    HW124071   2.771   3.761  17.489  1.0212 -0.6927 -0.5597
 4204SOL    HW224072   2.759   3.790  17.346 -0.3050 -1.2498 -1.5574
 4205SOL     OW24073   3.264   0.306  12.349  0.0912 -0.4853  1.0511
 4205SOL    HW124074   3.211   0.277  12.423 -0.9290  2.8082  1.5813
 4205SOL    HW224075   3.351   0.296  12.388 -0.5675  0.2510  2.6973
 4206SOL     OW24076   1.230   3.674  11.322  0.4003 -0.3904  0.0100
 4206SOL    HW124077   1.285   3.625  11.383  2.6386  1.4242 -0.5247
 4206SOL    HW224078   1.148   3.689  11.368  0.2226 -1.4162  0.0128
 4207SOL     OW24079   0.526   2.711   4.832 -0.0426  0.8401  0.6656
 4207SOL    HW124080   0.539   2.643   4.765  0.2816  1.7722 -0.2190
 4207SOL    HW224081   0.475   2.659   4.895  0.0204 -0.2492 -0.1719
 4208SOL     OW24082   1.777   0.946   0.777 -0.1580  0.5938 -0.0826
 4208SOL    HW124083   1.752   0.857   0.751 -0.0846  0.0342  1.7691
 4208SOL    HW224084   1.785   0.929   0.871 -1.9277 -1.6206 -0.3482
 4209SOL     OW24085   3.763   3.488  16.689 -0.5266  0.0056  0.2717
 4209SOL    HW124086   3.840   3.520  16.735 -0.7901 -0.1381  0.8244
 4209SOL    HW224087   3.782   3.398  16.718 -0.9950 -1.0888 -2.8017
 4210SOL     OW24088   0.639   4.020   4.447 -0.3369  0.3131 -0.1207
 4210SOL    HW124089   0.561   4.066   4.417 -0.3397 -0.7708 -1.7669
 4210SOL    HW224090   0.586   3.950   4.485 -0.5018  2.1444  2.9881
 4211SOL     OW24091   3.065   4.499   5.595  0.2480  0.1924 -0.1620
 4211SOL    HW124092   3.050   4.425   5.536  0.5139  0.9502 -1.1702
 4211SOL    HW224093   3.034   4.470   5.680  0.1487 -0.7642 -0.5236
 4212SOL     OW24094   3.227   3.105  14.538 -1.0048  0.0065 -0.3881
 4212SOL    HW124095   3.292   3.106  14.608 -1.9566  1.5365  0.4770
 4212SOL    HW224096   3.277   3.147  14.468 -0.6504 -1.0318 -0.7588
 4213SOL     OW24097   1.294   0.353   8.052  0.2027  0.7527  0.2326
 4213SOL    HW124098   1.283   0.446   8.071 -0.2106  0.7908 -0.1845
 4213SOL    HW224099   1.217   0.342   7.996 -1.1037  1.2382  1.9537
 4214SOL     OW24100   3.571   1.986   6.389  0.4985 -0.5306 -0.2218
 4214SOL    HW124101   3.594   1.931   6.314  0.8509 -0.7722  0.0626
 4214SOL    HW224102   3.546   1.929   6.462 -0.4584 -0.8605 -0.8062
 4215SOL     OW24103   0.511   1.414   3.273 -0.1359  0.5082  0.6040
 4215SOL    HW124104   0.516   1.356   3.197 -0.9015  1.0430  0.1519
 4215SOL    HW224105   0.429   1.387   3.315 -1.4531  1.1397 -1.5985
 4216SOL     OW24106   2.257   3.799   7.577 -0.7506 -0.1608 -0.0025
 4216SOL    HW124107   2.245   3.869   7.512  1.0778  0.6233  0.5155
 4216SOL    HW224108   2.279   3.731   7.513 -0.1194  0.7976 -0.7979
 4217SOL     OW24109   0.844   0.373   7.796 -0.2103 -0.0810  0.3617
 4217SOL    HW124110   0.776   0.308   7.779  0.1868 -0.1869 -0.8375
 4217SOL    HW224111   0.825   0.444   7.735 -0.1119  0.2165  0.6789
 4218SOL     OW24112   4.621   2.330   4.408 -0.0611  0.2908 -0.0915
 4218SOL    HW124113   4.665   2.323   4.324  1.6571  2.2663  0.6588
 4218SOL    HW224114   4.558   2.258   4.403  0.5973 -0.2920  0.1423
 4219SOL     OW24115   4.696   4.630   4.076 -0.4080  0.2120  0.4605
 4219SOL    HW124116   0.054   4.637   4.028 -1.8274  0.9926 -1.8705
 4219SOL    HW224117   0.017   4.631   4.160  1.9015  2.5965 -0.8052
 4220SOL     OW24118   2.656   3.229   4.937 -0.3022 -0.1256 -0.2038
 4220SOL    HW124119   2.582   3.289   4.927 -0.6487 -0.1458  2.2650
 4220SOL    HW224120   2.719   3.277   4.991 -3.0829  1.8044  1.3778
 4221SOL     OW24121   4.428   3.669   8.241 -0.1274  0.2362 -0.5559
 4221SOL    HW124122   4.398   3.608   8.308 -1.8370  1.6801  0.0169
 4221SOL    HW224123   4.492   3.721   8.289 -1.4204  1.0614  0.2913
 4222SOL     OW24124   4.154   0.295   2.229 -0.2158  0.4482  0.3625
 4222SOL    HW124125   4.163   0.215   2.280 -1.6194  0.4504  0.6123
 4222SOL    HW224126   4.098   0.268   2.156 -1.5764  0.4658  1.4232
 4223SOL     OW24127   2.748   0.157  13.730  0.0853  0.0044 -0.2753
 4223SOL    HW124128   2.814   0.089  13.716 -1.2497 -1.4851  0.7673
 4223SOL    HW224129   2.674   0.115  13.774  1.4717 -2.2860 -0.1184
 4224SOL     OW24130   4.689   3.885  11.833  0.0558  0.6747 -0.2274
 4224SOL    HW124131   4.704   3.888  11.739  2.1062 -0.2738  0.0750
 4224SOL    HW224132   0.044   3.860  11.879 -1.0953 -1.2518  0.7139
 4225SOL     OW24133   4.499   2.719  17.463 -0.2458 -0.2562  0.4567
 4225SOL    HW124134   4.453   2.699  17.382 -0.2325  0.4187  0.2781
 4225SOL    HW224135   4.570   2.778  17.436 -0.6237 -0.8068 -1.7382
 4226SOL     OW24136   3.339   1.303   5.821  0.2500  0.0423  0.2103
 4226SOL    HW124137   3.319   1.389   5.858  0.6582 -0.6126  1.9476
 4226SOL    HW224138   3.362   1.320   5.729  0.1018 -0.9221 -0.0000
 4227SOL     OW24139   1.851   0.126   6.775 -0.1016 -0.1627  0.0632
 4227SOL    HW124140   1.888   0.057   6.719 -0.7412 -1.2171  0.9274
 4227SOL    HW224141   1.763   0.133   6.738  0.1069  0.0723 -0.3904
 4228SOL     OW24142   1.456   3.723  12.380  0.6249  0.4636 -0.6273
 4228SOL    HW124143   1.548   3.737  12.403  1.4383 -2.4403 -2.1219
 4228SOL    HW224144   1.425   3.809  12.349 -0.0966  0.3567 -0.2016
 4229SOL     OW24145   1.306   1.539  15.446  0.3154  0.4015  0.0148
 4229SOL    HW124146   1.375   1.481  15.480  1.2494  2.4282  1.5782
 4229SOL    HW224147   1.279   1.495  15.366  0.0808  1.1495 -0.3165
 4230SOL     OW24148   2.346   3.171  13.944  0.0909 -0.7351  0.4366
 4230SOL    HW124149   2.260   3.195  13.978 -0.2248  0.9113 -1.5216
 4230SOL    HW224150   2.404   3.180  14.021  2.0542  1.5238 -1.2844
 4231SOL     OW24151   0.030   1.906   4.519 -0.5376  0.2245  0.5517
 4231SOL    HW124152   0.123   1.915   4.541 -0.7571  2.7189  0.4465
 4231SOL    HW224153   0.027   1.921   4.424  0.4711 -0.1502  0.4640
 4232SOL     OW24154   3.351   3.254   4.946  0.1109  0.4527  0.4749
 4232SOL    HW124155   3.414   3.310   4.990  0.8509 -0.2819  0.3536
 4232SOL    HW224156   3.326   3.316   4.877  0.2550  0.2562  0.2449
 4233SOL     OW24157   2.705   0.770  13.053 -0.0391 -0.3840 -0.2451
 4233SOL    HW124158   2.683   0.838  12.989 -1.9924  0.3969  1.2231
 4233SOL    HW224159   2.798   0.751  13.041 -0.0837 -1.4013  1.0462
 4234SOL     OW24160   0.888   1.030   3.561  0.6760  0.5763 -0.9180
 4234SOL    HW124161   0.930   1.103   3.606 -2.2517  1.1079  0.9389
 4234SOL    HW224162   0.911   0.954   3.615  1.2404  1.1241 -0.3793
 4235SOL     OW24163   3.719   0.653   4.799 -0.3589 -0.0225  0.3703
 4235SOL    HW124164   3.753   0.694   4.878  0.1957 -2.2524  1.2810
 4235SOL    HW224165   3.702   0.566   4.836  1.4946 -0.1795  0.8563
 4236SOL     OW24166   2.892   1.291   2.735  0.5383 -0.2258 -0.3588
 4236SOL    HW124167   2.802   1.311   2.758  0.5823  0.2552 -0.6144
 4236SOL    HW224168   2.887   1.216   2.676  0.8479 -0.5832  0.0628
 4237SOL     OW24169   0.006   2.743   6.142 -0.0590  0.3488 -0.0118
 4237SOL    HW124170   0.083   2.786   6.106  0.3468 -0.5565 -0.2285
 4237SOL    HW224171   0.019   2.651   6.120 -2.0157 -0.3519  1.8039
 4238SOL     OW24172   2.451   1.105   1.813  0.3723 -0.4480  0.0890
 4238SOL    HW124173   2.477   1.179   1.758 -1.5730  0.4746  0.4308
 4238SOL    HW224174   2.369   1.072   1.776 -0.4344  0.2747  1.2170
 4239SOL     OW24175   4.487   1.438  11.662 -0.8607 -0.0958  0.5291
 4239SOL    HW124176   4.393   1.444  11.675 -0.9652 -1.3977  0.4178
 4239SOL    HW224177   4.501   1.350  11.698 -0.0166 -1.1071 -2.2519
 4240SOL     OW24178   2.635   3.923   2.090 -0.0179 -0.0928 -0.3868
 4240SOL    HW124179   2.629   3.943   2.183 -1.4780  2.5081 -1.0395
 4240SOL    HW224180   2.730   3.926   2.074 -0.1790  1.3053 -1.0707
 4241SOL     OW24181   3.329   1.051   6.973  0.2039  0.1222 -0.0230
 4241SOL    HW124182   3.407   1.106   6.976 -0.5193  1.0897  1.0662
 4241SOL    HW224183   3.258   1.112   6.992  1.0299  0.7527  0.9995
 4242SOL     OW24184   3.507   4.586   6.322 -0.4166 -0.6778 -0.2342
 4242SOL    HW124185   3.490   4.665   6.373 -0.7183 -0.5917 -0.4639
 4242SOL    HW224186   3.516   4.524   6.394  0.0210  0.4698  0.7046
 4243SOL     OW24187   2.087   0.833   3.065  0.5260 -0.1489 -0.0200
 4243SOL    HW124188   2.159   0.865   3.121  0.6888 -2.0950  0.8550
 4243SOL    HW224189   2.027   0.906   3.081 -0.9834 -1.2001 -1.0034
 4244SOL     OW24190   1.239   1.091   2.068 -0.1571  0.2603  0.7054
 4244SOL    HW124191   1.281   1.053   1.991 -0.7258 -1.2640  1.1379
 4244SOL    HW224192   1.195   1.016   2.108  1.4962 -1.8276 -1.3967
 4245SOL     OW24193   1.805   1.593  10.491 -0.1949 -1.1004  0.1495
 4245SOL    HW124194   1.736   1.632  10.545  0.2369  1.1847 -0.9196
 4245SOL    HW224195   1.880   1.622  10.544  0.2275 -1.7505 -0.0949
 4246SOL     OW24196   1.317   0.301   2.305 -0.1921  0.3570 -0.1722
 4246SOL    HW124197   1.396   0.354   2.320  1.2186 -1.8471  0.0938
 4246SOL    HW224198   1.353   0.227   2.257 -2.4789 -1.5502  1.0560
 4247SOL     OW24199   0.009   2.463   0.569 -0.0759  0.1499  0.1303
 4247SOL    HW124200   0.013   2.371   0.595 -2.9966  0.0957  0.3868
 4247SOL    HW224201   0.038   2.457   0.478 -0.9510  0.1569 -0.1577
 4248SOL     OW24202   0.150   1.664  11.982  0.2106 -0.4112  0.2922
 4248SOL    HW124203   0.140   1.578  11.942  0.1204  1.1981 -3.2218
 4248SOL    HW224204   0.116   1.725  11.915  0.7827 -2.8147 -2.1773
 4249SOL     OW24205   0.164   2.354   5.190  0.5164 -0.0576  0.0258
 4249SOL    HW124206   0.232   2.342   5.123 -2.7608  0.0921 -3.3122
 4249SOL    HW224207   0.139   2.441   5.157 -3.3930 -0.3395  2.2922
 4250SOL     OW24208   0.006   2.491  15.166 -0.5815  0.3007 -0.0630
 4250SOL    HW124209   4.648   2.470  15.210 -0.4734 -0.6843 -0.3362
 4250SOL    HW224210   0.033   2.568  15.217 -0.5322  1.4746 -1.8617
 4251SOL     OW24211   1.920   1.983   5.718 -0.2791  0.7244 -0.8310
 4251SOL    HW124212   1.857   2.054   5.722 -2.3245 -1.1318 -0.3521
 4251SOL    HW224213   1.996   2.039   5.700  0.4609  0.1858  0.5264
 4252SOL     OW24214   0.030   3.933   2.266  0.6963 -0.5300  0.0210
 4252SOL    HW124215   4.718   3.998   2.206 -0.3467  2.9169  4.4554
 4252SOL    HW224216   0.071   3.867   2.210  0.7316 -0.7597  0.3194
 4253SOL     OW24217   2.912   1.794   9.161  0.2072 -0.5740  0.4797
 4253SOL    HW124218   2.929   1.809   9.254 -1.8965  0.3083  0.7160
 4253SOL    HW224219   2.894   1.881   9.127  0.7309  0.3056  2.4141
 4254SOL     OW24220   3.471   0.096   6.464  0.0856  0.0868 -0.4084
 4254SOL    HW124221   3.504   0.173   6.418  2.7849  0.2068  1.7434
 4254SOL    HW224222   3.513   0.115   6.548 -0.7844 -1.4981  0.3887
 4255SOL     OW24223   3.538   3.198   2.846  0.6709 -0.6545 -0.3767
 4255SOL    HW124224   3.513   3.238   2.929 -0.6382 -0.9667 -0.6196
 4255SOL    HW224225   3.449   3.195   2.811  0.6223 -0.1519 -0.3045
 4256SOL     OW24226   1.771   0.245   3.984 -0.0908  0.2250 -0.3749
 4256SOL    HW124227   1.688   0.284   4.012 -0.5601 -0.3159 -1.0239
 4256SOL    HW224228   1.743   0.175   3.925  0.0974 -0.2025  0.0523
 4257SOL     OW24229   0.606   4.562   3.705  0.2961 -0.2949 -0.5581
 4257SOL    HW124230   0.676   4.624   3.725  1.5721 -1.2614 -2.0620
 4257SOL    HW224231   0.631   4.493   3.766  0.2039  0.8659  0.8018
 4258SOL     OW24232   3.504   3.915   2.513  0.1788 -0.1024 -0.0933
 4258SOL    HW124233   3.419   3.929   2.554 -1.0133 -1.3027 -2.1407
 4258SOL    HW224234   3.519   3.821   2.528 -0.2469 -0.0244  0.8436
 4259SOL     OW24235   2.921   3.963  17.257 -0.1510  0.1707 -0.1893
 4259SOL    HW124236   3.013   3.986  17.249  0.1813 -0.3301  2.2130
 4259SOL    HW224237   2.882   4.044  17.224 -0.2849  1.0740  2.1627
 4260SOL     OW24238   2.768   4.134   3.417 -0.5570  0.0579  0.1214
 4260SOL    HW124239   2.741   4.075   3.487  0.7659 -2.3300 -1.3685
 4260SOL    HW224240   2.694   4.194   3.420 -1.7839 -1.3398 -1.6572
 4261SOL     OW24241   1.650   3.718   7.848  0.2890  0.0815  0.5094
 4261SOL    HW124242   1.646   3.773   7.926 -1.8154  1.4541 -0.5638
 4261SOL    HW224243   1.579   3.655   7.863 -2.5329  2.8008 -1.1740
 4262SOL     OW24244   4.505   1.903  11.136 -0.2671  0.1889 -0.4065
 4262SOL    HW124245   4.453   1.855  11.072  0.5756  0.6070 -1.4106
 4262SOL    HW224246   4.463   1.987  11.153 -1.4692 -0.6163  0.6521
 4263SOL     OW24247   2.981   0.574   7.408 -0.2468  0.0345  0.7814
 4263SOL    HW124248   2.942   0.660   7.426  1.0421  0.6859  0.4099
 4263SOL    HW224249   2.900   0.535   7.375 -1.2902  3.8414 -1.2016
 4264SOL     OW24250   0.977   4.520   2.892  0.2577 -0.2038  0.3247
 4264SOL    HW124251   0.900   4.548   2.842 -0.1946  0.0180  1.1446
 4264SOL    HW224252   1.020   4.605   2.906 -0.9593  0.2748  1.2161
 4265SOL     OW24253   4.570   2.919   2.485 -0.4835 -0.1621  1.1893
 4265SOL    HW124254   4.628   2.995   2.495  0.2114 -0.5734  0.2779
 4265SOL    HW224255   4.511   2.944   2.415  1.6499 -0.3401 -0.6779
 4266SOL     OW24256   2.239   4.235   4.181  0.0184  0.4924 -0.3007
 4266SOL    HW124257   2.219   4.329   4.181 -2.9593 -0.1329  1.0796
 4266SOL    HW224258   2.296   4.246   4.257 -0.5812  1.7166 -0.0268
 4267SOL     OW24259   2.582   0.979   8.603  0.4066 -0.6335 -0.2332
 4267SOL    HW124260   2.563   0.977   8.697  0.0811  0.9908 -0.2678
 4267SOL    HW224261   2.663   0.928   8.597  0.6703 -0.1731 -0.5550
 4268SOL     OW24262   4.346   1.155   7.445 -0.4514  0.0847  0.5672
 4268SOL    HW124263   4.415   1.215   7.420  0.7433  0.1252  3.9717
 4268SOL    HW224264   4.268   1.209   7.433  0.0592  0.8617  0.7779
 4269SOL     OW24265   2.737   0.001   7.610 -0.2485 -0.5810  0.5850
 4269SOL    HW124266   2.769   0.067   7.671  1.9349 -0.8834 -0.2504
 4269SOL    HW224267   2.819   4.685   7.584 -0.5452  0.8768 -2.6504
 4270SOL     OW24268   2.763   2.828  14.480  0.0535 -0.1860  0.3304
 4270SOL    HW124269   2.849   2.866  14.500 -0.7425  0.6914  2.0118
 4270SOL    HW224270   2.753   2.882  14.402  1.3221 -3.3705 -2.0334
 4271SOL     OW24271   2.262   1.796   9.865 -0.1273  0.2795  0.0738
 4271SOL    HW124272   2.187   1.790   9.806 -0.3391 -0.4183  0.4100
 4271SOL    HW224273   2.230   1.751   9.943  1.3673 -0.3355  0.3353
 4272SOL     OW24274   1.862   1.087   4.851  0.0242 -0.0254 -0.0106
 4272SOL    HW124275   1.803   1.012   4.852  0.1557 -0.1516 -0.9686
 4272SOL    HW224276   1.821   1.135   4.922 -1.6457 -0.3193 -0.7814
 4273SOL     OW24277   1.389   1.829   3.449  0.4667 -0.2153 -0.0659
 4273SOL    HW124278   1.372   1.735   3.451 -0.3524 -0.0694  0.1487
 4273SOL    HW224279   1.346   1.871   3.524 -2.3629  0.4972 -2.0667
 4274SOL     OW24280   2.525   4.654   4.433  0.0604 -0.1302  0.2694
 4274SOL    HW124281   2.556   4.565   4.413 -1.7244 -0.4864 -0.9404
 4274SOL    HW224282   2.549   4.665   4.525  0.5052 -1.1349  0.2813
 4275SOL     OW24283   1.576   4.213   5.629 -0.2234 -0.8977 -0.3477
 4275SOL    HW124284   1.537   4.181   5.711  1.2159 -1.8990 -0.0424
 4275SOL    HW224285   1.542   4.151   5.565 -0.7037 -0.7564 -0.2291
 4276SOL     OW24286   4.141   1.780   2.611 -0.5061 -0.0487 -0.2381
 4276SOL    HW124287   4.153   1.805   2.519 -0.2942 -2.5694 -0.8952
 4276SOL    HW224288   4.187   1.697   2.620  0.2552  0.3388 -0.5056
 4277SOL     OW24289   0.731   4.280  15.157 -0.6432 -0.3622 -0.5414
 4277SOL    HW124290   0.653   4.308  15.110 -0.9948 -0.5115 -0.0426
 4277SOL    HW224291   0.721   4.192  15.193 -1.0693 -0.5596 -1.1384
 4278SOL     OW24292   1.433   0.603  13.082 -0.7330  0.3223 -0.5266
 4278SOL    HW124293   1.461   0.691  13.057  0.7055 -0.3747 -1.4148
 4278SOL    HW224294   1.353   0.586  13.033 -2.1331 -2.5413  2.7589
 4279SOL     OW24295   2.511   3.980  13.164 -0.0216 -0.3339 -0.1909
 4279SOL    HW124296   2.582   3.918  13.152 -0.2994 -0.3694 -1.6731
 4279SOL    HW224297   2.547   4.067  13.145 -0.0453 -0.0384  1.0684
 4280SOL     OW24298   3.797   4.553   5.238  1.1043  0.1472  0.4972
 4280SOL    HW124299   3.813   4.462   5.213  0.9718 -0.5848  3.1102
 4280SOL    HW224300   3.851   4.587   5.166 -0.1389 -1.3427 -1.1365
 4281SOL     OW24301   1.566   4.145   4.672  0.1381 -0.1171 -0.1160
 4281SOL    HW124302   1.534   4.136   4.582  0.4965 -2.1298 -0.0441
 4281SOL    HW224303   1.659   4.136   4.655  0.2165 -0.6915  0.5666
 4282SOL     OW24304   0.581   2.501   4.392  0.2977 -0.2069  0.0157
 4282SOL    HW124305   0.556   2.592   4.405 -0.1232 -0.5719  1.6973
 4282SOL    HW224306   0.671   2.509   4.362 -0.1666  0.7045 -1.1289
 4283SOL     OW24307   0.223   2.925   7.525  0.0514 -0.2555  0.2599
 4283SOL    HW124308   0.257   2.836   7.528 -0.6381 -0.4258  2.9926
 4283SOL    HW224309   0.139   2.919   7.570 -2.1980 -0.7540 -4.0613
 4284SOL     OW24310   2.089   2.516   4.515 -0.0501 -0.3028 -0.3205
 4284SOL    HW124311   2.074   2.524   4.609 -0.6932 -1.8293 -0.2995
 4284SOL    HW224312   2.000   2.493   4.487 -0.7297  0.1458  1.4506
 4285SOL     OW24313   1.166   0.216  16.433  0.2520  0.1462 -0.4237
 4285SOL    HW124314   1.109   0.246  16.503  0.1925 -0.7018 -0.1011
 4285SOL    HW224315   1.187   0.296  16.386 -3.6757  1.7569  0.5963
 4286SOL     OW24316   3.572   4.080   3.822 -0.0968  0.2062  0.1387
 4286SOL    HW124317   3.483   4.062   3.853  0.0052 -0.4807  0.0333
 4286SOL    HW224318   3.554   4.106   3.732 -0.5851  0.6631  0.3689
 4287SOL     OW24319   3.377   2.110   9.581 -0.0038 -0.0815  0.2102
 4287SOL    HW124320   3.306   2.053   9.610  0.5017 -0.5101  0.6156
 4287SOL    HW224321   3.412   2.076   9.498 -1.8063  1.8013 -1.3103
 4288SOL     OW24322   0.234   1.101   7.910 -0.1704  0.3329 -0.4986
 4288SOL    HW124323   0.203   1.010   7.903 -0.0775  0.2610  0.0410
 4288SOL    HW224324   0.167   1.152   7.864  1.1586  0.2435 -2.5199
 4289SOL     OW24325   2.924   3.516   4.048  0.2366 -0.3081  0.2395
 4289SOL    HW124326   2.988   3.542   3.982  0.0935  0.7092  0.5001
 4289SOL    HW224327   2.951   3.573   4.120 -1.2402 -0.1345  0.6687
 4290SOL     OW24328   2.823   2.959   8.722  0.0372  0.1225 -0.6309
 4290SOL    HW124329   2.793   2.871   8.746  1.4048 -0.5643 -1.4267
 4290SOL    HW224330   2.738   3.003   8.729 -0.8005 -1.5180 -0.5557
 4291SOL     OW24331   1.800   4.228   0.688  0.1971  0.2455 -0.0712
 4291SOL    HW124332   1.815   4.277   0.607  0.5962 -0.2046 -0.2745
 4291SOL    HW224333   1.706   4.216   0.674  0.1332  2.5240 -1.4772
 4292SOL     OW24334   3.834   0.605   6.462  0.0872  0.1710 -0.1970
 4292SOL    HW124335   3.847   0.538   6.394  1.0701 -1.0445  1.2014
 4292SOL    HW224336   3.792   0.560   6.535  1.1983 -0.7827 -0.1415
 4293SOL     OW24337   2.030   2.845   6.280  0.3219  0.7383 -0.0346
 4293SOL    HW124338   2.047   2.906   6.208  2.2812  2.9361  2.3175
 4293SOL    HW224339   2.053   2.894   6.359  1.4796 -2.2373  1.4545
 4294SOL     OW24340   1.674   3.698   2.340 -0.2864 -0.3436 -0.5998
 4294SOL    HW124341   1.644   3.625   2.286 -1.2581 -1.6594  1.7064
 4294SOL    HW224342   1.767   3.703   2.315  0.0304 -1.0099  0.4584
 4295SOL     OW24343   2.857   1.568  16.407 -0.1581  0.1660 -0.1049
 4295SOL    HW124344   2.761   1.573  16.403 -0.2305 -0.5750  0.5967
 4295SOL    HW224345   2.867   1.485  16.360  2.7963  0.0437  0.7481
 4296SOL     OW24346   1.503   4.137   4.384  0.0070  0.0655  0.2818
 4296SOL    HW124347   1.569   4.114   4.318  1.2434  0.3604  1.4048
 4296SOL    HW224348   1.516   4.230   4.398  0.5087 -0.1411  1.1846
 4297SOL     OW24349   2.822   4.619   2.180  0.3853  0.3686  0.2462
 4297SOL    HW124350   2.883   4.571   2.125  0.0237  1.7439 -1.3428
 4297SOL    HW224351   2.739   4.593   2.139  0.6076  1.5969 -0.9744
 4298SOL     OW24352   1.386   1.593   3.694  0.0332  0.3253 -0.5168
 4298SOL    HW124353   1.409   1.562   3.606  0.2314 -0.4725 -0.1847
 4298SOL    HW224354   1.316   1.528   3.704  0.9387 -0.9239 -2.2505
 4299SOL     OW24355   1.842   4.302   0.445  0.4671  0.4902 -0.3782
 4299SOL    HW124356   1.843   4.371   0.379  1.2460 -1.3660 -2.2897
 4299SOL    HW224357   1.928   4.262   0.428  0.9308  0.6654  1.5295
 4300SOL     OW24358   4.033   3.509   0.219 -0.0766 -0.6151  0.6990
 4300SOL    HW124359   4.028   3.420   0.254 -0.4222 -0.6494  0.5609
 4300SOL    HW224360   4.053   3.488   0.127 -0.6082 -0.9954  0.6689
 4301SOL     OW24361   1.125   0.808   6.042 -0.8140 -0.2755  0.3411
 4301SOL    HW124362   1.062   0.865   5.999  1.6218 -1.3263 -4.6302
 4301SOL    HW224363   1.095   0.725   6.004  0.3934 -1.1457  1.2637
 4302SOL     OW24364   3.138   1.936   5.550  0.1657 -0.0630 -0.2027
 4302SOL    HW124365   3.211   1.995   5.566  0.3224 -0.0877 -0.8190
 4302SOL    HW224366   3.187   1.857   5.525  0.7689  0.2460  0.0086
 4303SOL     OW24367   4.355   3.775  16.885 -0.5707  0.0840  0.0786
 4303SOL    HW124368   4.321   3.864  16.874 -1.3414 -0.3140 -0.7726
 4303SOL    HW224369   4.295   3.743  16.818 -0.9083 -0.2735  0.5573
 4304SOL     OW24370   2.225   3.742   5.130  0.0210  0.0451  0.6754
 4304SOL    HW124371   2.138   3.745   5.091 -0.4996 -0.5615  1.7823
 4304SOL    HW224372   2.203   3.750   5.223 -0.1228  2.8011  0.3971
 4305SOL     OW24373   0.598   3.673   3.274 -0.0948  0.2698  0.3652
 4305SOL    HW124374   0.573   3.717   3.355 -0.7744  1.7046 -0.6055
 4305SOL    HW224375   0.606   3.749   3.216 -1.0157  0.3276  0.3178
 4306SOL     OW24376   2.073   0.404   4.782  0.3151  0.3969 -0.0345
 4306SOL    HW124377   2.144   0.444   4.732  0.2361 -2.7372 -2.6872
 4306SOL    HW224378   2.092   0.311   4.795  1.8780  0.6451 -0.5477
 4307SOL     OW24379   1.112   3.256   4.371  0.4013  0.1901 -0.0728
 4307SOL    HW124380   1.101   3.336   4.422  1.2120  0.7389 -0.7579
 4307SOL    HW224381   1.138   3.290   4.286 -1.5065  0.4656 -0.5328
 4308SOL     OW24382   3.285   2.824   3.544 -0.2922  0.1341  0.1847
 4308SOL    HW124383   3.261   2.733   3.559 -0.8074  0.4657  1.4291
 4308SOL    HW224384   3.204   2.868   3.571  0.0197  0.1850  1.0350
 4309SOL     OW24385   3.802   0.162   7.449  0.0302 -0.4251  0.3122
 4309SOL    HW124386   3.731   0.170   7.385  1.7967 -0.5007 -1.6156
 4309SOL    HW224387   3.824   0.255   7.460 -1.4853  0.0371 -0.4696
 4310SOL     OW24388   0.799   0.580   1.342 -0.5908 -0.6628  0.1113
 4310SOL    HW124389   0.783   0.673   1.328  0.5286 -0.8793 -2.6635
 4310SOL    HW224390   0.710   0.552   1.362 -0.7641 -1.5990 -1.9712
 4311SOL     OW24391   3.068   2.767   1.094 -0.0342 -0.3024 -0.4717
 4311SOL    HW124392   3.080   2.813   1.177  1.3242 -1.4556 -0.0216
 4311SOL    HW224393   3.060   2.678   1.127 -1.4188  0.1279  0.3809
 4312SOL     OW24394   4.568   1.899  12.316 -1.1689 -0.2750  0.3223
 4312SOL    HW124395   4.661   1.886  12.339 -1.1001  1.4641  1.0469
 4312SOL    HW224396   4.518   1.874  12.393  0.0086 -0.3031  1.0862
 4313SOL     OW24397   0.137   0.191   4.527 -0.3204 -0.3323 -0.6701
 4313SOL    HW124398   0.075   0.254   4.490  0.9351  1.9065  1.0595
 4313SOL    HW224399   0.198   0.179   4.455  0.8336  0.2783  0.2095
 4314SOL     OW24400   4.706   3.157  17.223 -0.6894  0.1503 -0.5922
 4314SOL    HW124401   0.065   3.156  17.178 -1.3781 -0.3573 -1.8833
 4314SOL    HW224402   4.646   3.189  17.155 -2.4301 -3.8167 -0.9945
 4315SOL     OW24403   3.720   3.612   6.935 -0.3351 -0.7520 -0.1340
 4315SOL    HW124404   3.674   3.533   6.964  0.9023 -0.6026  2.2417
 4315SOL    HW224405   3.738   3.663   7.014 -0.8846  2.0477 -1.8239
 4316SOL     OW24406   2.588   0.876   4.226  1.1659 -0.3825 -0.1442
 4316SOL    HW124407   2.547   0.836   4.302 -2.6996  1.7484 -1.0582
 4316SOL    HW224408   2.664   0.913   4.271 -0.6436  0.1291  2.5210
 4317SOL     OW24409   3.993   1.368  16.625 -0.2820  0.4493  0.3802
 4317SOL    HW124410   3.963   1.311  16.555  0.7715 -0.4522  0.6463
 4317SOL    HW224411   3.956   1.332  16.706 -3.2454  1.6919 -0.4500
 4318SOL     OW24412   3.586   4.510   3.779 -0.6634 -0.3479 -0.1262
 4318SOL    HW124413   3.547   4.584   3.826 -0.1953  0.8926 -1.7230
 4318SOL    HW224414   3.528   4.439   3.807 -1.4910  0.4724  0.2545
 4319SOL     OW24415   0.827   1.734  16.313  0.1164  0.1331  0.4133
 4319SOL    HW124416   0.820   1.818  16.357 -0.4988 -0.3576  1.2638
 4319SOL    HW224417   0.769   1.744  16.238  3.7547  0.1674 -2.3701
 4320SOL     OW24418   1.041   0.555  14.699  0.3789  0.5966 -0.2923
 4320SOL    HW124419   0.948   0.571  14.716  0.3086 -0.3863  0.2382
 4320SOL    HW224420   1.067   0.495  14.769 -1.0457  1.6603  1.1562
 4321SOL     OW24421   1.710   3.093   5.265  0.6014 -0.0169 -0.2672
 4321SOL    HW124422   1.798   3.084   5.228 -0.3718  1.5206 -2.9371
 4321SOL    HW224423   1.681   3.002   5.262  0.2114  0.1040 -0.1295
 4322SOL     OW24424   1.584   4.689  11.062  0.0194 -0.4723 -0.0789
 4322SOL    HW124425   1.540   0.042  11.096 -0.9012 -1.8387  1.8761
 4322SOL    HW224426   1.656   0.006  11.014  0.2490 -0.3905  0.3397
 4323SOL     OW24427   2.079   0.165   7.378 -0.6442 -0.4251 -0.1761
 4323SOL    HW124428   2.048   0.122   7.458 -1.2880 -0.4281 -0.4273
 4323SOL    HW224429   1.997   0.164   7.328 -0.7047 -2.5368 -0.0182
 4324SOL     OW24430   0.830   0.298   3.390 -0.3602 -0.0827  0.0018
 4324SOL    HW124431   0.853   0.268   3.478  0.3653 -0.4971 -0.3248
 4324SOL    HW224432   0.920   0.319   3.364  0.0738  2.4303  3.3919
 4325SOL     OW24433   3.680   4.253  13.906  0.0862 -0.1857  0.3969
 4325SOL    HW124434   3.720   4.335  13.876  0.5477 -0.0161  1.4483
 4325SOL    HW224435   3.745   4.196  13.865 -2.0572 -0.2420 -2.9086
 4326SOL     OW24436   0.174   4.105   8.318  0.4939  1.0317 -1.0274
 4326SOL    HW124437   0.242   4.082   8.255  1.2207  3.7620 -1.2484
 4326SOL    HW224438   0.137   4.017   8.330 -2.1717  2.2461 -0.2971
 4327SOL     OW24439   1.850   3.994   3.842 -0.0614 -0.2656  0.1590
 4327SOL    HW124440   1.900   4.008   3.922 -0.0043  2.4142 -0.3510
 4327SOL    HW224441   1.783   3.938   3.882 -0.5385 -0.4312 -0.8683
 4328SOL     OW24442   4.419   2.709   4.674  0.2951 -0.1645  0.1789
 4328SOL    HW124443   4.511   2.713   4.646  0.2465 -1.8468 -0.2671
 4328SOL    HW224444   4.396   2.635   4.618  1.9071  0.8596 -1.8417
 4329SOL     OW24445   3.565   3.562  17.603  0.2535  0.2223  0.0988
 4329SOL    HW124446   3.525   3.480  17.573 -2.3429  1.5270  0.0353
 4329SOL    HW224447   3.604   3.530  17.685  0.6014  1.1825  0.3128
 4330SOL     OW24448   1.722   1.572  10.879 -0.0625  0.3553  0.0517
 4330SOL    HW124449   1.657   1.582  10.948  0.4466  2.1549  0.2799
 4330SOL    HW224450   1.663   1.573  10.804 -0.8722 -0.2689  0.6820
 4331SOL     OW24451   0.864   0.160   9.632  0.2478  0.3161 -0.4405
 4331SOL    HW124452   0.957   0.139   9.621  0.7513  1.0964  2.1193
 4331SOL    HW224453   0.842   0.173   9.540 -1.1949  1.6542  0.0944
 4332SOL     OW24454   4.514   3.861   8.426 -0.0106  0.0458 -0.1023
 4332SOL    HW124455   4.477   3.879   8.513 -1.7917 -0.8968 -0.6555
 4332SOL    HW224456   4.461   3.911   8.364  1.8683 -0.2710 -1.9375
 4333SOL     OW24457   0.811   1.846  12.077  0.3070  0.0141 -0.6669
 4333SOL    HW124458   0.810   1.750  12.070  0.7922 -0.1700  1.5503
 4333SOL    HW224459   0.842   1.872  11.991 -1.5685  0.2655 -1.2580
 4334SOL     OW24460   3.756   2.746   6.809  0.1292 -0.0376 -0.1313
 4334SOL    HW124461   3.819   2.686   6.848 -1.0974 -1.0744  0.2505
 4334SOL    HW224462   3.699   2.684   6.764  0.4931  0.5157 -1.3438
 4335SOL     OW24463   4.660   4.223   5.038 -0.5331  0.1301 -0.0048
 4335SOL    HW124464   4.594   4.202   4.971  0.6671 -1.9361 -0.5652
 4335SOL    HW224465   4.675   4.136   5.076  1.0538  0.0938 -0.6927
 4336SOL     OW24466   0.149   1.533   6.439 -0.3190  0.0736  0.1749
 4336SOL    HW124467   0.196   1.593   6.496  0.6013 -0.2538 -0.2477
 4336SOL    HW224468   0.106   1.604   6.389  0.8745 -0.1176 -1.1258
 4337SOL     OW24469   3.665   2.575   0.742  0.6227  0.3209  0.5849
 4337SOL    HW124470   3.596   2.621   0.693  2.7866  2.2706 -0.6192
 4337SOL    HW224471   3.694   2.638   0.808  0.4930  1.3064 -0.2907
 4338SOL     OW24472   2.216   4.207  10.241  0.6799 -0.5667 -0.5992
 4338SOL    HW124473   2.186   4.273  10.303 -2.1318 -1.2283 -1.2597
 4338SOL    HW224474   2.178   4.125  10.272 -1.6151  0.4372 -0.8189
 4339SOL     OW24475   1.298   4.279   0.888 -0.2377  0.3504 -0.4030
 4339SOL    HW124476   1.332   4.278   0.977 -2.4644  2.5665  0.4394
 4339SOL    HW224477   1.272   4.370   0.885 -3.0882 -0.4487  0.2561
 4340SOL     OW24478   3.780   1.211   9.105  0.1724 -0.0402  0.3628
 4340SOL    HW124479   3.867   1.192   9.139 -0.4594 -2.3322  0.7239
 4340SOL    HW224480   3.744   1.127   9.075  0.6172  0.1987 -0.8324
 4341SOL     OW24481   0.888   1.269  15.782 -0.5155  0.0612 -0.5771
 4341SOL    HW124482   0.878   1.307  15.695 -0.0692 -3.0064 -1.9915
 4341SOL    HW224483   0.801   1.293  15.814  0.2323  1.4289  0.3737
 4342SOL     OW24484   4.551   4.419   4.149 -0.0933 -0.2809  0.2373
 4342SOL    HW124485   4.589   4.500   4.116 -0.5854 -0.0447  0.2532
 4342SOL    HW224486   4.618   4.351   4.141  0.9314  0.4685  2.4332
 4343SOL     OW24487   0.897   4.424  17.252 -0.2742  0.0041 -0.4610
 4343SOL    HW124488   0.962   4.354  17.264  0.3786  0.5679 -0.7554
 4343SOL    HW224489   0.879   4.433  17.346 -1.8310  1.3120 -0.8771
 4344SOL     OW24490   2.058   4.358   3.903  0.5521 -0.0836 -0.0926
 4344SOL    HW124491   2.137   4.351   3.851  1.8636  0.7912  1.7782
 4344SOL    HW224492   2.097   4.399   3.980  0.1365 -0.0591  0.1095
 4345SOL     OW24493   1.247   1.751  15.241 -0.1881 -0.1472  0.1201
 4345SOL    HW124494   1.227   1.669  15.196 -1.2445  0.4538 -0.5000
 4345SOL    HW224495   1.297   1.722  15.318  0.1016  0.2933  0.0970
 4346SOL     OW24496   2.493   3.104   8.093 -0.3707  0.0028  0.2468
 4346SOL    HW124497   2.530   3.091   8.006  0.7463  1.4206  0.5084
 4346SOL    HW224498   2.501   3.016   8.129 -1.0728 -0.5326 -0.9085
 4347SOL     OW24499   4.036   0.062  14.113 -0.4632 -0.0998  0.6898
 4347SOL    HW124500   4.096   0.081  14.040 -2.4999  0.3303 -0.8731
 4347SOL    HW224501   4.069   4.703  14.145 -4.4789 -2.9387 -2.6593
 4348SOL     OW24502   2.596   3.252   3.637  0.0573  0.3162 -0.4907
 4348SOL    HW124503   2.595   3.347   3.644  0.0795  0.3493 -0.9293
 4348SOL    HW224504   2.664   3.242   3.569  1.9745 -0.5037  1.5251
 4349SOL     OW24505   1.379   4.363   6.070  0.1744  0.1979 -0.1518
 4349SOL    HW124506   1.371   4.371   6.165 -0.1956  3.0525 -0.4213
 4349SOL    HW224507   1.287   4.367   6.042 -0.3981  0.8009  1.7643
 4350SOL     OW24508   1.525   3.422   2.683  0.2511  0.2202  0.5597
 4350SOL    HW124509   1.598   3.443   2.742 -0.4854  1.7257  0.9241
 4350SOL    HW224510   1.446   3.414   2.736 -0.2597  2.6648  0.1975
 4351SOL     OW24511   3.679   3.963   7.905 -0.6070 -0.1790  0.2288
 4351SOL    HW124512   3.621   3.888   7.919  1.6169 -1.7963  0.5779
 4351SOL    HW224513   3.761   3.917   7.915 -0.6060 -0.1866  0.1874
 4352SOL     OW24514   0.798   1.966   5.620  0.4476  0.2772  0.2390
 4352SOL    HW124515   0.855   2.033   5.657  0.2665 -0.3752  1.6812
 4352SOL    HW224516   0.714   2.009   5.631  0.0654 -0.0305 -1.4495
 4353SOL     OW24517   1.328   3.396   2.121  0.0955  0.1157  0.4124
 4353SOL    HW124518   1.333   3.476   2.173  0.3438 -0.2955  1.0221
 4353SOL    HW224519   1.253   3.418   2.066  1.3073 -0.8013 -1.6271
 4354SOL     OW24520   0.894   2.897   8.522 -0.0625  0.0920 -0.2884
 4354SOL    HW124521   0.848   2.971   8.563  1.5547  1.3324 -0.7278
 4354SOL    HW224522   0.832   2.825   8.536  3.0964 -2.3820  0.8532
 4355SOL     OW24523   1.884   0.995  11.143  0.1958 -0.1751 -0.4093
 4355SOL    HW124524   1.795   0.969  11.119 -0.0469  0.6601 -0.3869
 4355SOL    HW224525   1.906   1.023  11.054 -1.5816  0.7049 -0.5648
 4356SOL     OW24526   4.043   2.825   0.307  0.3669 -0.4190 -0.8691
 4356SOL    HW124527   3.948   2.813   0.309  0.0201  2.5806 -0.0565
 4356SOL    HW224528   4.072   2.750   0.360 -0.2471 -1.2927 -1.7753
 4357SOL     OW24529   2.229   0.782  11.435  0.3378  0.1606  0.6500
 4357SOL    HW124530   2.253   0.724  11.363  0.6573  0.9304  0.1302
 4357SOL    HW224531   2.152   0.829  11.404  1.1418  1.3593  0.4545
 4358SOL     OW24532   1.142   2.931   3.787 -0.4634 -0.1871 -0.3353
 4358SOL    HW124533   1.145   2.921   3.882 -2.1123  0.1848 -0.2416
 4358SOL    HW224534   1.088   3.010   3.779  0.6877  0.5048 -1.1754
 4359SOL     OW24535   3.200   4.050   3.232  0.2626 -0.1269  0.0764
 4359SOL    HW124536   3.204   4.145   3.246 -2.8433  0.3568 -2.4393
 4359SOL    HW224537   3.111   4.036   3.266  1.4536  0.8731  3.5977
 4360SOL     OW24538   0.461   2.452   5.605  0.0476 -0.3377  0.6032
 4360SOL    HW124539   0.388   2.429   5.662 -0.1280 -0.3741  0.3632
 4360SOL    HW224540   0.438   2.397   5.530 -0.0655 -1.5334  1.5141
 4361SOL     OW24541   1.884   1.452   2.049 -0.0748  0.8040  0.4233
 4361SOL    HW124542   1.834   1.411   2.119  0.5105 -0.4771  0.0928
 4361SOL    HW224543   1.974   1.452   2.082 -0.8438 -0.3097  2.5072
 4362SOL     OW24544   1.036   1.521   9.409  0.5330  0.0992  0.0021
 4362SOL    HW124545   0.962   1.555   9.359 -0.2625  0.9533  1.7954
 4362SOL    HW224546   0.987   1.519   9.491 -1.2694 -0.8013 -1.1179
 4363SOL     OW24547   3.039   4.264   8.126  0.4978 -0.5559  0.2091
 4363SOL    HW124548   3.076   4.302   8.206  1.4371 -0.5690 -0.2261
 4363SOL    HW224549   3.054   4.346   8.078 -1.7540 -0.2984 -0.0696
 4364SOL     OW24550   3.512   1.615   6.449  0.3223  0.0478 -0.1219
 4364SOL    HW124551   3.605   1.611   6.427  0.5493 -1.3586  1.0573
 4364SOL    HW224552   3.482   1.530   6.415  2.9299 -2.1105  2.9541
 4365SOL     OW24553   3.753   2.685  13.237 -0.4911  0.1504  0.1721
 4365SOL    HW124554   3.774   2.701  13.329 -4.0864  1.4745  0.7525
 4365SOL    HW224555   3.836   2.643  13.213  0.7530  1.1218  2.7432
 4366SOL     OW24556   1.708   1.356   5.269  0.0603 -0.2640  0.6010
 4366SOL    HW124557   1.621   1.381   5.299 -0.2390 -0.7366  0.1046
 4366SOL    HW224558   1.761   1.416   5.322 -1.5832 -0.5582  2.5516
 4367SOL     OW24559   2.655   1.852  10.411  0.4045  0.5898  0.2383
 4367SOL    HW124560   2.638   1.941  10.443  1.1023  0.5494  0.7182
 4367SOL    HW224561   2.730   1.865  10.353  0.4570 -0.3483  0.1093
 4368SOL     OW24562   4.042   1.033   5.357 -0.0566 -0.1994 -0.1922
 4368SOL    HW124563   4.019   1.048   5.449 -2.1902 -0.7347 -0.6483
 4368SOL    HW224564   4.108   1.102   5.350 -0.4321  0.3195  1.4523
 4369SOL     OW24565   3.136   0.544   5.670 -0.4412 -0.4007  0.0893
 4369SOL    HW124566   3.063   0.559   5.730  0.2885 -0.5678  1.0129
 4369SOL    HW224567   3.201   0.518   5.735 -1.3433  0.7688  1.4494
 4370SOL     OW24568   2.500   1.284  10.851 -0.1766 -0.1545  0.2072
 4370SOL    HW124569   2.512   1.302  10.757  0.3264  2.8184  0.8533
 4370SOL    HW224570   2.404   1.283  10.847 -0.1820 -0.8827  0.4813
 4371SOL     OW24571   0.502   3.846   1.250 -0.0666 -0.5166 -0.0825
 4371SOL    HW124572   0.586   3.876   1.284 -0.2191  1.0728 -1.0985
 4371SOL    HW224573   0.507   3.757   1.283 -1.9939 -0.3876  0.5467
 4372SOL     OW24574   0.208   2.854   3.186 -0.1563 -0.1251 -0.3924
 4372SOL    HW124575   0.231   2.841   3.094  1.5848  0.3264 -0.0076
 4372SOL    HW224576   0.294   2.886   3.212  0.6618 -1.4346 -1.4561
 4373SOL     OW24577   0.851   0.284   1.274  0.5919 -0.4612  0.3727
 4373SOL    HW124578   0.885   0.373   1.284  1.8700 -0.3942 -4.2788
 4373SOL    HW224579   0.870   0.269   1.181  0.2174  1.4098  0.0061
 4374SOL     OW24580   2.979   2.270   4.146  0.3121 -0.4288 -0.6357
 4374SOL    HW124581   3.027   2.239   4.222 -0.9003  0.8657  0.6706
 4374SOL    HW224582   2.889   2.244   4.166  0.2174 -0.4448 -1.0868
 4375SOL     OW24583   1.017   1.359  17.460 -0.4589  0.0131 -0.1042
 4375SOL    HW124584   1.064   1.401  17.388 -0.0578 -1.3492 -0.6329
 4375SOL    HW224585   0.991   1.278  17.416 -1.2571  0.0295  0.3419
 4376SOL     OW24586   2.838   3.551   6.364 -0.1439 -0.6466  0.0883
 4376SOL    HW124587   2.858   3.521   6.453  0.0494 -1.0641 -0.0928
 4376SOL    HW224588   2.742   3.546   6.370 -0.2684  1.4739 -0.0976
 4377SOL     OW24589   0.645   0.462   6.070 -0.1502  0.1510  0.4825
 4377SOL    HW124590   0.611   0.538   6.117 -2.6057 -1.0459  0.6127
 4377SOL    HW224591   0.722   0.425   6.114 -0.4956  0.0443  0.9922
 4378SOL     OW24592   1.065   1.870   8.500 -0.1030 -0.0383  0.4229
 4378SOL    HW124593   1.029   1.786   8.529  1.1640 -0.2164  1.4814
 4378SOL    HW224594   1.160   1.860   8.498 -0.0245  0.7650  0.0396
 4379SOL     OW24595   2.777   0.077   9.071  0.0610  0.5581 -0.5208
 4379SOL    HW124596   2.865   0.076   9.032  1.4951 -0.3523  2.7507
 4379SOL    HW224597   2.773   0.165   9.108 -0.0516  0.1102  0.5152
 4380SOL     OW24598   3.008   0.242   3.214 -0.5703 -0.1601  0.5993
 4380SOL    HW124599   2.928   0.272   3.170 -0.9649 -3.4477 -0.8749
 4380SOL    HW224600   3.057   0.215   3.136  0.3693 -0.8083  1.4233
 4381SOL     OW24601   4.105   3.236   4.432 -0.1778  0.0024 -0.0410
 4381SOL    HW124602   4.062   3.191   4.359 -2.1476  0.3368  0.9137
 4381SOL    HW224603   4.125   3.319   4.388 -0.2415  0.2554  0.4071
 4382SOL     OW24604   2.459   1.578  10.116 -0.2165  0.2528 -0.6488
 4382SOL    HW124605   2.454   1.582  10.212  1.2722 -0.9710 -0.5196
 4382SOL    HW224606   2.374   1.618  10.096  0.4926  3.2315  2.2041
 4383SOL     OW24607   0.643   1.337   6.360 -0.0301 -0.3339 -0.0628
 4383SOL    HW124608   0.635   1.346   6.455 -2.8306  1.7032 -0.4678
 4383SOL    HW224609   0.552   1.351   6.334 -0.0973  0.6459  0.6998
 4384SOL     OW24610   2.365   0.739   8.800 -0.5047 -0.3145 -0.0785
 4384SOL    HW124611   2.315   0.818   8.821 -2.8475 -1.2860 -1.9546
 4384SOL    HW224612   2.325   0.698   8.723  1.1228 -0.5254 -0.8024
 4385SOL     OW24613   3.370   0.329   5.546 -0.1511  0.0065 -0.0100
 4385SOL    HW124614   3.374   0.248   5.496  0.7201  1.1290 -1.7580
 4385SOL    HW224615   3.310   0.299   5.614 -0.7783  0.9136 -0.1637
 4386SOL     OW24616   2.916   4.230   5.540  0.1575 -0.3861  0.4258
 4386SOL    HW124617   2.989   4.221   5.479 -1.6396 -0.7687 -1.6586
 4386SOL    HW224618   2.853   4.223   5.468  1.9057 -0.5258 -1.0673
 4387SOL     OW24619   1.999   1.197  10.293  0.9483 -0.0038 -0.0350
 4387SOL    HW124620   2.063   1.268  10.296  0.7458  0.1991 -0.5319
 4387SOL    HW224621   1.983   1.200  10.199 -2.8053 -0.0273  0.6254
 4388SOL     OW24622   0.313   1.844  10.939  0.3940  0.9487  0.2399
 4388SOL    HW124623   0.340   1.875  10.853  1.5251 -0.1661  0.1931
 4388SOL    HW224624   0.365   1.902  10.995  0.5161  1.3802 -0.3266
 4389SOL     OW24625   1.969   2.538   3.164 -0.0585 -0.1132  0.0831
 4389SOL    HW124626   1.965   2.633   3.178 -0.0457 -0.2528  1.0201
 4389SOL    HW224627   2.048   2.542   3.109 -1.2581  0.5573 -1.5957
 4390SOL     OW24628   1.945   0.863   2.412  0.1480  0.5942 -0.7303
 4390SOL    HW124629   1.923   0.771   2.428 -1.2396  1.1922  0.8371
 4390SOL    HW224630   2.039   0.853   2.422  0.1062  1.3096  0.3534
 4391SOL     OW24631   2.679   3.744   3.552 -0.4018 -0.5920 -0.4693
 4391SOL    HW124632   2.685   3.833   3.586 -0.0120 -0.3733 -1.1117
 4391SOL    HW224633   2.771   3.717   3.561 -0.0088  0.8255 -0.3037
 4392SOL     OW24634   4.229   2.466   8.015  0.5131  0.3519 -0.0419
 4392SOL    HW124635   4.318   2.479   8.049  0.7127 -1.9022  0.2831
 4392SOL    HW224636   4.183   2.428   8.091  2.0732 -0.1937  0.6250
 4393SOL     OW24637   1.513   1.742  15.861 -0.4735 -0.1942  0.0661
 4393SOL    HW124638   1.499   1.827  15.903  2.0749  0.1750  0.1321
 4393SOL    HW224639   1.507   1.764  15.768 -2.2099  0.6545  0.3722
 4394SOL     OW24640   4.326   1.960   5.768 -0.2820 -0.0282 -0.0040
 4394SOL    HW124641   4.412   1.968   5.728  0.2032 -0.5820  0.9541
 4394SOL    HW224642   4.345   1.957   5.862 -0.9516 -1.1101  0.0895
 4395SOL     OW24643   3.315   1.020  16.413  0.4806 -0.3118  0.3163
 4395SOL    HW124644   3.367   0.961  16.358  1.0188 -1.9223  2.5697
 4395SOL    HW224645   3.326   1.001  16.506  1.1880 -0.9116  0.1096
 4396SOL     OW24646   1.085   0.140   2.318 -0.0518  0.0235 -0.3359
 4396SOL    HW124647   1.120   0.094   2.394  0.1711  0.0560 -0.4196
 4396SOL    HW224648   1.164   0.189   2.296 -1.0018  2.0157  0.7736
 4397SOL     OW24649   0.698   0.595  12.370  0.3167 -0.2667  0.2947
 4397SOL    HW124650   0.639   0.659  12.409 -0.8476 -2.1274  1.5759
 4397SOL    HW224651   0.739   0.554  12.446 -2.3065  0.2364  1.9851
 4398SOL     OW24652   3.768   1.243   6.447  0.0137  0.1970 -0.5863
 4398SOL    HW124653   3.850   1.291   6.434  0.1635 -0.6050 -2.5790
 4398SOL    HW224654   3.770   1.187   6.370 -1.4221 -2.2319  1.1442
 4399SOL     OW24655   0.359   0.424  14.067 -0.7547  0.1912  0.1303
 4399SOL    HW124656   0.346   0.510  14.105 -0.7352  0.6880 -0.9838
 4399SOL    HW224657   0.272   0.383  14.058 -0.7923  0.3618 -0.2924
 4400SOL     OW24658   3.396   1.913   1.178 -0.0911 -0.7229 -0.1137
 4400SOL    HW124659   3.357   1.889   1.262  0.9792  0.0908  0.6289
 4400SOL    HW224660   3.420   1.827   1.145 -0.3271 -0.9762  0.3709
 4401SOL     OW24661   2.460   2.028  11.063  0.2736 -0.2522  0.0333
 4401SOL    HW124662   2.478   2.106  11.010 -1.0109  0.9386  1.3697
 4401SOL    HW224663   2.390   1.986  11.012 -0.3852  0.5703  0.2650
 4402SOL     OW24664   2.300   0.549   2.749 -0.2355  0.5108  0.6025
 4402SOL    HW124665   2.298   0.634   2.792  3.0545  0.7869  0.2246
 4402SOL    HW224666   2.279   0.491   2.823  1.3201  0.0996  0.7128
 4403SOL     OW24667   1.444   4.513   2.810 -0.2846  0.3374  0.3979
 4403SOL    HW124668   1.351   4.516   2.832 -0.2757  0.3365  0.4355
 4403SOL    HW224669   1.468   4.441   2.869  0.7636  0.8639  0.6015
 4404SOL     OW24670   4.178   2.760  16.322  0.1084 -0.0118 -0.4591
 4404SOL    HW124671   4.097   2.712  16.307 -0.0270 -0.4071  1.5735
 4404SOL    HW224672   4.142   2.848  16.317  2.8238  1.2359  2.3769
 4405SOL     OW24673   4.400   0.063   2.437 -0.8099  0.3235  0.4923
 4405SOL    HW124674   4.351   0.074   2.355 -0.3677 -3.8411 -0.3186
 4405SOL    HW224675   4.456   4.716   2.408 -1.2083  0.1580  0.1285
 4406SOL     OW24676   1.488   3.323   5.801  0.3573  0.1621 -0.0330
 4406SOL    HW124677   1.480   3.266   5.877  2.2815  0.7446  0.5914
 4406SOL    HW224678   1.393   3.315   5.790  0.6464  0.4223 -2.7877
 4407SOL     OW24679   0.108   2.493   2.348  0.2457 -0.0229 -0.6671
 4407SOL    HW124680   0.122   2.505   2.254 -1.6585  0.5588 -0.8755
 4407SOL    HW224681   0.081   2.576   2.385  3.2414 -0.0374  1.5469
 4408SOL     OW24682   1.548   1.455  15.656 -0.6130  0.2345 -0.0312
 4408SOL    HW124683   1.473   1.480  15.710 -0.9226 -4.4053  1.7012
 4408SOL    HW224684   1.622   1.471  15.714 -0.9295  1.2933  0.0721
 4409SOL     OW24685   2.618   2.160   3.574  0.4588  0.0378  0.5796
 4409SOL    HW124686   2.640   2.068   3.592  2.1599  0.3612  0.1181
 4409SOL    HW224687   2.684   2.208   3.623  0.4902 -0.1402  0.7110
 4410SOL     OW24688   0.888   3.276   4.759 -0.1252 -0.0578 -0.0713
 4410SOL    HW124689   0.971   3.236   4.733 -0.2163 -1.4670  1.7562
 4410SOL    HW224690   0.909   3.368   4.741 -0.9575 -0.2092 -1.7696
 4411SOL     OW24691   0.441   4.127   3.319 -0.4934  0.1145  0.1642
 4411SOL    HW124692   0.437   4.191   3.247 -1.9100 -1.4374 -1.1249
 4411SOL    HW224693   0.370   4.068   3.294  0.6179 -1.6393  1.2496
 4412SOL     OW24694   1.306   3.801   8.093 -0.1535  0.3537  0.2876
 4412SOL    HW124695   1.380   3.809   8.033 -1.3417  1.0665 -1.0862
 4412SOL    HW224696   1.335   3.851   8.170 -0.3974  0.9405  0.0034
 4413SOL     OW24697   2.604   2.278   0.846 -0.3820  0.0061 -0.8056
 4413SOL    HW124698   2.573   2.187   0.845  2.7316 -1.0266 -1.4678
 4413SOL    HW224699   2.517   2.318   0.846 -0.3288  0.1234 -0.8792
 4414SOL     OW24700   0.586   0.110   5.245  0.6058 -0.2288 -0.1141
 4414SOL    HW124701   0.664   0.069   5.207 -0.6012 -1.9947 -0.6767
 4414SOL    HW224702   0.625   0.196   5.262  0.1163  0.2762 -1.5970
 4415SOL     OW24703   3.813   2.441   1.131 -0.4598 -0.3266 -0.1859
 4415SOL    HW124704   3.823   2.522   1.081  0.4485 -0.2425  0.1298
 4415SOL    HW224705   3.736   2.417   1.080 -0.8162 -0.2133  0.2997
 4416SOL     OW24706   0.074   3.125   8.791  0.2088 -0.6564 -0.4925
 4416SOL    HW124707   0.045   3.036   8.808 -0.9063  0.3219  2.7236
 4416SOL    HW224708   4.719   3.161   8.753  0.2016  0.4679  0.5903
 4417SOL     OW24709   1.997   0.197  12.125  0.1003  0.3769  0.0052
 4417SOL    HW124710   2.064   0.149  12.173  0.4169  0.9660  0.1553
 4417SOL    HW224711   2.056   0.229  12.056 -2.0806  2.2824 -0.9873
 4418SOL     OW24712   2.928   0.441  13.110  0.0419 -1.0051  0.4394
 4418SOL    HW124713   2.888   0.510  13.057 -0.5906 -2.6402 -1.2135
 4418SOL    HW224714   2.884   0.363  13.077 -1.6719 -0.7508  2.1642
 4419SOL     OW24715   1.991   1.570   7.412 -0.1210 -0.3004 -0.1533
 4419SOL    HW124716   1.941   1.592   7.490 -0.2598  0.0756 -0.3502
 4419SOL    HW224717   1.926   1.546   7.347  0.3497 -0.1607 -0.6809
 4420SOL     OW24718   2.752   2.812  11.116 -0.4877 -0.0068 -0.6050
 4420SOL    HW124719   2.839   2.782  11.144 -0.3276  0.4737 -0.5825
 4420SOL    HW224720   2.773   2.813  11.022 -0.5447 -2.1575 -0.6549
 4421SOL     OW24721   2.878   4.662   4.071  0.1621  1.1082 -0.3256
 4421SOL    HW124722   2.962   4.626   4.043 -0.6911 -0.6884 -0.5969
 4421SOL    HW224723   2.901   4.697   4.157 -1.1098  3.9968 -1.1760
 4422SOL     OW24724   3.649   3.413   5.606  0.5445  0.1366 -0.0797
 4422SOL    HW124725   3.650   3.353   5.681  0.6437  0.4815  0.1928
 4422SOL    HW224726   3.565   3.457   5.611  0.5492  0.2290 -0.8003
 4423SOL     OW24727   0.395   4.603  16.839 -0.1513  0.5964  0.1003
 4423SOL    HW124728   0.367   4.649  16.761 -0.8362 -0.0445 -0.0344
 4423SOL    HW224729   0.402   4.517  16.797  1.0205  0.1454  1.1965
 4424SOL     OW24730   4.591   1.344   4.757  0.3434 -0.5481 -0.1740
 4424SOL    HW124731   4.566   1.285   4.686 -0.8259 -0.3089  0.0484
 4424SOL    HW224732   4.586   1.290   4.835  0.5577  0.8814  0.8242
 4425SOL     OW24733   2.255   4.544   4.621  0.2661 -0.0245 -0.1508
 4425SOL    HW124734   2.293   4.626   4.654  0.4503 -0.6069  1.0975
 4425SOL    HW224735   2.161   4.553   4.641  0.1896  0.5512 -0.7667
 4426SOL     OW24736   1.139   1.756   3.246 -0.1745  0.0137  0.5263
 4426SOL    HW124737   1.170   1.846   3.234  0.5372 -0.1347  1.2970
 4426SOL    HW224738   1.112   1.761   3.338 -2.0840 -1.3154  0.0403
 4427SOL     OW24739   2.954   1.751   3.249 -0.0881  0.1667 -0.4452
 4427SOL    HW124740   2.951   1.842   3.278 -2.4623 -0.9292  2.7156
 4427SOL    HW224741   2.860   1.740   3.266 -0.1435  1.5305  0.1323
 4428SOL     OW24742   2.129   3.445   5.566 -0.6094  0.2250 -0.3044
 4428SOL    HW124743   2.210   3.492   5.546 -0.2509 -0.8903 -1.5224
 4428SOL    HW224744   2.064   3.478   5.504  0.2870 -0.1004 -1.4192
 4429SOL     OW24745   3.139   1.632   1.290  0.2616  0.3300 -0.5313
 4429SOL    HW124746   3.196   1.568   1.332 -0.3006 -0.0688 -0.3798
 4429SOL    HW224747   3.176   1.624   1.202 -0.4076 -0.9837 -0.6966
 4430SOL     OW24748   3.725   3.230  11.586 -0.1134 -0.0805 -0.9012
 4430SOL    HW124749   3.667   3.192  11.521 -0.0518 -1.0380 -0.3901
 4430SOL    HW224750   3.740   3.170  11.658 -0.2325 -0.3085 -1.0665
 4431SOL     OW24751   2.411   4.000   2.271  0.3948 -0.0305  0.4298
 4431SOL    HW124752   2.383   4.080   2.225 -0.2329 -0.7022 -0.3488
 4431SOL    HW224753   2.330   3.950   2.276 -0.8187  1.9022  0.3408
 4432SOL     OW24754   3.806   3.085   6.058 -0.8412 -0.6928 -0.2715
 4432SOL    HW124755   3.782   2.992   6.059  0.6468 -1.0699  1.0265
 4432SOL    HW224756   3.869   3.083   6.130  0.6836  1.3301 -1.5746
 4433SOL     OW24757   2.227   0.828   2.454 -0.0502  0.1779 -0.0884
 4433SOL    HW124758   2.311   0.851   2.493  0.1401  1.8279 -1.4588
 4433SOL    HW224759   2.233   0.733   2.461 -1.2888  0.0776 -0.2589
 4434SOL     OW24760   2.063   1.573  16.937  0.3334  0.0093  0.3207
 4434SOL    HW124761   2.024   1.659  16.956 -0.0952 -0.0582 -0.2645
 4434SOL    HW224762   2.052   1.527  17.020 -1.5726  1.7141  1.0285
 4435SOL     OW24763   2.909   3.943  17.536 -0.2310 -0.1340  0.1679
 4435SOL    HW124764   2.932   3.917  17.447 -0.8547  2.0623 -0.6118
 4435SOL    HW224765   2.995   3.940  17.579  0.3467 -1.2830 -1.0758
 4436SOL     OW24766   2.880   4.445  12.795 -0.2378 -0.1723  0.4987
 4436SOL    HW124767   2.798   4.397  12.802  0.7274 -1.9360 -0.3177
 4436SOL    HW224768   2.879   4.494  12.878 -0.7897  0.9958 -0.1873
 4437SOL     OW24769   1.721   4.048  10.591 -0.6906 -0.5532  0.4738
 4437SOL    HW124770   1.774   4.124  10.566 -0.0154 -0.7846  1.1663
 4437SOL    HW224771   1.774   4.003  10.658  0.0657  0.9488  0.9024
 4438SOL     OW24772   3.698   2.386  14.295  0.9193 -0.1384  0.1256
 4438SOL    HW124773   3.672   2.410  14.384 -0.2110  0.1670 -0.2903
 4438SOL    HW224774   3.687   2.291  14.306 -1.6119  0.0845 -0.4390
 4439SOL     OW24775   2.375   0.187  11.149 -0.1546 -0.1881  0.2326
 4439SOL    HW124776   2.398   0.225  11.234 -2.5695 -0.4582  0.9929
 4439SOL    HW224777   2.281   0.173  11.161 -0.0671 -0.6757  0.3201
 4440SOL     OW24778   1.649   0.493   6.218  0.2503  0.8765 -0.2744
 4440SOL    HW124779   1.599   0.508   6.299 -1.6713 -0.6467 -1.1928
 4440SOL    HW224780   1.613   0.408   6.193 -0.9890  1.6068 -0.9597
 4441SOL     OW24781   1.565   4.088   9.956 -0.0563 -0.3985 -0.4483
 4441SOL    HW124782   1.622   4.036   9.899  0.2182  0.2674 -0.7774
 4441SOL    HW224783   1.584   4.173   9.917 -1.1886 -0.6788 -1.6176
 4442SOL     OW24784   2.417   0.164   4.689  0.3197  0.4835 -0.0595
 4442SOL    HW124785   2.388   0.231   4.628  1.9719  1.5307  0.3159
 4442SOL    HW224786   2.500   0.137   4.650  1.1253  3.5063 -0.3846
 4443SOL     OW24787   4.604   2.979   3.914  0.2247  0.5506 -0.5012
 4443SOL    HW124788   4.690   3.020   3.915  1.0859 -1.2414 -1.2150
 4443SOL    HW224789   4.593   2.897   3.963 -2.8145  0.6106 -1.0739
 4444SOL     OW24790   0.483   0.266   2.681  0.2756  0.2197 -0.3649
 4444SOL    HW124791   0.395   0.302   2.696 -0.7576 -2.3035 -0.3239
 4444SOL    HW224792   0.523   0.262   2.768  0.2463 -1.6424 -0.4424
 4445SOL     OW24793   1.541   3.601   5.064 -0.1179  0.3039 -0.2144
 4445SOL    HW124794   1.563   3.523   5.013  0.4678 -0.2358  0.8744
 4445SOL    HW224795   1.631   3.634   5.065  0.7530 -2.0469 -0.4424
 4446SOL     OW24796   1.018   0.400   9.953  0.2344 -0.0525  0.2287
 4446SOL    HW124797   0.936   0.419   9.999  0.8175  1.0960  0.7783
 4446SOL    HW224798   1.009   0.305   9.950  1.3315 -0.1730  0.6816
 4447SOL     OW24799   1.416   0.927   1.864 -0.8152  0.4031 -0.0685
 4447SOL    HW124800   1.494   0.950   1.814 -0.2618 -1.0744  0.1132
 4447SOL    HW224801   1.461   0.889   1.939  0.0303  0.0412 -0.7679
 4448SOL     OW24802   0.282   0.824   6.888 -0.3498 -0.3627 -0.1328
 4448SOL    HW124803   0.334   0.796   6.813  0.4134  1.7226 -0.3990
 4448SOL    HW224804   0.277   0.920   6.889  4.0080 -0.1298  0.3737
 4449SOL     OW24805   2.530   0.569   4.425  0.0726 -0.1692 -0.3506
 4449SOL    HW124806   2.508   0.481   4.395  2.3637 -0.5669 -0.9034
 4449SOL    HW224807   2.479   0.626   4.368 -0.5201  0.8995  1.2610
 4450SOL     OW24808   1.989   0.146   9.984 -0.4212 -0.5088 -0.5522
 4450SOL    HW124809   2.017   0.125  10.074  0.5482  3.4522  0.0604
 4450SOL    HW224810   1.907   0.193   9.996  0.5681  0.3550  2.9003
 4451SOL     OW24811   0.179   3.678   5.128 -0.5290 -0.0967  0.7942
 4451SOL    HW124812   0.158   3.668   5.036  1.9930 -0.0096  0.2109
 4451SOL    HW224813   0.201   3.588   5.150  0.4906  0.1935  0.9289
 4452SOL     OW24814   2.582   4.236   9.354  0.3152 -0.0347 -0.1647
 4452SOL    HW124815   2.522   4.212   9.425 -0.9412  0.8944 -0.9189
 4452SOL    HW224816   2.594   4.329   9.370 -0.1058 -0.3375  1.9716
 4453SOL     OW24817   2.179   4.698   3.842 -0.1664  0.1408 -0.1274
 4453SOL    HW124818   2.221   0.058   3.841  1.8891 -0.8554  1.2369
 4453SOL    HW224819   2.232   4.648   3.780 -1.8756 -0.4306 -1.1303
 4454SOL     OW24820   1.582   0.172  10.759  0.8827 -0.0767 -0.1342
 4454SOL    HW124821   1.526   0.247  10.739 -0.6036 -1.4320 -1.0842
 4454SOL    HW224822   1.563   0.166  10.853 -1.4495 -0.9140 -0.6709
 4455SOL     OW24823   0.758   4.389   9.586  0.2595  0.5097  0.4874
 4455SOL    HW124824   0.667   4.405   9.561 -0.4469 -1.2762  1.9967
 4455SOL    HW224825   0.800   4.471   9.560 -0.0915  0.6436  0.3373
 4456SOL     OW24826   2.823   1.391   6.571 -0.5473 -0.2013 -0.7263
 4456SOL    HW124827   2.865   1.320   6.620 -1.0375 -0.3654 -0.5434
 4456SOL    HW224828   2.898   1.428   6.525 -1.0159 -0.5537 -1.7730
 4457SOL     OW24829   1.747   1.576   8.793  0.4590  0.0932  0.0451
 4457SOL    HW124830   1.741   1.496   8.743  1.5298 -0.3615  0.6294
 4457SOL    HW224831   1.816   1.547   8.853 -0.4989 -1.7562  0.2299
 4458SOL     OW24832   2.031   0.276  14.350  0.3280 -0.3920 -0.1348
 4458SOL    HW124833   1.942   0.295  14.379 -0.0817 -2.0922 -0.2472
 4458SOL    HW224834   2.035   0.314  14.262 -0.0732  1.1302  0.5187
 4459SOL     OW24835   4.365   1.449  15.840  0.3863  0.2599 -0.3788
 4459SOL    HW124836   4.406   1.394  15.906  1.0012  0.6492 -0.4409
 4459SOL    HW224837   4.314   1.391  15.784 -0.2710  0.7906 -0.3378
 4460SOL     OW24838   3.991   1.460   6.408 -0.1701 -0.9116 -0.1423
 4460SOL    HW124839   4.065   1.400   6.397  0.4870 -0.4282  1.6951
 4460SOL    HW224840   4.030   1.535   6.454  0.9616 -2.1602  0.9089
 4461SOL     OW24841   3.564   0.358  14.491 -0.3165  0.1067 -0.1916
 4461SOL    HW124842   3.495   0.306  14.531 -0.0775  0.8724  1.2229
 4461SOL    HW224843   3.527   0.446  14.505 -0.9009 -0.2212  0.2928
 4462SOL     OW24844   3.915   2.231   8.558  0.4219 -0.1049  0.4172
 4462SOL    HW124845   3.958   2.146   8.546 -3.2903 -1.7457 -1.2257
 4462SOL    HW224846   3.840   2.213   8.501  0.1649 -0.4489  0.8696
 4463SOL     OW24847   3.513   3.271   6.168  0.2867 -1.0289 -0.6239
 4463SOL    HW124848   3.583   3.216   6.131  3.0083  0.9148  1.5989
 4463SOL    HW224849   3.455   3.201   6.199 -0.0151  0.1954  1.6102
 4464SOL     OW24850   0.890   4.084   9.882  0.4443  0.6290  0.0317
 4464SOL    HW124851   0.919   4.161   9.932  1.5654  0.3697 -0.2207
 4464SOL    HW224852   0.820   4.130   9.836  0.8997  1.8374  0.5560
 4465SOL     OW24853   2.383   1.742   2.130  0.1953 -0.0143 -0.4110
 4465SOL    HW124854   2.340   1.811   2.078 -1.3221  1.1937  2.4286
 4465SOL    HW224855   2.417   1.694   2.055 -1.2736 -0.9049 -0.5223
 4466SOL     OW24856   0.457   4.414   8.234  0.5697 -0.4852  0.1544
 4466SOL    HW124857   0.515   4.342   8.260  1.2999 -1.2607 -3.7589
 4466SOL    HW224858   0.383   4.395   8.293  1.6080  0.8460  1.9028
 4467SOL     OW24859   1.122   3.945   2.524 -0.2414 -0.2247 -0.3848
 4467SOL    HW124860   1.134   3.866   2.471  1.3237 -0.5417  0.4478
 4467SOL    HW224861   1.097   4.010   2.458  0.3261  1.2230  0.8368
 4468SOL     OW24862   2.124   0.773  14.988  0.1639 -0.9120  0.3796
 4468SOL    HW124863   2.123   0.868  14.975  0.9846 -0.7768  1.3633
 4468SOL    HW224864   2.063   0.754  14.916 -0.7927  2.6087  0.2367
 4469SOL     OW24865   3.691   3.931   7.435  0.0493 -0.5622  0.1620
 4469SOL    HW124866   3.742   3.889   7.504  2.4838 -2.5050 -2.8084
 4469SOL    HW224867   3.667   4.012   7.481  2.2496 -0.2250  0.6786
 4470SOL     OW24868   0.056   2.934   1.346  0.0257  0.4702 -0.2614
 4470SOL    HW124869   0.016   2.861   1.393 -1.1553  0.9090 -0.5858
 4470SOL    HW224870   4.693   2.962   1.322  0.3239  1.6710  0.0163
 4471SOL     OW24871   0.745   0.652  10.054  0.1429 -0.1485 -0.3351
 4471SOL    HW124872   0.832   0.661  10.015  0.4262  1.1778  0.6118
 4471SOL    HW224873   0.698   0.721  10.008  0.1838  0.2530  0.2275
 4472SOL     OW24874   3.384   1.676   3.041 -0.1467 -0.0171 -0.2668
 4472SOL    HW124875   3.440   1.631   2.978  1.2651  2.2480 -0.6316
 4472SOL    HW224876   3.444   1.740   3.079 -1.1633 -0.0089  1.3436
 4473SOL     OW24877   4.633   0.633   7.400  0.4810  0.1553  0.1608
 4473SOL    HW124878   4.569   0.697   7.370 -1.8237 -2.0429  0.4300
 4473SOL    HW224879   4.604   0.622   7.490 -0.9467  3.1315  0.0695
 4474SOL     OW24880   2.005   0.011   4.725 -0.0340 -0.0067  0.2234
 4474SOL    HW124881   2.073   0.054   4.776  0.8617 -0.0118 -0.9730
 4474SOL    HW224882   1.949   0.081   4.690  0.5526 -0.1124 -0.9319
 4475SOL     OW24883   2.083   0.850   5.116  0.4610  0.5502  0.2688
 4475SOL    HW124884   2.147   0.797   5.164  1.6965  1.2280 -0.6161
 4475SOL    HW224885   2.036   0.877   5.195  0.9198  1.6234  0.1733
 4476SOL     OW24886   3.986   2.051   5.867 -0.6987 -0.2805 -0.2905
 4476SOL    HW124887   4.066   2.091   5.832 -1.5007  1.4058 -0.1859
 4476SOL    HW224888   3.953   2.118   5.926  1.5911  1.8963 -1.5095
 4477SOL     OW24889   2.540   1.985   0.811  0.0966 -0.2039  0.1595
 4477SOL    HW124890   2.480   2.005   0.739 -1.4876 -0.8790  1.3031
 4477SOL    HW224891   2.609   1.949   0.755 -0.8210  0.8205 -1.6280
 4478SOL     OW24892   1.417   3.191   6.935 -0.1699 -0.0297 -0.2820
 4478SOL    HW124893   1.404   3.262   6.872  3.7341 -1.1365 -2.3460
 4478SOL    HW224894   1.325   3.170   6.945 -0.0876 -0.6489 -0.8684
 4479SOL     OW24895   2.171   0.019   8.308  0.0509  0.6909  0.0370
 4479SOL    HW124896   2.258   0.055   8.322 -0.0929  0.9855  0.1679
 4479SOL    HW224897   2.134   0.020   8.396 -1.7443  2.9553 -0.7363
 4480SOL     OW24898   3.443   1.962   2.925 -0.3756 -0.0150 -0.1408
 4480SOL    HW124899   3.494   1.920   2.855  1.2369 -0.1240  1.0987
 4480SOL    HW224900   3.507   1.941   2.992  0.7194 -0.1436 -1.2273
 4481SOL     OW24901   2.262   0.785  11.735  0.2710  0.2023  0.4528
 4481SOL    HW124902   2.168   0.781  11.750  0.1022  4.1687  0.2215
 4481SOL    HW224903   2.261   0.808  11.642  1.9552 -2.6689 -0.2889
 4482SOL     OW24904   3.519   0.814  10.725  0.2774 -0.2426  0.4598
 4482SOL    HW124905   3.586   0.777  10.781 -0.6821 -1.8140  0.5845
 4482SOL    HW224906   3.466   0.866  10.785 -0.2283  0.9601 -1.0315
 4483SOL     OW24907   2.771   0.048   3.006  0.7603  0.6674  0.2505
 4483SOL    HW124908   2.714   4.711   3.050 -0.5344  0.7236 -1.3403
 4483SOL    HW224909   2.855   0.037   3.051  1.1206  0.6620 -0.4162
 4484SOL     OW24910   2.769   0.316   3.140 -0.3173  0.0896  0.1107
 4484SOL    HW124911   2.712   0.254   3.094  1.3074 -0.2087 -1.5033
 4484SOL    HW224912   2.703   0.386   3.141  0.6053  0.9344  1.5793
 4485SOL     OW24913   1.518   0.454  11.720 -0.2443  0.0571  0.0664
 4485SOL    HW124914   1.556   0.379  11.764  2.2032  1.1415 -0.1774
 4485SOL    HW224915   1.521   0.429  11.628 -1.5258  0.2930 -0.0470
 4486SOL     OW24916   0.007   4.390   6.167  0.5945  0.0042 -0.6993
 4486SOL    HW124917   4.689   4.471   6.192  0.7285  0.0402 -0.5864
 4486SOL    HW224918   0.077   4.389   6.232  1.1377 -0.0441 -1.2857
 4487SOL     OW24919   1.878   1.002   1.057 -0.5720  0.0282  0.1062
 4487SOL    HW124920   1.876   0.907   1.052 -2.8320  0.2054 -2.3666
 4487SOL    HW224921   1.920   1.019   1.142 -1.1705 -0.9045  0.5847
 4488SOL     OW24922   0.022   1.260  10.226  0.0233 -0.0682  0.8239
 4488SOL    HW124923   0.097   1.222  10.180 -1.3495 -1.8369  0.0743
 4488SOL    HW224924   0.012   1.208  10.306  1.8712  0.3297  1.3116
 4489SOL     OW24925   4.604   0.466   2.793  0.4686  0.4030  0.4239
 4489SOL    HW124926   4.596   0.435   2.703 -0.5007  1.6376  0.0710
 4489SOL    HW224927   4.520   0.439   2.831  0.3791  0.4313  0.2495
 4490SOL     OW24928   4.693   0.962  13.963  0.1870  0.2286 -0.1652
 4490SOL    HW124929   4.698   1.053  13.993  0.3474  0.5203 -1.0743
 4490SOL    HW224930   0.019   0.910  14.025  0.1613  0.6915  0.2491
 4491SOL     OW24931   1.368   2.938   5.103 -0.4460 -0.1488  0.0478
 4491SOL    HW124932   1.315   2.972   5.175  1.2774 -0.8882  1.6361
 4491SOL    HW224933   1.324   2.855   5.084 -2.7570  1.0185  0.3218
 4492SOL     OW24934   2.356   0.851  11.969 -0.2775 -0.0890 -0.0624
 4492SOL    HW124935   2.309   0.807  11.898  0.4192 -1.2500  0.1906
 4492SOL    HW224936   2.398   0.776  12.011 -1.4405 -0.6766  0.0557
 4493SOL     OW24937   3.810   2.991   4.396 -0.1330  0.0206  0.5509
 4493SOL    HW124938   3.880   3.031   4.344 -0.2499 -2.1835 -1.3657
 4493SOL    HW224939   3.773   2.965   4.311 -0.0612 -1.4161  0.9500
 4494SOL     OW24940   2.073   2.746   2.606 -0.4989  0.2677 -0.0959
 4494SOL    HW124941   2.135   2.813   2.576  0.4916 -1.1956 -1.3044
 4494SOL    HW224942   2.127   2.669   2.625 -0.3462  0.7239  1.2560
 4495SOL     OW24943   0.066   3.411   4.112  0.5272 -0.1481  0.2348
 4495SOL    HW124944   0.046   3.475   4.180 -1.5978  0.0656 -0.6128
 4495SOL    HW224945   0.154   3.433   4.079  0.3632 -1.7369 -1.2732
 4496SOL     OW24946   0.795   3.910  10.263 -0.1973  0.0182 -0.3546
 4496SOL    HW124947   0.881   3.942  10.292  0.6396 -0.2411 -2.5901
 4496SOL    HW224948   0.789   3.823  10.302 -0.5593 -0.0642 -0.5979
 4497SOL     OW24949   4.586   3.597   2.223  0.5259  0.4293 -0.0341
 4497SOL    HW124950   4.525   3.664   2.254  0.9402  1.1689 -0.8256
 4497SOL    HW224951   4.547   3.571   2.139  0.8882 -0.1633 -0.0198
 4498SOL     OW24952   3.465   2.269   8.201  0.0172 -0.0503 -0.1043
 4498SOL    HW124953   3.535   2.311   8.250 -1.9280  2.2264  0.6896
 4498SOL    HW224954   3.437   2.214   8.275  0.1542  0.1580  0.0988
 4499SOL     OW24955   2.420   3.923   4.989  0.1125  0.2777  0.5649
 4499SOL    HW124956   2.378   3.886   5.066 -1.3046 -0.7824 -0.7291
 4499SOL    HW224957   2.363   3.889   4.920  2.7247  1.5875 -2.2620
 4500SOL     OW24958   1.682   1.837   7.429  0.1786 -0.6185 -0.0599
 4500SOL    HW124959   1.747   1.897   7.393 -0.8368  0.0586 -0.7682
 4500SOL    HW224960   1.673   1.873   7.517  1.1803  0.8843 -0.5714
 4501SOL     OW24961   3.552   3.460  11.700 -0.4153  0.0773 -0.2268
 4501SOL    HW124962   3.503   3.453  11.618  2.5914  2.1833 -2.2083
 4501SOL    HW224963   3.602   3.380  11.686  0.6758  0.9169 -1.1802
 4502SOL     OW24964   0.891   1.829   7.930  0.0766 -0.7384  0.1878
 4502SOL    HW124965   0.891   1.880   7.849  0.4807  0.7721  1.1462
 4502SOL    HW224966   0.886   1.897   7.996  0.3587  0.9386 -1.5295
 4503SOL     OW24967   2.804   1.818   7.165 -0.1524  0.3710  0.0232
 4503SOL    HW124968   2.855   1.756   7.114  1.2107  0.1811  1.6289
 4503SOL    HW224969   2.713   1.790   7.152 -0.0202 -0.4390  0.8405
 4504SOL     OW24970   2.995   1.223   1.997 -0.3218 -0.0125  0.1532
 4504SOL    HW124971   2.928   1.188   1.938 -0.1547  1.3064 -0.8153
 4504SOL    HW224972   3.002   1.316   1.978  2.1995  0.3679  2.8564
 4505SOL     OW24973   1.254   1.638   5.156  0.0069 -0.1922 -0.2029
 4505SOL    HW124974   1.312   1.645   5.232 -0.1199  1.0190 -0.2146
 4505SOL    HW224975   1.210   1.723   5.158 -0.1117 -0.2148 -1.8619
 4506SOL     OW24976   1.554   1.789   3.024  0.5783  0.3179  0.7781
 4506SOL    HW124977   1.601   1.865   3.058 -1.2619  1.2412  1.2699
 4506SOL    HW224978   1.628   1.740   2.989 -0.4458  0.0708 -1.0159
 4507SOL     OW24979   1.574   0.818   4.746 -0.5728  0.2599 -0.0186
 4507SOL    HW124980   1.497   0.797   4.800  0.4259 -0.1214  1.2466
 4507SOL    HW224981   1.537   0.889   4.694 -1.3541 -0.4339 -0.4208
 4508SOL     OW24982   4.313   4.503   9.389  0.4304  0.2906 -0.2178
 4508SOL    HW124983   4.363   4.462   9.460 -0.8077  1.0335  1.1072
 4508SOL    HW224984   4.383   4.525   9.327  0.4204  0.9122 -0.0118
 4509SOL     OW24985   2.546   1.728   5.547  0.0661  0.6350  0.5126
 4509SOL    HW124986   2.517   1.640   5.523 -0.7143  1.4422 -1.4592
 4509SOL    HW224987   2.622   1.710   5.603  0.0812  0.2622  0.3705
 4510SOL     OW24988   0.836   4.518   0.345 -0.2748 -0.3361  0.3038
 4510SOL    HW124989   0.819   4.581   0.415 -1.7598 -0.2081 -0.1672
 4510SOL    HW224990   0.848   4.442   0.402  1.3628 -1.4694 -1.5449
 4511SOL     OW24991   2.643   1.902  10.788 -1.1697  0.2185  0.5453
 4511SOL    HW124992   2.646   1.972  10.854  0.3916  0.9167 -0.2648
 4511SOL    HW224993   2.648   1.953  10.707 -1.1456  0.6712  0.8325
 4512SOL     OW24994   1.975   3.595   8.619  0.4764  0.6118  0.3255
 4512SOL    HW124995   2.017   3.681   8.616 -0.5025  1.1147  0.9856
 4512SOL    HW224996   2.043   3.535   8.589 -0.1420 -0.7137  1.5820
 4513SOL     OW24997   3.919   1.202   2.018 -0.0840 -0.1112  0.8256
 4513SOL    HW124998   3.949   1.274   2.073 -3.5524  0.1241  2.3599
 4513SOL    HW224999   3.836   1.175   2.057 -0.1242  0.7574  1.3411
 4514SOL     OW25000   0.801   1.023   2.440 -0.2285  0.0235 -0.1504
 4514SOL    HW125001   0.745   1.023   2.518 -0.5674 -1.8502 -0.3818
 4514SOL    HW225002   0.770   1.098   2.390 -3.4824 -0.0583  1.7484
 4515SOL     OW25003   0.460   2.407  15.470  0.3838  0.6917 -0.4495
 4515SOL    HW125004   0.408   2.475  15.512 -0.6362  0.1727 -0.8589
 4515SOL    HW225005   0.390   2.342  15.459  0.4807  0.0955  2.3594
 4516SOL     OW25006   1.578   4.180   1.146  0.0776 -0.1649 -0.6011
 4516SOL    HW125007   1.484   4.201   1.145  0.2737  0.8337  1.3627
 4516SOL    HW225008   1.576   4.089   1.175  0.5814  1.4905  4.7374
 4517SOL     OW25009   1.174   1.620   1.463  0.4907 -0.3969  0.4210
 4517SOL    HW125010   1.114   1.550   1.489 -0.9307  0.7391  0.2322
 4517SOL    HW225011   1.199   1.600   1.372  1.9347 -0.9888  0.9588
 4518SOL     OW25012   0.951   3.827   9.766 -0.8352  0.2333 -0.2197
 4518SOL    HW125013   0.961   3.912   9.809  1.1151  0.1791 -0.5545
 4518SOL    HW225014   0.905   3.776   9.833 -1.0811 -1.2362 -1.5202
 4519SOL     OW25015   0.157   1.023  15.242 -0.9662 -0.3720  0.3821
 4519SOL    HW125016   0.146   0.956  15.175  0.1703 -0.0258 -0.1495
 4519SOL    HW225017   0.136   1.103  15.195  2.1665 -0.3242 -0.9458
 4520SOL     OW25018   4.260   0.773   9.119  0.0187  0.5936  0.0912
 4520SOL    HW125019   4.191   0.719   9.156  0.9050 -1.1718 -0.8037
 4520SOL    HW225020   4.333   0.730   9.163  0.1873 -1.2071 -1.9746
 4521SOL     OW25021   2.275   0.294   2.884 -0.2435  0.2088  0.0595
 4521SOL    HW125022   2.215   0.220   2.898  1.0941 -0.0568  4.3540
 4521SOL    HW225023   2.332   0.252   2.819  0.0818  0.2566  0.3198
 4522SOL     OW25024   2.916   1.495   3.993 -0.6225 -0.1957 -0.4724
 4522SOL    HW125025   2.918   1.497   3.898 -0.0474  0.5846 -0.4328
 4522SOL    HW225026   2.839   1.548   4.017  2.7851  4.0158  1.0943
 4523SOL     OW25027   4.651   4.612  11.065 -0.2989  0.1125 -0.0623
 4523SOL    HW125028   4.655   4.593  11.159 -0.0974  0.2045 -0.0520
 4523SOL    HW225029   0.002   4.671  11.066 -1.4165  1.5733 -0.3430
 4524SOL     OW25030   3.012   2.293   8.887  0.2094 -0.0100 -0.6914
 4524SOL    HW125031   3.002   2.340   8.970 -1.7561  0.1128 -1.0002
 4524SOL    HW225032   2.950   2.345   8.835 -0.4092  0.5236  0.5648
 4525SOL     OW25033   0.120   2.881  12.680 -0.3026  0.0512 -0.4467
 4525SOL    HW125034   0.100   2.959  12.628 -0.8368 -0.3405 -0.8266
 4525SOL    HW225035   0.204   2.853  12.643 -0.9799 -1.1616 -1.0752
 4526SOL     OW25036   2.146   1.374   7.116  0.1377  0.5462 -0.3801
 4526SOL    HW125037   2.185   1.462   7.122  2.3729 -0.4365 -0.3768
 4526SOL    HW225038   2.104   1.387   7.031  0.1798  0.5202 -0.4048
 4527SOL     OW25039   2.875   3.454   6.988  0.4735 -0.1240  0.0070
 4527SOL    HW125040   2.962   3.464   6.950  1.3969 -2.3718  1.5024
 4527SOL    HW225041   2.844   3.371   6.953 -0.3239  0.2776 -0.2515
 4528SOL     OW25042   0.271   1.635  16.463 -0.4710 -0.3746 -0.8085
 4528SOL    HW125043   0.333   1.681  16.407 -1.0558  3.2586  1.4997
 4528SOL    HW225044   0.189   1.640  16.413 -1.0480  3.3287  0.4553
 4529SOL     OW25045   0.066   0.169   2.194  0.0830 -0.1389 -0.3537
 4529SOL    HW125046   0.156   0.139   2.181 -0.3190 -0.9987 -1.2033
 4529SOL    HW225047   0.070   0.226   2.270  3.0395 -0.0294 -0.5996
 4530SOL     OW25048   4.070   2.042   2.413 -0.1171  0.2249  0.2988
 4530SOL    HW125049   4.055   2.114   2.353  1.1432 -0.8637 -1.3254
 4530SOL    HW225050   4.059   1.963   2.359  1.0224 -0.1351  0.5818
 4531SOL     OW25051   2.467   4.440   4.016 -0.9283  0.6040  0.0859
 4531SOL    HW125052   2.442   4.353   3.983  1.3173  0.2046 -0.5653
 4531SOL    HW225053   2.561   4.431   4.032 -0.2711  0.5751 -3.6105
 4532SOL     OW25054   3.360   0.741   7.477  0.4260 -0.4110  0.2880
 4532SOL    HW125055   3.365   0.799   7.402  0.3599 -1.8855 -0.8520
 4532SOL    HW225056   3.322   0.664   7.433  1.2996 -1.5642  1.5461
 4533SOL     OW25057   0.468   1.476   7.741 -0.2004  0.1756 -0.2118
 4533SOL    HW125058   0.399   1.488   7.676  0.9784  0.4255 -1.4169
 4533SOL    HW225059   0.538   1.496   7.679 -0.1238 -2.6904 -1.0342
 4534SOL     OW25060   1.316   0.370  17.592  0.5663 -0.2794  0.3429
 4534SOL    HW125061   1.285   0.451  17.632  0.7091  1.5362 -3.1708
 4534SOL    HW225062   1.316   0.313  17.668 -0.3992 -0.6399  0.0741
 4535SOL     OW25063   3.722   1.754   3.939  0.1810  0.1730  0.0315
 4535SOL    HW125064   3.727   1.658   3.939  0.0692  0.1887  3.6200
 4535SOL    HW225065   3.814   1.770   3.920  0.3808  0.2780  1.0889
 4536SOL     OW25066   2.538   0.251  12.186  0.6061  0.0274  0.1964
 4536SOL    HW125067   2.471   0.316  12.166  0.2289 -0.9787 -1.8662
 4536SOL    HW225068   2.604   0.282  12.124 -0.2576  1.5463  0.0431
 4537SOL     OW25069   1.610   2.958   9.298  0.1200  0.6835  0.3512
 4537SOL    HW125070   1.689   2.950   9.352 -0.0949 -2.0301  0.2775
 4537SOL    HW225071   1.604   3.052   9.284  2.8289  0.9036  0.5441
 4538SOL     OW25072   2.428   2.265   0.264 -0.3546  0.5957 -0.1164
 4538SOL    HW125073   2.427   2.349   0.310 -1.7020 -0.4669  1.7808
 4538SOL    HW225074   2.416   2.206   0.338 -0.3635  2.2652  1.2176
 4539SOL     OW25075   0.577   2.293   8.079 -0.8153 -0.0779  0.0849
 4539SOL    HW125076   0.641   2.224   8.095  1.1848  1.8311  0.2155
 4539SOL    HW225077   0.541   2.316   8.165  2.0822  2.5677  0.6003
 4540SOL     OW25078   1.616   2.513   5.620 -0.1768  0.6369  0.5645
 4540SOL    HW125079   1.578   2.559   5.694 -1.5504 -0.7242  0.7163
 4540SOL    HW225080   1.547   2.535   5.558 -1.6684  0.4362  2.1520
 4541SOL     OW25081   4.434   1.909   8.442 -0.3472  0.3422 -0.2335
 4541SOL    HW125082   4.529   1.921   8.435 -0.5811  2.3349  0.1035
 4541SOL    HW225083   4.438   1.813   8.449  3.0542  0.5786  1.0618
 4542SOL     OW25084   3.064   3.609   9.745  0.0894  0.4175  0.0857
 4542SOL    HW125085   3.091   3.531   9.696  2.0997  0.3632  1.2651
 4542SOL    HW225086   3.081   3.581   9.835 -1.4233 -1.6827 -0.2670
 4543SOL     OW25087   0.416   1.409  11.791 -0.1497 -0.0231  0.2221
 4543SOL    HW125088   0.462   1.331  11.821 -0.6919 -0.6334 -0.5206
 4543SOL    HW225089   0.486   1.468  11.764 -0.1158  0.0639  0.5016
 4544SOL     OW25090   3.201   4.031   2.604 -0.3553 -0.7803  0.6073
 4544SOL    HW125091   3.199   4.116   2.648  1.3090 -0.5155  0.1411
 4544SOL    HW225092   3.111   4.019   2.574  0.0784  0.0245 -1.0120
 4545SOL     OW25093   0.741   3.889   7.175  0.2306  0.5011  0.1239
 4545SOL    HW125094   0.752   3.952   7.247  1.4701  2.8299 -2.1022
 4545SOL    HW225095   0.684   3.823   7.215  0.4538  1.2205  1.6152
 4546SOL     OW25096   4.171   3.445   6.751  0.4036  0.7823  0.6361
 4546SOL    HW125097   4.192   3.482   6.665 -2.9233 -0.9089 -0.8793
 4546SOL    HW225098   4.250   3.421   6.800  0.3373  0.5000  0.6029
 4547SOL     OW25099   0.589   2.986   2.931 -0.0302 -0.1256  0.0429
 4547SOL    HW125100   0.663   2.932   2.903 -1.1720 -2.3191  1.2198
 4547SOL    HW225101   0.585   3.049   2.859 -2.0683 -1.6806 -1.2144
 4548SOL     OW25102   1.274   2.563  15.462 -0.3775  0.0058  0.6979
 4548SOL    HW125103   1.339   2.559  15.532 -1.1837 -2.0106  1.3247
 4548SOL    HW225104   1.243   2.473  15.459  0.9689 -0.3533 -2.1741
 4549SOL     OW25105   2.223   0.017  11.390  0.1210  0.2497 -0.0338
 4549SOL    HW125106   2.179   4.694  11.320 -2.3075  2.7798 -0.2715
 4549SOL    HW225107   2.316   0.002  11.373 -0.0556 -0.0677 -0.7247
 4550SOL     OW25108   2.982   0.703   8.294  0.5779  0.0172  0.2422
 4550SOL    HW125109   3.062   0.670   8.333  1.6136  2.3622  0.0693
 4550SOL    HW225110   3.019   0.724   8.208 -2.0260  2.1126 -0.3765
 4551SOL     OW25111   3.576   1.858   3.144  0.2655  0.5608 -0.2840
 4551SOL    HW125112   3.669   1.860   3.122  1.0883 -0.4529  3.1317
 4551SOL    HW225113   3.575   1.866   3.239  0.8320 -1.1329 -0.1543
 4552SOL     OW25114   0.339   3.818  10.625 -0.2575 -0.2564  0.1404
 4552SOL    HW125115   0.358   3.842  10.716 -2.3899 -0.0674  0.5305
 4552SOL    HW225116   0.243   3.815  10.624 -0.1096 -4.9185 -1.1513
 4553SOL     OW25117   1.917   3.082   4.609  0.5643 -0.7529  0.4386
 4553SOL    HW125118   1.967   3.158   4.582 -0.0077 -0.7995 -0.7581
 4553SOL    HW225119   1.950   3.018   4.545  0.7622 -1.3023  1.0784
 4554SOL     OW25120   1.563   0.597  16.154 -0.9291  0.7474  0.0742
 4554SOL    HW125121   1.515   0.680  16.160 -1.6449  0.2525  1.1302
 4554SOL    HW225122   1.517   0.565  16.076  0.6838 -3.7199  0.9759
 4555SOL     OW25123   3.118   2.561   9.669  0.4539  0.1395 -0.5445
 4555SOL    HW125124   3.045   2.623   9.659 -0.8447 -1.3640 -0.2942
 4555SOL    HW225125   3.079   2.502   9.733 -1.1129  0.7129 -0.9471
 4556SOL     OW25126   2.585   1.527   6.498  0.5068 -0.5477  1.0755
 4556SOL    HW125127   2.645   1.503   6.568  0.9328 -0.5059  0.7296
 4556SOL    HW225128   2.646   1.510   6.426 -0.9701 -0.9264 -0.1057
 4557SOL     OW25129   3.265   0.509  11.673 -0.6624 -0.4102 -0.0012
 4557SOL    HW125130   3.254   0.451  11.749 -1.3121 -0.1993  0.0708
 4557SOL    HW225131   3.189   0.566  11.687 -0.7668 -0.5383 -0.0470
 4558SOL     OW25132   1.373   3.417  15.333  0.3173 -0.4855 -0.2017
 4558SOL    HW125133   1.403   3.493  15.382 -1.7108 -0.0334  0.3193
 4558SOL    HW225134   1.280   3.435  15.324  0.5935  0.4823 -1.0946
 4559SOL     OW25135   0.764   4.044   7.572  0.4973 -0.5312 -0.3387
 4559SOL    HW125136   0.687   4.051   7.516 -0.6218 -1.4847  1.0754
 4559SOL    HW225137   0.727   4.058   7.659 -1.4332  0.2515 -1.2757
 4560SOL     OW25138   0.486   0.908   2.994 -0.1398  0.8948  0.2909
 4560SOL    HW125139   0.394   0.923   2.972 -0.2213 -0.1684 -0.0482
 4560SOL    HW225140   0.497   0.834   2.935 -0.0202  2.3182 -1.4542
 4561SOL     OW25141   1.861   0.039   3.052  0.4405 -0.2190 -0.1597
 4561SOL    HW125142   1.855   4.670   3.038 -2.5248 -0.2397  1.2087
 4561SOL    HW225143   1.867   0.039   3.148 -1.8816  1.0951 -0.0288
 4562SOL     OW25144   0.274   3.894   7.002  0.5584  0.0652  0.5860
 4562SOL    HW125145   0.273   3.849   6.917 -0.3559  0.7885  0.2093
 4562SOL    HW225146   0.215   3.836   7.050 -1.9579  0.0997 -2.4658
 4563SOL     OW25147   2.613   1.910   3.682 -0.4419 -0.0598 -0.3158
 4563SOL    HW125148   2.675   1.858   3.631  0.1443 -1.3202  1.6449
 4563SOL    HW225149   2.638   1.874   3.767  0.6245  1.4615  0.0201
 4564SOL     OW25150   0.254   0.716   6.432  0.2810 -0.0717 -0.1224
 4564SOL    HW125151   0.234   0.628   6.464  0.4786  0.1271  0.5540
 4564SOL    HW225152   0.210   0.713   6.347  0.7061  0.8824 -0.3814
 4565SOL     OW25153   3.080   4.447   8.372 -0.4434  0.2971 -0.3501
 4565SOL    HW125154   3.171   4.471   8.356 -0.1546  0.4776  1.5938
 4565SOL    HW225155   3.058   4.491   8.454 -0.1046 -0.7724  0.3125
 4566SOL     OW25156   3.270   0.323  14.687 -0.1117  0.5536 -0.4124
 4566SOL    HW125157   3.231   0.243  14.653  1.2190  0.0869 -0.8095
 4566SOL    HW225158   3.247   0.380  14.614 -1.0071  2.0220  0.9995
 4567SOL     OW25159   3.858   4.406   1.623  0.7154  0.3904  0.1020
 4567SOL    HW125160   3.848   4.333   1.685 -0.7276  0.6973  0.2289
 4567SOL    HW225161   3.792   4.464   1.661  0.8195  1.7745 -1.8444
 4568SOL     OW25162   4.291   2.751  16.569 -0.2057 -0.0524  0.3038
 4568SOL    HW125163   4.348   2.674  16.568  0.1015  0.1570  0.9662
 4568SOL    HW225164   4.288   2.780  16.478  0.4581  1.9260  0.8959
 4569SOL     OW25165   1.201   2.196   7.904  0.0151 -0.1898  0.4433
 4569SOL    HW125166   1.106   2.207   7.908 -0.0259 -0.3229 -0.1541
 4569SOL    HW225167   1.227   2.287   7.890  1.6834 -0.6253  0.6498
 4570SOL     OW25168   2.845   4.168   8.581 -0.1831 -0.0880  0.5192
 4570SOL    HW125169   2.934   4.198   8.603 -0.1358  0.1112  0.0709
 4570SOL    HW225170   2.809   4.141   8.665 -0.7529  0.3455  0.4128
 4571SOL     OW25171   1.451   4.426   4.169 -0.0195 -0.0493  0.4660
 4571SOL    HW125172   1.356   4.414   4.168  0.1092 -0.9967 -1.2742
 4571SOL    HW225173   1.481   4.362   4.104  0.3310  0.6370 -0.0580
 4572SOL     OW25174   2.055   0.205   1.587 -0.6914  0.3060 -0.0752
 4572SOL    HW125175   2.023   0.119   1.560 -1.2765  0.4128  0.2900
 4572SOL    HW225176   2.137   0.175   1.626 -0.3170  0.6262 -0.5952
 4573SOL     OW25177   2.014   1.233   3.604  0.2139  0.8034 -0.2848
 4573SOL    HW125178   1.970   1.272   3.528 -0.5673  0.1800 -0.1556
 4573SOL    HW225179   1.943   1.184   3.645  0.6670  0.3331 -0.0569
 4574SOL     OW25180   0.415   2.318   5.365 -0.2111  0.2707  0.1098
 4574SOL    HW125181   0.333   2.341   5.321 -0.2156  1.0995  0.5462
 4574SOL    HW225182   0.436   2.235   5.323 -0.9045 -0.4707  1.2060
 4575SOL     OW25183   3.527   1.079  14.883 -0.5408 -0.1067 -0.2019
 4575SOL    HW125184   3.501   1.135  14.956 -0.7772  0.4961 -0.7534
 4575SOL    HW225185   3.622   1.081  14.881 -0.4102 -4.8428  0.3081
 4576SOL     OW25186   3.260   0.291   4.791  0.3497 -0.7861  0.1295
 4576SOL    HW125187   3.165   0.279   4.799  0.3240  0.2230  1.3456
 4576SOL    HW225188   3.264   0.386   4.779 -1.3872 -0.8080 -0.7326
 4577SOL     OW25189   3.918   2.690   5.862 -0.2459  0.4223  0.1999
 4577SOL    HW125190   3.962   2.751   5.802 -0.6851 -0.8041 -1.3712
 4577SOL    HW225191   3.986   2.624   5.869 -1.6136 -1.0926 -0.9696
 4578SOL     OW25192   4.208   1.926   5.397  0.2514 -0.6464 -0.2874
 4578SOL    HW125193   4.150   1.864   5.440  0.3666 -1.3038 -1.0756
 4578SOL    HW225194   4.197   1.895   5.307 -1.2616  0.2337 -0.4024
 4579SOL     OW25195   0.443   1.562   7.308 -0.0237  0.5903 -0.9143
 4579SOL    HW125196   0.526   1.545   7.353  0.5355  1.0293 -1.7853
 4579SOL    HW225197   0.464   1.627   7.241  0.8970 -0.4855 -1.6760
 4580SOL     OW25198   3.058   4.458  13.123 -0.0134  0.2139 -0.2464
 4580SOL    HW125199   3.085   4.482  13.212  1.0107  0.9084 -0.7376
 4580SOL    HW225200   3.038   4.367  13.142 -0.9829  0.3065 -0.8203
 4581SOL     OW25201   0.228   2.051   7.133  0.0947  0.0852  0.9721
 4581SOL    HW125202   0.276   1.991   7.076 -2.3651 -2.1858  1.2852
 4581SOL    HW225203   0.195   2.112   7.067 -0.2043 -1.6430 -0.4823
 4582SOL     OW25204   2.552   4.630   6.011  0.3246 -0.5693  0.5972
 4582SOL    HW125205   2.476   4.574   6.027 -0.4448  0.7979  1.7538
 4582SOL    HW225206   2.540   4.666   5.923  0.8558  0.1019  0.7942
 4583SOL     OW25207   3.702   0.965   9.036  0.4988 -0.0437  0.2594
 4583SOL    HW125208   3.720   0.897   9.101  3.0026 -0.0224 -0.3912
 4583SOL    HW225209   3.682   0.916   8.957  2.1566 -0.2524 -0.0236
 4584SOL     OW25210   2.683   1.628  17.336  0.8023  0.1738 -0.3343
 4584SOL    HW125211   2.652   1.679  17.411  1.9071  0.7631 -0.2848
 4584SOL    HW225212   2.601   1.596  17.297  1.6449 -0.7886 -1.2969
 4585SOL     OW25213   3.956   2.196   4.588  0.5087 -0.0780  0.2660
 4585SOL    HW125214   3.943   2.107   4.621 -1.9330  0.4300  0.7109
 4585SOL    HW225215   3.999   2.235   4.664 -1.5089 -2.1493  2.5101
 4586SOL     OW25216   4.335   4.549   4.994  0.1716  0.8793 -0.5596
 4586SOL    HW125217   4.299   4.465   5.021 -0.3635  1.1811 -0.3112
 4586SOL    HW225218   4.284   4.608   5.050 -0.3290 -0.4355  0.3524
 4587SOL     OW25219   1.256   0.982   2.611 -0.8082 -0.0926 -0.3156
 4587SOL    HW125220   1.163   0.968   2.593 -1.4640  2.2728  1.1662
 4587SOL    HW225221   1.281   0.897   2.648  0.1721  0.4924  0.3752
 4588SOL     OW25222   2.678   3.736  11.349  0.4391  0.1809 -0.5005
 4588SOL    HW125223   2.704   3.813  11.400  0.6412  0.0938 -0.4726
 4588SOL    HW225224   2.634   3.781  11.276 -0.8186 -2.0449 -1.1041
 4589SOL     OW25225   3.478   3.128   8.430 -0.3920 -0.5557 -0.6326
 4589SOL    HW125226   3.459   3.149   8.521  0.2092 -1.1987 -0.3639
 4589SOL    HW225227   3.550   3.068   8.446 -1.4379 -2.2649 -2.4105
 4590SOL     OW25228   1.663   1.851   2.291  0.0904 -0.0090 -0.1012
 4590SOL    HW125229   1.652   1.761   2.319 -0.1747  0.1191  0.2160
 4590SOL    HW225230   1.652   1.837   2.197 -1.4113 -3.5964  0.6249
 4591SOL     OW25231   2.977   2.903   2.507  0.3411  0.1712 -0.1842
 4591SOL    HW125232   2.947   2.874   2.420  1.5286 -1.5622 -0.0149
 4591SOL    HW225233   3.047   2.839   2.520 -0.4474 -0.8074 -0.7111
 4592SOL     OW25234   3.685   1.285   0.520  0.0104  0.5210  0.5682
 4592SOL    HW125235   3.683   1.201   0.568  2.1276 -1.0939 -2.2174
 4592SOL    HW225236   3.668   1.254   0.431 -0.8993 -2.8463  1.8899
 4593SOL     OW25237   3.328   3.000   4.398 -0.5010 -0.7087 -0.0273
 4593SOL    HW125238   3.366   3.076   4.354 -1.1962 -0.8414 -0.8533
 4593SOL    HW225239   3.323   2.948   4.318 -1.3871  0.5622 -0.7931
 4594SOL     OW25240   0.678   2.607   8.865  0.1851  0.0389  0.2222
 4594SOL    HW125241   0.672   2.521   8.906  2.1050  0.5684  1.5818
 4594SOL    HW225242   0.723   2.661   8.930 -2.1971 -0.8306  2.5961
 4595SOL     OW25243   0.145   1.922   4.966  0.0522 -0.5838  0.6099
 4595SOL    HW125244   0.164   1.994   4.906  0.7869 -2.3899 -1.3034
 4595SOL    HW225245   0.055   1.935   4.995 -0.2048 -0.3960 -0.2622
 4596SOL     OW25246   4.608   0.534   5.662  0.7650 -0.1734  0.3414
 4596SOL    HW125247   4.667   0.459   5.669 -0.6561 -1.4996 -1.6829
 4596SOL    HW225248   4.582   0.526   5.570  1.2669 -0.8522  0.2590
 4597SOL     OW25249   4.257   3.807   3.444  0.0703 -0.1859  0.0341
 4597SOL    HW125250   4.201   3.757   3.503 -1.3020  3.4631  1.8160
 4597SOL    HW225251   4.343   3.770   3.465 -0.4928 -0.4552  1.8888
 4598SOL     OW25252   3.909   1.474  11.952 -0.0574 -0.5069 -1.2947
 4598SOL    HW125253   3.852   1.471  11.875 -2.9796  0.7800  0.8182
 4598SOL    HW225254   3.847   1.457  12.022  1.4371 -1.6313 -0.2350
 4599SOL     OW25255   0.514   0.914  14.360  0.3731 -0.2407 -0.0712
 4599SOL    HW125256   0.582   0.972  14.392 -0.1573 -1.2663  2.8939
 4599SOL    HW225257   0.452   0.897  14.430  0.0179 -2.5324 -0.9268
 4600SOL     OW25258   1.728   3.210  10.715 -0.6760 -0.5166  0.2385
 4600SOL    HW125259   1.797   3.256  10.668 -1.1429 -2.2401 -2.1163
 4600SOL    HW225260   1.659   3.276  10.711  0.0144  0.1336 -0.8291
 4601SOL     OW25261   4.239   3.225   6.326  0.1193  0.0837  0.3757
 4601SOL    HW125262   4.183   3.298   6.299 -0.9850 -0.5933  0.8277
 4601SOL    HW225263   4.220   3.227   6.420  1.4549  0.8953  0.6262
 4602SOL     OW25264   2.578   2.536  12.092 -0.0789  0.2842 -0.3246
 4602SOL    HW125265   2.589   2.623  12.052  3.1198 -0.5704 -1.2997
 4602SOL    HW225266   2.647   2.491  12.043  0.3803  0.2724  0.3505
 4603SOL     OW25267   4.389   1.638   4.376  0.2273  0.0154 -0.5222
 4603SOL    HW125268   4.360   1.547   4.387 -0.7630  0.2152 -1.4483
 4603SOL    HW225269   4.307   1.681   4.350  0.7334  1.3851  0.1363
 4604SOL     OW25270   1.121   3.433   7.136 -0.2788  0.5582 -0.0312
 4604SOL    HW125271   1.165   3.405   7.216 -0.5884  0.2158  0.0189
 4604SOL    HW225272   1.063   3.500   7.172  0.0241  1.7756 -1.8109
 4605SOL     OW25273   1.153   1.331   3.379  0.1711 -0.3040 -0.2157
 4605SOL    HW125274   1.163   1.253   3.433  1.5093  0.9776  1.3905
 4605SOL    HW225275   1.209   1.307   3.305 -2.6216 -0.7168 -2.2310
 4606SOL     OW25276   0.717   1.522   3.734  0.2022 -0.0240  0.4329
 4606SOL    HW125277   0.720   1.617   3.742 -3.2663  0.0931  0.3650
 4606SOL    HW225278   0.736   1.498   3.643 -1.4922 -1.9358  0.5879
 4607SOL     OW25279   3.175   1.280   0.810 -0.4089  0.4624 -0.0129
 4607SOL    HW125280   3.148   1.364   0.774 -1.5968 -0.5114 -1.3836
 4607SOL    HW225281   3.168   1.292   0.905  1.0437  2.6654 -0.1781
 4608SOL     OW25282   4.109   1.803   5.161 -0.5448  0.0627 -0.0387
 4608SOL    HW125283   4.163   1.733   5.123 -0.1832 -0.3015  1.1709
 4608SOL    HW225284   4.027   1.789   5.115 -0.3195  0.6639 -0.6262
 4609SOL     OW25285   0.377   4.190   6.599  0.2044  0.0715  0.1616
 4609SOL    HW125286   0.411   4.163   6.684  0.1691  0.7524  0.3952
 4609SOL    HW225287   0.316   4.121   6.575  1.3938 -1.3075  1.1295
 4610SOL     OW25288   1.590   3.733   2.970 -0.1156  0.1352  0.3775
 4610SOL    HW125289   1.495   3.729   2.983 -0.3309  0.6409 -1.0845
 4610SOL    HW225290   1.609   3.645   2.938  0.5175  0.6161 -0.5822
 4611SOL     OW25291   1.148   3.755   8.492 -0.3255 -0.7523 -0.4004
 4611SOL    HW125292   1.120   3.674   8.535  1.2001  0.0818  2.1698
 4611SOL    HW225293   1.243   3.746   8.494 -0.1295  0.9586 -1.7417
 4612SOL     OW25294   0.563   3.714   4.180 -0.0214  0.4957 -0.0478
 4612SOL    HW125295   0.636   3.713   4.242 -1.7755 -1.6764  2.0229
 4612SOL    HW225296   0.507   3.645   4.216 -0.2076 -0.3165 -1.8689
 4613SOL     OW25297   2.301   0.333   7.139 -0.3340  0.3668  0.5986
 4613SOL    HW125298   2.268   0.423   7.141  0.8857  0.7844  2.1716
 4613SOL    HW225299   2.375   0.339   7.079 -1.0709 -0.7655 -0.4271
 4614SOL     OW25300   0.809   4.518  10.117  0.0698  0.6549  0.4108
 4614SOL    HW125301   0.904   4.522  10.107  0.3784 -1.5109  2.5839
 4614SOL    HW225302   0.791   4.612  10.121  2.7184  1.3150 -3.1839
 4615SOL     OW25303   3.533   0.258  16.118 -0.0551 -0.4345 -0.3990
 4615SOL    HW125304   3.597   0.283  16.185 -1.3974  0.2594  0.6041
 4615SOL    HW225305   3.551   0.164  16.127  0.0859 -0.5469 -1.9530
 4616SOL     OW25306   2.079   4.596   2.772 -0.0716 -0.7686  0.0554
 4616SOL    HW125307   2.040   4.518   2.809  0.8817 -0.4290  1.7712
 4616SOL    HW225308   2.173   4.586   2.787 -0.2942 -1.7284  0.7594
 4617SOL     OW25309   0.411   3.972  15.350 -0.3549 -0.6098 -0.4192
 4617SOL    HW125310   0.445   4.012  15.430  0.4638 -1.1856 -0.4827
 4617SOL    HW225311   0.321   3.957  15.377 -0.4076  1.0296  0.2865
 4618SOL     OW25312   1.275   2.479   3.296  0.5668  0.0972 -0.1228
 4618SOL    HW125313   1.367   2.455   3.305  1.1000  2.4180  0.7208
 4618SOL    HW225314   1.251   2.403   3.245  2.0003  0.0612 -0.7437
 4619SOL     OW25315   1.876   1.516   0.325 -0.0229  0.0505 -0.0795
 4619SOL    HW125316   1.892   1.423   0.308  1.3937  0.5175 -1.2650
 4619SOL    HW225317   1.942   1.532   0.392 -0.4420  0.7067  0.1821
 4620SOL     OW25318   1.988   4.177   4.310 -0.5090  0.5641  0.0906
 4620SOL    HW125319   1.915   4.238   4.316  0.9023  2.4250 -1.8868
 4620SOL    HW225320   1.991   4.158   4.216 -2.0534  1.1728 -0.0891
 4621SOL     OW25321   0.762   1.356   4.160  0.1612  0.3968 -0.1092
 4621SOL    HW125322   0.785   1.351   4.068 -0.2979  1.1265 -0.2670
 4621SOL    HW225323   0.698   1.287   4.175 -0.2518  0.9272  0.6020
 4622SOL     OW25324   0.124   3.107   6.385  0.0784 -0.0968 -0.1762
 4622SOL    HW125325   0.029   3.106   6.376  0.1526  0.6471 -1.0301
 4622SOL    HW225326   0.139   3.173   6.452 -1.0443 -0.2331  0.2096
 4623SOL     OW25327   2.485   3.682   5.861  0.2735 -0.3433  0.6784
 4623SOL    HW125328   2.472   3.588   5.855 -0.2530 -0.1946 -0.4742
 4623SOL    HW225329   2.576   3.685   5.830  0.4815  2.2775  1.5302
 4624SOL     OW25330   4.017   0.436   7.699  0.0875  0.1693 -0.0818
 4624SOL    HW125331   3.958   0.501   7.739 -1.5503  0.0629 -2.3772
 4624SOL    HW225332   4.027   0.371   7.768 -0.3622 -1.0791 -1.2102
 4625SOL     OW25333   4.311   0.993  17.415  0.2314 -0.0930 -0.3090
 4625SOL    HW125334   4.227   0.958  17.445  0.5261  1.4028  2.2197
 4625SOL    HW225335   4.289   1.004  17.322  0.4648 -0.0823 -0.3633
 4626SOL     OW25336   4.540   2.437   3.103 -0.2017  0.5807  0.0128
 4626SOL    HW125337   4.495   2.471   3.025 -2.3183  2.2195  1.9600
 4626SOL    HW225338   4.535   2.506   3.169  0.9961 -0.4102  1.1403
 4627SOL     OW25339   2.465   2.817   7.687 -0.1321  0.2463 -0.2688
 4627SOL    HW125340   2.375   2.787   7.672  0.2349 -0.0545 -1.8530
 4627SOL    HW225341   2.511   2.777   7.613 -0.3370 -1.5079  0.5442
 4628SOL     OW25342   0.611   0.523   6.959  0.4150  0.4206 -0.1097
 4628SOL    HW125343   0.566   0.473   7.027  2.5575  0.0724  1.0489
 4628SOL    HW225344   0.619   0.605   7.008 -1.9828 -0.0098  1.0236
 4629SOL     OW25345   2.440   4.471  17.520  0.5593 -0.4978 -1.1416
 4629SOL    HW125346   2.527   4.504  17.545 -0.2318  0.1243  0.8124
 4629SOL    HW225347   2.439   4.484  17.425  3.0521  2.7569 -0.7460
 4630SOL     OW25348   2.487   3.761   0.895  0.3327  0.1445  0.3542
 4630SOL    HW125349   2.494   3.855   0.880  0.1881  0.2814  1.1278
 4630SOL    HW225350   2.393   3.761   0.913  0.9148 -0.3365  3.5795
 4631SOL     OW25351   3.078   1.330   8.040  0.1521  0.2149 -0.2855
 4631SOL    HW125352   3.038   1.262   8.095 -1.0974  1.9939  0.9881
 4631SOL    HW225353   3.009   1.331   7.974  1.7063  2.6578 -1.8465
 4632SOL     OW25354   4.445   1.622  14.859 -0.1183 -0.0690  0.1208
 4632SOL    HW125355   4.384   1.670  14.915  2.2554  1.6204  1.3022
 4632SOL    HW225356   4.406   1.656  14.778 -1.6789 -0.7988  0.5745
 4633SOL     OW25357   1.771   0.782   7.126 -0.4711  0.0069 -0.3006
 4633SOL    HW125358   1.828   0.845   7.170  0.5452 -0.1170 -1.4586
 4633SOL    HW225359   1.829   0.727   7.074  0.4104 -1.2545  1.9869
 4634SOL     OW25360   4.267   1.152  15.194  0.5670 -0.1248  0.5534
 4634SOL    HW125361   4.264   1.107  15.278 -2.2934 -3.0645 -1.0981
 4634SOL    HW225362   4.198   1.109  15.143  0.0966  2.1130 -0.6861
 4635SOL     OW25363   2.534   1.253   9.290 -0.5014  0.1001 -0.4303
 4635SOL    HW125364   2.557   1.345   9.289  4.8759 -1.2379  1.0060
 4635SOL    HW225365   2.587   1.227   9.365 -1.1551  0.6659  0.2193
 4636SOL     OW25366   0.961   1.496   8.762 -0.3986 -0.1258 -0.6476
 4636SOL    HW125367   0.932   1.431   8.825  0.8819  1.3417  1.4531
 4636SOL    HW225368   1.049   1.459   8.753  0.3170  1.5405 -0.4880
 4637SOL     OW25369   0.056   2.757   2.902  0.3796  0.0330  0.7640
 4637SOL    HW125370   0.076   2.727   2.814  2.5269  2.0706  0.5421
 4637SOL    HW225371   0.145   2.764   2.937  0.0627  2.1394  1.1432
 4638SOL     OW25372   2.953   1.928   7.830 -0.3300  0.3014 -0.4981
 4638SOL    HW125373   3.039   1.930   7.873  0.4535 -1.0168 -2.0208
 4638SOL    HW225374   2.939   2.022   7.826 -0.2301  0.3062 -0.7442
 4639SOL     OW25375   0.551   0.227   5.890 -0.1106  0.0153  0.2358
 4639SOL    HW125376   0.636   0.268   5.903  0.3377 -1.1084  0.7800
 4639SOL    HW225377   0.510   0.231   5.976 -0.1730  0.3055  0.1930
 4640SOL     OW25378   0.774   0.547   8.017 -0.1880  0.3309  0.8332
 4640SOL    HW125379   0.843   0.591   7.968  0.5894 -2.2551 -0.3933
 4640SOL    HW225380   0.820   0.530   8.099 -1.2264 -1.2577  1.0969
 4641SOL     OW25381   2.146   3.919  14.183 -0.3507  0.0241  0.5181
 4641SOL    HW125382   2.162   3.955  14.096  1.3986 -1.1945  0.3442
 4641SOL    HW225383   2.050   3.929  14.186 -0.1634  1.2719  2.8864
 4642SOL     OW25384   1.229   0.779  15.322  0.3302 -0.2361  0.0679
 4642SOL    HW125385   1.215   0.873  15.335  1.3699 -0.2023  0.9363
 4642SOL    HW225386   1.160   0.757  15.260 -1.0720  0.3724  1.3875
 4643SOL     OW25387   1.496   2.740  14.332  0.0018 -0.2553 -0.0674
 4643SOL    HW125388   1.417   2.691  14.310 -0.3397 -0.5053  1.6707
 4643SOL    HW225389   1.535   2.695  14.407 -1.9113  0.2117  1.2283
 4644SOL     OW25390   3.628   3.064   4.810 -0.3055 -0.1901 -0.1120
 4644SOL    HW125391   3.624   2.998   4.741  1.9271  0.2365 -0.6392
 4644SOL    HW225392   3.633   3.143   4.758 -1.0847  0.3862  0.6726
 4645SOL     OW25393   3.228   2.046   5.859  0.0624 -0.0721 -0.2884
 4645SOL    HW125394   3.240   2.133   5.822 -0.1123  0.1044  0.0614
 4645SOL    HW225395   3.132   2.045   5.866  0.0204  0.5080 -0.8223
 4646SOL     OW25396   3.810   1.797   5.087  0.0962  0.1144 -0.5793
 4646SOL    HW125397   3.756   1.835   5.156 -0.4321  1.6322 -1.8216
 4646SOL    HW225398   3.759   1.722   5.057  2.1270 -1.4437 -0.0741
 4647SOL     OW25399   2.513   3.425   5.736 -0.4326 -0.5739  0.2507
 4647SOL    HW125400   2.576   3.385   5.677  0.6932  0.6308  0.6133
 4647SOL    HW225401   2.464   3.470   5.667  1.6313 -0.0353 -0.8651
 4648SOL     OW25402   3.073   2.965   5.565 -0.3391  0.4320 -0.5151
 4648SOL    HW125403   3.069   2.874   5.536  1.1724 -0.6841  2.8066
 4648SOL    HW225404   3.139   3.007   5.510  0.5760 -1.0720 -0.5578
 4649SOL     OW25405   2.363   2.343   1.660  0.5619  0.4228 -0.1984
 4649SOL    HW125406   2.277   2.302   1.653 -0.0064  1.6521 -0.3810
 4649SOL    HW225407   2.397   2.314   1.575 -2.3905  0.0588 -1.2559
 4650SOL     OW25408   4.250   0.011   6.898  0.0095 -0.1800  0.0531
 4650SOL    HW125409   4.214   4.683   6.969  0.5195  0.2116  0.5999
 4650SOL    HW225410   4.267   4.666   6.835 -0.2913 -0.9504  0.8443
 4651SOL     OW25411   3.264   1.733   5.191 -0.6469  0.3172  0.5156
 4651SOL    HW125412   3.170   1.730   5.208 -0.7125 -0.1276  0.0918
 4651SOL    HW225413   3.290   1.799   5.255  1.1272 -2.3317  2.5245
 4652SOL     OW25414   1.762   4.018   9.810 -0.0079 -0.5945 -0.3362
 4652SOL    HW125415   1.828   3.950   9.796  0.3795 -0.3038  0.0732
 4652SOL    HW225416   1.792   4.088   9.752  0.0262  0.1489  0.5768
 4653SOL     OW25417   2.430   1.786   4.672 -1.0282  0.3516 -0.0330
 4653SOL    HW125418   2.463   1.867   4.633 -2.8366  1.5484  0.9236
 4653SOL    HW225419   2.491   1.765   4.744  0.5118  0.0883 -1.4243
 4654SOL     OW25420   3.997   1.914  12.876 -0.0645  0.0309 -0.1120
 4654SOL    HW125421   3.952   1.991  12.911 -0.3986  0.2329 -1.0054
 4654SOL    HW225422   4.089   1.920  12.901  0.5216 -1.1298 -2.0231
 4655SOL     OW25423   0.762   1.632   2.072 -0.0678 -0.0298 -0.2281
 4655SOL    HW125424   0.730   1.716   2.104  0.4211  0.8049 -1.9503
 4655SOL    HW225425   0.850   1.629   2.110 -0.3961 -1.4289  0.4204
 4656SOL     OW25426   0.435   2.807   6.079  0.2304 -0.3134  0.2726
 4656SOL    HW125427   0.421   2.823   6.172 -3.3211 -2.0227  0.0301
 4656SOL    HW225428   0.514   2.858   6.062 -0.7678  1.6418  1.4349
 4657SOL     OW25429   2.274   3.808   4.762  0.1679 -0.1647  0.5106
 4657SOL    HW125430   2.278   3.775   4.672 -0.1521 -2.6964  1.4199
 4657SOL    HW225431   2.180   3.825   4.766  0.8062  3.1429  1.4609
 4658SOL     OW25432   1.781   3.919   2.888  0.1297 -0.1263 -0.3340
 4658SOL    HW125433   1.833   3.846   2.923 -0.7929 -0.8755 -0.5255
 4658SOL    HW225434   1.703   3.866   2.874 -0.0438  0.1418 -0.3594
 4659SOL     OW25435   2.736   3.048   2.568  0.3474 -0.0484 -0.2743
 4659SOL    HW125436   2.758   3.127   2.517  2.1563 -0.2904  0.1313
 4659SOL    HW225437   2.821   3.007   2.555 -0.0135 -0.4104 -1.5052
 4660SOL     OW25438   3.789   3.650  17.009 -0.1003  0.7032  0.6214
 4660SOL    HW125439   3.793   3.745  17.000  1.9995  0.5396 -0.2325
 4660SOL    HW225440   3.854   3.631  16.941  1.0898  3.1205  1.0974
 4661SOL     OW25441   1.970   3.277  10.539  0.2934 -0.3337 -0.2912
 4661SOL    HW125442   2.003   3.195  10.576  0.0120  1.1533  3.2095
 4661SOL    HW225443   1.907   3.245  10.475  0.9411  1.7714 -1.9861
 4662SOL     OW25444   2.262   0.892   5.748 -0.3373  0.4534 -0.4018
 4662SOL    HW125445   2.241   0.838   5.824  1.9511  0.4010  0.1921
 4662SOL    HW225446   2.320   0.838   5.695 -0.6802  0.4334 -0.7550
 4663SOL     OW25447   0.528   3.515   3.855  0.5336  0.3241 -0.2180
 4663SOL    HW125448   0.548   3.605   3.829  0.1085  0.4374 -0.1579
 4663SOL    HW225449   0.497   3.484   3.770  0.3836  1.0325 -0.4274
 4664SOL     OW25450   1.458   3.378   4.341 -0.0933  0.0127  0.4139
 4664SOL    HW125451   1.500   3.429   4.411  0.8578 -0.9798  0.5610
 4664SOL    HW225452   1.381   3.435   4.330 -0.0675  0.1290  0.8257
 4665SOL     OW25453   1.119   3.156   9.064  0.3360 -0.0272  0.2843
 4665SOL    HW125454   1.091   3.113   9.145  1.2208 -1.0119  0.0706
 4665SOL    HW225455   1.198   3.197   9.098  0.9325 -1.3614  0.5280
 4666SOL     OW25456   1.827   4.020   4.594  0.3347 -0.3899 -0.6710
 4666SOL    HW125457   1.887   3.959   4.638 -2.3728 -1.1134  2.0003
 4666SOL    HW225458   1.810   3.968   4.515 -1.1928 -2.1309  0.8168
 4667SOL     OW25459   3.523   2.706   6.147  0.1674 -0.0758 -0.1532
 4667SOL    HW125460   3.517   2.616   6.113 -0.1202 -0.0137 -0.2624
 4667SOL    HW225461   3.598   2.745   6.102  0.9193 -1.2232  0.1057
 4668SOL     OW25462   1.503   2.795  12.254  0.2932  0.1093 -0.2582
 4668SOL    HW125463   1.517   2.841  12.171  1.0328 -0.7005 -0.5753
 4668SOL    HW225464   1.577   2.735  12.258  1.1471  1.1497 -0.5725
 4669SOL     OW25465   1.761   2.306   4.504 -0.2210  0.7610 -0.1748
 4669SOL    HW125466   1.791   2.286   4.415 -1.9550  2.1789 -1.0706
 4669SOL    HW225467   1.680   2.351   4.481 -0.8244 -0.2652 -0.0517
 4670SOL     OW25468   3.275   1.949  11.041  0.2162 -0.2543  0.6193
 4670SOL    HW125469   3.330   1.992  10.976 -2.1125  1.3631 -0.2654
 4670SOL    HW225470   3.295   1.856  11.029 -2.0554 -0.7942  1.0122
 4671SOL     OW25471   0.957   4.309   1.940  0.4709 -0.5226 -0.5130
 4671SOL    HW125472   0.892   4.282   2.005 -1.0634  1.6892 -1.1155
 4671SOL    HW225473   1.022   4.239   1.944 -0.2757 -1.2141 -0.5163
 4672SOL     OW25474   2.161   2.489   2.956 -0.8704  0.1865 -0.1307
 4672SOL    HW125475   2.127   2.409   2.916 -2.0215  1.2481 -1.2753
 4672SOL    HW225476   2.223   2.519   2.890  2.1591  0.4579  2.7883
 4673SOL     OW25477   2.955   1.522   6.176 -0.0022  0.2515 -0.1239
 4673SOL    HW125478   2.972   1.596   6.234  0.5039 -1.1188  1.4943
 4673SOL    HW225479   2.862   1.534   6.161 -0.2443  1.1466  2.1725
 4674SOL     OW25480   1.269   3.351   5.992  0.2753  0.1407 -0.4955
 4674SOL    HW125481   1.321   3.272   5.979  1.7019  1.4747 -2.9197
 4674SOL    HW225482   1.187   3.322   5.951 -1.1225 -0.0799  2.4393
 4675SOL     OW25483   3.207   2.440   7.711 -0.4140 -0.2186  0.3302
 4675SOL    HW125484   3.276   2.488   7.757 -1.1734  0.4139  0.7893
 4675SOL    HW225485   3.222   2.473   7.622  0.7349  1.3844  1.1363
 4676SOL     OW25486   4.441   3.076   8.088  0.1206 -0.1241  0.5950
 4676SOL    HW125487   4.398   2.993   8.067 -0.9871  0.1518  1.7762
 4676SOL    HW225488   4.438   3.114   8.000 -0.6451 -0.1251  0.6243
 4677SOL     OW25489   2.092   0.175   8.576 -0.2796 -0.4636  0.1874
 4677SOL    HW125490   2.077   0.241   8.510 -0.4765  0.6358  1.3335
 4677SOL    HW225491   2.102   0.226   8.657 -2.2104  0.4233 -0.1552
 4678SOL     OW25492   1.470   2.877   0.439  0.3026  0.2507 -0.0004
 4678SOL    HW125493   1.376   2.861   0.436  0.3016  0.2122  0.2686
 4678SOL    HW225494   1.478   2.944   0.371  1.2477 -1.6874 -1.8119
 4679SOL     OW25495   3.930   2.274   6.009  0.1833 -0.0956  0.3493
 4679SOL    HW125496   3.977   2.320   6.079 -1.6584  2.0323  0.2044
 4679SOL    HW225497   3.850   2.326   6.000  0.0096 -0.5526 -0.7202
 4680SOL     OW25498   1.131   3.358  13.377 -0.3700 -0.0251  0.4565
 4680SOL    HW125499   1.099   3.295  13.313 -3.3910  0.2333  1.7121
 4680SOL    HW225500   1.211   3.315  13.409 -0.5461 -0.2023  0.6584
 4681SOL     OW25501   3.020   3.138   8.638  0.3171  0.4414 -0.1607
 4681SOL    HW125502   2.939   3.182   8.611  0.9625  0.1845 -2.5507
 4681SOL    HW225503   2.976   3.065   8.682  0.5759  0.7887  0.6556
 4682SOL     OW25504   1.419   2.027   0.900 -0.6716 -0.0422  0.2968
 4682SOL    HW125505   1.503   2.008   0.942 -0.2096 -1.1473 -1.1424
 4682SOL    HW225506   1.417   2.123   0.899 -1.3015 -0.0466  0.9986
 4683SOL     OW25507   4.670   3.022   5.453  0.3709 -0.0377  0.0915
 4683SOL    HW125508   4.722   2.999   5.377 -1.4611 -1.2700 -0.7817
 4683SOL    HW225509   0.010   3.075   5.500 -0.5999 -0.0080  1.4143
 4684SOL     OW25510   3.515   2.384   6.530  0.2701  0.2179  0.1612
 4684SOL    HW125511   3.476   2.353   6.612  0.4724  0.7131  0.4484
 4684SOL    HW225512   3.563   2.463   6.556  3.1676 -1.7952  0.9313
 4685SOL     OW25513   2.883   2.630   0.805  0.8366 -0.3137 -0.1027
 4685SOL    HW125514   2.884   2.596   0.716  1.0324  0.0434 -0.2368
 4685SOL    HW225515   2.897   2.724   0.792 -2.1085 -0.1171 -1.7447
 4686SOL     OW25516   1.792   2.971   5.946 -0.0551 -1.1383 -0.4947
 4686SOL    HW125517   1.710   2.977   5.995  1.1086  0.1364  1.2974
 4686SOL    HW225518   1.752   2.985   5.860 -1.2375  0.0646  0.2603
 4687SOL     OW25519   4.688   2.872  14.350 -0.1400  0.2717 -0.1810
 4687SOL    HW125520   0.035   2.882  14.287 -0.0214 -3.8291 -0.6854
 4687SOL    HW225521   4.665   2.780  14.335  0.9156  0.0446 -0.4002
 4688SOL     OW25522   2.901   1.615   2.698  0.4122 -0.1870 -0.2655
 4688SOL    HW125523   2.890   1.530   2.740 -0.6591 -0.2178 -0.6084
 4688SOL    HW225524   2.847   1.682   2.741  0.1238 -0.4549 -0.2040
 4689SOL     OW25525   4.358   0.033   7.596 -0.3458 -0.1525 -0.2783
 4689SOL    HW125526   4.409   0.107   7.564 -1.1210  0.7421  0.5570
 4689SOL    HW225527   4.274   0.069   7.569 -0.4611 -0.6519 -0.5933
 4690SOL     OW25528   0.953   4.325   6.526 -0.4468 -0.3127  0.3271
 4690SOL    HW125529   0.894   4.397   6.546  0.7037  0.6400  0.2479
 4690SOL    HW225530   0.908   4.251   6.567 -0.1045 -1.0462 -0.6176
 4691SOL     OW25531   3.358   2.843  14.623 -0.0663 -0.0389 -0.3154
 4691SOL    HW125532   3.419   2.849  14.549 -0.5081 -0.1406 -0.6861
 4691SOL    HW225533   3.371   2.930  14.662  1.3629 -0.8013  0.9399
 4692SOL     OW25534   4.641   2.026   7.854 -0.4351 -0.2788  0.5759
 4692SOL    HW125535   4.660   2.027   7.948 -3.6287 -1.9850  1.2400
 4692SOL    HW225536   0.001   2.000   7.818 -1.0214 -1.4146  0.0118
 4693SOL     OW25537   0.167   0.793   5.213  0.3044 -0.1531  0.1693
 4693SOL    HW125538   0.216   0.725   5.259 -1.8968 -1.8343  0.0313
 4693SOL    HW225539   0.113   0.815   5.290  0.6829  0.6137  0.2123
 4694SOL     OW25540   2.118   2.506   1.122 -0.0321  0.5704  0.0840
 4694SOL    HW125541   2.152   2.577   1.176  0.2027  0.6678 -0.1886
 4694SOL    HW225542   2.025   2.518   1.105 -0.3782 -1.5388  0.4776
 4695SOL     OW25543   3.439   2.242   4.041 -0.2002 -0.0800  0.0321
 4695SOL    HW125544   3.432   2.238   4.137 -0.1807 -1.1277 -0.0075
 4695SOL    HW225545   3.514   2.186   4.024  2.1709  3.1827 -0.0956
 4696SOL     OW25546   1.882   1.369   6.946 -0.0162 -0.5173  0.0837
 4696SOL    HW125547   1.819   1.306   6.982  1.5226 -1.3784  1.2722
 4696SOL    HW225548   1.915   1.316   6.873  0.3732  2.5118 -1.9369
 4697SOL     OW25549   3.856   0.623   7.245 -0.1895 -0.3036  0.0089
 4697SOL    HW125550   3.792   0.556   7.219  0.4618 -1.5759  1.6832
 4697SOL    HW225551   3.866   0.671   7.163  1.3926 -3.1594 -1.4301
 4698SOL     OW25552   0.899   1.123   2.058 -0.1052 -0.1442 -0.1128
 4698SOL    HW125553   0.855   1.184   2.117  1.1903  3.1490 -2.5703
 4698SOL    HW225554   0.847   1.136   1.979  0.0542  1.4486  0.0548
 4699SOL     OW25555   2.193   1.145   3.970 -0.6650  0.1783 -0.4399
 4699SOL    HW125556   2.235   1.226   3.999  0.2148 -0.0664 -1.0100
 4699SOL    HW225557   2.261   1.113   3.910 -0.2619 -2.4188  1.3937
 4700SOL     OW25558   4.699   3.628   6.876 -0.0181  0.1494  0.5024
 4700SOL    HW125559   0.014   3.569   6.939 -0.2501 -0.5480 -0.0032
 4700SOL    HW225560   4.650   3.572   6.816  0.1153  1.4959 -0.8797
 4701SOL     OW25561   1.978   1.694   5.148  0.3289  0.1099 -0.4158
 4701SOL    HW125562   1.941   1.781   5.138  3.0438  1.3335  0.2682
 4701SOL    HW225563   2.068   1.721   5.163  0.1775 -1.7424  3.7544
 4702SOL     OW25564   0.579   3.486   4.657 -0.5873  0.6712 -0.0167
 4702SOL    HW125565   0.584   3.392   4.641 -2.4351  0.3862  1.1723
 4702SOL    HW225566   0.595   3.478   4.751  0.5932 -3.4810 -0.5701
 4703SOL     OW25567   1.301   3.602   9.821 -0.0885 -0.0392  0.6160
 4703SOL    HW125568   1.229   3.626   9.762  0.5286  2.6748  1.0071
 4703SOL    HW225569   1.286   3.661   9.894 -1.2577 -1.2364  1.3358
 4704SOL     OW25570   2.279   2.611   6.993 -0.0114 -0.0682  0.2717
 4704SOL    HW125571   2.291   2.556   7.071 -2.4769 -0.0370  0.6671
 4704SOL    HW225572   2.328   2.688   7.022 -1.1228 -0.5311  3.4318
 4705SOL     OW25573   0.697   1.401   6.085 -0.0735 -0.2218 -0.1203
 4705SOL    HW125574   0.652   1.379   6.167 -0.5390  1.6174  0.1231
 4705SOL    HW225575   0.774   1.346   6.099  0.2795  0.1540 -0.5874
 4706SOL     OW25576   2.085   3.122   2.624 -0.1713  0.0303  0.2574
 4706SOL    HW125577   2.108   3.042   2.577  1.1456  0.3903  0.2882
 4706SOL    HW225578   2.015   3.155   2.567 -0.7344  1.7317  1.9292
 4707SOL     OW25579   3.109   1.783   6.911  0.6367  0.2218 -0.2189
 4707SOL    HW125580   3.186   1.825   6.873 -0.4628  2.3862 -0.0576
 4707SOL    HW225581   3.149   1.721   6.971 -2.3276 -0.6152  0.8758
 4708SOL     OW25582   2.339   2.726   0.938  0.2019 -0.5394 -0.1052
 4708SOL    HW125583   2.428   2.691   0.946  0.4412  0.3983  1.2608
 4708SOL    HW225584   2.301   2.647   0.899 -0.5356 -0.5756  0.6892
 4709SOL     OW25585   0.003   3.142   6.833 -0.1910 -0.1444 -0.3168
 4709SOL    HW125586   4.716   3.187   6.917  1.7785 -0.2417  0.0123
 4709SOL    HW225587   4.677   3.062   6.839  1.2752 -1.1447 -1.3394
 4710SOL     OW25588   2.998   3.322  15.981 -0.1715  0.0731  0.4631
 4710SOL    HW125589   2.953   3.407  15.980 -0.2825  0.0065 -3.3444
 4710SOL    HW225590   2.928   3.265  16.011 -0.4669  0.8389  1.2287
 4711SOL     OW25591   2.480   2.357   5.280 -0.2320 -0.5955  0.4226
 4711SOL    HW125592   2.564   2.399   5.261  0.4179 -1.4432  1.3675
 4711SOL    HW225593   2.477   2.286   5.216 -0.9651  0.1409 -0.3574
 4712SOL     OW25594   1.763   1.063   5.260  0.3864 -0.5762 -0.0013
 4712SOL    HW125595   1.800   1.116   5.190 -0.6592 -0.1178 -0.2059
 4712SOL    HW225596   1.769   1.124   5.334  0.3026 -0.9341  0.3023
 4713SOL     OW25597   4.028   4.552   6.137  0.2241 -0.1630  0.9150
 4713SOL    HW125598   4.064   4.536   6.225  1.4989 -2.2884  0.0074
 4713SOL    HW225599   3.940   4.584   6.158  0.1076  0.4240 -0.4744
 4714SOL     OW25600   0.483   1.808   2.866 -0.8795 -0.5035  0.4818
 4714SOL    HW125601   0.399   1.851   2.849 -0.1083  0.3877 -1.0972
 4714SOL    HW225602   0.508   1.830   2.956 -0.0681  2.4747 -0.4855
 4715SOL     OW25603   4.422   1.789   5.053 -0.5618  0.1735  0.5070
 4715SOL    HW125604   4.506   1.825   5.080 -1.2967  0.1823  2.7762
 4715SOL    HW225605   4.416   1.833   4.968 -0.1072 -1.1957 -0.2273
 4716SOL     OW25606   1.762   0.980   2.259 -0.1945  0.1261  0.6899
 4716SOL    HW125607   1.797   0.923   2.327 -1.3612  1.7238  2.6272
 4716SOL    HW225608   1.836   1.029   2.223 -0.4293  1.0017  1.4078
 4717SOL     OW25609   4.381   3.383   2.562 -0.1002  0.6409  0.1632
 4717SOL    HW125610   4.384   3.292   2.532  1.0091  0.5997  0.3751
 4717SOL    HW225611   4.476   3.398   2.569 -0.0273  1.6798 -3.2022
 4718SOL     OW25612   4.575   2.141  13.809 -0.1935  0.1164 -0.0843
 4718SOL    HW125613   4.621   2.060  13.789 -0.6499 -0.2113  0.1689
 4718SOL    HW225614   4.482   2.120  13.797 -0.1430  0.3451 -0.8154
 4719SOL     OW25615   1.489   3.661   2.535  0.5409  0.4041 -0.1121
 4719SOL    HW125616   1.510   3.568   2.541 -0.4923  0.2226  0.8613
 4719SOL    HW225617   1.545   3.669   2.458  1.6973 -2.9327  0.4105
 4720SOL     OW25618   2.795   2.564   0.261 -0.3616 -0.0204  0.0448
 4720SOL    HW125619   2.826   2.563   0.170 -1.4516 -1.3975 -0.3139
 4720SOL    HW225620   2.742   2.643   0.254 -0.9750 -0.3781  0.6928
 4721SOL     OW25621   3.382   4.545   6.807 -0.0359  0.1383  0.8295
 4721SOL    HW125622   3.373   4.470   6.866 -1.4544  0.2012  0.7032
 4721SOL    HW225623   3.371   4.617   6.868 -0.3259  1.2930 -0.5779
 4722SOL     OW25624   2.485   2.024   3.345 -0.1429 -0.7724  0.0969
 4722SOL    HW125625   2.443   1.977   3.417 -0.3789  0.4182  0.7372
 4722SOL    HW225626   2.578   2.020   3.366  0.3898  0.5023 -2.0368
 4723SOL     OW25627   2.960   4.307   4.501 -0.0134 -0.6060 -0.2029
 4723SOL    HW125628   2.973   4.398   4.476  0.5229 -0.4491  0.6311
 4723SOL    HW225629   2.869   4.311   4.533 -0.5208  1.7950 -1.9514
 4724SOL     OW25630   3.004   0.319   4.855 -0.4002  0.2921 -0.6355
 4724SOL    HW125631   2.990   0.396   4.800 -1.3536 -0.2809 -1.1840
 4724SOL    HW225632   2.928   0.323   4.913  0.5144  1.1503  0.5270
 4725SOL     OW25633   1.883   3.794   7.153  0.2797 -0.1092  0.4298
 4725SOL    HW125634   1.842   3.746   7.081  1.1146  0.3993 -0.3871
 4725SOL    HW225635   1.976   3.792   7.132  0.1434  2.5967 -0.3533
 4726SOL     OW25636   0.586   3.341   3.414 -0.0305 -0.0359 -0.0166
 4726SOL    HW125637   0.645   3.395   3.361  0.3581 -0.4891 -0.0426
 4726SOL    HW225638   0.579   3.383   3.499  1.1414 -0.6157  0.3567
 4727SOL     OW25639   4.311   0.488   9.409  0.2231 -0.2475 -0.1547
 4727SOL    HW125640   4.291   0.406   9.363  0.8009  0.5940 -1.9268
 4727SOL    HW225641   4.227   0.499   9.453  0.9359  2.5277  0.5160
 4728SOL     OW25642   3.637   0.071   5.553  0.0751  0.1483  0.7363
 4728SOL    HW125643   3.611   0.006   5.618  0.1884  0.6097  1.2382
 4728SOL    HW225644   3.727   0.045   5.534  0.3128  1.6821 -0.2961
 4729SOL     OW25645   3.732   0.476   1.566  0.5716  0.2786  0.3137
 4729SOL    HW125646   3.753   0.569   1.566  1.3738  0.1034 -0.2690
 4729SOL    HW225647   3.641   0.476   1.534  0.7309 -1.4296 -0.1634
 4730SOL     OW25648   0.054   4.091  13.921 -0.8930 -0.3454 -0.3386
 4730SOL    HW125649   0.111   4.151  13.968 -0.5341  0.2288 -1.5001
 4730SOL    HW225650   0.114   4.074  13.849  1.4936 -0.9639  1.8072
 4731SOL     OW25651   2.056   0.071  10.568 -0.5784  0.0560  0.0165
 4731SOL    HW125652   2.081   4.710  10.534  1.3099  0.7034 -0.2539
 4731SOL    HW225653   2.149   0.086  10.583 -0.2495 -2.6539  0.6375
 4732SOL     OW25654   0.806   3.275   2.855 -0.7006 -0.1820  0.4780
 4732SOL    HW125655   0.785   3.360   2.818 -0.4844  0.1870  1.1880
 4732SOL    HW225656   0.828   3.224   2.778 -1.5841  0.0654  0.0633
 4733SOL     OW25657   2.953   0.666   6.744  0.2434 -0.2726  0.1711
 4733SOL    HW125658   2.885   0.702   6.687  0.8318  1.1937  0.3962
 4733SOL    HW225659   2.941   0.697   6.834 -1.4782 -0.2903 -0.0547
 4734SOL     OW25660   3.861   3.863   6.211  0.3028  0.3578 -0.1554
 4734SOL    HW125661   3.877   3.956   6.194  1.6026  0.1483 -0.0280
 4734SOL    HW225662   3.794   3.859   6.143  1.3720  1.3080 -1.2713
 4735SOL     OW25663   0.435   4.546   3.436  0.0069  0.5865  0.7151
 4735SOL    HW125664   0.510   4.532   3.494  1.7107  2.2736 -1.0683
 4735SOL    HW225665   0.363   4.505   3.483 -0.4162  0.2371 -0.2404
 4736SOL     OW25666   4.669   0.821  17.188 -0.2556 -0.0049  0.1933
 4736SOL    HW125667   4.608   0.817  17.262  0.1093  0.9964  0.5564
 4736SOL    HW225668   4.622   0.878  17.127  1.3812  2.5987  1.3352
 4737SOL     OW25669   4.693   2.745   7.318 -0.1617 -0.5716  0.4808
 4737SOL    HW125670   4.643   2.779   7.393 -1.6800  1.5565 -1.4874
 4737SOL    HW225671   4.652   2.659   7.323  0.6255 -0.9414  0.6799
 4738SOL     OW25672   3.716   1.212   8.214  0.1594  0.0213 -0.0709
 4738SOL    HW125673   3.759   1.212   8.129  1.3516  0.4224  0.5266
 4738SOL    HW225674   3.783   1.161   8.259 -1.5720 -0.4535  2.0130
 4739SOL     OW25675   2.230   0.921   4.543  0.6468  0.3178  0.4787
 4739SOL    HW125676   2.246   0.975   4.465  0.9049  1.6038  1.4150
 4739SOL    HW225677   2.266   0.984   4.606  0.8174  0.5501  0.1457
 4740SOL     OW25678   1.112   2.224   5.455  0.4453  0.0614  0.3774
 4740SOL    HW125679   1.124   2.286   5.382 -2.3157 -1.1977 -1.1462
 4740SOL    HW225680   1.089   2.288   5.522 -2.7011  0.5587 -1.1491
 4741SOL     OW25681   0.040   0.147  11.040  0.4203  0.1129  0.3767
 4741SOL    HW125682   0.021   0.147  10.946 -1.0703  1.3356  0.6809
 4741SOL    HW225683   0.127   0.185  11.043 -0.8482  2.9534  1.5003
 4742SOL     OW25684   4.264   2.770   8.383  0.1986  0.1648  0.5746
 4742SOL    HW125685   4.346   2.738   8.422  0.9126  0.6582 -0.5164
 4742SOL    HW225686   4.195   2.724   8.431 -0.8639  1.5495  0.3480
 4743SOL     OW25687   3.798   1.452   7.741 -0.4538 -0.0704 -1.2357
 4743SOL    HW125688   3.850   1.377   7.767 -0.0443  0.8354  0.5297
 4743SOL    HW225689   3.864   1.505   7.697 -0.7961  1.7655  0.4560
 4744SOL     OW25690   3.266   0.780  14.442  0.2690 -0.3181  0.8599
 4744SOL    HW125691   3.323   0.804  14.369  0.0261  1.1832  1.1483
 4744SOL    HW225692   3.338   0.792  14.504  0.0719  0.2070  0.9867
 4745SOL     OW25693   2.201   3.205   4.307  0.1001  0.1121 -0.0151
 4745SOL    HW125694   2.263   3.144   4.347  0.9405  0.6362 -0.5138
 4745SOL    HW225695   2.156   3.139   4.255 -0.2641 -0.0826  0.5450
 4746SOL     OW25696   1.213   2.570   8.157  0.2716 -0.4860 -0.1578
 4746SOL    HW125697   1.117   2.561   8.156  0.2132  0.1045 -0.1285
 4746SOL    HW225698   1.224   2.611   8.243  2.8351  0.6021 -1.0062
 4747SOL     OW25699   2.109   1.522  13.121 -0.3363 -0.0508 -0.2878
 4747SOL    HW125700   2.181   1.506  13.181 -0.2822 -1.8926 -0.8388
 4747SOL    HW225701   2.160   1.549  13.045  0.4292  0.8473  0.5475
 4748SOL     OW25702   0.345   3.749  15.200  0.3720 -0.1185  0.4334
 4748SOL    HW125703   0.354   3.672  15.256 -0.4907 -1.1722 -0.8565
 4748SOL    HW225704   0.387   3.821  15.246 -0.5653 -0.7403  2.2237
 4749SOL     OW25705   4.023   4.143  11.070  1.0686  0.2043  0.0127
 4749SOL    HW125706   3.976   4.117  10.991 -0.7336  1.3786  0.7080
 4749SOL    HW225707   4.014   4.238  11.070 -2.7161 -0.1891  0.2708
 4750SOL     OW25708   0.012   4.207   3.046  0.2818 -0.4002 -0.3328
 4750SOL    HW125709   4.705   4.146   3.114  0.2525 -0.0147 -0.0015
 4750SOL    HW225710   0.095   4.160   3.036 -0.3654 -1.0169 -2.7413
 4751SOL     OW25711   3.789   2.550   3.157  0.5558  0.4195  0.3749
 4751SOL    HW125712   3.816   2.471   3.111  0.2164 -0.5848  1.9428
 4751SOL    HW225713   3.853   2.617   3.132 -1.2543  1.8382 -0.5706
 4752SOL     OW25714   0.959   2.566   7.891  0.7063 -0.7475  0.0241
 4752SOL    HW125715   0.921   2.615   7.818 -1.0091 -2.2104 -0.0839
 4752SOL    HW225716   1.051   2.562   7.866  0.1942 -1.6925 -1.7430
 4753SOL     OW25717   3.113   1.388   4.150  0.2901 -0.6609  0.2148
 4753SOL    HW125718   3.165   1.383   4.069  0.9537 -1.7841  0.7156
 4753SOL    HW225719   3.037   1.426   4.105 -0.3839 -1.6956  0.4680
 4754SOL     OW25720   4.084   0.525   3.997 -0.0769 -0.1498  0.1450
 4754SOL    HW125721   4.158   0.502   4.054  0.4603  1.0474 -0.0770
 4754SOL    HW225722   4.039   0.587   4.054  0.3178  1.8211 -1.7236
 4755SOL     OW25723   4.610   0.676   6.984 -1.0238  0.3005  0.2376
 4755SOL    HW125724   4.644   0.729   7.056  0.0645 -1.2239  0.8337
 4755SOL    HW225725   4.681   0.613   6.970 -0.9252 -0.1136  2.7385
 4756SOL     OW25726   3.269   1.798   2.074  0.1669 -0.0635  0.2303
 4756SOL    HW125727   3.278   1.730   2.141  1.3565 -0.6160 -0.4935
 4756SOL    HW225728   3.358   1.825   2.054  0.3539 -0.3583  0.6783
 4757SOL     OW25729   0.492   4.261   7.048 -0.6889 -0.1828  0.1681
 4757SOL    HW125730   0.550   4.199   7.005  2.5424  2.1778  1.0817
 4757SOL    HW225731   0.550   4.304   7.111  0.3583  0.3012 -1.1198
 4758SOL     OW25732   3.598   4.263   4.649  0.3447 -0.2879  0.0273
 4758SOL    HW125733   3.662   4.192   4.656 -1.9608 -2.3330  0.5841
 4758SOL    HW225734   3.661   4.334   4.635 -0.5553  0.6814  0.8726
 4759SOL     OW25735   4.226   2.212  12.348  0.3247  0.2676 -0.0543
 4759SOL    HW125736   4.302   2.259  12.383 -1.2769  2.2845  0.7415
 4759SOL    HW225737   4.269   2.164  12.278  0.9321 -0.0590  0.5450
 4760SOL     OW25738   0.758   3.580  14.168 -0.0847  0.5072 -0.0341
 4760SOL    HW125739   0.718   3.648  14.114 -0.1308  0.4658 -0.0522
 4760SOL    HW225740   0.849   3.590  14.142  0.9074 -1.4788  2.6309
 4761SOL     OW25741   1.198   3.156   6.525 -0.4590  0.7644 -0.4073
 4761SOL    HW125742   1.102   3.157   6.519 -0.3859  0.3423 -1.5625
 4761SOL    HW225743   1.216   3.205   6.606 -0.2088  1.1196 -0.6781
 4762SOL     OW25744   1.552   3.480   7.500 -0.3427 -0.4977 -0.2858
 4762SOL    HW125745   1.609   3.552   7.528 -0.6627 -0.2756 -0.2130
 4762SOL    HW225746   1.474   3.518   7.539 -0.1533 -1.8260  1.3990
 4763SOL     OW25747   4.218   0.948  12.015 -0.1160 -0.0810  0.5375
 4763SOL    HW125748   4.171   1.025  12.047 -0.4425 -0.3462  0.6960
 4763SOL    HW225749   4.274   0.936  12.091 -1.3963  0.4847  1.5586
 4764SOL     OW25750   4.504   1.451  16.382  0.2295  0.4682  0.4143
 4764SOL    HW125751   4.419   1.407  16.389  0.4069  0.0256 -0.1966
 4764SOL    HW225752   4.503   1.512  16.456 -0.8408 -0.0878  0.8542
 4765SOL     OW25753   1.412   4.005  13.745 -0.1468 -0.2385  0.5778
 4765SOL    HW125754   1.432   4.096  13.721  2.8980 -1.1517 -0.4339
 4765SOL    HW225755   1.317   3.998  13.735 -0.1280 -3.2774  2.3746
 4766SOL     OW25756   2.921   2.464   7.697  0.1138 -0.0567  0.3256
 4766SOL    HW125757   2.959   2.550   7.681  1.0409 -0.3867  0.7584
 4766SOL    HW225758   3.004   2.419   7.709  0.3139 -0.4153 -2.3536
 4767SOL     OW25759   3.285   1.337   3.028 -0.2024 -0.0597 -0.5552
 4767SOL    HW125760   3.342   1.402   3.071 -1.2089 -0.0252  0.7301
 4767SOL    HW225761   3.284   1.373   2.939 -1.7292  0.7233 -0.2191
 4768SOL     OW25762   2.878   2.951   7.531 -0.0709 -0.4208 -0.1154
 4768SOL    HW125763   2.974   2.957   7.540 -0.1353  1.8740 -0.9090
 4768SOL    HW225764   2.850   2.895   7.602  0.7285 -1.5572 -0.6983
 4769SOL     OW25765   2.168   1.221  13.582 -0.2007 -0.1171  0.4504
 4769SOL    HW125766   2.239   1.261  13.632  0.0143  0.2437 -0.1359
 4769SOL    HW225767   2.092   1.218  13.640  0.0367  1.0926  0.8000
 4770SOL     OW25768   3.556   4.388   2.569  0.0089 -0.2339 -0.1657
 4770SOL    HW125769   3.529   4.320   2.507  2.5366 -1.1566 -0.2554
 4770SOL    HW225770   3.546   4.340   2.651 -0.2561 -1.7702 -1.0895
 4771SOL     OW25771   0.881   3.894  12.079 -0.5952 -0.2432 -0.0741
 4771SOL    HW125772   0.902   3.801  12.085 -1.2753 -0.3442  0.7940
 4771SOL    HW225773   0.852   3.905  11.989  0.8534  0.0618 -0.5021
 4772SOL     OW25774   1.079   0.874  14.008  0.0110 -0.0373  0.4756
 4772SOL    HW125775   1.061   0.826  13.927 -2.0257 -0.8749  1.4108
 4772SOL    HW225776   1.076   0.963  13.972  0.3858 -0.6060 -0.9699
 4773SOL     OW25777   3.046   0.361   6.926 -0.3208 -0.7397  0.0233
 4773SOL    HW125778   3.064   0.324   7.012 -2.0734 -0.6249  0.4399
 4773SOL    HW225779   3.033   0.455   6.941  3.2043 -0.3152  0.3190
 4774SOL     OW25780   0.321   4.712   6.458 -0.1133  0.4375 -0.4048
 4774SOL    HW125781   0.335   4.620   6.479 -0.5204  0.5068  0.1780
 4774SOL    HW225782   0.410   0.020   6.454 -0.5978  1.9019  0.8684
 4775SOL     OW25783   3.225   1.978   3.097 -0.3222 -0.2800 -0.2562
 4775SOL    HW125784   3.290   1.987   3.027  0.4003 -0.9360  0.3341
 4775SOL    HW225785   3.155   1.944   3.041 -0.4082 -0.0133 -0.3116
 4776SOL     OW25786   2.662   1.294  15.586 -0.3196 -0.1498  0.5037
 4776SOL    HW125787   2.701   1.208  15.602 -0.3121 -0.3140 -0.3754
 4776SOL    HW225788   2.632   1.285  15.495 -2.0509  0.3819  1.0157
 4777SOL     OW25789   3.745   3.027   3.894 -0.3441 -1.2862 -0.0049
 4777SOL    HW125790   3.780   2.971   3.825  1.9100 -0.2107  0.2838
 4777SOL    HW225791   3.793   3.107   3.876 -1.5086 -0.4754  0.5039
 4778SOL     OW25792   2.729   3.669   4.591 -0.4760  0.4342 -0.2991
 4778SOL    HW125793   2.643   3.631   4.570  0.0193 -1.6769  1.4949
 4778SOL    HW225794   2.705   3.762   4.588 -2.0625 -0.0526 -2.3861
 4779SOL     OW25795   4.660   1.624   4.905  0.0855  0.1959  0.1306
 4779SOL    HW125796   4.633   1.682   4.833 -0.0989  0.1543  0.1660
 4779SOL    HW225797   4.597   1.555   4.886  0.7042 -0.2596 -0.2773
 4780SOL     OW25798   2.597   4.480   2.589  0.0301  0.1465 -0.2432
 4780SOL    HW125799   2.565   4.540   2.521 -1.3824 -2.5826 -1.9681
 4780SOL    HW225800   2.620   4.539   2.661 -0.3414 -0.3374  0.2736
 4781SOL     OW25801   4.394   1.263   6.500  0.5501  0.2773  0.1443
 4781SOL    HW125802   4.446   1.290   6.576 -2.6334  3.0370  1.3118
 4781SOL    HW225803   4.383   1.338   6.442 -4.1279 -0.0449  0.5571
 4782SOL     OW25804   4.339   3.397   9.500 -0.7444 -0.2801 -0.1364
 4782SOL    HW125805   4.385   3.372   9.420 -1.6141  1.7108 -1.2656
 4782SOL    HW225806   4.251   3.419   9.469 -0.6818 -1.4714 -1.1473
 4783SOL     OW25807   3.344   0.269   6.809  0.8192 -0.0477 -0.4388
 4783SOL    HW125808   3.276   0.330   6.836  0.2285  0.8255 -3.8676
 4783SOL    HW225809   3.326   0.189   6.860 -1.4601  0.5178 -0.3466
 4784SOL     OW25810   2.388   2.553   5.032 -0.4265  0.0220 -0.2301
 4784SOL    HW125811   2.324   2.493   5.070 -0.2403  0.7182  1.2086
 4784SOL    HW225812   2.425   2.607   5.103 -0.4634 -0.3185  0.0493
 4785SOL     OW25813   2.799   3.617   2.244  0.4193 -0.0395  0.0143
 4785SOL    HW125814   2.891   3.630   2.218  0.6634 -0.1457  0.7971
 4785SOL    HW225815   2.787   3.672   2.322 -1.5658 -1.6114  0.8182
 4786SOL     OW25816   1.638   4.421  11.002  0.5817 -0.1749  0.1400
 4786SOL    HW125817   1.567   4.431  10.939  0.1173 -0.8376  0.5562
 4786SOL    HW225818   1.639   4.508  11.042  2.2809 -0.8704  1.6243
 4787SOL     OW25819   1.281   1.324   7.843  0.0732  0.1950  0.3457
 4787SOL    HW125820   1.336   1.329   7.922  2.1698 -2.1405 -0.9865
 4787SOL    HW225821   1.354   1.312   7.782  1.4642 -1.5772  2.3549
 4788SOL     OW25822   4.454   0.566   5.898  0.3000  0.2767  1.0277
 4788SOL    HW125823   4.382   0.529   5.847  1.3192  0.7597 -0.7650
 4788SOL    HW225824   4.516   0.550   5.827 -0.7679  1.2326 -0.1074
 4789SOL     OW25825   3.228   2.817  15.680 -0.2290  0.0133  0.2516
 4789SOL    HW125826   3.297   2.768  15.725  1.1964  2.0800  0.3276
 4789SOL    HW225827   3.263   2.801  15.592  0.3180  0.2172  0.4324
 4790SOL     OW25828   0.136   2.009  10.233 -0.7538  0.2568 -0.5898
 4790SOL    HW125829   0.088   1.936  10.273  2.2271 -0.6071  1.3955
 4790SOL    HW225830   0.107   2.011  10.142 -1.7651 -0.7146 -0.2943
 4791SOL     OW25831   3.912   3.216  15.098  0.5139  0.2937 -0.2408
 4791SOL    HW125832   3.972   3.230  15.171  0.4157  1.2280 -0.3319
 4791SOL    HW225833   3.887   3.125  15.113  1.4129 -0.2093 -1.7413
 4792SOL     OW25834   2.202   1.676   7.243  0.0231  0.8004  0.4844
 4792SOL    HW125835   2.132   1.640   7.297 -1.1546  1.5653 -0.5203
 4792SOL    HW225836   2.184   1.770   7.253  0.0969  0.8126  0.4999
 4793SOL     OW25837   3.687   0.191   5.873  0.5025 -0.1725  0.6441
 4793SOL    HW125838   3.748   0.187   5.946  3.3876 -1.4500 -1.8728
 4793SOL    HW225839   3.619   0.255   5.894  1.2034  0.6602  0.3836
 4794SOL     OW25840   2.592   1.436   4.591 -0.1822  0.7423 -0.1133
 4794SOL    HW125841   2.685   1.458   4.584  0.4572 -0.8058  3.3219
 4794SOL    HW225842   2.586   1.443   4.686 -0.4954  1.8264 -0.2123
 4795SOL     OW25843   2.855   1.588  10.229  0.2714  0.1459 -0.5268
 4795SOL    HW125844   2.776   1.590  10.283 -1.8493 -0.8173 -3.5551
 4795SOL    HW225845   2.857   1.680  10.204 -2.3704  0.3160 -0.1100
 4796SOL     OW25846   4.109   3.414   9.169  0.0987 -0.2462 -0.1028
 4796SOL    HW125847   4.071   3.445   9.087  0.5186 -1.1399 -0.6422
 4796SOL    HW225848   4.044   3.420   9.239 -0.5248  0.2512 -0.7208
 4797SOL     OW25849   3.911   3.934   5.502  0.4218  0.4138  0.3951
 4797SOL    HW125850   3.915   3.941   5.407  0.7686 -2.0515  0.2392
 4797SOL    HW225851   3.965   4.011   5.517  1.5705 -0.5483  1.1671
 4798SOL     OW25852   2.530   1.806   6.393  0.2603 -0.5957  0.4355
 4798SOL    HW125853   2.517   1.729   6.448 -0.8040 -0.5050  0.3106
 4798SOL    HW225854   2.550   1.771   6.306  0.4219  0.0830  0.1942
 4799SOL     OW25855   1.277   3.546  12.545 -0.1742 -0.2331  0.3556
 4799SOL    HW125856   1.335   3.601  12.493  1.5540 -1.1688  1.2972
 4799SOL    HW225857   1.294   3.578  12.634  1.1721  1.3376 -0.4706
 4800SOL     OW25858   0.781   2.671   3.103  0.0147  0.8006 -0.3653
 4800SOL    HW125859   0.802   2.740   3.166  0.4337  0.6373 -0.3264
 4800SOL    HW225860   0.850   2.606   3.117 -1.2329 -0.6931 -1.2357
 4801SOL     OW25861   4.022   1.261   3.034 -0.1686  0.2397  0.1097
 4801SOL    HW125862   4.097   1.239   3.090  1.1953  2.5841 -0.7929
 4801SOL    HW225863   4.056   1.258   2.945  0.2579  2.3762  0.2031
 4802SOL     OW25864   0.567   4.145   3.032 -0.7346  0.7799 -0.5342
 4802SOL    HW125865   0.565   4.170   2.940 -0.8208 -1.6729 -1.2099
 4802SOL    HW225866   0.647   4.188   3.061  0.1784 -0.9453 -0.4849
 4803SOL     OW25867   1.148   0.575   8.407  0.5436 -0.4663 -0.5327
 4803SOL    HW125868   1.219   0.584   8.471  1.3515 -2.0979 -1.1894
 4803SOL    HW225869   1.092   0.513   8.453  1.9940 -1.0728  0.4264
 4804SOL     OW25870   4.211   1.884   8.109 -0.1195  0.3924  0.4782
 4804SOL    HW125871   4.296   1.839   8.106 -0.8148 -1.0250  1.9687
 4804SOL    HW225872   4.157   1.844   8.040  0.5732  0.1423  0.0817
 4805SOL     OW25873   4.186   1.984   0.486 -0.3282  0.1884 -0.1710
 4805SOL    HW125874   4.092   2.004   0.481 -0.6735 -1.6330 -0.7449
 4805SOL    HW225875   4.225   2.049   0.428  1.6394 -2.4404 -1.7441
 4806SOL     OW25876   0.358   1.844   6.352  0.3298  0.2544 -0.0936
 4806SOL    HW125877   0.325   1.799   6.274  0.5576  0.7808 -0.4919
 4806SOL    HW225878   0.362   1.937   6.330  1.0325  0.0339 -0.8887
 4807SOL     OW25879   4.115   0.686   5.906 -0.6466  0.0728  0.0779
 4807SOL    HW125880   4.105   0.702   5.812  0.0511  1.7913  0.3066
 4807SOL    HW225881   4.089   0.594   5.912 -2.1724  0.3849 -1.5499
 4808SOL     OW25882   2.996   3.842   9.060 -0.0002  0.0769  0.1208
 4808SOL    HW125883   3.054   3.894   9.115 -0.1989 -1.9416  2.2640
 4808SOL    HW225884   2.966   3.764   9.107 -1.4827 -0.0842 -1.0743
 4809SOL     OW25885   1.589   2.515   0.489 -0.2095  0.3882 -0.4023
 4809SOL    HW125886   1.657   2.581   0.502  0.8452 -1.3065  2.6312
 4809SOL    HW225887   1.646   2.457   0.440 -0.7565  1.1023 -1.8988
 4810SOL     OW25888   1.521   4.710   7.969 -0.2054 -0.1995  0.2681
 4810SOL    HW125889   1.526   0.060   8.029 -0.8539 -0.6052  0.8281
 4810SOL    HW225890   1.490   0.027   7.888  0.1528 -0.3486  0.0521
 4811SOL     OW25891   4.703   3.182   7.793  0.6591 -0.1167  0.3185
 4811SOL    HW125892   4.608   3.191   7.805  0.3948  0.0866 -1.9878
 4811SOL    HW225893   0.002   3.122   7.863 -0.3914 -1.5212 -0.5401
 4812SOL     OW25894   3.566   4.145  10.187  0.1279  0.2775  0.2949
 4812SOL    HW125895   3.510   4.197  10.244 -1.0681 -1.5816  0.8086
 4812SOL    HW225896   3.651   4.183  10.210  1.1524 -2.1407  0.5183
 4813SOL     OW25897   0.038   0.921  13.678 -0.1004 -0.4263 -0.3251
 4813SOL    HW125898   0.007   0.831  13.669 -0.0228 -0.7425  2.5554
 4813SOL    HW225899   0.013   0.945  13.767  0.2007 -0.2250 -0.2945
 4814SOL     OW25900   4.590   2.882  11.171 -0.5905 -0.3369  0.2947
 4814SOL    HW125901   4.533   2.816  11.210  0.4932 -1.0290  0.7057
 4814SOL    HW225902   4.675   2.837  11.169 -0.2136  0.3260  1.7283
 4815SOL     OW25903   1.690   3.284   9.925 -0.2692 -0.1554 -0.0281
 4815SOL    HW125904   1.741   3.329   9.992  1.9951 -1.0805 -1.1190
 4815SOL    HW225905   1.599   3.299   9.949 -0.3753 -1.6264  0.4807
 4816SOL     OW25906   4.307   0.529   5.292 -0.4221  0.7366  0.5223
 4816SOL    HW125907   4.227   0.501   5.247 -1.2592  1.6301  1.4415
 4816SOL    HW225908   4.342   0.585   5.223  0.0128  1.1704  1.0988
 4817SOL     OW25909   0.668   2.602   3.826  0.9573 -0.2177  0.2081
 4817SOL    HW125910   0.748   2.549   3.827  1.6369  0.8188  0.5011
 4817SOL    HW225911   0.632   2.584   3.913  1.7425 -0.8342  0.4071
 4818SOL     OW25912   4.068   2.998  16.397 -0.1263 -0.1330 -0.4615
 4818SOL    HW125913   4.010   3.023  16.325  0.1775 -0.3115 -0.7685
 4818SOL    HW225914   4.114   3.080  16.413  2.1475 -1.5903  0.3875
 4819SOL     OW25915   3.017   2.996   0.945  0.2655 -0.1304 -0.5369
 4819SOL    HW125916   3.019   2.919   1.001 -1.0373  0.6008  0.5406
 4819SOL    HW225917   3.041   2.963   0.859  0.1096 -1.7117  0.0236
 4820SOL     OW25918   1.507   3.413   0.038 -0.0618  0.5499  0.0323
 4820SOL    HW125919   1.579   3.351   0.027 -0.9145 -0.4008 -0.2297
 4820SOL    HW225920   1.486   3.435  17.648  1.1034 -0.0768 -0.3876
 4821SOL     OW25921   1.656   1.682   5.449  0.0619  0.0955  0.8229
 4821SOL    HW125922   1.629   1.722   5.367  1.7195  1.5376  0.9813
 4821SOL    HW225923   1.746   1.713   5.446  0.4121 -0.9642  0.3979
 4822SOL     OW25924   1.165   4.513   6.622  0.0199 -0.3772  0.6498
 4822SOL    HW125925   1.111   4.444   6.584 -0.5920  0.5462 -0.1622
 4822SOL    HW225926   1.168   4.497   6.716  0.9322 -2.7827  0.2059
 4823SOL     OW25927   3.553   0.407   3.607 -0.2731 -0.7298  0.5068
 4823SOL    HW125928   3.611   0.359   3.667  1.3443 -1.8904 -1.9340
 4823SOL    HW225929   3.523   0.482   3.657  0.1312 -0.5822  0.5311
 4824SOL     OW25930   1.148   1.091   7.660 -0.4019  0.5666  0.2589
 4824SOL    HW125931   1.110   1.138   7.734  0.3560  4.4432 -1.8068
 4824SOL    HW225932   1.069   1.065   7.613 -0.3926 -1.6360  1.4841
 4825SOL     OW25933   1.502   4.179   5.875  0.2595  0.0734  0.0437
 4825SOL    HW125934   1.469   4.256   5.922  0.7873 -0.2509  0.9437
 4825SOL    HW225935   1.421   4.131   5.857  1.6290 -1.9925 -0.5160
 4826SOL     OW25936   4.115   0.153   7.285 -0.0110 -0.0486 -0.4186
 4826SOL    HW125937   4.113   0.147   7.380 -0.0825  0.0884 -0.4113
 4826SOL    HW225938   4.111   0.249   7.283 -2.2073 -0.1412 -0.3132
 4827SOL     OW25939   3.964   1.380  11.220 -0.5957 -0.2490 -0.2861
 4827SOL    HW125940   3.887   1.433  11.239 -0.5670  0.1654 -1.3317
 4827SOL    HW225941   4.036   1.440  11.241 -1.0448 -0.5138  1.9999
 4828SOL     OW25942   3.706   1.403  10.231  0.2408  0.1806  0.6642
 4828SOL    HW125943   3.798   1.419  10.248  0.5775  0.2796 -1.3035
 4828SOL    HW225944   3.683   1.328  10.286 -1.7271  0.0877 -0.2687
 4829SOL     OW25945   0.778   0.385  12.596  0.4083 -0.1130 -0.3937
 4829SOL    HW125946   0.714   0.314  12.604  0.5812 -0.3862 -1.5055
 4829SOL    HW225947   0.835   0.362  12.523  2.2693  0.9314  0.7384
 4830SOL     OW25948   3.518   3.412   7.883  1.1092  0.1365  0.1189
 4830SOL    HW125949   3.480   3.379   7.965 -0.1596  1.2534 -0.0016
 4830SOL    HW225950   3.439   3.421   7.830  1.2258 -0.6610 -0.1899
 4831SOL     OW25951   4.504   3.248   6.091 -0.4019  0.3065 -0.0195
 4831SOL    HW125952   4.483   3.196   6.013 -0.1639  1.6118 -0.9635
 4831SOL    HW225953   4.599   3.256   6.090 -0.4785  1.2907  0.5904
 4832SOL     OW25954   2.646   3.479  11.335 -0.4741  0.0030  0.3690
 4832SOL    HW125955   2.642   3.573  11.350  1.1816  0.4042 -1.6662
 4832SOL    HW225956   2.659   3.475  11.240  0.0280 -3.0555  0.5768
 4833SOL     OW25957   3.332   3.623   6.011 -0.3245  0.2708  0.1394
 4833SOL    HW125958   3.268   3.558   5.984 -1.2307  1.2540 -0.0791
 4833SOL    HW225959   3.410   3.577   5.979 -0.2794  0.1216  0.4651
 4834SOL     OW25960   1.421   0.659   0.183  0.5290 -0.0678 -0.0736
 4834SOL    HW125961   1.337   0.614   0.187 -0.2227  1.0940 -3.3992
 4834SOL    HW225962   1.412   0.735   0.240  0.3991  0.2310 -0.4956
 4835SOL     OW25963   1.216   3.267   5.330 -0.0989  1.1234  0.4785
 4835SOL    HW125964   1.135   3.297   5.371 -1.4627 -0.2360 -1.2146
 4835SOL    HW225965   1.195   3.179   5.299  0.7965  0.9319  0.4169
 4836SOL     OW25966   1.110   3.351   6.232  0.6008 -0.1417  0.0935
 4836SOL    HW125967   1.141   3.403   6.157  0.7713  1.1955  1.0983
 4836SOL    HW225968   1.186   3.301   6.258  1.6483  0.2458 -2.1674
 4837SOL     OW25969   4.276   1.276  11.933  0.7834 -0.0492  0.1084
 4837SOL    HW125970   4.298   1.263  12.025  1.5334 -0.1606 -0.0915
 4837SOL    HW225971   4.343   1.227  11.887 -0.0734 -1.4631  0.3678
 4838SOL     OW25972   0.632   3.950   6.564  0.3933 -0.4105  0.5358
 4838SOL    HW125973   0.662   3.863   6.536  0.0619 -0.3620  0.0353
 4838SOL    HW225974   0.552   3.926   6.612  1.4933 -0.5969  2.2789
 4839SOL     OW25975   2.879   2.575  10.411 -0.2770 -0.0782  0.2741
 4839SOL    HW125976   2.880   2.643  10.478 -1.1589 -0.2484  0.4590
 4839SOL    HW225977   2.921   2.634  10.348  0.1047 -0.1020  0.5098
 4840SOL     OW25978   0.228   3.035   4.959 -0.7238  0.6589  0.3246
 4840SOL    HW125979   0.292   3.013   4.891 -1.2320  2.0292 -0.5930
 4840SOL    HW225980   0.152   2.988   4.926 -1.0607  0.3465  1.5720
 4841SOL     OW25981   1.750   2.742   8.493  0.4831  0.3005 -0.5965
 4841SOL    HW125982   1.739   2.753   8.398  2.8849 -0.0938 -0.9379
 4841SOL    HW225983   1.844   2.723   8.501  0.4689  0.9134  0.9757
 4842SOL     OW25984   1.495   0.313   4.512  0.2480  0.3001 -0.3067
 4842SOL    HW125985   1.588   0.296   4.500 -0.3258 -1.8011 -1.7804
 4842SOL    HW225986   1.467   0.240   4.568  0.2152 -0.8355 -1.7898
 4843SOL     OW25987   3.789   0.353   0.975  0.3279 -0.0402  0.3074
 4843SOL    HW125988   3.745   0.432   1.006  1.2111  0.1959  0.9529
 4843SOL    HW225989   3.862   0.385   0.923 -0.7117  0.4209 -0.8782
 4844SOL     OW25990   1.870   3.048   0.747  0.3032  0.1953  0.7204
 4844SOL    HW125991   1.784   3.030   0.710 -0.3801  3.2209  0.8441
 4844SOL    HW225992   1.927   3.025   0.673 -2.0098 -1.6634 -0.4799
 4845SOL     OW25993   3.464   0.874   5.601  0.2996  0.1194  0.1535
 4845SOL    HW125994   3.496   0.785   5.587  1.7159  0.5420  0.6524
 4845SOL    HW225995   3.389   0.859   5.659  0.1163  1.2201  0.2092
 4846SOL     OW25996   3.616   3.885   6.075 -0.3802  0.1650 -0.3019
 4846SOL    HW125997   3.615   3.939   5.996  1.4925  1.5462  0.6282
 4846SOL    HW225998   3.524   3.894   6.099  0.6798 -0.3863  3.9569
 4847SOL     OW25999   2.608   2.080   9.379 -0.0987 -0.3759  0.7103
 4847SOL    HW126000   2.522   2.107   9.411  1.0445  1.8414  1.8709
 4847SOL    HW226001   2.656   2.161   9.392  0.1578 -0.6357  1.3873
 4848SOL     OW26002   4.315   4.370   1.893  0.4419 -0.2908  0.2309
 4848SOL    HW126003   4.313   4.285   1.848 -0.2411 -0.5947  0.8464
 4848SOL    HW226004   4.266   4.353   1.973 -0.2244  2.1101  0.3419
 4849SOL     OW26005   3.097   3.644   4.781 -0.2447 -0.0234 -0.3283
 4849SOL    HW126006   3.112   3.716   4.842  1.5509 -2.6665  2.3624
 4849SOL    HW226007   3.022   3.598   4.820 -0.3594 -0.0106 -0.5317
 4850SOL     OW26008   1.416   3.756   6.234 -0.1217 -0.0149  0.1462
 4850SOL    HW126009   1.397   3.849   6.247 -1.4801 -0.2021 -0.4958
 4850SOL    HW226010   1.505   3.749   6.199 -0.6400  2.2902 -1.6663
 4851SOL     OW26011   0.696   3.909   0.486 -0.4069 -0.0746 -0.5160
 4851SOL    HW126012   0.787   3.908   0.455 -0.7399 -2.0216 -1.4212
 4851SOL    HW226013   0.667   3.829   0.443  0.1722 -0.2852 -0.5122
 4852SOL     OW26014   1.742   3.758   4.792  0.1276  0.5398  0.0535
 4852SOL    HW126015   1.743   3.847   4.828 -4.2369  0.3021  0.7605
 4852SOL    HW226016   1.665   3.778   4.739 -0.2211  0.7946  0.6499
 4853SOL     OW26017   4.033   2.740  15.349 -0.2561 -0.3311  0.2858
 4853SOL    HW126018   4.103   2.741  15.284 -0.3212  2.9662  0.2808
 4853SOL    HW226019   4.016   2.833  15.361 -3.4188 -0.7214 -1.0904
 4854SOL     OW26020   2.663   1.350   2.039 -0.0958 -0.2256 -0.7420
 4854SOL    HW126021   2.690   1.258   2.039 -1.0806 -0.5278 -2.2417
 4854SOL    HW226022   2.589   1.348   2.100 -0.3384 -1.5743 -1.0653
 4855SOL     OW26023   3.265   2.642  11.577  0.9824 -0.5701  0.1197
 4855SOL    HW126024   3.329   2.714  11.580 -0.8012  1.0509 -0.3232
 4855SOL    HW226025   3.283   2.581  11.648  0.4736  1.5209  2.0280
 4856SOL     OW26026   2.000   3.525   2.437 -0.1786  0.4488 -0.2885
 4856SOL    HW126027   2.071   3.498   2.495 -0.5242 -1.1776 -0.6148
 4856SOL    HW226028   1.958   3.440   2.423  0.7700  0.1083 -0.9956
 4857SOL     OW26029   3.149   0.973  15.190  0.0893  0.5029  0.2061
 4857SOL    HW126030   3.108   0.887  15.182  2.7186 -0.9489  2.3761
 4857SOL    HW226031   3.126   1.011  15.105  1.0785 -1.2320 -0.8546
 4858SOL     OW26032   2.366   1.880   3.540 -0.1587 -0.4440 -0.4694
 4858SOL    HW126033   2.295   1.919   3.591  0.4679  0.4108 -0.2510
 4858SOL    HW226034   2.435   1.880   3.606  0.4684 -1.0806 -1.1239
 4859SOL     OW26035   1.646   2.078   8.581 -0.4582 -0.2898  0.1194
 4859SOL    HW126036   1.704   2.104   8.652  0.7594 -1.5147 -0.4050
 4859SOL    HW226037   1.683   2.137   8.515  0.6599 -0.9697  0.1308
 4860SOL     OW26038   2.254   4.691  16.524  0.0844 -0.4862 -0.7019
 4860SOL    HW126039   2.322   4.625  16.529  0.4914 -0.1659 -2.0532
 4860SOL    HW226040   2.313   0.040  16.542 -2.4530  1.3862 -0.0643
 4861SOL     OW26041   4.253   3.150  15.556 -0.2391  0.8583 -0.0295
 4861SOL    HW126042   4.205   3.161  15.474  1.0239  1.8978 -0.6207
 4861SOL    HW226043   4.315   3.223  15.552  2.7184 -1.5700  0.8603
 4862SOL     OW26044   0.010   2.816   5.294 -0.4140  0.3379  0.3294
 4862SOL    HW126045   0.098   2.814   5.256  0.0326 -1.4373  1.4878
 4862SOL    HW226046   4.717   2.729   5.329  0.8662  0.0341  0.2358
 4863SOL     OW26047   0.917   0.193   8.308 -0.0997 -0.2819 -0.0966
 4863SOL    HW126048   0.846   0.219   8.249  0.0281 -1.4220 -0.7608
 4863SOL    HW226049   0.988   0.182   8.244 -0.8545 -1.1961 -0.7712
 4864SOL     OW26050   4.394   3.187   5.049 -0.3383 -0.4216  0.3167
 4864SOL    HW126051   4.355   3.172   4.963 -0.3356  2.1737 -0.1484
 4864SOL    HW226052   4.413   3.098   5.080  0.9888 -0.0717  0.5173
 4865SOL     OW26053   3.186   3.990   4.413  0.2233 -0.1094  0.2425
 4865SOL    HW126054   3.244   4.065   4.422 -0.7312  0.6420  0.2044
 4865SOL    HW226055   3.114   4.002   4.476 -0.1639  1.7113 -0.5549
 4866SOL     OW26056   1.426   2.336  14.692  0.0701  0.1576  0.1741
 4866SOL    HW126057   1.340   2.363  14.660  0.9128  1.0750 -1.3186
 4866SOL    HW226058   1.452   2.277  14.621  1.4181  0.2063  0.6203
 4867SOL     OW26059   3.259   2.232   7.266 -0.7593 -0.4832  0.4445
 4867SOL    HW126060   3.288   2.306   7.213 -1.0840 -0.3331  0.4740
 4867SOL    HW226061   3.275   2.249   7.359 -2.2081 -0.7936  0.7512
 4868SOL     OW26062   3.728   3.533   2.027  0.0412 -0.8336 -0.0425
 4868SOL    HW126063   3.639   3.499   2.018 -0.5054  0.3307  0.9360
 4868SOL    HW226064   3.755   3.521   1.936  1.8608 -1.6437  0.6092
 4869SOL     OW26065   0.590   2.355   8.719  0.2552 -0.5998  0.0609
 4869SOL    HW126066   0.573   2.438   8.765 -0.3795 -0.4644 -0.4180
 4869SOL    HW226067   0.560   2.306   8.796 -3.5856 -0.9894 -1.6607
 4870SOL     OW26068   1.164   2.244   0.312  0.1306  0.2679  0.3105
 4870SOL    HW126069   1.148   2.154   0.284  0.7358 -0.2918  1.7197
 4870SOL    HW226070   1.083   2.285   0.283 -0.5515 -2.3578 -1.4042
 4871SOL     OW26071   3.335   0.656   2.883  0.2056  0.1062 -0.3237
 4871SOL    HW126072   3.308   0.693   2.799 -0.1405 -1.6642 -0.9821
 4871SOL    HW226073   3.395   0.587   2.854 -0.3207  0.1172 -1.4159
 4872SOL     OW26074   3.395   1.674   4.018  0.0170 -0.5172  0.7426
 4872SOL    HW126075   3.455   1.704   3.950 -1.8938  0.9053 -0.3063
 4872SOL    HW226076   3.451   1.634   4.084  0.3128  0.8551  1.3164
 4873SOL     OW26077   2.221   2.348   5.087  0.2023  0.1719 -0.2121
 4873SOL    HW126078   2.147   2.288   5.089 -0.0956  0.5642  0.6604
 4873SOL    HW226079   2.293   2.284   5.090  1.0009  1.1435  1.1820
 4874SOL     OW26080   1.532   4.251  15.507  0.3908  0.2212  0.1359
 4874SOL    HW126081   1.447   4.226  15.541 -0.0764  1.8201  0.1411
 4874SOL    HW226082   1.569   4.293  15.586  2.4254  0.0271 -0.6982
 4875SOL     OW26083   2.369   4.368   4.461  0.0024 -0.3765  0.5486
 4875SOL    HW126084   2.291   4.313   4.471  0.3253 -0.8607  0.3683
 4875SOL    HW226085   2.358   4.434   4.529 -0.5773  1.7185 -1.5516
 4876SOL     OW26086   4.694   2.759  12.328  0.0786 -0.0255  0.0910
 4876SOL    HW126087   4.699   2.771  12.423  1.0977  2.5111 -0.2788
 4876SOL    HW226088   0.061   2.742  12.306 -0.3770 -2.4995  0.0464
 4877SOL     OW26089   1.552   2.789   1.961 -0.1219 -0.1490  1.0303
 4877SOL    HW126090   1.490   2.775   1.889  3.7757 -0.0408 -2.3589
 4877SOL    HW226091   1.551   2.703   2.004 -1.0345 -0.9232 -0.5165
 4878SOL     OW26092   3.448   1.901   0.443  0.9522 -0.0477 -0.0939
 4878SOL    HW126093   3.526   1.954   0.427  2.0398 -1.7099 -0.2025
 4878SOL    HW226094   3.397   1.899   0.361  2.4838  0.7032 -1.0594
 4879SOL     OW26095   3.966   2.950   0.072  1.0395 -0.5788  0.3584
 4879SOL    HW126096   4.012   2.929  17.691  1.2626 -1.3700  0.6851
 4879SOL    HW226097   4.034   2.977   0.133  1.2730  1.7309 -0.9039
 4880SOL     OW26098   3.320   1.470   4.687  0.0700  0.1937  0.1874
 4880SOL    HW126099   3.361   1.545   4.729  0.8201  0.8294 -1.6687
 4880SOL    HW226100   3.304   1.409   4.758 -1.4234  0.3307 -0.0097
 4881SOL     OW26101   0.908   4.272   8.433  0.2342  0.0726 -0.0272
 4881SOL    HW126102   0.814   4.257   8.426  0.1274  0.0994  1.3081
 4881SOL    HW226103   0.943   4.185   8.449 -0.6144 -0.1896  0.3994
 4882SOL     OW26104   2.094   0.589  10.076 -0.2441 -0.4975  0.0482
 4882SOL    HW126105   2.013   0.560  10.119 -0.0202 -2.0677 -0.5922
 4882SOL    HW226106   2.111   0.676  10.113  1.1755 -2.2216  3.4869
 4883SOL     OW26107   2.056   1.978  13.722 -0.5010 -0.8045  0.6532
 4883SOL    HW126108   2.062   1.973  13.818 -0.4254  0.1974  0.7041
 4883SOL    HW226109   2.113   2.051  13.697 -0.2732 -2.1009 -2.5002
 4884SOL     OW26110   3.685   3.458   0.420  0.1522  0.1753  0.0156
 4884SOL    HW126111   3.661   3.545   0.390  0.8199  0.7393  1.1259
 4884SOL    HW226112   3.620   3.403   0.377 -0.9982  1.0745  0.6019
 4885SOL     OW26113   1.419   2.582   0.023  0.0935  0.2545 -0.6557
 4885SOL    HW126114   1.458   2.575   0.110 -1.2918  0.0748 -0.0420
 4885SOL    HW226115   1.500   2.578  17.673 -0.7711  2.5488 -2.1528
 4886SOL     OW26116   2.813   4.698   8.020  0.5106  0.3618  0.1902
 4886SOL    HW126117   2.822   4.646   8.100  0.9263  0.5189  0.2457
 4886SOL    HW226118   2.728   4.667   7.988  0.8527 -0.1919 -0.1648
 4887SOL     OW26119   2.130   4.068   3.669  0.4767  0.2073  0.5054
 4887SOL    HW126120   2.049   4.091   3.623  0.3029 -1.1196  0.1418
 4887SOL    HW226121   2.092   4.014   3.738  1.4284 -0.0679  0.8103
 4888SOL     OW26122   1.411   0.719   9.068 -0.4293  0.3331  0.1930
 4888SOL    HW126123   1.444   0.799   9.110 -0.4687  1.2724 -1.5968
 4888SOL    HW226124   1.328   0.748   9.031 -1.0916 -1.3469  0.3773
 4889SOL     OW26125   0.337   1.906   4.622 -0.1202 -0.2611  0.0806
 4889SOL    HW126126   0.318   1.880   4.712  1.2434 -1.6842 -0.0414
 4889SOL    HW226127   0.402   1.840   4.599 -0.3773 -0.1639 -0.9602
 4890SOL     OW26128   4.272   0.503   2.800  0.1833  0.2196 -0.1003
 4890SOL    HW126129   4.273   0.561   2.877  3.0582  0.8226 -0.5743
 4890SOL    HW226130   4.301   0.557   2.727  2.0633  0.2252  0.6333
 4891SOL     OW26131   0.912   2.143   9.362 -0.1342  0.0827  0.1259
 4891SOL    HW126132   0.894   2.073   9.298 -0.8559 -0.6652  1.1496
 4891SOL    HW226133   0.912   2.106   9.450  0.5971 -0.6765 -0.1835
 4892SOL     OW26134   0.978   2.743   6.585 -0.0420 -0.1376  0.0640
 4892SOL    HW126135   0.891   2.705   6.573 -0.1956  0.1712  0.2013
 4892SOL    HW226136   1.031   2.664   6.573  0.6531  0.6195 -1.8329
 4893SOL     OW26137   0.202   1.022   6.330  0.3760  0.2996 -0.0587
 4893SOL    HW126138   0.153   1.090   6.283  0.9769  1.3397  0.8229
 4893SOL    HW226139   0.226   0.968   6.255  1.9043  1.8324 -0.6669
 4894SOL     OW26140   0.700   0.860   4.424  0.2249  0.0863 -0.0524
 4894SOL    HW126141   0.664   0.775   4.448  1.6504 -0.7730 -0.9649
 4894SOL    HW226142   0.786   0.851   4.466 -0.3492 -3.6572  0.3029
 4895SOL     OW26143   0.562   1.537   7.991  0.1693 -0.3162 -0.3402
 4895SOL    HW126144   0.480   1.541   8.040  0.2467 -1.3239 -0.1397
 4895SOL    HW226145   0.535   1.535   7.899  4.0250  1.0231 -1.4780
 4896SOL     OW26146   0.934   2.309   1.945  0.0798 -0.2349 -0.4794
 4896SOL    HW126147   0.983   2.308   1.863  0.1384 -2.8536 -0.4233
 4896SOL    HW226148   0.925   2.214   1.957 -0.8173 -0.2826 -1.5135
 4897SOL     OW26149   1.126   2.748   7.504 -0.2341 -0.2499 -0.2880
 4897SOL    HW126150   1.149   2.691   7.429 -1.1301  2.0306 -2.2779
 4897SOL    HW226151   1.044   2.715   7.541 -0.6249  0.5532 -0.4483
 4898SOL     OW26152   3.522   2.897   6.516  0.4394 -0.0339 -0.0975
 4898SOL    HW126153   3.523   2.964   6.585 -0.4505 -1.1017  0.9707
 4898SOL    HW226154   3.459   2.836   6.554  0.2157  1.2624  1.6630
 4899SOL     OW26155   3.446   2.628   2.757  0.2699  0.4987  0.1195
 4899SOL    HW126156   3.499   2.553   2.781 -0.9557  0.8722  3.8976
 4899SOL    HW226157   3.433   2.666   2.844 -1.4825 -1.0758  0.5510
 4900SOL     OW26158   3.739   4.369   2.075  0.4101  0.1100  0.2435
 4900SOL    HW126159   3.801   4.354   2.003  1.6991  1.9746  0.9810
 4900SOL    HW226160   3.752   4.288   2.124 -0.1706  0.2637  0.6540
 4901SOL     OW26161   0.853   2.464   5.075  0.4735 -0.1949  0.0725
 4901SOL    HW126162   0.796   2.501   5.142  0.3243  1.0405 -0.7484
 4901SOL    HW226163   0.883   2.542   5.029  2.2419  0.7465  2.8397
 4902SOL     OW26164   2.021   3.018  10.655  0.3232  0.6393  0.1599
 4902SOL    HW126165   2.111   3.019  10.687  0.7110  1.3387 -0.9394
 4902SOL    HW226166   2.039   2.974  10.572  0.9889  0.4206  0.4213
 4903SOL     OW26167   2.993   2.573   3.113 -0.3126  0.5257  0.1000
 4903SOL    HW126168   3.016   2.647   3.056 -2.8672  1.3958  0.2142
 4903SOL    HW226169   2.898   2.574   3.099 -0.0707  1.9489 -1.4094
 4904SOL     OW26170   3.089   4.527   7.745  0.3035  0.4379 -0.1046
 4904SOL    HW126171   3.135   4.596   7.699  1.2862  0.5045  0.9833
 4904SOL    HW226172   3.082   4.460   7.677  0.3643  0.3154  0.0084
 4905SOL     OW26173   3.124   1.336   1.645 -0.2446 -0.4628  0.3729
 4905SOL    HW126174   3.042   1.290   1.630 -0.6052 -0.1635  1.4061
 4905SOL    HW226175   3.176   1.259   1.673 -2.1166 -1.1863  1.8531
 4906SOL     OW26176   1.437   1.639   6.688  0.2078  0.1550 -0.2121
 4906SOL    HW126177   1.464   1.581   6.617 -0.6193 -1.1396  0.5414
 4906SOL    HW226178   1.460   1.585   6.764 -1.0448 -1.0354 -0.6832
 4907SOL     OW26179   1.082   0.185   8.666  0.1183 -0.7882  0.3409
 4907SOL    HW126180   1.112   0.231   8.744 -0.6921  1.4504 -0.6578
 4907SOL    HW226181   1.147   0.233   8.614 -1.2980  0.5322 -0.2025
 4908SOL     OW26182   1.242   0.237   0.184 -0.0224 -0.6504 -0.5319
 4908SOL    HW126183   1.334   0.230   0.211  0.4484  0.7032 -1.7813
 4908SOL    HW226184   1.248   0.177   0.110  0.1642 -1.4459  0.1286
 4909SOL     OW26185   1.647   4.477   7.580  0.2398  0.0708 -0.5156
 4909SOL    HW126186   1.657   4.572   7.589 -0.3461 -0.1253  2.1760
 4909SOL    HW226187   1.697   4.445   7.655 -0.4060  2.0767  0.7772
 4910SOL     OW26188   1.543   2.177  14.915 -0.1742 -0.1721  0.5627
 4910SOL    HW126189   1.481   2.228  14.863  0.7478  0.7575  0.3817
 4910SOL    HW226190   1.578   2.118  14.848 -2.0893 -0.3548 -0.2834
 4911SOL     OW26191   1.147   4.357   6.267 -0.0313  0.4774 -0.4058
 4911SOL    HW126192   1.227   4.327   6.310  0.3524  2.2829  0.1685
 4911SOL    HW226193   1.082   4.340   6.336 -2.0136  3.3949 -1.5147
 4912SOL     OW26194   1.005   1.643   2.806  0.1618  0.0703 -0.2150
 4912SOL    HW126195   0.934   1.636   2.742 -1.0359 -1.4361  1.2739
 4912SOL    HW226196   1.068   1.683   2.747 -1.1499  0.7394 -1.1615
 4913SOL     OW26197   0.769   3.104   8.633 -0.5941 -0.5934  0.0444
 4913SOL    HW126198   0.745   3.188   8.595  1.0427 -0.0253  0.2714
 4913SOL    HW226199   0.848   3.121   8.684 -0.0537 -1.1660 -0.6046
 4914SOL     OW26200   2.789   1.012  10.592 -0.0115  0.0483 -0.6809
 4914SOL    HW126201   2.785   0.954  10.517  0.0997 -2.9266  1.6188
 4914SOL    HW226202   2.720   1.074  10.567  1.7125  1.7873 -1.1537
 4915SOL     OW26203   3.716   2.225   5.667  0.3621 -0.2936 -0.2952
 4915SOL    HW126204   3.681   2.136   5.674 -1.7681  0.4895 -1.1860
 4915SOL    HW226205   3.701   2.253   5.758  0.2872 -0.7615 -0.1656
 4916SOL     OW26206   2.590   1.427   4.872 -0.3157  0.3161  0.2966
 4916SOL    HW126207   2.599   1.482   4.950  1.7442 -0.1900  0.4124
 4916SOL    HW226208   2.647   1.351   4.888  0.5949  1.3126  1.8027
 4917SOL     OW26209   1.515   2.380   8.263 -0.7948  0.7153  0.3318
 4917SOL    HW126210   1.435   2.352   8.307  0.0304 -0.2759  1.2063
 4917SOL    HW226211   1.569   2.319   8.313  0.2714  0.6927 -0.8626
 4918SOL     OW26212   3.115   0.649   0.874 -0.3928 -0.5719 -0.0683
 4918SOL    HW126213   3.194   0.627   0.924  0.3011 -0.0027 -0.9089
 4918SOL    HW226214   3.086   0.728   0.920 -1.3109 -1.2288  0.4918
 4919SOL     OW26215   2.186   4.559   9.627 -0.2856 -0.0593  0.0518
 4919SOL    HW126216   2.146   4.645   9.617 -1.4056 -0.4261  1.3999
 4919SOL    HW226217   2.235   4.553   9.545 -0.0877  0.8928  0.1074
 4920SOL     OW26218   4.022   1.000   7.481 -0.1900  0.0879 -0.3249
 4920SOL    HW126219   3.953   0.939   7.455 -0.7886  0.5280  0.2364
 4920SOL    HW226220   4.041   1.042   7.397 -2.0398  0.1434 -0.7107
 4921SOL     OW26221   3.751   1.221   6.726 -0.4399  0.5703  0.1783
 4921SOL    HW126222   3.713   1.307   6.742  1.2560  1.0977  1.3110
 4921SOL    HW226223   3.752   1.225   6.630 -2.3079  1.8257  0.2001
 4922SOL     OW26224   0.267   1.973   2.851 -0.1914 -0.1712 -0.2254
 4922SOL    HW126225   0.265   2.064   2.821 -1.5623 -0.9956 -2.5465
 4922SOL    HW226226   0.188   1.946   2.805  0.2735 -0.9879 -0.5456
 4923SOL     OW26227   3.192   2.193   8.339 -0.4156  0.7012 -0.2421
 4923SOL    HW126228   3.114   2.180   8.286  1.5752 -0.2495 -2.9696
 4923SOL    HW226229   3.237   2.111   8.322  2.2408  1.5777  2.4063
 4924SOL     OW26230   1.604   4.263   1.905  0.5284  0.1036  0.0644
 4924SOL    HW126231   1.559   4.335   1.860 -0.4201 -1.2946 -1.2158
 4924SOL    HW226232   1.619   4.301   1.991  1.8297  0.4578 -0.3139
 4925SOL     OW26233   1.851   2.968   1.568  0.1864  0.2515  0.2833
 4925SOL    HW126234   1.864   3.043   1.627  3.3753  0.4264 -0.6068
 4925SOL    HW226235   1.909   2.987   1.494  1.1968 -2.3261  0.4093
 4926SOL     OW26236   2.830   2.823   1.539  0.0698  0.0003  0.4177
 4926SOL    HW126237   2.773   2.899   1.526 -0.1590 -0.4218 -1.0716
 4926SOL    HW226238   2.761   2.757   1.529 -0.3768  0.6941 -1.1911
 4927SOL     OW26239   4.249   0.053   7.977  0.4615  0.5830  0.5016
 4927SOL    HW126240   4.246   0.026   8.068 -1.7122  0.7442  0.4644
 4927SOL    HW226241   4.289   4.700   7.939  0.3278  1.1337 -0.7763
 4928SOL     OW26242   1.464   1.433   6.869 -0.0841 -0.5629  0.1007
 4928SOL    HW126243   1.508   1.351   6.847  1.7161  0.0650  1.3869
 4928SOL    HW226244   1.405   1.400   6.937  0.6499  0.0900  1.0470
 4929SOL     OW26245   3.289   2.838   4.204 -0.0173  0.1282  0.2123
 4929SOL    HW126246   3.248   2.859   4.120  0.4456 -0.4152 -0.1466
 4929SOL    HW226247   3.317   2.747   4.199  0.0707  0.1645  0.0480
 4930SOL     OW26248   2.173   1.045  14.974  0.0664  0.2916 -0.2448
 4930SOL    HW126249   2.110   1.117  14.969  1.0568  1.0446 -1.9146
 4930SOL    HW226250   2.200   1.044  15.066  0.1254  0.2922 -0.2616
 4931SOL     OW26251   1.575   0.943   8.841  0.3489 -0.4529  0.0912
 4931SOL    HW126252   1.559   0.923   8.933  0.2553  0.2594  0.2273
 4931SOL    HW226253   1.610   1.032   8.847 -0.2735 -0.1526 -0.7040
 4932SOL     OW26254   1.290   1.308   2.843 -0.3943 -0.8833  0.7237
 4932SOL    HW126255   1.342   1.379   2.806 -0.3140  0.1333  2.7554
 4932SOL    HW226256   1.221   1.300   2.778 -1.3116  2.1661  1.2918
 4933SOL     OW26257   4.312   1.524   8.231  0.3963  0.0578 -0.6928
 4933SOL    HW126258   4.350   1.604   8.195 -0.4068  0.3592 -0.8898
 4933SOL    HW226259   4.251   1.557   8.298  1.2050  0.7457 -0.2882
 4934SOL     OW26260   1.437   0.455  14.941  0.0307 -0.0162  0.4530
 4934SOL    HW126261   1.359   0.407  14.914  1.2987 -1.8385  0.0408
 4934SOL    HW226262   1.431   0.463  15.036  0.0895 -0.4692  0.4963
 4935SOL     OW26263   0.346   2.983   8.989 -0.4477  0.3182  0.0448
 4935SOL    HW126264   0.440   2.983   8.969 -0.3372 -3.4359  0.4649
 4935SOL    HW226265   0.311   2.912   8.935  2.0000  0.2226 -1.4077
 4936SOL     OW26266   3.627   1.305  11.217  0.1693  0.1630 -0.6804
 4936SOL    HW126267   3.666   1.392  11.227 -0.8596  0.3281  1.8526
 4936SOL    HW226268   3.691   1.254  11.265  1.8158  2.4154 -0.5133
 4937SOL     OW26269   0.719   1.406   3.472  0.0802 -0.0114  0.3803
 4937SOL    HW126270   0.653   1.438   3.410  0.7591  0.0788 -0.2964
 4937SOL    HW226271   0.795   1.434   3.421  0.5868 -0.1270  1.0738
 4938SOL     OW26272   4.264   2.645  16.888 -0.8847  0.4281  0.0712
 4938SOL    HW126273   4.303   2.562  16.862  0.5551  1.1865 -0.2160
 4938SOL    HW226274   4.195   2.642  16.822 -3.0854 -1.8765  2.4670
 4939SOL     OW26275   4.196   0.720   4.323  0.5500  0.1438  0.7910
 4939SOL    HW126276   4.193   0.755   4.412 -0.0605  2.5654 -0.1808
 4939SOL    HW226277   4.248   0.787   4.279 -0.9048  0.9405  0.3023
 4940SOL     OW26278   3.514   2.966  17.571 -0.1704 -0.2262  0.6231
 4940SOL    HW126279   3.578   3.010  17.627  2.0477 -0.2312 -1.9226
 4940SOL    HW226280   3.551   2.878  17.566  2.5633  0.8864  1.1590
 4941SOL     OW26281   3.734   3.521  17.241  0.1992  0.5030 -0.4958
 4941SOL    HW126282   3.713   3.596  17.296 -1.5615  1.6468 -2.7121
 4941SOL    HW226283   3.751   3.576  17.165  0.6109 -0.2483 -0.9481
 4942SOL     OW26284   0.498   3.645   5.064 -0.3282  0.1648 -0.6744
 4942SOL    HW126285   0.435   3.656   4.992 -0.6451 -0.6576 -0.5251
 4942SOL    HW226286   0.520   3.737   5.078  2.9989 -0.6283 -0.7370
 4943SOL     OW26287   0.227   2.639   7.573  0.1953  0.2209 -0.0618
 4943SOL    HW126288   0.162   2.598   7.630 -1.4647 -0.3401 -2.3520
 4943SOL    HW226289   0.202   2.591   7.494  0.0728 -0.3122  0.3005
 4944SOL     OW26290   0.059   2.788   6.889  0.3793 -0.2013 -0.5296
 4944SOL    HW126291   4.725   2.843   6.940  0.2510 -0.3042 -0.5650
 4944SOL    HW226292   0.006   2.722   6.844 -0.1275 -0.6529  0.7165
 4945SOL     OW26293   3.750   4.303   3.194  0.3879  0.0321  0.2054
 4945SOL    HW126294   3.810   4.343   3.131 -2.1440 -1.4551 -3.1387
 4945SOL    HW226295   3.812   4.271   3.258 -0.5236 -0.2465  0.9521
 4946SOL     OW26296   2.563   4.127  12.487 -0.2492 -0.3590  0.0604
 4946SOL    HW126297   2.539   4.043  12.450 -0.4427 -1.0198  1.7076
 4946SOL    HW226298   2.628   4.154  12.422 -2.4630  0.7534 -1.6935
 4947SOL     OW26299   3.155   4.342   3.253  0.9518  0.4760 -0.5515
 4947SOL    HW126300   3.127   4.291   3.329 -1.6678  3.6878  0.6339
 4947SOL    HW226301   3.245   4.364   3.275  0.4291  1.0239  1.0661
 4948SOL     OW26302   1.807   2.658  15.134 -0.2355  0.2662  0.0215
 4948SOL    HW126303   1.838   2.691  15.218  1.9449 -1.8330  0.0268
 4948SOL    HW226304   1.713   2.677  15.136 -0.5398 -1.2777 -0.0024
 4949SOL     OW26305   1.413   1.538  13.797  0.4329 -0.4120  0.6044
 4949SOL    HW126306   1.374   1.594  13.730  1.0113 -0.6845  0.0464
 4949SOL    HW226307   1.500   1.512  13.768  1.3909  2.7612  0.7022
 4950SOL     OW26308   4.324   2.710  17.269 -0.0631  0.6780 -0.7370
 4950SOL    HW126309   4.328   2.802  17.243 -1.7143  1.6727  2.6354
 4950SOL    HW226310   4.248   2.673  17.223  0.3072 -1.0295  0.0172
 4951SOL     OW26311   2.695   2.323   2.544 -0.4217 -0.7349  0.7144
 4951SOL    HW126312   2.766   2.264   2.518  1.6929  1.6790  0.9015
 4951SOL    HW226313   2.711   2.396   2.484 -0.5668 -0.1872  1.3485
 4952SOL     OW26314   3.040   2.046   3.307  0.1473 -0.1490  0.3754
 4952SOL    HW126315   3.106   2.001   3.255  1.6974  1.5625  0.8489
 4952SOL    HW226316   3.094   2.094   3.370 -1.0189  3.0550 -1.0566
 4953SOL     OW26317   0.781   2.405  16.241 -0.3548  0.2924  0.5245
 4953SOL    HW126318   0.692   2.431  16.265 -0.5272  0.0522  0.1392
 4953SOL    HW226319   0.819   2.378  16.324  0.3603  4.3461  1.5302
 4954SOL     OW26320   2.078   4.088   3.123 -0.7569  0.1029 -0.4944
 4954SOL    HW126321   2.135   4.023   3.163 -2.1373 -2.6603 -3.0332
 4954SOL    HW226322   2.146   4.156   3.113  1.4626 -2.4609 -2.7355
 4955SOL     OW26323   1.125   4.699   8.416 -0.3458  0.1493 -0.2439
 4955SOL    HW126324   1.115   0.063   8.449 -0.4835  0.8677 -2.2323
 4955SOL    HW226325   1.170   4.663   8.493 -2.1942  0.9516  1.1980
 4956SOL     OW26326   4.686   0.391   8.427 -0.3571 -0.4721  0.0237
 4956SOL    HW126327   4.629   0.418   8.356  0.7749 -1.5097 -1.2676
 4956SOL    HW226328   4.636   0.319   8.464  0.5113 -0.8643  0.4464
 4957SOL     OW26329   2.102   1.944  17.336  0.2219  0.3627  0.0018
 4957SOL    HW126330   2.180   1.928  17.389  0.1086  0.4326  0.1869
 4957SOL    HW226331   2.059   2.012  17.389 -1.9994 -1.3995  0.4557
 4958SOL     OW26332   4.353   2.398   8.769  0.4422 -0.3270  0.4883
 4958SOL    HW126333   4.374   2.490   8.787 -4.1595  0.5420  1.2793
 4958SOL    HW226334   4.259   2.399   8.753  0.2894 -1.0675  1.3516
 4959SOL     OW26335   3.016   2.354   4.879  0.4489 -0.2638  0.2093
 4959SOL    HW126336   3.035   2.323   4.968  1.0112 -2.1850 -0.5799
 4959SOL    HW226337   2.935   2.402   4.896 -0.0232 -0.4584 -1.5475
 4960SOL     OW26338   3.437   1.866   7.041  0.9327 -0.3770 -0.3930
 4960SOL    HW126339   3.508   1.929   7.027  1.0523 -0.5704 -0.6471
 4960SOL    HW226340   3.408   1.864   6.950 -0.5338 -0.9846  0.0927
 4961SOL     OW26341   1.595   1.372   8.354  0.3532 -0.2386  0.2630
 4961SOL    HW126342   1.528   1.438   8.336  1.1095  1.2704  2.9801
 4961SOL    HW226343   1.547   1.289   8.348 -0.5865  0.3892 -0.9005
 4962SOL     OW26344   2.118   0.302  12.617 -0.2616  0.3241 -0.1651
 4962SOL    HW126345   2.156   0.389  12.601  0.2569  0.1163 -0.0845
 4962SOL    HW226346   2.185   0.251  12.664 -0.3551  0.9513  0.6704
 4963SOL     OW26347   1.454   4.132   8.192 -0.8461 -0.0354  0.0031
 4963SOL    HW126348   1.432   4.050   8.235 -1.0701  0.3485  0.6231
 4963SOL    HW226349   1.548   4.139   8.209 -0.3844 -1.6328 -1.8142
 4964SOL     OW26350   2.988   4.505  13.405 -0.6110 -0.6950  0.5944
 4964SOL    HW126351   2.924   4.434  13.406  0.0057 -1.2615 -1.1280
 4964SOL    HW226352   2.936   4.566  13.458 -1.8935 -0.2968 -1.1329
 4965SOL     OW26353   4.277   3.115   6.042  0.3074  0.2988 -0.3891
 4965SOL    HW126354   4.349   3.162   6.084  0.1829  1.3296 -1.3314
 4965SOL    HW226355   4.215   3.184   6.016  1.1741  1.2303  0.0555
 4966SOL     OW26356   1.650   2.408   2.592 -0.1002  0.0158 -0.1724
 4966SOL    HW126357   1.696   2.335   2.551 -1.8129 -2.0667  1.5871
 4966SOL    HW226358   1.726   2.457   2.622  0.6193 -0.9075 -0.4976
 4967SOL     OW26359   0.461   0.344  13.392  0.1649  0.0061 -0.5351
 4967SOL    HW126360   0.469   0.307  13.304 -1.6479  0.1796 -0.7596
 4967SOL    HW226361   0.407   0.271  13.424 -0.0401 -0.6033 -2.2745
 4968SOL     OW26362   1.931   3.325   6.768 -0.0936  0.2388  0.1083
 4968SOL    HW126363   1.953   3.246   6.817  1.8931  0.2134 -0.8098
 4968SOL    HW226364   1.840   3.316   6.743  1.1407 -0.1494 -4.1954
 4969SOL     OW26365   3.614   4.334   1.373 -0.1531  0.3514  0.8849
 4969SOL    HW126366   3.611   4.378   1.288 -1.0074 -0.1434  0.6561
 4969SOL    HW226367   3.626   4.413   1.426 -0.6650 -1.9364  4.4018
 4970SOL     OW26368   2.976   1.069   6.569 -0.7726  0.0027  0.1065
 4970SOL    HW126369   3.050   1.096   6.515 -0.0358  0.1108  1.1601
 4970SOL    HW226370   3.033   1.022   6.630 -0.5181  0.5625  0.2989
 4971SOL     OW26371   0.546   0.406  15.434 -0.3398 -0.1369  0.4332
 4971SOL    HW126372   0.522   0.493  15.402  2.4915  1.1619  1.7963
 4971SOL    HW226373   0.639   0.420  15.453 -0.2029  1.0501 -1.0934
 4972SOL     OW26374   3.733   4.345   3.635 -0.2109 -0.1334 -0.6649
 4972SOL    HW126375   3.680   4.272   3.605 -2.1320  1.6623 -1.6483
 4972SOL    HW226376   3.671   4.399   3.684 -0.5362  1.9861 -3.3721
 4973SOL     OW26377   4.298   1.283  11.432  0.1734 -0.2809  0.0717
 4973SOL    HW126378   4.220   1.236  11.404 -0.3241 -0.6988  2.2304
 4973SOL    HW226379   4.282   1.355  11.370  1.8799  0.5874  0.6331
 4974SOL     OW26380   1.648   1.733   3.445  0.3649 -0.7010 -0.2555
 4974SOL    HW126381   1.558   1.757   3.424 -0.7864 -3.4497  1.5276
 4974SOL    HW226382   1.667   1.790   3.519  0.2861 -1.0615  0.0422
 4975SOL     OW26383   4.411   0.627  12.430 -0.1796 -0.3330  0.4683
 4975SOL    HW126384   4.506   0.615  12.420 -0.1598 -0.2581  0.5739
 4975SOL    HW226385   4.379   0.568  12.361  0.6207  0.2156 -0.3756
 4976SOL     OW26386   4.110   4.211   5.378 -0.1711 -1.0441  0.9783
 4976SOL    HW126387   4.167   4.155   5.325  0.6920  1.3994 -0.7091
 4976SOL    HW226388   4.164   4.216   5.457  1.2878  2.7248 -0.2458
 4977SOL     OW26389   4.194   1.832  12.124 -0.3942 -0.2642 -0.3365
 4977SOL    HW126390   4.121   1.845  12.184  1.0723 -1.2273  1.6587
 4977SOL    HW226391   4.149   1.782  12.056  1.1053  2.0117 -2.9921
 4978SOL     OW26392   0.050   1.192   3.913  0.1238 -0.2290 -0.6950
 4978SOL    HW126393   0.144   1.173   3.913  0.4839  1.5558  1.0511
 4978SOL    HW226394   0.042   1.243   3.832 -0.0483 -1.2191 -1.3111
 4979SOL     OW26395   4.290   0.982  12.985 -0.2725  0.5684 -0.3747
 4979SOL    HW126396   4.294   1.006  12.892 -2.8479  2.2469 -0.0640
 4979SOL    HW226397   4.344   0.904  12.972 -2.6735 -0.8404 -1.8634
 4980SOL     OW26398   3.520   4.101   5.271 -0.1942 -0.4794 -0.1149
 4980SOL    HW126399   3.465   4.036   5.227 -2.0534  1.0598 -0.0287
 4980SOL    HW226400   3.519   4.084   5.365  0.9143 -2.1688 -0.4056
 4981SOL     OW26401   0.866   4.524   4.130 -0.2732 -0.1236 -0.1487
 4981SOL    HW126402   0.894   4.585   4.198 -1.4893  0.5110 -0.2093
 4981SOL    HW226403   0.882   4.437   4.167 -1.2306 -0.0154  0.5300
 4982SOL     OW26404   3.970   4.693   1.742 -0.4872  0.3498 -0.7702
 4982SOL    HW126405   3.985   4.626   1.675 -0.8787 -2.6419  2.1021
 4982SOL    HW226406   3.968   0.046   1.687 -3.2203  1.3740  0.7668
 4983SOL     OW26407   0.133   2.041   9.954  0.0271  0.8804  0.2304
 4983SOL    HW126408   0.052   2.000   9.923  1.2669 -0.7772 -0.7759
 4983SOL    HW226409   0.190   1.965   9.964 -0.8888 -0.0254 -1.3949
 4984SOL     OW26410   4.472   2.710   1.077 -0.1890 -0.0396  0.5877
 4984SOL    HW126411   4.510   2.794   1.050 -2.4263  0.5193 -0.7634
 4984SOL    HW226412   4.479   2.718   1.173  0.1637 -1.4986  0.6891
 4985SOL     OW26413   1.744   3.278   9.650  1.0323 -0.1190  0.3941
 4985SOL    HW126414   1.651   3.287   9.631  0.8104  0.6188  1.8841
 4985SOL    HW226415   1.723   3.272   9.743 -1.3308  0.0285 -0.1385
 4986SOL     OW26416   3.296   2.472  16.399  0.0607 -0.2535  0.1124
 4986SOL    HW126417   3.230   2.421  16.448 -1.6435  0.2159 -1.7055
 4986SOL    HW226418   3.372   2.419  16.423  1.0594  1.1849  0.0546
 4987SOL     OW26419   2.834   0.821   7.506 -0.5569 -0.9235 -0.0428
 4987SOL    HW126420   2.749   0.855   7.535 -1.1092 -3.2232  1.0645
 4987SOL    HW226421   2.901   0.886   7.524  0.0731 -1.3580 -0.8095
 4988SOL     OW26422   3.819   1.021   6.301  0.3409 -0.5482  0.1593
 4988SOL    HW126423   3.914   1.017   6.290  0.2702 -0.3338 -0.5003
 4988SOL    HW226424   3.779   0.968   6.232 -1.2113  0.6189  0.1529
 4989SOL     OW26425   2.374   4.092  10.589 -0.4380  0.7202  0.4457
 4989SOL    HW126426   2.324   4.037  10.650 -3.0316 -0.2674 -2.5305
 4989SOL    HW226427   2.462   4.085  10.627 -0.4071  1.0214  0.4286
 4990SOL     OW26428   1.545   1.778  10.178  0.0285 -0.0437 -0.2215
 4990SOL    HW126429   1.571   1.838  10.247 -0.7410  0.2305 -0.1676
 4990SOL    HW226430   1.455   1.808  10.165  0.5695  1.0294 -1.4547
 4991SOL     OW26431   2.514   4.510   9.153 -0.5433 -0.0008 -0.1779
 4991SOL    HW126432   2.462   4.439   9.117 -0.0156 -0.8808  0.7805
 4991SOL    HW226433   2.543   4.549   9.070 -0.3314  0.0052 -0.1026
 4992SOL     OW26434   3.875   2.872   8.176  0.1822  0.2400 -0.0920
 4992SOL    HW126435   3.898   2.891   8.085 -1.0153 -1.3279 -0.7452
 4992SOL    HW226436   3.926   2.934   8.226 -0.0946 -0.2292  0.7708
 4993SOL     OW26437   3.802   1.253  10.558  0.5813  0.3220 -0.2451
 4993SOL    HW126438   3.716   1.257  10.515  0.0987 -1.0732  0.5955
 4993SOL    HW226439   3.830   1.339  10.527 -1.3838 -0.2365 -3.5481
 4994SOL     OW26440   0.221   2.270   7.576  0.3325  0.3727  0.0949
 4994SOL    HW126441   0.185   2.345   7.529 -2.9044 -0.7693  0.7407
 4994SOL    HW226442   0.214   2.193   7.519 -2.0971 -0.6833  1.7967
 4995SOL     OW26443   3.421   3.385   6.643  0.2758 -0.0964  0.0657
 4995SOL    HW126444   3.363   3.420   6.575  1.1716 -0.3993 -0.8581
 4995SOL    HW226445   3.472   3.459   6.676 -0.3863  0.3358  0.1296
 4996SOL     OW26446   0.751   0.933   7.772  0.0160 -0.3522 -0.3225
 4996SOL    HW126447   0.733   0.999   7.839  0.8592 -0.9315  0.4839
 4996SOL    HW226448   0.725   0.852   7.817 -0.5499  0.5371  0.9410
 4997SOL     OW26449   0.195   4.609   4.675  0.1053  0.5543  0.0849
 4997SOL    HW126450   0.189   4.704   4.667 -0.2627  0.4645 -0.6447
 4997SOL    HW226451   0.178   4.596   4.768  1.4623  0.7776  0.3691
 4998SOL     OW26452   0.004   1.521  15.827  0.0420  0.1059 -0.4416
 4998SOL    HW126453   0.097   1.502  15.814  0.3078  2.7756 -2.5298
 4998SOL    HW226454   4.695   1.432  15.822 -1.1506  0.5607 -0.3303
 4999SOL     OW26455   2.649   4.047   7.634 -0.0999  0.1784  0.3867
 4999SOL    HW126456   2.581   4.002   7.583  0.7469 -0.9856  0.2938
 4999SOL    HW226457   2.627   4.020   7.723  1.2593  1.3160  1.0708
 5000SOL     OW26458   1.950   3.239   1.074  0.1175  0.7168  0.0259
 5000SOL    HW126459   1.886   3.169   1.088 -0.5152  0.8842 -1.9746
 5000SOL    HW226460   1.955   3.284   1.158 -0.5198  0.9805 -0.0800
 5001SOL     OW26461   2.895   0.605   7.017  0.1720 -0.4854 -0.5220
 5001SOL    HW126462   2.852   0.682   7.054  2.5036 -0.0953  1.4257
 5001SOL    HW226463   2.851   0.548   7.080 -2.8062 -0.6814 -2.7922
 5002SOL     OW26464   2.589   1.585   9.341 -0.8115  0.0836  0.1032
 5002SOL    HW126465   2.669   1.534   9.348  0.7331  2.3615 -1.2185
 5002SOL    HW226466   2.627   1.659   9.387 -0.2861  0.7891 -1.4602
 5003SOL     OW26467   0.986   0.019   7.106 -0.4964  0.3157  0.2219
 5003SOL    HW126468   0.989   4.699   7.191 -0.5966  2.2527  1.2407
 5003SOL    HW226469   1.074   4.722   7.075 -1.1366  0.2193 -1.5402
 5004SOL     OW26470   2.784   1.833   5.221 -0.1702  1.1794  0.6014
 5004SOL    HW126471   2.718   1.899   5.242  1.0437  2.8317 -0.6532
 5004SOL    HW226472   2.812   1.829   5.312  1.0948  1.1866  0.2165
 5005SOL     OW26473   0.306   0.900  16.402  0.1277  0.4718 -0.4372
 5005SOL    HW126474   0.303   0.989  16.438 -2.1998 -1.4740  4.2674
 5005SOL    HW226475   0.377   0.863  16.454 -0.6260 -2.4299 -1.4707
 5006SOL     OW26476   3.008   0.065   4.696  0.6314 -0.4008 -0.1483
 5006SOL    HW126477   2.954   0.130   4.741  2.3968  0.9738  0.0032
 5006SOL    HW226478   3.040   0.009   4.766 -0.6787 -1.0889 -0.1070
 5007SOL     OW26479   1.338   0.042  16.584  0.4141 -0.2810 -0.1788
 5007SOL    HW126480   1.409   0.001  16.535  1.4290  2.9013 -1.3690
 5007SOL    HW226481   1.282   0.087  16.521  1.1808  0.8359 -0.0625
 5008SOL     OW26482   3.485   0.157   5.343 -0.1904 -0.1584 -0.1606
 5008SOL    HW126483   3.463   0.093   5.275  1.3840 -1.0583  0.1640
 5008SOL    HW226484   3.542   0.109   5.403  2.2539  3.5056  0.4657
 5009SOL     OW26485   2.800   3.698  10.520  0.5154 -0.1545 -0.0438
 5009SOL    HW126486   2.806   3.732  10.431 -1.8569 -0.2575 -0.2499
 5009SOL    HW226487   2.706   3.678  10.518  0.4359  0.5247 -2.4484
 5010SOL     OW26488   0.346   1.539   4.490  0.0139  0.3564  0.0345
 5010SOL    HW126489   0.350   1.483   4.413 -0.5220  2.4973 -1.5414
 5010SOL    HW226490   0.254   1.522   4.512 -0.4979  3.0685 -0.0371
 5011SOL     OW26491   1.091   2.884   4.868 -0.0229  0.3766  0.3130
 5011SOL    HW126492   1.103   2.889   4.773 -0.1344 -2.1690  0.1692
 5011SOL    HW226493   1.171   2.840   4.895  0.2446  0.7953  0.2082
 5012SOL     OW26494   0.522   3.301  16.248 -0.0815 -0.6368 -0.8352
 5012SOL    HW126495   0.509   3.300  16.153  1.1153  2.2156 -1.0393
 5012SOL    HW226496   0.583   3.229  16.266 -0.8924 -1.3225 -0.8387
 5013SOL     OW26497   0.499   3.348  14.037 -0.4304 -0.2021  0.2774
 5013SOL    HW126498   0.594   3.340  14.044 -0.0729  1.5349 -2.4273
 5013SOL    HW226499   0.476   3.300  13.957 -0.3633 -0.1772  0.2426
 5014SOL     OW26500   0.546   4.441   8.589 -0.4595 -0.5618  0.1205
 5014SOL    HW126501   0.538   4.431   8.684  1.3102 -2.4940  0.0571
 5014SOL    HW226502   0.462   4.484   8.573 -0.4330 -1.1009 -1.4202
 5015SOL     OW26503   2.330   3.729   3.738 -0.1955 -0.6118  0.1478
 5015SOL    HW126504   2.247   3.681   3.737 -0.9506  0.6660  4.6734
 5015SOL    HW226505   2.330   3.778   3.655 -1.2390  0.4270  0.7602
 5016SOL     OW26506   0.639   0.924   5.680  0.7021  0.4149 -0.1097
 5016SOL    HW126507   0.645   1.009   5.636  0.9168  0.9553  0.9514
 5016SOL    HW226508   0.729   0.891   5.686  0.9413  1.3119  1.2704
 5017SOL     OW26509   3.734   0.633  14.562  0.3499  0.3996  0.2549
 5017SOL    HW126510   3.715   0.543  14.587 -0.0542  0.3342 -0.2984
 5017SOL    HW226511   3.748   0.636  14.468 -2.1278  2.8703 -0.0440
 5018SOL     OW26512   1.858   4.033   3.295  0.0551  0.6716 -0.0001
 5018SOL    HW126513   1.942   4.052   3.253 -0.0045 -0.2521 -0.5377
 5018SOL    HW226514   1.799   4.011   3.222  0.3192  0.3424 -0.1142
 5019SOL     OW26515   1.539   4.713  16.841  0.2188  0.2337  0.0025
 5019SOL    HW126516   1.537   0.064  16.782  0.9304 -0.4141 -0.8533
 5019SOL    HW226517   1.570   4.652  16.774 -0.1760 -1.0233  0.9891
 5020SOL     OW26518   4.654   3.731   2.514 -0.4207 -0.1068 -1.0989
 5020SOL    HW126519   4.597   3.789   2.464 -1.4180 -0.5493 -0.4911
 5020SOL    HW226520   4.622   3.743   2.604  2.0870 -1.0403 -0.0732
 5021SOL     OW26521   0.139   0.187   7.456  0.6106  0.4728 -0.6490
 5021SOL    HW126522   0.192   0.234   7.521 -0.3616 -0.5799  0.8852
 5021SOL    HW226523   0.160   0.243   7.381 -1.5683  1.9450 -0.1761
 5022SOL     OW26524   2.108   3.756  14.637 -0.2898  0.0551 -0.0032
 5022SOL    HW126525   2.034   3.790  14.688  0.9374  0.0470  1.7826
 5022SOL    HW226526   2.130   3.831  14.582 -1.8053  0.2926 -0.2695
 5023SOL     OW26527   1.659   4.440  14.884  0.1992 -0.0794 -0.6591
 5023SOL    HW126528   1.601   4.486  14.824  0.4348  0.9294 -0.1200
 5023SOL    HW226529   1.621   4.353  14.895 -1.4221  0.8713  1.3601
 5024SOL     OW26530   1.994   2.996   1.339 -0.0668  0.0264 -0.3890
 5024SOL    HW126531   2.074   3.048   1.343  0.8202 -1.4349  0.8984
 5024SOL    HW226532   1.985   2.977   1.245 -1.6084  1.8616 -0.6136
 5025SOL     OW26533   2.288   3.133   1.044  0.0382 -0.5586 -0.2247
 5025SOL    HW126534   2.337   3.201   0.997 -0.8927  0.4568  0.2789
 5025SOL    HW226535   2.236   3.097   0.972  0.1174  1.1096 -1.1194
 5026SOL     OW26536   0.169   0.866  16.170 -0.3113  0.4760 -0.5220
 5026SOL    HW126537   0.093   0.851  16.227  0.1676  2.1761  0.5558
 5026SOL    HW226538   0.226   0.898  16.240 -3.4657  2.6848  1.0512
 5027SOL     OW26539   1.026   2.735   2.085  0.1393  0.1110  0.1969
 5027SOL    HW126540   0.973   2.813   2.072 -0.0078  0.0328  0.3300
 5027SOL    HW226541   1.026   2.718   2.179  0.4812  0.3464  0.2402
 5028SOL     OW26542   2.547   0.601   4.708  0.1445 -0.6949  0.5892
 5028SOL    HW126543   2.547   0.608   4.612 -2.2372 -0.0074  0.6249
 5028SOL    HW226544   2.626   0.648   4.734 -0.8923  0.9725  0.7522
 5029SOL     OW26545   3.425   2.714  14.928  0.0452  0.4343 -0.4384
 5029SOL    HW126546   3.431   2.809  14.928 -1.0704  0.5143 -0.2000
 5029SOL    HW226547   3.376   2.702  15.010  1.0651 -0.2767  0.0634
 5030SOL     OW26548   0.672   2.888   5.079  0.0921  0.5959 -0.0508
 5030SOL    HW126549   0.731   2.828   5.034 -2.4632 -1.7589 -0.2422
 5030SOL    HW226550   0.722   2.902   5.160 -0.9161  1.0265  0.5039
 5031SOL     OW26551   1.784   1.461   6.705  0.4800 -0.0496  0.4197
 5031SOL    HW126552   1.830   1.456   6.789  3.9130  1.9884 -1.3831
 5031SOL    HW226553   1.725   1.390   6.731  0.4433  0.2977  1.2930
 5032SOL     OW26554   3.290   3.084  13.995  0.6582  0.6957 -0.3933
 5032SOL    HW126555   3.269   3.093  13.902  0.6680 -2.6667 -0.7048
 5032SOL    HW226556   3.369   3.033  14.010  1.4426  1.2414 -2.7717
 5033SOL     OW26557   2.327   4.478   6.165  0.0114 -0.0727  0.8706
 5033SOL    HW126558   2.332   4.432   6.249  1.3899  0.5788  1.1394
 5033SOL    HW226559   2.366   4.413   6.107  1.4750  1.3314  0.3187
 5034SOL     OW26560   3.669   3.139  10.683  0.2643 -0.5035  0.4023
 5034SOL    HW126561   3.644   3.212  10.626  2.7651 -1.5888 -2.0927
 5034SOL    HW226562   3.705   3.175  10.764 -1.1370  2.5500 -0.3329
 5035SOL     OW26563   1.456   2.973  14.847 -0.1186 -0.2381  0.0331
 5035SOL    HW126564   1.486   3.002  14.761 -3.7805  0.4022 -1.0085
 5035SOL    HW226565   1.533   2.919  14.864 -1.7603 -1.5979  3.1441
 5036SOL     OW26566   2.394   4.092   7.449 -0.3581 -0.5102  0.0425
 5036SOL    HW126567   2.433   4.054   7.370  1.1442  0.8494  0.1372
 5036SOL    HW226568   2.455   4.162   7.468 -2.4902  1.7103 -1.3024
 5037SOL     OW26569   3.455   0.492   1.461 -0.7369 -0.2611  0.3889
 5037SOL    HW126570   3.470   0.549   1.385  0.4410 -0.8748  0.1586
 5037SOL    HW226571   3.392   0.547   1.508 -0.2130  0.5355  0.1559
 5038SOL     OW26572   3.253   1.858   9.871 -0.1599  0.3718 -0.0615
 5038SOL    HW126573   3.334   1.901   9.896  0.1934  1.0658 -2.3959
 5038SOL    HW226574   3.209   1.907   9.801  0.0178  0.9925  0.2647
 5039SOL     OW26575   1.211   3.128   0.904  0.4021 -0.6694 -0.4010
 5039SOL    HW126576   1.256   3.109   0.986 -1.0520 -0.2672  0.4889
 5039SOL    HW226577   1.232   3.056   0.844 -0.5558 -1.5965  0.3907
 5040SOL     OW26578   1.668   3.754   6.671 -0.1439  0.4695  0.1318
 5040SOL    HW126579   1.739   3.809   6.637  1.6409 -0.8609  1.6857
 5040SOL    HW226580   1.628   3.720   6.591 -0.0363  0.7868 -0.0591
 5041SOL     OW26581   3.383   3.499   6.285 -0.4851  0.6889 -0.3717
 5041SOL    HW126582   3.352   3.530   6.200 -3.4828  0.4087  0.5907
 5041SOL    HW226583   3.421   3.417   6.255 -1.5359 -0.2043  0.7206
 5042SOL     OW26584   1.299   1.882   5.584  0.3642 -0.0615  0.6394
 5042SOL    HW126585   1.305   1.929   5.501  0.8162  1.7931  1.7126
 5042SOL    HW226586   1.354   1.806   5.568 -3.3891 -3.0990  2.1409
 5043SOL     OW26587   0.689   0.043  16.313 -0.0958 -0.3547  0.0680
 5043SOL    HW126588   0.633   0.110  16.273  0.4042  0.3567  0.5405
 5043SOL    HW226589   0.671   0.062  16.405 -1.8327 -1.5149 -0.0465
 5044SOL     OW26590   0.810   4.130   5.600  0.2177  0.3609  0.2777
 5044SOL    HW126591   0.902   4.154   5.615  0.0230  2.2139 -1.4535
 5044SOL    HW226592   0.762   4.213   5.597 -1.2604 -0.4767  0.6191
 5045SOL     OW26593   2.117   0.243   7.833 -0.2192 -0.5965 -0.0645
 5045SOL    HW126594   2.143   0.204   7.916  3.1081  0.2229 -0.7130
 5045SOL    HW226595   2.078   0.175   7.779 -0.3949 -2.5763  2.5642
 5046SOL     OW26596   3.248   0.619   5.422  0.3940 -0.1370  0.5393
 5046SOL    HW126597   3.231   0.616   5.516 -1.3004  0.7720  0.2798
 5046SOL    HW226598   3.318   0.554   5.420 -1.0179 -1.6481  0.8270
 5047SOL     OW26599   2.175   4.223  14.397 -0.6725  0.0606 -0.2345
 5047SOL    HW126600   2.084   4.194  14.389 -0.7564 -0.1447  1.5249
 5047SOL    HW226601   2.171   4.298  14.456  0.4846 -0.7701  0.8740
 5048SOL     OW26602   1.266   1.355   7.050  0.6985  0.7951 -0.1185
 5048SOL    HW126603   1.194   1.419   7.055  1.6956  2.0255 -1.2952
 5048SOL    HW226604   1.242   1.307   7.129  2.1063 -1.6858 -1.2039
 5049SOL     OW26605   1.286   2.455   2.441  0.0126  0.2188 -0.1020
 5049SOL    HW126606   1.329   2.468   2.357 -0.4206  0.7028 -0.2432
 5049SOL    HW226607   1.192   2.458   2.424 -0.2851  0.1501  1.4763
 5050SOL     OW26608   3.773   4.007   5.697 -0.2175 -0.4495  0.0055
 5050SOL    HW126609   3.838   4.065   5.736 -1.2203  1.1833 -0.7341
 5050SOL    HW226610   3.821   3.973   5.621  0.7957  2.4419 -0.6337
 5051SOL     OW26611   3.691   0.845  12.050 -0.3678  0.1959  0.2853
 5051SOL    HW126612   3.705   0.938  12.034  2.7852  0.3313  3.8178
 5051SOL    HW226613   3.734   0.804  11.975  0.2309 -1.2748  1.4223
 5052SOL     OW26614   2.440   1.044   0.218  0.2210  0.7862  0.3049
 5052SOL    HW126615   2.527   1.016   0.192 -0.0195  0.9686 -0.6977
 5052SOL    HW226616   2.438   1.006   0.306  0.6294 -1.5391 -0.6950
 5053SOL     OW26617   4.582   4.136   2.127 -0.0019  0.4023 -0.0708
 5053SOL    HW126618   4.495   4.136   2.166  0.2698  0.8920  0.5310
 5053SOL    HW226619   4.553   4.140   2.036 -1.7929  0.2996  0.5093
 5054SOL     OW26620   3.147   3.772  12.970 -0.8045 -1.0422  0.5621
 5054SOL    HW126621   3.112   3.828  12.900  2.5542  3.1346  2.2411
 5054SOL    HW226622   3.157   3.825  13.048  0.7005 -2.4035  1.2907
 5055SOL     OW26623   1.620   2.248  11.676 -0.2601 -0.2473  0.2528
 5055SOL    HW126624   1.654   2.328  11.715 -1.3895 -0.2004  1.1617
 5055SOL    HW226625   1.610   2.196  11.756  0.4012  1.6268  1.5241
 5056SOL     OW26626   2.943   2.770   2.265 -0.2388  0.0440  0.2817
 5056SOL    HW126627   2.984   2.684   2.253  0.5014  0.5251 -0.6502
 5056SOL    HW226628   2.944   2.786   2.171 -1.0768  1.3014  0.4999
 5057SOL     OW26629   0.961   3.949   9.485  0.6770 -0.0213 -0.0769
 5057SOL    HW126630   0.967   4.011   9.558  0.7070 -0.0720 -0.0363
 5057SOL    HW226631   0.882   3.896   9.498 -0.3624  1.8852  1.4317
 5058SOL     OW26632   4.183   3.576   3.074 -0.3676  1.1594  0.8478
 5058SOL    HW126633   4.148   3.660   3.107 -0.9030  1.3218 -0.1321
 5058SOL    HW226634   4.275   3.598   3.063 -0.2345  0.3441  0.3701
 5059SOL     OW26635   2.152   1.183  17.314 -0.4371  0.3901  0.3170
 5059SOL    HW126636   2.109   1.160  17.396 -2.1482  0.0717 -0.6739
 5059SOL    HW226637   2.093   1.137  17.254  1.2461 -0.4715 -0.7003
 5060SOL     OW26638   4.381   4.164   7.764 -0.6081 -0.2546 -0.2934
 5060SOL    HW126639   4.317   4.161   7.693 -1.2951  0.3400  0.3055
 5060SOL    HW226640   4.364   4.248   7.807 -1.4196  0.2630 -1.6084
 5061SOL     OW26641   2.959   1.611  15.020 -0.9529  0.0904 -0.1499
 5061SOL    HW126642   3.009   1.649  14.948 -1.1037 -2.4824 -1.5995
 5061SOL    HW226643   2.892   1.674  15.047 -0.5731 -0.2404  1.5851
 5062SOL     OW26644   3.784   0.864   7.363 -0.8011 -0.0455 -0.5176
 5062SOL    HW126645   3.815   0.784   7.321  0.5869 -0.7769  1.8608
 5062SOL    HW226646   3.746   0.923   7.299  0.8271 -0.2090 -1.6257
 5063SOL     OW26647   4.156   0.990  14.780  0.2092  0.7139 -0.2442
 5063SOL    HW126648   4.167   0.986  14.875  1.2707 -0.7038 -0.4263
 5063SOL    HW226649   4.206   1.068  14.756 -1.8027  1.2277 -2.7858
 5064SOL     OW26650   3.268   3.500   8.319 -0.7550  0.1995 -0.0212
 5064SOL    HW126651   3.232   3.422   8.361 -1.3949  0.3941 -0.2042
 5064SOL    HW226652   3.185   3.548   8.314 -1.1483 -0.5952 -1.0385
 5065SOL     OW26653   0.995   4.668   4.540  0.2031  0.1243 -0.0809
 5065SOL    HW126654   0.943   4.609   4.593  0.3317  1.7769  1.8627
 5065SOL    HW226655   0.977   0.027   4.581 -0.1075 -1.1795  2.3942
 5066SOL     OW26656   2.708   1.384   8.201 -0.2295 -0.1414  0.2891
 5066SOL    HW126657   2.737   1.418   8.116  0.4793  4.3769  2.2861
 5066SOL    HW226658   2.647   1.314   8.180  0.7370 -0.8237 -0.2517
 5067SOL     OW26659   0.626   3.009   3.402 -0.1033 -0.2945 -0.3597
 5067SOL    HW126660   0.548   2.976   3.358 -2.5475  1.5148  2.5733
 5067SOL    HW226661   0.622   3.103   3.383  1.9182 -0.1824 -0.1921
 5068SOL     OW26662   0.467   0.652  15.288 -0.2843 -0.2914  0.1316
 5068SOL    HW126663   0.386   0.625  15.245  0.5720  0.4055 -1.9108
 5068SOL    HW226664   0.425   0.710  15.351  0.0797 -0.0565  0.1579
 5069SOL     OW26665   0.146   3.641   6.212  0.0210  0.0204 -0.3095
 5069SOL    HW126666   0.155   3.548   6.195 -0.9885 -0.0803 -0.2779
 5069SOL    HW226667   0.059   3.630   6.251 -0.2292 -0.3938 -1.0045
 5070SOL     OW26668   2.081   3.707   6.968 -0.0943  0.1640  0.2908
 5070SOL    HW126669   2.149   3.768   6.995  0.3398  0.3025 -1.1288
 5070SOL    HW226670   2.136   3.628   6.971 -1.4388 -0.8412 -1.6897
 5071SOL     OW26671   0.145   0.343  10.789  0.5206  0.5330 -0.1529
 5071SOL    HW126672   0.121   0.258  10.751  0.6101  0.1732  0.5922
 5071SOL    HW226673   0.201   0.381  10.721 -0.7612  1.2960 -0.7964
 5072SOL     OW26674   0.352   0.956  14.150 -0.4288  0.2096 -0.2713
 5072SOL    HW126675   0.419   0.963  14.219  0.7479 -3.2424 -1.0820
 5072SOL    HW226676   0.401   0.987  14.074 -2.9783  0.7488 -1.6597
 5073SOL     OW26677   2.203   1.405  10.343  0.4557 -0.6577 -0.4413
 5073SOL    HW126678   2.139   1.466  10.307 -1.3542 -2.3517 -0.0577
 5073SOL    HW226679   2.255   1.459  10.404 -2.2883  1.2038  0.2782
 5074SOL     OW26680   0.132   3.079  11.249  0.1064  0.0291  0.2961
 5074SOL    HW126681   0.152   2.991  11.280  0.7633 -0.4552 -1.5309
 5074SOL    HW226682   0.214   3.101  11.204  0.4519 -1.4947  0.1945
 5075SOL     OW26683   1.847   1.507   3.871 -0.1524 -0.3320 -0.6373
 5075SOL    HW126684   1.753   1.521   3.869 -0.4658 -1.6164  3.8562
 5075SOL    HW226685   1.855   1.421   3.912  2.2296  0.7822  1.2568
 5076SOL     OW26686   3.314   2.715  11.181  0.1527  0.0247 -0.4247
 5076SOL    HW126687   3.406   2.691  11.189 -0.1704 -0.9942  0.2248
 5076SOL    HW226688   3.296   2.677  11.096 -3.2249 -2.9215  1.6056
 5077SOL     OW26689   1.362   3.266   9.125  0.6580  0.6532  0.1208
 5077SOL    HW126690   1.427   3.197   9.114  1.7541  1.5073  1.2429
 5077SOL    HW226691   1.404   3.315   9.196  3.1008 -1.2707 -0.0163
 5078SOL     OW26692   4.427   2.753   6.334  0.3690  0.0235 -0.0528
 5078SOL    HW126693   4.413   2.669   6.290 -1.2755 -1.6757  3.7626
 5078SOL    HW226694   4.430   2.813   6.259  1.0642 -0.6042 -0.5241
 5079SOL     OW26695   0.115   0.156   6.880  0.3817  0.3032  0.1045
 5079SOL    HW126696   0.166   0.106   6.945 -0.2465 -1.4839 -0.7874
 5079SOL    HW226697   0.179   0.173   6.811  0.3435 -0.8482 -0.2136
 5080SOL     OW26698   4.204   4.709   2.268  0.5247 -0.0616 -0.7848
 5080SOL    HW126699   4.242   4.624   2.246 -0.8562 -0.3459 -2.0722
 5080SOL    HW226700   4.148   0.007   2.194 -1.7830  0.2586  1.0375
 5081SOL     OW26701   2.459   1.467  13.015  0.2184 -0.3298  0.2089
 5081SOL    HW126702   2.444   1.466  13.110 -0.3653 -1.1759  0.1080
 5081SOL    HW226703   2.387   1.524  12.987 -0.7431 -0.9358  1.4169
 5082SOL     OW26704   4.058   2.453  15.181 -0.1235 -0.5255 -0.1152
 5082SOL    HW126705   3.995   2.497  15.238 -1.1896  0.1698 -1.8473
 5082SOL    HW226706   4.132   2.426  15.237  0.8531 -0.7105 -1.5096
 5083SOL     OW26707   2.339   1.297   6.278  0.1113  0.4133  0.0845
 5083SOL    HW126708   2.258   1.333   6.240 -0.0403 -1.6021 -1.5346
 5083SOL    HW226709   2.340   1.339   6.364 -1.0795 -0.2503  0.4187
 5084SOL     OW26710   1.443   3.996   1.515  0.3324  0.0757  0.2764
 5084SOL    HW126711   1.404   3.943   1.586 -1.1326  3.9446  2.3650
 5084SOL    HW226712   1.525   4.026   1.553  0.1621  0.7705  0.0845
 5085SOL     OW26713   1.028   1.528  16.797  0.1398 -0.2135 -0.0480
 5085SOL    HW126714   0.945   1.503  16.837 -0.3236  0.0758 -0.8170
 5085SOL    HW226715   1.001   1.609  16.753 -1.2924  0.4346  2.0407
 5086SOL     OW26716   3.612   2.859  11.104  0.5946 -0.2908 -0.1633
 5086SOL    HW126717   3.586   2.842  11.014 -0.1469  0.2772 -0.0604
 5086SOL    HW226718   3.613   2.769  11.135 -1.0726 -0.4492 -0.5922
 5087SOL     OW26719   1.118   2.582   6.746  0.0680  0.2140 -0.6655
 5087SOL    HW126720   1.107   2.675   6.768 -0.1217 -0.0918  0.5363
 5087SOL    HW226721   1.043   2.549   6.795  1.2896 -0.0532  1.0238
 5088SOL     OW26722   3.665   0.807   5.229 -0.5498 -0.0472  0.2631
 5088SOL    HW126723   3.730   0.757   5.179 -0.9040  0.7149 -0.9559
 5088SOL    HW226724   3.629   0.741   5.289 -2.4461  0.9517  0.2109
 5089SOL     OW26725   0.426   1.886   3.898 -0.9550 -0.1613  0.2580
 5089SOL    HW126726   0.382   1.966   3.870  1.4260  1.0888  0.0932
 5089SOL    HW226727   0.390   1.819   3.841 -0.6413 -0.5238  0.4862
 5090SOL     OW26728   1.508   0.246   6.217  0.5232  0.4626 -0.6638
 5090SOL    HW126729   1.552   0.222   6.136  2.4924 -1.0828  0.8706
 5090SOL    HW226730   1.499   0.162   6.261 -2.6506  0.3583 -1.5232
 5091SOL     OW26731   2.816   3.392   1.661 -0.3923 -0.4573  0.2421
 5091SOL    HW126732   2.835   3.486   1.652  3.8426 -1.5739 -2.1883
 5091SOL    HW226733   2.907   3.362   1.666 -0.1637  0.0280 -1.1422
 5092SOL     OW26734   1.704   0.054  15.955  0.4135  0.0288 -0.6289
 5092SOL    HW126735   1.640   0.030  15.888 -1.7208  2.7566  0.4505
 5092SOL    HW226736   1.708   0.150  15.949  0.6142  0.0046 -0.8893
 5093SOL     OW26737   3.082   2.843   0.145 -0.6725  0.2004 -0.2267
 5093SOL    HW126738   3.040   2.775   0.093  0.0025 -0.3109 -0.0943
 5093SOL    HW226739   3.172   2.828   0.117  0.2993  1.0210  2.4707
 5094SOL     OW26740   2.397   0.718  13.148  0.5856  0.2264  0.3844
 5094SOL    HW126741   2.365   0.786  13.088  2.3810  0.4413 -0.3426
 5094SOL    HW226742   2.316   0.698  13.194  1.2039  1.4668  1.9689
 5095SOL     OW26743   2.255   4.547   6.629  0.2186  0.0453  0.4589
 5095SOL    HW126744   2.321   4.606   6.665 -1.0763  2.6984 -1.5500
 5095SOL    HW226745   2.204   4.524   6.707  3.8313  0.0035  2.8159
 5096SOL     OW26746   3.067   3.295   5.638 -0.0581 -0.0453 -0.6469
 5096SOL    HW126747   3.157   3.299   5.670  0.3757 -2.9240 -1.5854
 5096SOL    HW226748   3.018   3.291   5.721 -0.5235  1.4490 -0.8391
 5097SOL     OW26749   4.431   1.649   6.403  0.1189 -0.1766  1.1734
 5097SOL    HW126750   4.406   1.716   6.339 -0.7133 -2.6008 -1.0420
 5097SOL    HW226751   4.387   1.570   6.372 -3.4530  1.8278  1.1151
 5098SOL     OW26752   3.427   0.005  12.421  0.3697  0.3466  0.7744
 5098SOL    HW126753   3.499   0.046  12.470 -0.5968  0.1846  2.3006
 5098SOL    HW226754   3.415   4.654  12.478 -1.7573 -0.6141 -0.9733
 5099SOL     OW26755   4.609   0.125  11.254 -0.0138  0.6597  0.2325
 5099SOL    HW126756   4.533   0.159  11.207  1.9033  2.0895 -1.7773
 5099SOL    HW226757   4.663   0.138  11.177  0.7510  1.1122  0.8433
 5100SOL     OW26758   2.753   1.623  17.699 -0.3687  0.0678  0.1449
 5100SOL    HW126759   2.676   1.576   0.029 -0.5965 -0.4457 -1.2326
 5100SOL    HW226760   2.714   1.692  17.646 -1.1200  0.1607  0.8221
 5101SOL     OW26761   2.367   4.390   1.481  0.2358 -0.0979  0.4038
 5101SOL    HW126762   2.326   4.364   1.399  1.2341 -0.5748  0.0684
 5101SOL    HW226763   2.445   4.337   1.492 -0.7662 -1.9210 -1.3117
 5102SOL     OW26764   3.848   1.644   5.607 -0.4740  0.2814  0.1512
 5102SOL    HW126765   3.760   1.633   5.570 -0.6138  0.9858  0.2733
 5102SOL    HW226766   3.850   1.740   5.607  0.4584  0.2538 -1.3471
 5103SOL     OW26767   4.653   1.867   3.952  0.0190 -0.3331 -0.3349
 5103SOL    HW126768   4.608   1.866   3.867 -2.7713  1.2926  1.0967
 5103SOL    HW226769   4.615   1.788   3.990 -1.3230  0.7679  0.6136
 5104SOL     OW26770   2.895   1.055  16.050  0.2664 -0.3277  0.5253
 5104SOL    HW126771   2.847   1.050  15.968  1.1477 -2.0474  0.1068
 5104SOL    HW226772   2.859   1.140  16.074  1.8997  0.5022  0.0675
 5105SOL     OW26773   2.573   4.605   4.992  0.1568  0.4251  0.3331
 5105SOL    HW126774   2.541   4.641   5.074  0.3079  0.8489  0.2032
 5105SOL    HW226775   2.667   4.591   5.004  0.3714  1.2955 -0.3690
 5106SOL     OW26776   1.681   2.536  17.607 -0.1077  0.2464 -0.7019
 5106SOL    HW126777   1.720   2.623  17.599  1.5135 -0.4034  0.0830
 5106SOL    HW226778   1.752   2.487  17.565 -0.7421 -1.9311  0.7338
 5107SOL     OW26779   4.106   3.002   8.309  0.0416 -0.1218 -0.4150
 5107SOL    HW126780   4.147   3.086   8.328 -0.9141 -0.0654  1.3842
 5107SOL    HW226781   4.167   2.941   8.349  1.1318  0.3914 -1.3060
 5108SOL     OW26782   2.452   1.563   7.202  0.4758  0.3676 -0.0063
 5108SOL    HW126783   2.364   1.601   7.205  0.7653  1.1648 -1.3796
 5108SOL    HW226784   2.475   1.565   7.295 -1.6867 -0.2230  0.5359
 5109SOL     OW26785   4.577   0.571   9.464  0.3333  0.0409  0.0343
 5109SOL    HW126786   4.545   0.644   9.411  2.6383  0.7293 -0.4422
 5109SOL    HW226787   4.492   0.537   9.489  0.0532  0.1846 -0.7293
 5110SOL     OW26788   3.706   2.003   3.465 -0.3951 -0.2786  0.4186
 5110SOL    HW126789   3.673   1.919   3.432 -0.0677 -0.5189  0.7055
 5110SOL    HW226790   3.800   2.001   3.448 -0.1330  1.9508  1.5842
 5111SOL     OW26791   2.719   3.983  10.635  0.2208 -0.1354 -0.1317
 5111SOL    HW126792   2.754   3.943  10.555 -0.6307  1.5672 -1.3519
 5111SOL    HW226793   2.676   3.911  10.680  1.0304 -1.5580 -1.6373
 5112SOL     OW26794   4.685   0.596  13.667  0.6557  0.5405 -0.3054
 5112SOL    HW126795   0.036   0.539  13.655  2.0797  1.9726  1.9383
 5112SOL    HW226796   4.620   0.557  13.608  1.4466  0.3956 -1.0769
 5113SOL     OW26797   2.510   2.499   0.369 -0.3490 -0.4694  0.2628
 5113SOL    HW126798   2.523   2.487   0.463  1.3328  0.8747  0.1993
 5113SOL    HW226799   2.586   2.555   0.351 -0.9370 -0.4940 -2.2592
 5114SOL     OW26800   4.261   4.403   3.725 -0.0554 -0.4163 -0.2958
 5114SOL    HW126801   4.254   4.447   3.809  3.0134  0.2803 -0.3811
 5114SOL    HW226802   4.176   4.359   3.721  0.5060 -1.4662 -0.9214
 5115SOL     OW26803   2.175   1.289   1.542  0.0433  0.0234  0.1055
 5115SOL    HW126804   2.196   1.256   1.629  2.0015  1.5690  0.2131
 5115SOL    HW226805   2.248   1.256   1.489  1.8993  1.1956  1.9559
 5116SOL     OW26806   2.836   2.682  11.747  0.5481  0.1224  0.4536
 5116SOL    HW126807   2.866   2.679  11.838  0.9940 -0.0133  0.3009
 5116SOL    HW226808   2.765   2.618  11.749  1.1040 -0.4587  1.5198
 5117SOL     OW26809   1.183   4.229   8.816 -0.1906 -0.0644 -0.3909
 5117SOL    HW126810   1.187   4.200   8.725 -0.2976 -2.2375  0.2994
 5117SOL    HW226811   1.091   4.253   8.815 -0.6621 -1.8934 -0.3722
 5118SOL     OW26812   3.063   3.152   7.764 -0.5281  0.5254  0.2399
 5118SOL    HW126813   3.100   3.067   7.785 -1.4637  0.4097  1.4639
 5118SOL    HW226814   3.029   3.176   7.851  0.2825  0.6028  0.5324
 5119SOL     OW26815   2.699   2.301   0.201 -0.3977  0.6894  0.7189
 5119SOL    HW126816   2.604   2.298   0.202 -0.4290  2.6180  3.3979
 5119SOL    HW226817   2.721   2.381   0.248  0.5932  1.4509 -1.0265
 5120SOL     OW26818   1.627   2.563   9.381  0.1053  0.0346  0.2030
 5120SOL    HW126819   1.655   2.479   9.417  0.7650  0.8795  1.6575
 5120SOL    HW226820   1.711   2.578   9.337  0.4449  0.9222  1.1582
 5121SOL     OW26821   1.902   3.183  15.168 -0.4096  0.1999  0.3862
 5121SOL    HW126822   1.871   3.273  15.158 -1.9214 -0.6645 -2.7040
 5121SOL    HW226823   1.879   3.140  15.086 -0.5090  0.1390  0.4465
 5122SOL     OW26824   2.197   4.454   8.508 -0.5117 -0.0011  0.3242
 5122SOL    HW126825   2.202   4.471   8.414  1.3192  0.2725  0.4766
 5122SOL    HW226826   2.135   4.520   8.539 -1.0949  0.1043 -1.0469
 5123SOL     OW26827   1.247   2.487   2.921 -0.1248 -0.0817 -0.1031
 5123SOL    HW126828   1.333   2.525   2.904 -0.8571  2.3360  1.6110
 5123SOL    HW226829   1.235   2.434   2.842  2.7125  1.3351 -1.4833
 5124SOL     OW26830   0.377   4.484   2.641 -0.1807  0.3325 -0.3087
 5124SOL    HW126831   0.433   4.516   2.570 -1.6732  1.4445 -0.9966
 5124SOL    HW226832   0.395   4.390   2.634 -0.7868  0.1720  0.3286
 5125SOL     OW26833   2.056   1.865   3.456  0.4818  0.1689  0.0386
 5125SOL    HW126834   2.122   1.833   3.395 -1.7512  0.9919 -2.7923
 5125SOL    HW226835   2.119   1.883   3.526  1.6637 -0.0568 -0.9722
 5126SOL     OW26836   2.764   0.780   3.425  0.2401 -0.0883  0.7701
 5126SOL    HW126837   2.829   0.843   3.393 -0.4402 -0.4447 -1.3428
 5126SOL    HW226838   2.813   0.741   3.497 -0.1493 -0.9898  0.5462
 5127SOL     OW26839   0.482   2.215   7.100 -1.0540 -0.4150 -0.4761
 5127SOL    HW126840   0.443   2.128   7.101 -0.4080 -0.7158 -1.8284
 5127SOL    HW226841   0.409   2.275   7.116 -0.8598 -0.5195  0.7825
 5128SOL     OW26842   0.949   0.721  10.476 -0.3988 -0.1290 -0.5076
 5128SOL    HW126843   1.003   0.799  10.493 -0.7267 -0.3185  1.3829
 5128SOL    HW226844   0.979   0.653  10.536  0.2955 -0.2933 -1.0370
 5129SOL     OW26845   0.327   3.424   5.737 -0.2034 -0.5570 -0.8729
 5129SOL    HW126846   0.323   3.513   5.773  0.4063 -0.8514 -0.0640
 5129SOL    HW226847   0.351   3.441   5.646 -2.4056 -1.3148 -1.5995
 5130SOL     OW26848   1.105   3.776   7.564 -0.7920  0.5431  0.1524
 5130SOL    HW126849   1.173   3.807   7.504 -0.7324  0.4943  0.1953
 5130SOL    HW226850   1.134   3.813   7.647  0.4102  1.2550 -0.5835
 5131SOL     OW26851   0.464   0.415   5.404  0.2591 -0.6944 -0.3622
 5131SOL    HW126852   0.477   0.431   5.497 -1.2882  2.8033 -0.7586
 5131SOL    HW226853   0.548   0.379   5.375  0.6517  2.0315 -2.6193
 5132SOL     OW26854   4.086   2.402   8.695  0.2631 -0.1433 -0.4128
 5132SOL    HW126855   4.028   2.326   8.695 -1.0672  0.8835  1.6004
 5132SOL    HW226856   4.046   2.475   8.743  2.5652  1.0247 -0.2683
 5133SOL     OW26857   1.183   1.311   6.779 -0.3066  0.1246  0.7454
 5133SOL    HW126858   1.255   1.251   6.801  0.8526  0.6854 -1.5553
 5133SOL    HW226859   1.142   1.323   6.865 -1.1506  1.2595  0.1809
 5134SOL     OW26860   0.820   0.295  15.021 -0.6647 -0.1632  0.3355
 5134SOL    HW126861   0.798   0.267  15.110 -0.0818 -0.4370  0.3909
 5134SOL    HW226862   0.734   0.326  14.991  0.3960  1.4189 -1.0644
 5135SOL     OW26863   3.646   3.785   6.409 -0.0974 -0.2608 -0.7445
 5135SOL    HW126864   3.681   3.856   6.464  0.0123 -0.9007  0.0173
 5135SOL    HW226865   3.690   3.797   6.325  2.9302 -2.2591  0.5259
 5136SOL     OW26866   3.807   1.565   3.055  0.0655 -0.2389  0.0167
 5136SOL    HW126867   3.855   1.632   3.104 -4.3805  1.2262  2.3398
 5136SOL    HW226868   3.889   1.534   3.018  0.3767 -1.9377  2.1338
 5137SOL     OW26869   1.146   3.680   6.112  0.0687 -0.4138  0.1406
 5137SOL    HW126870   1.114   3.714   6.196 -1.9244  2.3020 -1.7141
 5137SOL    HW226871   1.240   3.675   6.132  0.3400  1.3452 -0.7130
 5138SOL     OW26872   1.609   3.947  12.155 -0.0006  0.9350  0.3138
 5138SOL    HW126873   1.656   4.030  12.155  0.0557  0.9063 -0.5870
 5138SOL    HW226874   1.536   3.964  12.214 -2.3483 -4.0201 -1.1657
 5139SOL     OW26875   2.320   0.372   9.175 -0.3309  0.0664 -0.1717
 5139SOL    HW126876   2.299   0.444   9.115 -0.3006  0.8166  0.7128
 5139SOL    HW226877   2.252   0.390   9.240  1.1462  2.3188  0.7457
 5140SOL     OW26878   0.728   3.490   6.279  0.2696  0.1394 -0.1387
 5140SOL    HW126879   0.649   3.512   6.229  0.0349 -1.3249 -0.4138
 5140SOL    HW226880   0.783   3.439   6.220  0.0167  0.4211 -0.6211
 5141SOL     OW26881   1.737   4.681  15.007  0.3533  0.0529  0.3446
 5141SOL    HW126882   1.705   4.598  14.973  0.4952  0.2673 -0.3163
 5141SOL    HW226883   1.694   4.670  15.092  0.3590  1.2189  0.4999
 5142SOL     OW26884   0.029   0.204   3.510  0.2186 -0.4976 -0.1041
 5142SOL    HW126885   0.041   0.114   3.540 -3.5336 -0.9050  0.2021
 5142SOL    HW226886   0.102   0.207   3.448  0.0660  1.9611 -0.1604
 5143SOL     OW26887   2.265   3.100   8.719  0.2882  0.7845 -0.3929
 5143SOL    HW126888   2.224   3.185   8.702  1.7125  1.3131 -1.1675
 5143SOL    HW226889   2.203   3.060   8.780  1.5799 -2.6496 -1.3155
 5144SOL     OW26890   0.680   1.420   7.384  0.4348  0.1826 -0.1787
 5144SOL    HW126891   0.767   1.405   7.346 -0.3389  1.0607 -2.3039
 5144SOL    HW226892   0.651   1.329   7.380 -0.5331  0.4991 -0.4885
 5145SOL     OW26893   2.759   1.856   5.733 -0.5655  0.4218 -0.3360
 5145SOL    HW126894   2.742   1.931   5.791  2.0342  1.1088 -0.4290
 5145SOL    HW226895   2.778   1.788   5.798 -0.6917 -1.2274 -2.0469
 5146SOL     OW26896   2.089   0.070  10.244 -0.0440 -0.4067 -0.0996
 5146SOL    HW126897   2.114   0.026  10.325  2.5591  0.2596 -0.5584
 5146SOL    HW226898   2.035   0.138  10.284  1.8364  0.3637  1.1157
 5147SOL     OW26899   0.077   3.740   7.172 -0.1855 -0.2562 -0.0440
 5147SOL    HW126900   0.001   3.688   7.196  0.4337 -0.9712  0.3671
 5147SOL    HW226901   0.081   3.807   7.241  0.6205  0.6368 -0.9535
 5148SOL     OW26902   2.217   2.676  15.156  0.5887  0.0433  0.3343
 5148SOL    HW126903   2.212   2.641  15.246 -0.4768 -1.8930 -0.4626
 5148SOL    HW226904   2.261   2.756  15.182 -0.6475 -0.0917  2.8453
 5149SOL     OW26905   4.431   3.987  12.023  0.0997  0.2746 -0.3022
 5149SOL    HW126906   4.415   4.017  12.112  0.3014  1.7227 -0.7593
 5149SOL    HW226907   4.354   4.017  11.975  0.4142 -1.0233 -1.6240
 5150SOL     OW26908   3.709   0.086   5.015  0.2758 -0.1865 -0.0549
 5150SOL    HW126909   3.623   0.101   4.975  1.5097  0.3305 -2.4738
 5150SOL    HW226910   3.711   0.129   5.101 -2.2805  0.9445 -0.5597
 5151SOL     OW26911   1.051   3.082  16.633 -0.4558 -0.1369  0.6883
 5151SOL    HW126912   1.059   3.004  16.687  1.1913 -0.0925  0.4929
 5151SOL    HW226913   1.127   3.130  16.663 -0.5177  0.4932 -0.1498
 5152SOL     OW26914   1.660   1.866  11.338  0.2610  0.2765 -0.1037
 5152SOL    HW126915   1.617   1.946  11.369 -0.5744 -0.6884  1.2371
 5152SOL    HW226916   1.619   1.796  11.389  3.8743  1.8281  4.8283
 5153SOL     OW26917   1.534   2.288   6.436  0.1097  0.0586 -0.4448
 5153SOL    HW126918   1.516   2.218   6.498  0.0635 -0.5019 -1.0873
 5153SOL    HW226919   1.452   2.332   6.413 -1.5759 -2.3292  1.0167
 5154SOL     OW26920   0.079   3.131   4.032 -0.7802  0.2030  0.3430
 5154SOL    HW126921   0.075   3.114   4.126  1.1562  2.3998  0.8096
 5154SOL    HW226922   0.065   3.225   4.026  1.8043  0.5929  0.1275
 5155SOL     OW26923   3.950   1.411  14.167 -0.4903 -0.1802 -0.0801
 5155SOL    HW126924   3.899   1.481  14.206 -1.4047 -0.7390 -0.2669
 5155SOL    HW226925   3.948   1.350  14.241 -1.6763  0.3404  0.3064
 5156SOL     OW26926   4.065   2.996   7.600  0.0482 -0.2736  0.1895
 5156SOL    HW126927   4.046   3.010   7.507  1.7109  3.4201  0.4351
 5156SOL    HW226928   4.030   3.075   7.640 -2.5228 -0.4814 -1.6297
 5157SOL     OW26929   4.169   3.171   5.545 -0.3478  0.2163 -0.0494
 5157SOL    HW126930   4.257   3.188   5.512 -0.1922 -1.3712 -0.4677
 5157SOL    HW226931   4.184   3.108   5.615 -0.1068 -2.0030 -2.0694
 5158SOL     OW26932   0.894   4.105  13.119  0.0921  0.5054 -0.0628
 5158SOL    HW126933   0.840   4.102  13.198  0.5009  0.4307  0.2140
 5158SOL    HW226934   0.867   4.189  13.083 -1.2766  1.0026  2.1952
 5159SOL     OW26935   1.997   3.914  10.022  0.0802  0.6030 -0.6373
 5159SOL    HW126936   2.091   3.912  10.040 -0.1615 -0.3887  0.5775
 5159SOL    HW226937   1.995   3.867   9.939 -0.7978  1.0041 -0.8357
 5160SOL     OW26938   2.216   4.479   2.116 -0.2272 -0.1653  0.5475
 5160SOL    HW126939   2.196   4.530   2.195  0.6795  2.3262 -0.8254
 5160SOL    HW226940   2.126   4.448   2.104 -0.6948  2.0733 -1.7593
 5161SOL     OW26941   3.980   3.927   2.287  0.3427  0.3961 -0.3529
 5161SOL    HW126942   3.972   3.904   2.194  1.4036 -3.9952  0.5956
 5161SOL    HW226943   3.975   3.838   2.322  3.1078  0.0611 -0.7829
 5162SOL     OW26944   1.694   1.019   9.767  0.3860  0.1451 -0.0705
 5162SOL    HW126945   1.764   0.965   9.803 -0.0656  0.3935  1.1926
 5162SOL    HW226946   1.687   0.987   9.677  0.3361 -0.4735  0.1562
 5163SOL     OW26947   1.255   0.363   0.857  0.2853  0.1937 -0.1931
 5163SOL    HW126948   1.182   0.383   0.917 -0.8505 -1.5633 -0.9879
 5163SOL    HW226949   1.326   0.417   0.891  0.0455  0.2857  0.1604
 5164SOL     OW26950   2.475   2.760   2.578  0.9159 -0.6123  0.1146
 5164SOL    HW126951   2.561   2.720   2.589  0.3678 -1.5811  0.8776
 5164SOL    HW226952   2.481   2.826   2.648 -4.3151 -1.3580  1.2684
 5165SOL     OW26953   4.075   4.598   9.453  0.0159 -0.3324  0.0223
 5165SOL    HW126954   4.157   4.563   9.419 -0.1182  0.1948 -0.8263
 5165SOL    HW226955   4.101   4.688   9.474  0.2743 -0.4589  0.2480
 5166SOL     OW26956   3.194   0.952   4.216 -0.7262  0.4920 -0.5778
 5166SOL    HW126957   3.119   0.892   4.225 -2.0966  2.3084  0.1547
 5166SOL    HW226958   3.167   1.027   4.269  3.0404  1.2418  0.2642
 5167SOL     OW26959   1.818   2.613  14.372  0.5418 -0.1645 -0.4730
 5167SOL    HW126960   1.864   2.683  14.419 -1.9805  2.2982 -1.6912
 5167SOL    HW226961   1.763   2.582  14.444  0.1414  1.9002  0.0988
 5168SOL     OW26962   0.525   2.964   2.213 -0.5728 -0.4017 -0.2211
 5168SOL    HW126963   0.433   2.985   2.225 -0.8075 -0.0516 -2.6252
 5168SOL    HW226964   0.557   3.045   2.173 -1.3348  1.2030  2.5026
 5169SOL     OW26965   1.127   1.686   2.055  0.1383  0.6943 -0.3174
 5169SOL    HW126966   1.095   1.659   1.969  0.7656 -0.9331 -0.0462
 5169SOL    HW226967   1.151   1.779   2.050  0.9453  0.4987 -0.1893
 5170SOL     OW26968   2.396   4.372   9.786  0.0458  0.1080  0.2036
 5170SOL    HW126969   2.413   4.306   9.718 -0.1272 -1.2281  1.4628
 5170SOL    HW226970   2.475   4.354   9.837  0.6215  0.2757 -0.6231
 5171SOL     OW26971   0.600   2.365   1.905 -0.0926 -0.8002  0.2756
 5171SOL    HW126972   0.628   2.452   1.933  0.0600 -1.4199  2.0589
 5171SOL    HW226973   0.561   2.330   1.985  0.4141 -0.8863  0.4844
 5172SOL     OW26974   2.763   0.844   8.787 -0.5384 -0.1303  0.0908
 5172SOL    HW126975   2.743   0.859   8.879  0.2564 -0.3196  0.2977
 5172SOL    HW226976   2.728   0.755   8.790 -0.8125 -0.0238  0.0282
 5173SOL     OW26977   0.362   3.187   2.020  0.4291  0.0732 -0.4268
 5173SOL    HW126978   0.330   3.144   2.099  0.0133 -0.0547 -0.6601
 5173SOL    HW226979   0.453   3.191   2.049  0.9817 -0.5844 -2.0482
 5174SOL     OW26980   1.669   2.130   6.764 -0.4862 -0.2568 -0.1162
 5174SOL    HW126981   1.753   2.175   6.764 -0.2101 -0.7667  1.5130
 5174SOL    HW226982   1.677   2.038   6.737 -0.5605 -0.6480  1.1712
 5175SOL     OW26983   1.340   0.639   8.199 -0.0244 -0.0054  0.0152
 5175SOL    HW126984   1.264   0.624   8.256  0.0869 -1.6921 -0.2814
 5175SOL    HW226985   1.418   0.645   8.253 -0.2627  1.3828  0.2081
 5176SOL     OW26986   3.016   2.895   3.715  0.1132  0.7292 -0.0853
 5176SOL    HW126987   3.033   2.894   3.809  0.5790 -3.0179 -0.1817
 5176SOL    HW226988   2.923   2.915   3.718 -0.3129 -0.9049 -1.8920
 5177SOL     OW26989   3.257   0.668   6.339 -0.3215 -0.8677  0.0116
 5177SOL    HW126990   3.216   0.583   6.333  0.0169 -1.0771  0.6100
 5177SOL    HW226991   3.254   0.676   6.435 -3.0821  2.0266 -0.3210
 5178SOL     OW26992   0.815   2.066   2.471 -0.2582 -0.4987  0.2554
 5178SOL    HW126993   0.754   2.011   2.521 -0.1142 -0.0138  0.9777
 5178SOL    HW226994   0.764   2.138   2.433  0.5829  1.4834  2.8805
 5179SOL     OW26995   1.970   3.274   8.801  0.0774  0.0142 -0.3223
 5179SOL    HW126996   2.013   3.327   8.734  0.9473 -0.9052 -0.5036
 5179SOL    HW226997   1.937   3.342   8.859  0.5006  0.7953 -0.9968
 5180SOL     OW26998   2.641   3.249   7.747 -0.2554  0.4942 -0.0759
 5180SOL    HW126999   2.683   3.178   7.795 -0.0483 -0.8477 -2.2748
 5180SOL    HW227000   2.714   3.312   7.746  1.3203 -1.3529 -0.3921
 5181SOL     OW27001   1.055   3.407   2.681  0.6419  0.0919 -0.1232
 5181SOL    HW127002   1.086   3.328   2.637 -1.0173 -1.1032  0.8227
 5181SOL    HW227003   1.089   3.480   2.631 -0.6114  0.9450  0.2686
 5182SOL     OW27004   0.440   1.025   0.527 -0.5001 -0.4030  0.1806
 5182SOL    HW127005   0.431   1.016   0.622 -1.0649  0.5132  0.2222
 5182SOL    HW227006   0.352   1.055   0.507 -0.0470 -0.9414 -2.5345
 5183SOL     OW27007   4.476   2.812  16.194 -0.1424 -0.1906 -0.4171
 5183SOL    HW127008   4.419   2.855  16.131  0.9238  1.4647 -0.2522
 5183SOL    HW227009   4.477   2.875  16.266 -1.1680 -0.4156 -0.2116
 5184SOL     OW27010   2.256   2.394   0.119 -0.0629 -0.0110 -0.1777
 5184SOL    HW127011   2.308   2.341   0.181 -2.0843 -1.0714  0.6284
 5184SOL    HW227012   2.290   2.362   0.036 -1.7948  0.7489 -1.1834
 5185SOL     OW27013   2.236   2.661   4.310  0.4181 -0.3629  0.4750
 5185SOL    HW127014   2.159   2.694   4.263  0.1584 -1.7179 -0.0554
 5185SOL    HW227015   2.191   2.610   4.378 -0.6539  1.3122  1.0262
 5186SOL     OW27016   1.280   1.774   2.951 -0.8214 -0.1750  0.0300
 5186SOL    HW127017   1.290   1.745   2.860  0.6658 -1.6021  0.6426
 5186SOL    HW227018   1.369   1.775   2.986 -0.8750  0.2250  0.1559
 5187SOL     OW27019   4.637   0.277   1.065  0.1606 -0.7341 -0.2476
 5187SOL    HW127020   4.581   0.318   0.999 -1.5991 -0.9976  1.1058
 5187SOL    HW227021   4.615   0.188   1.037 -1.3157 -0.4837  0.1133
 5188SOL     OW27022   0.304   1.208   4.125 -0.4741 -0.5976  0.1431
 5188SOL    HW127023   0.249   1.257   4.186 -0.3006 -1.6686  1.1590
 5188SOL    HW227024   0.303   1.268   4.051  0.5095 -0.8022 -0.0385
 5189SOL     OW27025   3.095   4.565   4.898  0.0835 -0.1379  0.1068
 5189SOL    HW127026   3.186   4.581   4.925  0.0771 -0.0822  0.0949
 5189SOL    HW227027   3.112   4.485   4.847  1.6395  2.6247 -3.6625
 5190SOL     OW27028   1.328   0.402   8.545  0.0425  0.0174  0.1349
 5190SOL    HW127029   1.316   0.331   8.483  0.5270  0.2479 -0.2147
 5190SOL    HW227030   1.407   0.444   8.513  1.3723  0.0496  3.4085
 5191SOL     OW27031   0.889   0.661   6.638  0.2198 -0.3810 -0.6711
 5191SOL    HW127032   0.948   0.734   6.621  1.0810 -1.1128 -0.8496
 5191SOL    HW227033   0.888   0.664   6.734  3.3853  0.2297 -0.6643
 5192SOL     OW27034   0.929   2.105  16.306 -0.0582  0.2077 -0.6633
 5192SOL    HW127035   0.889   2.022  16.331  1.8608 -1.1280 -2.0502
 5192SOL    HW227036   0.944   2.100  16.211 -2.8564 -0.2207 -1.0650
 5193SOL     OW27037   0.051   1.546   3.964 -0.1698  0.3685 -0.3946
 5193SOL    HW127038   0.021   1.542   4.055 -1.8755  1.0632 -0.9256
 5193SOL    HW227039   4.708   1.505   3.912  0.2808  0.4744 -1.0602
 5194SOL     OW27040   4.521   2.962   8.593  0.6371  0.1318 -0.4402
 5194SOL    HW127041   4.509   2.989   8.502 -2.0811 -1.0707 -0.4484
 5194SOL    HW227042   4.534   3.044   8.640  1.1527 -0.5195  0.5705
 5195SOL     OW27043   3.460   2.272   1.511  0.1756  0.5707  0.1635
 5195SOL    HW127044   3.546   2.292   1.472  1.0690 -2.0606  0.8147
 5195SOL    HW227045   3.453   2.177   1.505 -0.8234  0.7206 -1.0486
 5196SOL     OW27046   1.509   1.284   9.368 -0.0322  0.0721  0.0689
 5196SOL    HW127047   1.486   1.371   9.336 -0.8430 -0.4354 -0.7184
 5196SOL    HW227048   1.599   1.289   9.401 -0.2240 -0.7630  0.7206
 5197SOL     OW27049   4.391   2.186   4.442 -0.2608 -0.2926 -0.4557
 5197SOL    HW127050   4.362   2.099   4.415 -0.9744 -0.6015  1.2971
 5197SOL    HW227051   4.305   2.229   4.439  0.4527  0.9908 -2.3577
 5198SOL     OW27052   3.245   1.351   0.376 -0.5846  0.3290  0.3226
 5198SOL    HW127053   3.313   1.297   0.336 -1.5675 -2.0706  1.9150
 5198SOL    HW227054   3.206   1.281   0.427 -2.8425  0.2786 -1.4730
 5199SOL     OW27055   0.497   2.015   3.296 -0.5917 -0.3317 -0.6722
 5199SOL    HW127056   0.581   2.057   3.279 -0.6523 -0.2900 -0.8669
 5199SOL    HW227057   0.443   2.044   3.223 -1.4247 -1.0051 -0.3297
 5200SOL     OW27058   3.595   0.697   6.776  0.0935  0.2029 -0.0742
 5200SOL    HW127059   3.583   0.792   6.774 -0.6493  0.0806 -1.2214
 5200SOL    HW227060   3.507   0.673   6.805 -0.7076 -0.5615 -3.1542
 5201SOL     OW27061   2.089   1.231  13.295  0.7265  0.1656  0.4546
 5201SOL    HW127062   2.036   1.310  13.285  0.0892 -0.0625  2.0643
 5201SOL    HW227063   2.105   1.226  13.389 -0.4823 -0.2543  0.6366
 5202SOL     OW27064   2.313   1.032  13.360 -0.6767 -0.2463  0.4766
 5202SOL    HW127065   2.228   0.995  13.335 -0.8355  0.5564 -0.2126
 5202SOL    HW227066   2.307   1.088  13.437  0.0132  0.6281 -0.1005
 5203SOL     OW27067   4.074   1.562   8.405 -0.3681  0.0714 -0.2225
 5203SOL    HW127068   4.103   1.519   8.485 -0.6377  0.8831  0.3105
 5203SOL    HW227069   4.034   1.641   8.442 -2.9996 -1.7635  0.9093
 5204SOL     OW27070   2.027   1.539  13.721 -0.0989  0.0858 -0.2663
 5204SOL    HW127071   2.055   1.551  13.631  1.3907 -1.5375 -0.0234
 5204SOL    HW227072   1.994   1.450  13.711 -1.4026  0.3863  1.3220
 5205SOL     OW27073   3.364   2.179   2.750 -0.5815  0.0012  0.1664
 5205SOL    HW127074   3.384   2.091   2.781 -0.6184  0.1241  0.5410
 5205SOL    HW227075   3.296   2.161   2.686  1.6111 -0.5848 -1.9814
 5206SOL     OW27076   3.072   1.768  13.991  0.2718 -0.7443  0.0677
 5206SOL    HW127077   3.095   1.698  14.051  2.0060  1.1737  1.6431
 5206SOL    HW227078   3.132   1.739  13.921  0.7020  1.1414 -0.3473
 5207SOL     OW27079   2.855   2.954   3.062  0.3413  0.9485  0.6013
 5207SOL    HW127080   2.902   2.886   3.014 -2.7017 -0.6661 -0.0889
 5207SOL    HW227081   2.799   2.979   2.989  2.1572 -0.7656 -1.3778
 5208SOL     OW27082   0.084   3.408  13.177 -0.0448 -0.0929 -0.3157
 5208SOL    HW127083   0.128   3.345  13.234  0.7642  0.9328  0.2024
 5208SOL    HW227084   0.115   3.493  13.209 -0.8550 -0.3065  1.0431
 5209SOL     OW27085   4.286   3.516   8.849  0.2148 -0.3723 -0.1687
 5209SOL    HW127086   4.322   3.454   8.786 -0.2344  0.5981 -1.3841
 5209SOL    HW227087   4.220   3.555   8.791  0.7152 -0.5523 -0.8511
 5210SOL     OW27088   2.135   1.777   9.544  0.0969 -0.0330  0.1435
 5210SOL    HW127089   2.086   1.846   9.500 -0.7136 -0.2595  0.6745
 5210SOL    HW227090   2.075   1.761   9.617  1.3807  0.4835  1.3170
 5211SOL     OW27091   2.840   1.673   5.915 -0.4418 -0.2467  0.7742
 5211SOL    HW127092   2.877   1.742   5.971 -0.2294 -1.1371  1.7196
 5211SOL    HW227093   2.898   1.597   5.909  0.5401  0.5775 -0.2102
 5212SOL     OW27094   4.316   4.371  13.692  0.4663  0.5828  0.3812
 5212SOL    HW127095   4.320   4.376  13.788 -3.3756 -0.2529  0.6001
 5212SOL    HW227096   4.258   4.295  13.683  1.2104  0.0088  0.4752
 5213SOL     OW27097   2.523   3.563   1.637 -0.1734  0.9275 -0.9761
 5213SOL    HW127098   2.526   3.647   1.591  0.3860  1.1051 -0.6106
 5213SOL    HW227099   2.506   3.496   1.571 -1.0754  0.1230  0.0782
 5214SOL     OW27100   4.156   0.012   4.831  0.5214 -0.0250  0.4035
 5214SOL    HW127101   4.236   4.706   4.872  0.3548  0.6554  1.2408
 5214SOL    HW227102   4.151   0.106   4.848 -0.8125  0.3300 -1.9008
 5215SOL     OW27103   3.045   2.751  11.091  0.2910 -0.0631  0.0215
 5215SOL    HW127104   3.018   2.695  11.164  3.3643 -0.3514  0.9486
 5215SOL    HW227105   3.139   2.756  11.108 -0.1107 -0.8046  2.4491
 5216SOL     OW27106   1.563   3.841   3.819  0.0255 -0.5451  0.2160
 5216SOL    HW127107   1.603   3.880   3.741  0.5976  0.1517  0.8675
 5216SOL    HW227108   1.475   3.826   3.786  0.7044 -2.2208 -0.8661
 5217SOL     OW27109   0.822   1.956   4.850 -0.2348 -0.0783 -0.3697
 5217SOL    HW127110   0.819   1.899   4.927  0.0796  1.7290  0.9812
 5217SOL    HW227111   0.814   1.899   4.774 -1.9099  0.0686 -0.3021
 5218SOL     OW27112   2.408   0.421   2.309 -0.2250  0.3695 -0.5009
 5218SOL    HW127113   2.489   0.438   2.359  0.3240  0.5920 -1.4759
 5218SOL    HW227114   2.347   0.483   2.348 -0.5517 -0.4813  0.3611
 5219SOL     OW27115   1.907   2.174   6.556  0.2710 -0.2425  0.1490
 5219SOL    HW127116   1.906   2.242   6.488 -1.1344 -0.8556 -0.4384
 5219SOL    HW227117   1.819   2.137   6.551 -0.4480  1.0924  2.9079
 5220SOL     OW27118   2.200   2.503   5.333  0.2665  0.4100 -0.1374
 5220SOL    HW127119   2.282   2.454   5.324  0.3785  0.2647  1.6783
 5220SOL    HW227120   2.154   2.485   5.251  0.2468  0.9266 -0.2373
 5221SOL     OW27121   0.756   2.939  12.429  0.3070 -0.1991  0.0799
 5221SOL    HW127122   0.812   2.913  12.356 -0.1280 -0.8232 -0.0296
 5221SOL    HW227123   0.806   2.948  12.509 -2.2775 -0.7427  1.7528
 5222SOL     OW27124   0.970   1.089   3.940 -0.4102  0.4889  0.1155
 5222SOL    HW127125   0.906   1.159   3.926  1.5978  2.3248  0.1038
 5222SOL    HW227126   1.009   1.088   3.853 -1.2904  1.7424 -0.2979
 5223SOL     OW27127   0.517   3.766   8.607  0.0671  0.2063  0.5994
 5223SOL    HW127128   0.558   3.845   8.571  0.6435 -0.7853 -0.8885
 5223SOL    HW227129   0.432   3.809   8.621 -0.7225 -0.5117 -2.0298
 5224SOL     OW27130   2.930   3.711   5.705  0.0952 -0.2451  0.1810
 5224SOL    HW127131   2.852   3.665   5.735  1.7944 -2.3053  1.4498
 5224SOL    HW227132   2.949   3.659   5.626 -0.4808  0.3011 -0.3172
 5225SOL     OW27133   2.079   3.497   9.474 -0.5883  0.0531  0.5407
 5225SOL    HW127134   2.173   3.506   9.455 -0.4172  0.6954  1.6659
 5225SOL    HW227135   2.052   3.585   9.447 -2.3534 -0.5952  0.2215
 5226SOL     OW27136   2.786   3.141   3.246  0.4050 -0.2928  0.3239
 5226SOL    HW127137   2.829   3.091   3.176  3.1047  0.9470  1.1007
 5226SOL    HW227138   2.698   3.162   3.214  1.4597  2.2429 -0.9067
 5227SOL     OW27139   0.437   3.190   5.795 -0.4864  0.2401 -0.1920
 5227SOL    HW127140   0.384   3.268   5.781  0.3519  1.0240  0.9495
 5227SOL    HW227141   0.384   3.154   5.866 -2.3961  1.5057 -0.9735
 5228SOL     OW27142   1.621   0.733   8.323  0.5604  0.4251 -0.1209
 5228SOL    HW127143   1.605   0.758   8.414 -1.2130  0.0087 -0.3244
 5228SOL    HW227144   1.671   0.804   8.281  1.1825 -1.6457 -2.9575
 5229SOL     OW27145   1.822   4.202  15.047  0.1226 -0.2783  0.8129
 5229SOL    HW127146   1.752   4.265  15.063 -0.2315 -0.8856  1.6552
 5229SOL    HW227147   1.780   4.125  15.007  0.9048 -0.2769  0.0018
 5230SOL     OW27148   3.278   1.132   7.658  0.0870 -0.2398  0.2973
 5230SOL    HW127149   3.281   1.197   7.729  2.2930 -0.0038 -0.0219
 5230SOL    HW227150   3.358   1.152   7.608  0.5620  1.8400  1.8725
 5231SOL     OW27151   2.004   1.463   4.265 -0.1297 -0.1227 -0.0422
 5231SOL    HW127152   1.933   1.483   4.327  0.8762  0.9222  0.7658
 5231SOL    HW227153   2.050   1.546   4.256 -0.7463  0.3766  1.3105
 5232SOL     OW27154   4.005   2.588  16.777 -0.3539 -0.5427  0.3002
 5232SOL    HW127155   4.006   2.532  16.699  0.1457 -1.2834  0.8461
 5232SOL    HW227156   3.954   2.533  16.836  2.0923 -1.8939  1.1321
 5233SOL     OW27157   3.883   0.744   0.388  0.1653 -0.1400  0.1379
 5233SOL    HW127158   3.941   0.806   0.433 -0.8485  0.9541 -0.0830
 5233SOL    HW227159   3.851   0.692   0.462 -0.1954  0.9604  0.7429
 5234SOL     OW27160   2.703   0.122   5.305 -0.3205  0.1872  0.0511
 5234SOL    HW127161   2.751   0.114   5.387 -0.4960  0.3970  0.1757
 5234SOL    HW227162   2.774   0.081   5.256 -1.4885 -0.6120 -0.9585
 5235SOL     OW27163   1.947   4.514   7.397 -0.0995 -0.3389  0.2826
 5235SOL    HW127164   1.938   4.496   7.490 -0.1249  1.5479  0.6329
 5235SOL    HW227165   2.009   4.586   7.406  0.5963 -0.8627 -0.2825
 5236SOL     OW27166   2.926   0.956   9.898 -0.3929  0.0827  0.0810
 5236SOL    HW127167   2.949   0.866   9.920  1.0724  1.4418  4.1666
 5236SOL    HW227168   2.871   0.943   9.821 -1.6010  0.3619  0.8914
 5237SOL     OW27169   4.521   3.207  16.118  0.4289  0.2210  0.1974
 5237SOL    HW127170   4.533   3.298  16.090  0.9642  1.3538  4.0450
 5237SOL    HW227171   4.608   3.174  16.139  0.2676  0.4898  1.2792
 5238SOL     OW27172   0.793   3.318   8.203  0.4226 -0.0182 -0.1141
 5238SOL    HW127173   0.857   3.358   8.262 -1.7293 -1.4315  3.1688
 5238SOL    HW227174   0.834   3.231   8.204  0.3742  0.0268  5.1642
 5239SOL     OW27175   1.501   4.215   3.980 -0.0152 -0.7413  0.4896
 5239SOL    HW127176   1.449   4.135   3.969 -1.6896  0.4062  0.1148
 5239SOL    HW227177   1.502   4.246   3.890 -1.0449 -1.7150  0.1325
 5240SOL     OW27178   3.279   1.603  12.601 -0.0076 -0.2751 -0.0073
 5240SOL    HW127179   3.283   1.574  12.692  0.6859 -1.4717 -0.4175
 5240SOL    HW227180   3.238   1.528  12.557 -2.4248  3.0170 -3.4171
 5241SOL     OW27181   2.280   1.868   7.014 -0.0414  0.2068  0.0830
 5241SOL    HW127182   2.289   1.857   7.109  1.7687 -0.8218 -0.1921
 5241SOL    HW227183   2.258   1.961   7.008 -1.0928 -0.0650 -0.1546
 5242SOL     OW27184   0.955   3.060   7.152 -0.2760 -0.3759  0.3212
 5242SOL    HW127185   0.898   3.136   7.167 -0.1309  0.2750 -2.3991
 5242SOL    HW227186   0.978   3.051   7.245 -2.0432 -2.6965  0.5326
 5243SOL     OW27187   1.046   2.677   3.669 -0.7645  0.3916 -0.4980
 5243SOL    HW127188   0.980   2.722   3.617 -3.6204  1.4400  4.0147
 5243SOL    HW227189   1.095   2.752   3.704 -3.0976  1.8606 -0.4305
 5244SOL     OW27190   2.306   4.563   3.643 -0.1155 -0.1016  0.0981
 5244SOL    HW127191   2.401   4.554   3.649 -0.0982  0.8982  1.2053
 5244SOL    HW227192   2.281   4.471   3.651  2.4416 -0.8705 -0.5530
 5245SOL     OW27193   4.403   0.097   2.061 -0.3154 -0.6793  1.2134
 5245SOL    HW127194   4.311   0.093   2.035  0.3968 -1.2051 -1.2057
 5245SOL    HW227195   4.431   0.006   2.050  1.1101  0.1162 -1.6969
 5246SOL     OW27196   4.477   2.662   0.605 -0.0034  0.0222  0.1545
 5246SOL    HW127197   4.473   2.737   0.547 -1.3655 -2.0983 -2.4676
 5246SOL    HW227198   4.386   2.639   0.624 -0.4284  0.8359 -0.9236
 5247SOL     OW27199   2.253   2.673   3.820  0.2732 -0.2376  0.7242
 5247SOL    HW127200   2.304   2.604   3.863  0.2500 -0.4438  0.4223
 5247SOL    HW227201   2.258   2.741   3.887 -0.8721  2.2609 -1.7478
 5248SOL     OW27202   1.838   1.185   7.335 -0.5597  0.1804 -0.0376
 5248SOL    HW127203   1.924   1.210   7.367 -0.1493 -1.4224  0.1230
 5248SOL    HW227204   1.789   1.261   7.368 -3.2015 -1.1776 -0.8018
 5249SOL     OW27205   1.168   0.166   1.427  0.2709  0.0931  0.2095
 5249SOL    HW127206   1.171   0.072   1.446 -1.8687 -0.0886 -0.4019
 5249SOL    HW227207   1.086   0.194   1.468  0.7944  1.2231  0.5082
 5250SOL     OW27208   4.373   1.128   2.794  0.6439  0.2350 -0.1427
 5250SOL    HW127209   4.396   1.050   2.845  2.1194 -0.2052 -1.4630
 5250SOL    HW227210   4.455   1.148   2.748  0.0478  1.7902 -0.5068
 5251SOL     OW27211   0.549   0.657   0.220 -0.5465  0.2897 -0.1624
 5251SOL    HW127212   0.604   0.703   0.156 -0.0775 -0.6986 -0.4742
 5251SOL    HW227213   0.547   0.721   0.292  0.4078  0.8576 -0.6320
 5252SOL     OW27214   2.081   2.614   1.674  0.6738 -0.8614 -0.3304
 5252SOL    HW127215   2.029   2.636   1.752 -0.0517 -2.4967 -0.3623
 5252SOL    HW227216   2.173   2.608   1.702  0.9405 -0.4306 -1.1191
 5253SOL     OW27217   2.204   2.065   3.180 -0.7875 -0.1030  0.3326
 5253SOL    HW127218   2.240   1.989   3.225 -2.2001 -0.8486  0.1876
 5253SOL    HW227219   2.180   2.016   3.101 -1.7640 -1.3955  1.4348
 5254SOL     OW27220   3.747   2.277   4.430  0.0545  0.4894 -0.5746
 5254SOL    HW127221   3.808   2.234   4.490  0.4653 -0.1059 -1.4061
 5254SOL    HW227222   3.689   2.202   4.417 -0.0168  0.5713 -0.7273
 5255SOL     OW27223   1.664   0.929  13.338 -0.0251 -0.1497 -0.8740
 5255SOL    HW127224   1.580   0.966  13.310 -0.5528 -0.9004 -0.3004
 5255SOL    HW227225   1.636   0.838  13.353  0.2559  0.0070  0.6143
 5256SOL     OW27226   2.176   3.819   7.987  0.8218  0.2538  0.4030
 5256SOL    HW127227   2.125   3.792   7.910  0.8480  2.1987 -0.2952
 5256SOL    HW227228   2.110   3.800   8.054 -0.7943 -1.6237 -1.6720
 5257SOL     OW27229   1.677   2.076   7.156 -0.0986 -0.4675 -0.1059
 5257SOL    HW127230   1.733   2.113   7.225  1.2561 -1.6031 -0.5983
 5257SOL    HW227231   1.661   2.152   7.100  2.0112  0.1983  0.1526
 5258SOL     OW27232   4.336   1.597   5.591 -0.5658  0.0121 -0.3544
 5258SOL    HW127233   4.401   1.528   5.598 -1.5103 -0.6215  1.8950
 5258SOL    HW227234   4.250   1.559   5.609 -0.3512 -1.6011 -2.6936
 5259SOL     OW27235   3.671   3.226   1.715  0.1757 -0.0117  0.2555
 5259SOL    HW127236   3.722   3.296   1.756  1.5959 -1.9734  1.7957
 5259SOL    HW227237   3.689   3.249   1.624 -0.1497  1.3399  0.5204
 5260SOL     OW27238   0.150   1.430  11.810  0.0878 -0.2814 -0.2587
 5260SOL    HW127239   0.112   1.343  11.799 -1.8906  0.3760  1.3303
 5260SOL    HW227240   0.242   1.413  11.788  0.1135 -1.4589  0.7294
 5261SOL     OW27241   2.476   1.969   9.998  0.7771  0.2617 -0.0243
 5261SOL    HW127242   2.523   1.887   9.983 -2.0910 -1.3546 -0.1687
 5261SOL    HW227243   2.462   2.010   9.913  2.0440 -0.1678 -0.4475
 5262SOL     OW27244   4.126   0.217  16.594 -0.4161  0.2605  0.4605
 5262SOL    HW127245   4.133   0.134  16.640  0.3715 -0.2795 -0.6281
 5262SOL    HW227246   4.127   0.188  16.502  1.8961 -2.6241  1.4097
 5263SOL     OW27247   0.257   2.971   9.916  0.0113 -0.0522 -0.1488
 5263SOL    HW127248   0.216   2.900   9.966 -0.1168 -1.1558 -1.8008
 5263SOL    HW227249   0.187   3.036   9.914 -0.5064 -0.5648  1.1493
 5264SOL     OW27250   1.631   2.066   5.463  0.1778  0.5460 -0.1736
 5264SOL    HW127251   1.697   2.023   5.517  0.5303 -0.5729 -1.4813
 5264SOL    HW227252   1.564   2.085   5.528  1.4377 -0.4473  1.4201
 5265SOL     OW27253   1.018   0.804   9.871 -0.3288  0.4038  0.4880
 5265SOL    HW127254   0.967   0.885   9.869 -0.9538 -0.0476 -2.2246
 5265SOL    HW227255   1.078   0.826   9.942  1.2689 -2.0839 -0.1044
 5266SOL     OW27256   1.359   0.673   3.188  0.2066  0.0602  0.3612
 5266SOL    HW127257   1.380   0.734   3.259  1.9811  0.6252 -0.6442
 5266SOL    HW227258   1.434   0.613   3.188  1.0738  1.1302 -0.4633
 5267SOL     OW27259   3.195   4.189   6.108 -1.1222 -0.0854 -0.3855
 5267SOL    HW127260   3.249   4.119   6.143 -1.9373 -1.0127 -0.9762
 5267SOL    HW227261   3.142   4.211   6.184 -1.4318 -1.4898 -0.2075
 5268SOL     OW27262   4.132   2.388   4.169 -0.1541  0.0541  0.6040
 5268SOL    HW127263   4.159   2.301   4.139 -1.0493 -0.1484  0.3842
 5268SOL    HW227264   4.143   2.383   4.264  0.6397 -1.1090  0.4407
 5269SOL     OW27265   2.856   4.283  13.456  0.2505  0.0544 -0.3086
 5269SOL    HW127266   2.854   4.214  13.523 -0.8171 -1.8307 -2.2818
 5269SOL    HW227267   2.762   4.297  13.449  0.2480  0.0463 -0.2923
 5270SOL     OW27268   2.263   2.329   7.115  0.0667  0.6253  0.4762
 5270SOL    HW127269   2.347   2.284   7.103 -1.5580 -1.5643 -2.7062
 5270SOL    HW227270   2.207   2.264   7.073  0.7495 -0.0852  0.6515
 5271SOL     OW27271   2.333   0.757   2.936 -0.4831 -0.0482  0.0881
 5271SOL    HW127272   2.289   0.747   3.021 -0.2950  0.0014  0.1904
 5271SOL    HW227273   2.427   0.752   2.952 -0.3066 -2.3356 -1.6505
 5272SOL     OW27274   3.357   1.810   6.508  0.1336 -0.4939 -0.6532
 5272SOL    HW127275   3.283   1.768   6.551  1.1946 -1.0913  0.5780
 5272SOL    HW227276   3.420   1.740   6.490 -0.0281 -0.7615 -0.1563
 5273SOL     OW27277   2.391   1.227  15.140  0.1563 -0.0692  0.2412
 5273SOL    HW127278   2.368   1.312  15.100  0.9361  1.1249  2.3241
 5273SOL    HW227279   2.405   1.179  15.058  1.4287 -1.2189  1.1460
 5274SOL     OW27280   4.581   2.783   7.987  0.2474 -0.3679 -0.5939
 5274SOL    HW127281   4.589   2.698   8.030  1.4009  0.1859  0.2941
 5274SOL    HW227282   4.491   2.805   8.011  0.6490  2.0342 -1.2653
 5275SOL     OW27283   3.934   0.026   4.339  0.0611 -0.2330  0.2230
 5275SOL    HW127284   3.959   0.114   4.369  0.5635  0.1749 -1.4270
 5275SOL    HW227285   3.898   4.712   4.419 -2.1633  2.3549  0.4778
 5276SOL     OW27286   4.513   0.751   2.177  0.6879 -0.3298  0.0662
 5276SOL    HW127287   4.451   0.789   2.116  0.2381  0.3898  0.9702
 5276SOL    HW227288   4.553   0.682   2.124  0.8506  0.8127 -1.2782
 5277SOL     OW27289   1.933   1.488   5.377  0.5070  0.3373 -0.5757
 5277SOL    HW127290   1.994   1.519   5.444  0.9180 -0.7666 -0.4472
 5277SOL    HW227291   1.964   1.540   5.303 -2.5633  1.4189 -1.1087
 5278SOL     OW27292   1.936   1.489   4.997  0.0093 -0.3700 -0.5309
 5278SOL    HW127293   1.929   1.556   5.065  0.7552 -0.3966 -0.4230
 5278SOL    HW227294   1.992   1.533   4.932  0.5176 -1.2414 -0.6910
 5279SOL     OW27295   1.620   1.165   4.343  0.1584  0.5393 -0.2495
 5279SOL    HW127296   1.546   1.127   4.295  0.3650  0.9820 -0.9182
 5279SOL    HW227297   1.655   1.077   4.360  0.0469  1.0266  2.4089
 5280SOL     OW27298   3.062   4.559  10.228  0.3947  0.0566  0.1857
 5280SOL    HW127299   3.022   4.622  10.168 -0.5650 -1.2040 -0.5078
 5280SOL    HW227300   2.989   4.541  10.288 -1.0877  0.1692 -1.5775
 5281SOL     OW27301   4.292   1.215   8.640  0.0325 -0.3110  0.4498
 5281SOL    HW127302   4.294   1.122   8.663  2.1043 -0.7277 -1.3449
 5281SOL    HW227303   4.305   1.214   8.545  1.4670 -1.0896  0.6613
 5282SOL     OW27304   1.697   3.717  13.265  0.0379  0.0008 -0.0474
 5282SOL    HW127305   1.738   3.775  13.329 -2.8334  1.0752  0.8085
 5282SOL    HW227306   1.737   3.632  13.283  1.0319  0.4596 -0.1177
 5283SOL     OW27307   1.180   2.259   0.572  0.5238 -0.0126 -0.2521
 5283SOL    HW127308   1.185   2.240   0.478  3.9711 -0.9015  0.1141
 5283SOL    HW227309   1.178   2.173   0.614 -0.5866  0.3297  0.3983
 5284SOL     OW27310   0.605   0.692   9.067  0.0041 -0.4495 -0.0673
 5284SOL    HW127311   0.685   0.742   9.084 -0.6613  1.1796 -1.8207
 5284SOL    HW227312   0.565   0.679   9.153 -0.6736 -1.4128 -0.5216
 5285SOL     OW27313   2.930   2.903  11.337 -0.0409 -0.0950  0.0903
 5285SOL    HW127314   2.950   2.825  11.390  0.6595 -0.4201 -0.6575
 5285SOL    HW227315   2.850   2.927  11.385 -1.3424  0.6073 -2.4481
 5286SOL     OW27316   3.389   0.256  15.564  0.4359  0.4142  0.3017
 5286SOL    HW127317   3.424   0.340  15.595 -0.2985  0.5814  0.6778
 5286SOL    HW227318   3.295   0.272  15.557  0.9200  2.0279 -2.6327
 5287SOL     OW27319   2.587   1.012   6.002 -0.1270  0.4623 -0.6617
 5287SOL    HW127320   2.494   1.036   5.996 -0.3712 -0.4757 -0.5545
 5287SOL    HW227321   2.593   0.943   5.937  0.2065 -0.3790  0.2701
 5288SOL     OW27322   4.481   2.922   5.172 -1.1291 -0.4304 -0.0462
 5288SOL    HW127323   4.492   2.836   5.131  0.7457 -0.2862  0.1641
 5288SOL    HW227324   4.557   2.903   5.227 -0.5990  4.0263  0.7324
 5289SOL     OW27325   3.966   1.679   2.015  0.0366 -0.8234  0.3669
 5289SOL    HW127326   4.058   1.693   2.036  0.4346 -0.1711 -1.8642
 5289SOL    HW227327   3.931   1.758   1.974  2.0886 -1.8118 -3.2637
 5290SOL     OW27328   1.016   2.538   3.082 -0.1134 -0.2242 -0.0319
 5290SOL    HW127329   1.103   2.549   3.045  0.0795 -0.1133  0.4504
 5290SOL    HW227330   0.977   2.497   3.005 -2.2334 -0.4387  1.1513
 5291SOL     OW27331   3.056   3.200   3.552 -0.1735 -0.2998 -0.5533
 5291SOL    HW127332   3.023   3.142   3.620 -3.0609 -0.4314 -2.0418
 5291SOL    HW227333   3.150   3.209   3.568 -0.5538 -1.5071  2.2534
 5292SOL     OW27334   1.294   4.626   2.053 -0.0489 -0.0104  0.4558
 5292SOL    HW127335   1.236   4.590   2.119  0.6650  1.6438  1.9840
 5292SOL    HW227336   1.227   4.647   1.988 -0.0060 -0.8714  0.1381
 5293SOL     OW27337   4.453   3.346   1.833 -0.0841  0.6389  0.4669
 5293SOL    HW127338   4.395   3.317   1.762  0.2551 -0.2375  0.5496
 5293SOL    HW227339   4.527   3.287   1.825 -2.1849 -1.4652 -3.5762
 5294SOL     OW27340   4.711   2.910   7.672 -0.0039  0.1613 -0.0276
 5294SOL    HW127341   4.636   2.856   7.648  1.2918 -1.4260 -0.5383
 5294SOL    HW227342   4.670   2.982   7.719  1.2447  2.1327 -1.9264
 5295SOL     OW27343   3.918   0.168   2.756 -0.2223 -0.3607  0.8006
 5295SOL    HW127344   3.951   0.219   2.683 -2.7372  2.6113  1.7487
 5295SOL    HW227345   3.895   0.081   2.723  1.2318  0.1807 -1.6296
 5296SOL     OW27346   1.058   2.781   5.901 -0.2180 -0.6960  0.0572
 5296SOL    HW127347   1.030   2.775   5.993  1.8149 -1.1173  0.6472
 5296SOL    HW227348   0.972   2.791   5.860  1.0467 -0.8001 -2.5762
 5297SOL     OW27349   2.369   3.715  14.508  0.4010  0.0085 -0.1843
 5297SOL    HW127350   2.323   3.792  14.476  0.7170  0.1744 -0.2427
 5297SOL    HW227351   2.323   3.704  14.591 -0.6222  0.9702 -0.6332
 5298SOL     OW27352   2.790   3.760   2.493  0.2915  0.0697  0.2441
 5298SOL    HW127353   2.885   3.757   2.494  0.2127 -2.8971  1.2779
 5298SOL    HW227354   2.766   3.839   2.445 -1.0925 -1.3366 -1.4067
 5299SOL     OW27355   2.237   3.945  14.428  0.3433 -0.7919 -0.2073
 5299SOL    HW127356   2.218   3.939  14.334 -0.6054 -0.1819 -0.0508
 5299SOL    HW227357   2.207   4.033  14.449 -1.2892 -1.9667  2.3022
 5300SOL     OW27358   3.834   1.334  13.359 -0.5735  0.3357  0.4889
 5300SOL    HW127359   3.918   1.304  13.395  0.1198  0.7822 -0.7546
 5300SOL    HW227360   3.818   1.264  13.296  1.9070 -1.2990  1.6755
 5301SOL     OW27361   0.609   0.241   3.709  0.2163 -0.1701 -0.3209
 5301SOL    HW127362   0.696   0.220   3.676  0.8254  0.0486  1.1570
 5301SOL    HW227363   0.562   0.247   3.625 -0.3805  1.7457  0.1493
 5302SOL     OW27364   0.040   3.418   8.920 -0.9921  0.7890 -0.1588
 5302SOL    HW127365   4.715   3.484   8.872 -3.5062  0.7191  2.2801
 5302SOL    HW227366   0.019   3.336   8.875  0.7737 -1.1727  2.5365
 5303SOL     OW27367   2.544   3.092   8.712  0.2774 -0.0979  0.1455
 5303SOL    HW127368   2.556   3.174   8.760 -2.7621  0.8100 -0.6667
 5303SOL    HW227369   2.452   3.079   8.734 -0.0469  0.6396 -0.8136
 5304SOL     OW27370   1.279   2.618   5.864  0.3571 -0.2170  0.7728
 5304SOL    HW127371   1.210   2.678   5.894 -0.9264 -0.2678 -2.0890
 5304SOL    HW227372   1.283   2.554   5.934 -1.3398  1.3368  2.3112
 5305SOL     OW27373   2.902   0.821   5.750 -0.3216  0.1216  0.1260
 5305SOL    HW127374   2.970   0.853   5.809  0.8040 -1.2070 -0.4415
 5305SOL    HW227375   2.924   0.728   5.747  1.7890  0.5970  1.3200
 5306SOL     OW27376   1.657   3.633  11.183 -0.9801  0.0680  0.2342
 5306SOL    HW127377   1.581   3.576  11.170 -1.5279 -0.1609  4.4343
 5306SOL    HW227378   1.709   3.625  11.103 -2.4802  1.5328 -0.8972
 5307SOL     OW27379   1.347   1.830  16.504 -0.4777 -0.4412  0.8823
 5307SOL    HW127380   1.360   1.747  16.458 -0.3241 -0.2411  0.5628
 5307SOL    HW227381   1.398   1.833  16.585  0.7397 -0.9369  0.1184
 5308SOL     OW27382   3.668   2.089   7.820 -0.4097 -0.1924 -0.0173
 5308SOL    HW127383   3.760   2.074   7.842 -1.4971 -1.2953  3.7914
 5308SOL    HW227384   3.642   2.010   7.773  2.6642 -2.0717  1.5076
 5309SOL     OW27385   4.088   0.551  13.997 -0.4777  0.5341  0.2656
 5309SOL    HW127386   4.122   0.630  13.955  1.9070 -0.4339  0.3663
 5309SOL    HW227387   3.997   0.575  14.010 -1.4335 -2.1543 -1.5459
 5310SOL     OW27388   0.337   2.980   2.664  0.0655 -0.8057  0.0055
 5310SOL    HW127389   0.317   3.026   2.746  1.3727  0.8406 -0.5983
 5310SOL    HW227390   0.415   3.031   2.639  1.2488 -1.9623  1.3597
 5311SOL     OW27391   2.276   3.516   6.978  0.0015 -0.0000  0.4201
 5311SOL    HW127392   2.362   3.536   7.014  1.5058 -0.0818 -3.0594
 5311SOL    HW227393   2.283   3.427   7.011  0.5781  0.0830  0.5202
 5312SOL     OW27394   4.444   2.511   4.501  0.0112  0.0348  0.0582
 5312SOL    HW127395   4.405   2.534   4.417 -1.0460 -0.2421  0.4767
 5312SOL    HW227396   4.506   2.443   4.474 -1.3046 -0.8213 -0.8022
 5313SOL     OW27397   0.992   3.404  14.300  0.0211 -0.1184 -0.4093
 5313SOL    HW127398   1.004   3.452  14.381  0.5163  0.0395 -0.5741
 5313SOL    HW227399   0.899   3.391  14.318 -0.0790  1.3075  0.1305
 5314SOL     OW27400   2.076   2.269   1.316 -0.1598 -0.0074 -0.3454
 5314SOL    HW127401   2.055   2.355   1.353 -0.4362  0.1821 -0.9478
 5314SOL    HW227402   2.049   2.221   1.394 -2.1587  0.6524 -0.6450
 5315SOL     OW27403   2.321   1.420   0.365  0.4033  0.1951 -0.3541
 5315SOL    HW127404   2.338   1.331   0.396 -2.8846  0.4759  2.2848
 5315SOL    HW227405   2.307   1.415   0.271 -2.5036 -0.7387  0.1306
 5316SOL     OW27406   1.277   4.631   8.177 -0.0049  0.1893 -0.2825
 5316SOL    HW127407   1.228   4.659   8.255  0.8460  0.7143  0.0530
 5316SOL    HW227408   1.209   4.642   8.110 -0.4379  1.6492  0.3997
 5317SOL     OW27409   0.441   1.063   1.995 -0.4268 -0.0266  0.7244
 5317SOL    HW127410   0.393   1.110   1.926  1.4356 -1.2078 -1.4074
 5317SOL    HW227411   0.429   1.119   2.072  1.5805  1.0074  0.2997
 5318SOL     OW27412   4.147   0.763   4.584 -0.5266 -0.0626  0.0180
 5318SOL    HW127413   4.062   0.800   4.606 -0.7848  0.6159 -2.1149
 5318SOL    HW227414   4.167   0.737   4.674  0.8446  0.1141 -0.2398
 5319SOL     OW27415   1.158   4.068   4.151  0.3916  0.5097 -0.3495
 5319SOL    HW127416   1.185   4.105   4.067 -0.0128 -2.0301 -1.5840
 5319SOL    HW227417   1.172   3.977   4.127  1.4411 -0.3727  3.6656
 5320SOL     OW27418   2.319   0.591   8.579  0.4055  0.3848 -0.0344
 5320SOL    HW127419   2.361   0.508   8.557 -2.1393 -1.7117  3.0120
 5320SOL    HW227420   2.227   0.565   8.588  0.4844  0.1300  0.0343
 5321SOL     OW27421   3.694   4.642   7.216  0.3452 -0.1872 -0.0201
 5321SOL    HW127422   3.776   4.635   7.264 -0.7432 -1.0400  1.6953
 5321SOL    HW227423   3.678   0.011   7.207  2.6974  0.2000 -0.0296
 5322SOL     OW27424   2.930   1.942  17.624  0.1787  0.2551  0.0853
 5322SOL    HW127425   2.857   1.910  17.571 -1.6586  1.1516  2.0963
 5322SOL    HW227426   2.876   1.963  17.700  0.6166 -0.2355  0.5331
 5323SOL     OW27427   2.453   3.903  14.753 -0.1133  0.0890  0.5589
 5323SOL    HW127428   2.542   3.909  14.721 -0.4437 -1.4289 -0.6366
 5323SOL    HW227429   2.478   3.888  14.844  1.7120 -1.4924 -0.2202
 5324SOL     OW27430   0.380   0.562  13.714 -0.4767 -0.0049 -0.1939
 5324SOL    HW127431   0.466   0.574  13.753  0.6057  1.1489 -2.9276
 5324SOL    HW227432   0.405   0.539  13.624 -2.0350  0.3696 -0.7333
 5325SOL     OW27433   3.899   1.031   8.026  0.4475  0.3780  0.3211
 5325SOL    HW127434   3.910   0.970   8.099  2.5143  0.7377  0.2991
 5325SOL    HW227435   3.843   0.972   7.975 -0.9690  1.3002  0.8029
 5326SOL     OW27436   3.944   1.265  14.386 -0.2867  0.2777  0.3524
 5326SOL    HW127437   3.856   1.245  14.419 -0.2319 -2.5152 -1.2159
 5326SOL    HW227438   3.996   1.239  14.462 -0.5491 -0.7539  0.1890
 5327SOL     OW27439   0.371   3.287   6.765  0.1605 -0.1400  0.1153
 5327SOL    HW127440   0.434   3.233   6.814  1.9221  0.4941 -1.4550
 5327SOL    HW227441   0.314   3.307   6.839 -1.4450  0.6050 -1.3410
 5328SOL     OW27442   4.338   3.129   2.487  0.3325  0.4305  0.1546
 5328SOL    HW127443   4.402   3.077   2.536 -1.0624  0.3549  1.8924
 5328SOL    HW227444   4.256   3.082   2.485  0.0183  0.8862  2.3653
 5329SOL     OW27445   0.830   1.671   3.062 -0.0772 -0.3912  0.2359
 5329SOL    HW127446   0.786   1.655   2.978  1.9069  0.1119 -0.8952
 5329SOL    HW227447   0.754   1.704   3.111  0.8060  2.0511 -0.0288
 5330SOL     OW27448   3.616   2.911   7.941  0.1882  0.5141  0.1180
 5330SOL    HW127449   3.606   2.975   8.012  0.6516  1.1238 -0.3661
 5330SOL    HW227450   3.584   2.968   7.870  2.0768  1.3573 -0.0484
 5331SOL     OW27451   0.516   2.023   9.166 -0.2829  0.1405  0.5527
 5331SOL    HW127452   0.448   2.082   9.135 -0.0513 -0.2110 -0.6244
 5331SOL    HW227453   0.592   2.055   9.117  0.7026 -0.2147  1.8353
 5332SOL     OW27454   3.018   0.581   4.659 -0.3006 -0.0561  0.3902
 5332SOL    HW127455   3.003   0.669   4.622 -2.6962  0.2041  1.9355
 5332SOL    HW227456   2.970   0.525   4.599 -0.8563  0.9869 -0.1520
 5333SOL     OW27457   1.314   1.111   9.821 -0.1565 -0.2590 -0.0006
 5333SOL    HW127458   1.264   1.090   9.899 -0.1394 -0.1024  0.0527
 5333SOL    HW227459   1.252   1.181   9.800 -0.8173 -0.5231  1.0704
 5334SOL     OW27460   0.030   2.992   4.593 -0.1821  0.1404 -0.9746
 5334SOL    HW127461   4.725   3.077   4.561 -1.1927  0.7722  1.6543
 5334SOL    HW227462   0.121   2.997   4.566 -0.2727  1.5587 -1.0292
 5335SOL     OW27463   0.558   2.688  13.552 -0.1223 -0.6606 -0.1995
 5335SOL    HW127464   0.606   2.747  13.611  3.0023 -0.8453 -2.5693
 5335SOL    HW227465   0.477   2.680  13.601  0.6736  1.9875  1.5545
 5336SOL     OW27466   3.249   4.586   4.519  0.2439  0.0639  0.1710
 5336SOL    HW127467   3.300   4.589   4.438  0.3806 -0.8012  0.2320
 5336SOL    HW227468   3.275   4.667   4.563 -0.0607  0.4492 -0.3641
 5337SOL     OW27469   0.818   3.964  12.876 -0.1185  0.3474 -0.4029
 5337SOL    HW127470   0.723   3.967  12.873 -0.0690  2.2491  0.4116
 5337SOL    HW227471   0.841   3.982  12.967 -0.6683 -2.1226  0.2149
 5338SOL     OW27472   4.700   3.448   3.649 -0.0205  0.1715 -0.1970
 5338SOL    HW127473   4.705   3.506   3.574  1.7939  1.3430  0.8239
 5338SOL    HW227474   0.038   3.380   3.624 -1.7263 -1.1883 -0.7876
 5339SOL     OW27475   3.235   0.465  10.509 -0.2571  0.5529  0.2379
 5339SOL    HW127476   3.323   0.480  10.475 -0.9059  0.7650 -1.3222
 5339SOL    HW227477   3.186   0.483  10.429 -0.1267  1.0199  0.2649
 5340SOL     OW27478   2.458   4.260   8.021 -0.4934  0.1055  0.1522
 5340SOL    HW127479   2.379   4.206   8.025  0.7564 -1.7177  0.3114
 5340SOL    HW227480   2.503   4.222   7.945 -0.7490 -1.6135  0.8505
 5341SOL     OW27481   1.214   2.811   9.165  0.6748 -0.6037 -0.5729
 5341SOL    HW127482   1.292   2.775   9.208  0.3683  0.1451  0.6214
 5341SOL    HW227483   1.140   2.798   9.225  1.1525  1.2457  0.4243
 5342SOL     OW27484   1.671   4.078   1.631 -0.5873  0.6836  0.0848
 5342SOL    HW127485   1.748   4.023   1.651 -1.9013 -0.6633  1.5173
 5342SOL    HW227486   1.701   4.167   1.647 -2.5016  1.6894 -1.9488
 5343SOL     OW27487   3.633   2.580   7.680 -0.8409  0.2193  0.4288
 5343SOL    HW127488   3.683   2.661   7.678  0.0936 -0.4429 -2.1736
 5343SOL    HW227489   3.666   2.536   7.759  0.0690  0.8518  0.4023
 5344SOL     OW27490   1.969   4.673   1.968 -0.3928 -0.5954  0.3444
 5344SOL    HW127491   1.978   4.664   1.873  3.6088 -2.8685  0.9567
 5344SOL    HW227492   1.881   4.712   1.965  0.2747  0.9980  1.6838
 5345SOL     OW27493   2.017   1.530  10.904  0.0443  0.3068 -0.0211
 5345SOL    HW127494   2.021   1.571  10.817 -0.0304 -0.3840 -0.3519
 5345SOL    HW227495   1.925   1.503  10.900  0.3748 -0.8310 -0.0515
 5346SOL     OW27496   2.574   0.591   5.925  0.0547  0.2938  0.1114
 5346SOL    HW127497   2.502   0.575   5.986  0.9039 -2.8664  0.2859
 5346SOL    HW227498   2.650   0.604   5.983 -0.3062  0.1096  0.6195
 5347SOL     OW27499   2.005   2.505   0.052 -0.6734  0.2630 -0.1852
 5347SOL    HW127500   2.069   2.446   0.090 -1.1509 -1.3882 -1.9076
 5347SOL    HW227501   1.965   2.541   0.131 -0.0453  0.1712  0.1700
 5348SOL     OW27502   0.753   3.885   1.322  0.1870  0.6589  0.0623
 5348SOL    HW127503   0.809   3.863   1.396 -2.1981  2.4688  2.4238
 5348SOL    HW227504   0.772   3.810   1.266 -1.0698 -1.0970  1.9836
 5349SOL     OW27505   2.279   0.815  16.143  0.1638  0.1775 -0.0539
 5349SOL    HW127506   2.247   0.885  16.199 -0.8678 -0.3552  0.0188
 5349SOL    HW227507   2.335   0.760  16.197 -2.3802 -1.6338  0.7339
 5350SOL     OW27508   1.663   1.646   1.742  0.1632 -0.5026 -0.7073
 5350SOL    HW127509   1.569   1.658   1.729  0.4301  0.7145 -1.5254
 5350SOL    HW227510   1.658   1.574   1.806  0.0605  1.0501  1.0251
 5351SOL     OW27511   0.462   1.768   3.589  0.4132  0.0220  0.3835
 5351SOL    HW127512   0.423   1.806   3.510  2.3226 -1.2933 -1.1942
 5351SOL    HW227513   0.549   1.803   3.569  1.1071 -0.3870  2.7821
 5352SOL     OW27514   4.393   0.764   6.068 -0.4361 -0.2394 -0.3290
 5352SOL    HW127515   4.438   0.683   6.044  0.2048  0.2908 -0.9110
 5352SOL    HW227516   4.343   0.770   5.987 -0.6176 -1.2289 -0.2974
 5353SOL     OW27517   1.433   3.857   2.709 -0.3860  0.5121  0.0161
 5353SOL    HW127518   1.404   3.818   2.792 -0.4100  0.4005 -0.0445
 5353SOL    HW227519   1.449   3.776   2.661 -0.1512  0.4770  0.1532
 5354SOL     OW27520   4.209   4.654   8.245 -0.1708  0.4348 -0.1141
 5354SOL    HW127521   4.124   4.637   8.286  0.3427 -0.2268  0.6816
 5354SOL    HW227522   4.258   4.572   8.254  0.4336  0.9371  1.2703
 5355SOL     OW27523   2.808   1.585   0.623  0.0310 -0.5932 -0.5868
 5355SOL    HW127524   2.864   1.660   0.644 -0.8498  0.0464 -0.5508
 5355SOL    HW227525   2.717   1.612   0.619  0.0361 -1.0379 -3.7736
 5356SOL     OW27526   3.052   3.307   0.951  0.2352  0.0944 -0.0928
 5356SOL    HW127527   3.100   3.253   0.888 -2.3885 -2.5848  0.1944
 5356SOL    HW227528   2.969   3.324   0.908 -0.0374  1.1810  0.8685
 5357SOL     OW27529   0.054   0.435   7.257 -0.2520 -0.6836  0.4472
 5357SOL    HW127530   4.708   0.466   7.314  0.4679 -1.5325  1.8151
 5357SOL    HW227531   0.129   0.475   7.300  0.0609  0.2199 -0.9469
 5358SOL     OW27532   4.280   2.564   1.704 -0.5352  0.8363 -0.3488
 5358SOL    HW127533   4.355   2.624   1.706 -0.3505  0.6440 -1.1157
 5358SOL    HW227534   4.235   2.601   1.628  2.7553  0.9710 -2.2301
 5359SOL     OW27535   0.569   2.040   8.843  0.2695  0.0745  0.4518
 5359SOL    HW127536   0.474   2.032   8.846  0.2975 -0.5176 -0.3983
 5359SOL    HW227537   0.589   1.980   8.771  2.0409  0.2628  0.7783
 5360SOL     OW27538   2.769   4.630  12.593 -0.0064  0.1501 -0.5613
 5360SOL    HW127539   2.722   4.572  12.532 -0.2768  0.8718 -1.0350
 5360SOL    HW227540   2.812   4.563  12.647 -1.7273  1.1905  2.1346
 5361SOL     OW27541   3.412   2.179   1.884 -0.6996  0.1055 -0.0289
 5361SOL    HW127542   3.411   2.194   1.978 -1.3637 -1.9762  0.2955
 5361SOL    HW227543   3.376   2.091   1.874  4.0830 -1.7006 -1.5034
 5362SOL     OW27544   0.953   2.832  16.335  0.0098 -0.2603  0.5697
 5362SOL    HW127545   0.866   2.833  16.294  0.0151  1.0026  0.5886
 5362SOL    HW227546   0.994   2.914  16.307  1.4333 -1.0841  0.2810
 5363SOL     OW27547   3.342   0.832  13.469 -0.0648  0.3423  0.3641
 5363SOL    HW127548   3.354   0.890  13.395 -0.0257 -1.8896 -1.3734
 5363SOL    HW227549   3.329   0.741  13.441  0.7959  0.5728 -0.7564
 5364SOL     OW27550   0.118   0.337  14.646 -0.8059 -0.4951 -0.3306
 5364SOL    HW127551   0.052   0.342  14.714 -0.0667 -1.0152  0.4324
 5364SOL    HW227552   0.190   0.290  14.688  1.7830  0.6690 -3.4076
 5365SOL     OW27553   1.209   1.111   4.675 -0.0369  0.6616 -0.6763
 5365SOL    HW127554   1.160   1.094   4.755  2.7585 -0.9581  0.6945
 5365SOL    HW227555   1.137   1.098   4.613  0.4564  1.6474 -1.4544
 5366SOL     OW27556   1.568   3.380   6.191 -0.6919  0.3796 -0.2204
 5366SOL    HW127557   1.489   3.325   6.190 -0.5051  0.0460  2.3379
 5366SOL    HW227558   1.619   3.356   6.269  0.8155 -1.6186 -1.8296
 5367SOL     OW27559   4.597   0.937   7.828  0.0067  0.1754 -0.1559
 5367SOL    HW127560   4.542   0.863   7.852  0.5339  0.3064  1.4890
 5367SOL    HW227561   4.578   0.936   7.734 -2.7216 -1.3793  0.4397
 5368SOL     OW27562   1.036   3.995  10.356  0.8973  0.3726 -0.1206
 5368SOL    HW127563   1.092   4.057  10.310 -0.9988  1.4056 -1.0464
 5368SOL    HW227564   1.098   3.950  10.413  0.1029  0.1080  0.5333
 5369SOL     OW27565   4.060   1.458   5.601 -0.5703 -0.5777 -0.5168
 5369SOL    HW127566   4.015   1.374   5.592 -0.7105 -0.7843  2.2890
 5369SOL    HW227567   3.983   1.514   5.614  0.1513  0.3223 -0.1295
 5370SOL     OW27568   3.770   2.499   6.624 -0.1211 -0.2165  0.2420
 5370SOL    HW127569   3.728   2.561   6.566 -0.0943 -0.3167  0.1152
 5370SOL    HW227570   3.864   2.511   6.608  0.1766 -4.8660 -1.5371
 5371SOL     OW27571   4.129   4.403   1.564  0.0674  0.9107  0.3168
 5371SOL    HW127572   4.039   4.436   1.565 -0.0301  0.6303  0.7612
 5371SOL    HW227573   4.116   4.337   1.496 -0.9844  0.4978  0.9269
 5372SOL     OW27574   0.157   3.899  11.640  0.2467 -0.0984 -0.4864
 5372SOL    HW127575   0.244   3.882  11.677  0.1737  1.3686  0.3358
 5372SOL    HW227576   0.152   3.824  11.581 -1.7676 -1.5083  1.4765
 5373SOL     OW27577   4.138   0.726  13.798  0.1043  0.3601 -0.4716
 5373SOL    HW127578   4.147   0.673  13.719 -0.9018  1.6711 -1.4799
 5373SOL    HW227579   4.064   0.776  13.763 -0.6482  1.0350  2.0551
 5374SOL     OW27580   2.174   2.530   6.517  0.7155 -0.1073  0.2095
 5374SOL    HW127581   2.216   2.455   6.558 -0.0140 -0.5928  0.0487
 5374SOL    HW227582   2.183   2.604   6.577 -0.2154  0.6903 -0.6348
 5375SOL     OW27583   1.538   3.024  12.067  0.3975  0.4705 -0.2382
 5375SOL    HW127584   1.620   3.069  12.089  1.1367  0.1154 -2.2587
 5375SOL    HW227585   1.536   3.029  11.971  1.0907 -2.0883 -0.3861
 5376SOL     OW27586   0.655   2.682   8.286  0.2601  0.4171  0.1797
 5376SOL    HW127587   0.587   2.732   8.331  1.7293  0.2466  2.5428
 5376SOL    HW227588   0.605   2.605   8.259 -0.3637  0.5968  0.8297
 5377SOL     OW27589   1.669   3.988   8.453  0.4712 -0.1692 -0.1083
 5377SOL    HW127590   1.759   3.992   8.485  0.3869 -1.7009  0.2749
 5377SOL    HW227591   1.663   3.901   8.414 -2.4937 -0.3855  0.8532
 5378SOL     OW27592   2.798   0.597   4.135  0.0303  0.0324 -0.1965
 5378SOL    HW127593   2.757   0.534   4.194 -0.0490  1.4922  1.3169
 5378SOL    HW227594   2.806   0.553   4.050  0.4431  0.5658 -0.4302
 5379SOL     OW27595   3.009   4.085   6.868 -0.2048 -0.0334  0.6223
 5379SOL    HW127596   3.037   4.151   6.805 -1.4433  0.9212  1.0605
 5379SOL    HW227597   3.031   4.003   6.825  2.0195  0.1918  1.3490
 5380SOL     OW27598   1.123   0.190   3.775 -0.4335 -0.1496  0.4130
 5380SOL    HW127599   1.210   0.210   3.739 -1.4234 -1.7207 -2.8595
 5380SOL    HW227600   1.143   0.197   3.868  0.9361 -3.2714  0.3394
 5381SOL     OW27601   3.217   3.044  11.004 -0.0518 -0.1920  0.6493
 5381SOL    HW127602   3.217   3.140  11.013  2.1801 -0.0424 -1.1004
 5381SOL    HW227603   3.232   3.037  10.910  0.1078  0.4363  0.6285
 5382SOL     OW27604   2.713   1.900   8.214 -0.0208  0.4167 -1.0398
 5382SOL    HW127605   2.725   1.995   8.211 -0.4314  0.6122  3.6185
 5382SOL    HW227606   2.648   1.898   8.284 -0.5542  1.3524 -1.5044
 5383SOL     OW27607   1.927   0.379   6.067  0.5307 -0.2438 -0.3566
 5383SOL    HW127608   1.867   0.423   6.007 -1.9769 -1.6561  1.1003
 5383SOL    HW227609   1.995   0.447   6.073 -0.1575  0.5357 -1.3827
 5384SOL     OW27610   4.362   2.928  17.102  0.1056 -0.3997 -0.2147
 5384SOL    HW127611   4.432   2.865  17.085  1.2472  0.9580 -0.5551
 5384SOL    HW227612   4.302   2.916  17.029 -0.9229 -2.2216  0.9095
 5385SOL     OW27613   4.305   2.535   6.193 -0.1009  0.7115  1.0976
 5385SOL    HW127614   4.312   2.442   6.176 -0.8772  1.0404 -1.0551
 5385SOL    HW227615   4.235   2.557   6.132  0.3177  0.5472  0.5540
 5386SOL     OW27616   4.216   0.058   8.832 -0.3711  0.3581  0.4121
 5386SOL    HW127617   4.233   0.090   8.743  1.2731  2.7266  1.5629
 5386SOL    HW227618   4.121   0.058   8.840 -0.2994  3.4875  1.2352
 5387SOL     OW27619   0.321   2.777   1.418 -0.6119 -0.3001  0.2599
 5387SOL    HW127620   0.251   2.727   1.377 -1.4005 -0.9778  2.3988
 5387SOL    HW227621   0.277   2.846   1.467 -0.5667  0.7858 -1.2448
 5388SOL     OW27622   0.247   0.387   8.451  0.4457  0.3548  0.0041
 5388SOL    HW127623   0.254   0.401   8.546 -1.3606  0.1666  0.1792
 5388SOL    HW227624   0.152   0.388   8.436  0.6650  2.5486 -1.2065
 5389SOL     OW27625   0.486   1.379   3.724  0.1451  0.4833  0.5937
 5389SOL    HW127626   0.520   1.306   3.775 -1.8123 -0.1647  0.9501
 5389SOL    HW227627   0.564   1.434   3.711  0.8294 -0.7264 -0.3905
 5390SOL     OW27628   2.464   4.081   2.670  0.2376  0.6456  0.2704
 5390SOL    HW127629   2.401   4.033   2.617 -0.1213 -1.5443  2.6570
 5390SOL    HW227630   2.506   4.147   2.615 -0.1569  0.0355 -0.7776
 5391SOL     OW27631   3.062   2.766   0.437 -0.4316 -0.4524 -0.5670
 5391SOL    HW127632   3.068   2.817   0.356  1.3865  0.1941 -0.0369
 5391SOL    HW227633   3.148   2.724   0.430 -0.5718 -0.5192 -1.8647
 5392SOL     OW27634   0.229   1.292   5.705 -0.2149 -0.4054  0.1619
 5392SOL    HW127635   0.194   1.224   5.648 -0.1055 -2.5912  2.6961
 5392SOL    HW227636   0.291   1.241   5.756  0.3049  1.5160  1.4701
 5393SOL     OW27637   3.321   3.736   5.348 -0.3938  0.0791 -0.3434
 5393SOL    HW127638   3.399   3.764   5.300  0.0261  1.4657  1.1196
 5393SOL    HW227639   3.304   3.659   5.295 -0.1048 -1.1378  1.3154
 5394SOL     OW27640   2.551   3.226  11.003  0.0171  0.1234 -0.0442
 5394SOL    HW127641   2.504   3.301  10.969  0.0140  1.2951  2.5111
 5394SOL    HW227642   2.498   3.215  11.082  2.0235  0.2156  1.3187
 5395SOL     OW27643   1.190   2.487   8.989  0.5318  0.0726 -0.0051
 5395SOL    HW127644   1.249   2.415   8.967 -1.6846 -2.3734  2.0516
 5395SOL    HW227645   1.140   2.444   9.059 -0.1819 -0.3291 -0.7739
 5396SOL     OW27646   0.537   3.390   9.204  0.3396  0.1250  0.0145
 5396SOL    HW127647   0.553   3.430   9.118  2.1384  0.1281  0.3668
 5396SOL    HW227648   0.452   3.348   9.189  0.6538 -0.5789  0.2142
 5397SOL     OW27649   2.487   4.322   6.019 -0.3654 -0.7634  0.0430
 5397SOL    HW127650   2.571   4.312   6.064  1.3356  0.9968 -2.7927
 5397SOL    HW227651   2.442   4.247   6.058  1.4389 -1.2828  1.1363
 5398SOL     OW27652   2.399   3.694  16.854 -0.0507 -0.0913 -0.5100
 5398SOL    HW127653   2.348   3.753  16.909  0.7313 -1.8447  2.1164
 5398SOL    HW227654   2.493   3.709  16.868 -0.8177  1.4641  3.0719
 5399SOL     OW27655   1.508   3.433   3.817  0.2329  0.0268  0.4795
 5399SOL    HW127656   1.546   3.356   3.774 -0.4831  0.0358 -0.1614
 5399SOL    HW227657   1.571   3.499   3.788 -1.5013  0.7645 -1.5760
 5400SOL     OW27658   0.092   3.840   3.506  0.2195 -0.4657  0.3703
 5400SOL    HW127659   0.162   3.797   3.555  0.1762 -2.3038 -1.1662
 5400SOL    HW227660   0.138   3.888   3.437 -0.0638 -1.4532 -0.5033
 5401SOL     OW27661   2.297   0.119  12.053 -0.1363 -0.1179  0.3127
 5401SOL    HW127662   2.356   0.046  12.037 -1.7129 -1.6831  1.5971
 5401SOL    HW227663   2.353   0.190  12.023  0.9007 -1.5850 -1.2433
 5402SOL     OW27664   2.490   4.015   0.887  0.8021  0.5476  0.1933
 5402SOL    HW127665   2.576   4.058   0.893  0.6688  0.8014  0.2770
 5402SOL    HW227666   2.454   4.081   0.828  0.3895 -2.7375 -3.1607
 5403SOL     OW27667   2.347   4.166   3.399  0.1488  0.4545 -0.2474
 5403SOL    HW127668   2.426   4.214   3.424  1.4200 -0.6478 -2.1117
 5403SOL    HW227669   2.281   4.236   3.393 -0.7229 -0.2700  1.1659
 5404SOL     OW27670   4.106   3.005   6.212 -0.2002 -0.2942 -0.0216
 5404SOL    HW127671   4.155   3.065   6.267  1.8105 -0.2963 -1.8337
 5404SOL    HW227672   4.145   3.024   6.126  2.2072 -0.4172  1.0555
 5405SOL     OW27673   4.097   2.309   0.654 -0.0522 -0.1357  0.3851
 5405SOL    HW127674   4.084   2.245   0.585  0.9794  0.9564 -0.8268
 5405SOL    HW227675   4.011   2.343   0.679 -0.7757 -1.6156 -0.0699
 5406SOL     OW27676   2.324   1.134   1.389  0.6360  0.1001 -0.2576
 5406SOL    HW127677   2.353   1.043   1.387  2.0257  0.4920  0.9193
 5406SOL    HW227678   2.303   1.157   1.299  0.4282  2.2589  0.3400
 5407SOL     OW27679   1.668   2.915  14.211 -0.4092  0.0428  0.3684
 5407SOL    HW127680   1.615   2.849  14.255 -0.1692 -0.3890  0.0195
 5407SOL    HW227681   1.716   2.940  14.290 -0.3842 -0.4620  0.5140
 5408SOL     OW27682   2.530   3.395   2.678  0.0594  0.1847  0.7335
 5408SOL    HW127683   2.565   3.404   2.590 -0.5962  0.8914  0.5487
 5408SOL    HW227684   2.574   3.458   2.735 -1.8173  0.5963  1.7274
 5409SOL     OW27685   3.073   1.487   0.676 -0.4740 -0.1187  0.4190
 5409SOL    HW127686   3.114   1.519   0.596  2.5922 -1.2428  1.5376
 5409SOL    HW227687   2.982   1.486   0.644 -0.0369 -2.5723 -0.7839
 5410SOL     OW27688   1.514   0.531   2.417  0.1084 -0.2518  0.5003
 5410SOL    HW127689   1.574   0.497   2.484 -0.3154  0.2230  1.1149
 5410SOL    HW227690   1.563   0.510   2.338 -0.5670  0.4879 -0.1118
 5411SOL     OW27691   0.998   2.758   5.296  0.2657  0.3317 -0.3018
 5411SOL    HW127692   0.935   2.828   5.312  1.9085  1.7080  0.0978
 5411SOL    HW227693   0.954   2.691   5.348 -0.3371  1.6933  0.9160
 5412SOL     OW27694   3.909   0.228   5.481  0.0840 -0.7804 -0.1743
 5412SOL    HW127695   3.904   0.135   5.460 -1.3035 -0.2734 -2.1127
 5412SOL    HW227696   3.962   0.218   5.560  0.5661  0.1611 -0.3677
 5413SOL     OW27697   3.744   1.163   2.224 -0.5898 -0.6497  0.0923
 5413SOL    HW127698   3.786   1.102   2.285 -1.8662  0.5756  2.1911
 5413SOL    HW227699   3.658   1.178   2.262 -0.6043  1.9891 -1.0234
 5414SOL     OW27700   4.138   1.869   2.885 -0.1626 -0.0966 -0.1740
 5414SOL    HW127701   4.156   1.963   2.877 -0.2948 -0.1512 -1.0916
 5414SOL    HW227702   4.122   1.839   2.796  1.6148 -0.2949 -0.4228
 5415SOL     OW27703   0.243   2.911   0.465  0.6911  0.4378 -0.4108
 5415SOL    HW127704   0.292   2.831   0.483 -1.2321 -0.8423 -0.9813
 5415SOL    HW227705   0.271   2.963   0.541 -4.7073 -0.6626  2.3143
 5416SOL     OW27706   2.872   2.598   0.541 -0.0932  0.1356  0.0800
 5416SOL    HW127707   2.924   2.670   0.505 -0.2615  0.3502  0.2634
 5416SOL    HW227708   2.844   2.565   0.456  2.3153 -0.8069 -0.3643
 5417SOL     OW27709   3.086   1.667   4.875  0.3141 -0.1672  0.5338
 5417SOL    HW127710   3.014   1.712   4.831 -0.6542 -2.3433 -0.0784
 5417SOL    HW227711   3.057   1.662   4.966 -0.4032 -1.2476  0.2390
 5418SOL     OW27712   4.390   3.528   4.325 -0.3051  0.0930  0.2350
 5418SOL    HW127713   4.391   3.551   4.418  1.3784  1.2267 -0.0541
 5418SOL    HW227714   4.302   3.492   4.317  0.0324 -0.4539 -1.0978
 5419SOL     OW27715   2.644   4.545   3.118 -0.0630 -0.1372  0.3785
 5419SOL    HW127716   2.678   4.457   3.105 -0.8036 -0.2300 -1.0286
 5419SOL    HW227717   2.568   4.526   3.173 -0.9976 -2.2111 -1.5903
 5420SOL     OW27718   1.919   1.544   4.568 -0.1800 -0.0100  0.3596
 5420SOL    HW127719   1.912   1.608   4.639 -1.2144  0.4526 -0.1739
 5420SOL    HW227720   1.841   1.490   4.582 -1.4380  1.3408 -1.4833
 5421SOL     OW27721   2.802   1.718   3.632 -0.1305 -0.2490  0.4058
 5421SOL    HW127722   2.823   1.631   3.667  0.1327 -0.0428  0.7611
 5421SOL    HW227723   2.877   1.774   3.613 -0.4814  0.5652  1.4583
 5422SOL     OW27724   1.465   3.037   3.391  0.3805  0.1391 -0.3063
 5422SOL    HW127725   1.456   3.006   3.482 -0.4091 -0.1355 -0.4825
 5422SOL    HW227726   1.381   3.015   3.351  0.7024 -1.1356 -0.2831
 5423SOL     OW27727   2.249   4.268   9.194  0.6526  0.5333  0.4741
 5423SOL    HW127728   2.313   4.197   9.189  0.1070  0.1894 -1.3733
 5423SOL    HW227729   2.165   4.223   9.202  2.3519 -2.5855  0.7697
 5424SOL     OW27730   2.607   1.456  16.435  0.6223 -0.1795 -0.2962
 5424SOL    HW127731   2.651   1.371  16.430  1.7718  0.3254  1.1070
 5424SOL    HW227732   2.599   1.463  16.531  0.7658 -0.3118 -0.2735
 5425SOL     OW27733   4.325   0.940   3.998  0.0710 -0.3582  0.0637
 5425SOL    HW127734   4.309   0.872   3.933  0.2183 -0.6732  0.3577
 5425SOL    HW227735   4.374   1.007   3.950 -1.1850  0.7439  0.3186
 5426SOL     OW27736   0.860   3.896   3.999  0.5137  0.5896 -0.4442
 5426SOL    HW127737   0.868   3.910   4.094  0.2673  0.5177 -0.4137
 5426SOL    HW227738   0.944   3.852   3.988  0.1681 -0.2962  0.4205
 5427SOL     OW27739   1.951   2.038   2.315 -0.2994 -0.2066  0.2083
 5427SOL    HW127740   1.901   2.072   2.240 -1.5177  0.5413  1.3496
 5427SOL    HW227741   1.937   1.946   2.296  1.2536 -0.1367 -1.2542
 5428SOL     OW27742   4.486   0.146   3.668 -0.0425 -0.0288 -0.2560
 5428SOL    HW127743   4.410   0.093   3.643 -1.7089  2.3949 -0.2948
 5428SOL    HW227744   4.533   0.075   3.712  1.4245  1.0153 -0.1235
 5429SOL     OW27745   1.106   3.561  13.165  0.4748  0.3795 -0.1614
 5429SOL    HW127746   1.164   3.517  13.227 -0.4271  1.5810  1.5399
 5429SOL    HW227747   1.140   3.651  13.171  0.4721  0.4958 -1.7404
 5430SOL     OW27748   4.031   2.119   3.110 -0.3517 -0.4971  0.0667
 5430SOL    HW127749   4.006   2.049   3.170 -2.8188 -1.8911 -2.5975
 5430SOL    HW227750   3.979   2.094   3.033  0.1653 -1.2935 -0.0295
 5431SOL     OW27751   3.293   1.601  10.724 -0.2854  1.0117 -0.0717
 5431SOL    HW127752   3.276   1.510  10.748 -0.9245  1.0252 -0.4436
 5431SOL    HW227753   3.219   1.643  10.768 -1.9164 -2.8817  0.8327
 5432SOL     OW27754   0.674   3.685   7.421 -0.0677 -0.1254  0.0745
 5432SOL    HW127755   0.704   3.608   7.469 -0.5037  1.0170  2.1797
 5432SOL    HW227756   0.630   3.642   7.347  0.9759 -0.2990 -0.4351
 5433SOL     OW27757   4.564   0.430   7.998  0.0935  0.1195  0.0832
 5433SOL    HW127758   4.578   0.362   7.933 -6.2109 -0.5745 -0.5680
 5433SOL    HW227759   4.646   0.414   8.044  1.4332  0.1415 -2.3225
 5434SOL     OW27760   0.399   2.712  13.268 -0.2522 -0.0958 -0.0948
 5434SOL    HW127761   0.372   2.640  13.211  0.7078  0.6132 -1.4535
 5434SOL    HW227762   0.341   2.783  13.239 -0.7388 -1.2384 -1.9269
 5435SOL     OW27763   2.626   1.235   0.398  0.0358  0.3668  0.1585
 5435SOL    HW127764   2.607   1.171   0.329  1.4049 -2.1847  2.1321
 5435SOL    HW227765   2.719   1.218   0.412 -0.0522 -0.5346 -0.3047
 5436SOL     OW27766   1.038   2.921   6.153 -0.0441  0.4178 -0.0321
 5436SOL    HW127767   1.109   2.872   6.195 -0.7218  1.1837  1.9858
 5436SOL    HW227768   0.977   2.940   6.224 -0.0301  0.4325 -0.0237
 5437SOL     OW27769   1.938   4.182  10.041  0.3978 -0.1617 -0.0603
 5437SOL    HW127770   1.921   4.193  10.135  1.6977  0.8048  0.0719
 5437SOL    HW227771   1.941   4.087  10.031  0.0448 -0.2271  0.4447
 5438SOL     OW27772   2.219   3.588  15.651  0.2709  0.7353  0.0520
 5438SOL    HW127773   2.206   3.682  15.652 -1.7368  0.4685 -1.2299
 5438SOL    HW227774   2.313   3.584  15.669 -0.0557  1.5158  1.8759
 5439SOL     OW27775   2.784   2.210   5.671 -0.6331  0.2876  0.0187
 5439SOL    HW127776   2.832   2.176   5.596  1.5609  0.0058  1.5297
 5439SOL    HW227777   2.843   2.283   5.693 -0.7741 -0.0459  1.5260
 5440SOL     OW27778   1.510   0.872   3.378  0.4753 -0.0476  0.0458
 5440SOL    HW127779   1.547   0.947   3.424  1.8384  0.0269 -1.1475
 5440SOL    HW227780   1.591   0.837   3.340 -0.3917 -1.5318 -0.4159
 5441SOL     OW27781   1.690   1.482  16.117 -0.4674  0.2528  0.0693
 5441SOL    HW127782   1.660   1.492  16.207 -1.1569  2.3275 -0.3898
 5441SOL    HW227783   1.659   1.391  16.112 -0.1272  0.1016  0.7200
 5442SOL     OW27784   2.841   3.077   4.373  0.3992 -0.3565 -0.2398
 5442SOL    HW127785   2.880   3.164   4.377  0.3196 -0.5239  4.0445
 5442SOL    HW227786   2.919   3.022   4.374  1.2378  0.8307  1.1031
 5443SOL     OW27787   4.676   0.858   4.192  0.4444  0.4390 -0.0676
 5443SOL    HW127788   4.704   0.827   4.106 -0.7036 -2.1894  0.5010
 5443SOL    HW227789   4.694   0.784   4.249 -1.2619 -0.7828 -1.1331
 5444SOL     OW27790   2.481   1.718  16.439  0.1588 -0.0699  0.2304
 5444SOL    HW127791   2.531   1.647  16.399  0.3020  2.4417 -4.0140
 5444SOL    HW227792   2.476   1.685  16.529  0.5592 -1.2231 -0.1845
 5445SOL     OW27793   3.682   3.108   3.507  0.1786  0.3440 -0.2054
 5445SOL    HW127794   3.734   3.060   3.572 -0.4127  0.1082  0.1001
 5445SOL    HW227795   3.760   3.133   3.457  0.9100  2.0231  1.7878
 5446SOL     OW27796   2.705   2.262  14.114  0.0669 -0.6561 -0.3037
 5446SOL    HW127797   2.734   2.201  14.046 -0.5617 -1.5759  0.2555
 5446SOL    HW227798   2.783   2.263  14.169  1.2027 -1.1393 -1.9129
 5447SOL     OW27799   4.564   0.556  11.071  0.0350 -0.1432 -0.2770
 5447SOL    HW127800   4.605   0.529  10.990 -0.3260 -0.1176 -0.4671
 5447SOL    HW227801   4.545   0.649  11.061  0.4922 -0.4059 -3.3186
 5448SOL     OW27802   2.580   0.569  15.655 -0.2023 -1.0234 -0.5802
 5448SOL    HW127803   2.589   0.597  15.746 -0.9930  0.4076 -0.9303
 5448SOL    HW227804   2.498   0.521  15.666 -0.2877 -0.3605  1.6387
 5449SOL     OW27805   3.749   3.227   7.920  0.3330 -0.7537 -0.4283
 5449SOL    HW127806   3.682   3.202   7.984 -1.6916  1.1739 -1.7980
 5449SOL    HW227807   3.701   3.255   7.843  1.9514 -1.4660 -1.7032
 5450SOL     OW27808   1.658   3.267  11.236 -0.6791 -0.0884 -0.3294
 5450SOL    HW127809   1.739   3.307  11.205  1.6138 -4.0475  0.5351
 5450SOL    HW227810   1.594   3.338  11.234 -1.3472 -0.7091 -1.3340
 5451SOL     OW27811   2.160   4.035  11.896 -0.1448 -0.4860 -0.3426
 5451SOL    HW127812   2.196   4.028  11.984 -0.6902 -2.4506 -0.2742
 5451SOL    HW227813   2.086   3.986  11.932  0.3834 -0.6862  0.4588
 5452SOL     OW27814   0.482   0.884   5.889  0.2081 -0.2393 -0.7487
 5452SOL    HW127815   0.542   0.858   5.959 -0.3072  0.2770 -0.1199
 5452SOL    HW227816   0.548   0.905   5.823  0.4092 -1.3434 -0.9008
 5453SOL     OW27817   0.718   2.820   2.305  0.7277 -0.2737  0.2338
 5453SOL    HW127818   0.639   2.857   2.266 -1.0338 -0.1316  3.9118
 5453SOL    HW227819   0.684   2.740   2.346  0.5410  0.5050  1.5861
 5454SOL     OW27820   1.185   3.918   7.772 -0.7005 -0.2298  0.0747
 5454SOL    HW127821   1.134   3.937   7.850  0.2005  1.3923  0.2543
 5454SOL    HW227822   1.275   3.929   7.801 -0.2036 -0.4271 -1.4019
 5455SOL     OW27823   4.369   4.100   1.872 -0.0745 -0.1800 -0.4077
 5455SOL    HW127824   4.411   4.015   1.886  0.7370  0.4205  0.8234
 5455SOL    HW227825   4.446   4.152   1.850 -0.6814  0.2171 -1.6115
 5456SOL     OW27826   2.755   0.813   6.656 -0.1093  0.2340  0.3150
 5456SOL    HW127827   2.742   0.848   6.744  0.8831  0.4109  0.3965
 5456SOL    HW227828   2.694   0.865   6.604  0.9866  0.7330 -0.4881
 5457SOL     OW27829   1.069   2.263  17.054  0.1992 -0.0495 -0.1928
 5457SOL    HW127830   1.080   2.335  16.992 -1.1312 -1.1700 -1.7217
 5457SOL    HW227831   1.028   2.298  17.133  0.7588 -1.8882  0.9207
 5458SOL     OW27832   4.655   1.269   7.522 -0.3359  0.0650  0.6315
 5458SOL    HW127833   4.601   1.325   7.466 -0.3605  0.0051  0.5963
 5458SOL    HW227834   4.590   1.250   7.590 -0.4296 -1.2710  0.1639
 5459SOL     OW27835   3.304   1.716   4.510 -0.6017 -0.0452  0.0649
 5459SOL    HW127836   3.249   1.639   4.526  0.3515 -0.3005  2.1361
 5459SOL    HW227837   3.254   1.789   4.548 -0.8280 -0.2230  0.1086
 5460SOL     OW27838   4.658   0.949   1.879 -0.0758 -0.1451  0.1593
 5460SOL    HW127839   4.666   0.995   1.796 -1.2069  0.3088  0.2920
 5460SOL    HW227840   4.564   0.955   1.899  0.1842 -0.4795  1.4781
 5461SOL     OW27841   1.412   3.805   4.374 -0.2259 -0.0192  0.0684
 5461SOL    HW127842   1.345   3.868   4.350 -0.1030  0.3435  0.6595
 5461SOL    HW227843   1.360   3.725   4.380 -2.2294  1.2779 -0.0523
 5462SOL     OW27844   1.305   4.247  14.681  0.4019  0.4146  0.1455
 5462SOL    HW127845   1.389   4.266  14.724  2.3422  1.0849 -3.9922
 5462SOL    HW227846   1.250   4.294  14.744  0.5363 -0.4964  0.9538
 5463SOL     OW27847   2.830   0.473   2.131  0.1513  0.0688  0.3780
 5463SOL    HW127848   2.822   0.476   2.036 -0.4992 -0.4175  0.4145
 5463SOL    HW227849   2.863   0.385   2.151  0.2944  0.4148  1.6612
 5464SOL     OW27850   4.461   4.003   4.708 -0.3018  0.9857  0.0009
 5464SOL    HW127851   4.522   4.072   4.733  1.5794 -0.3624 -0.8639
 5464SOL    HW227852   4.380   4.054   4.703  0.4042  2.0656 -0.3105
 5465SOL     OW27853   0.189   1.440   8.606  0.0939  0.7068 -0.0694
 5465SOL    HW127854   0.198   1.418   8.513 -0.4236  0.8934 -0.1662
 5465SOL    HW227855   0.247   1.370   8.637 -2.5770 -1.2082  0.5696
 5466SOL     OW27856   0.838   2.657  16.530  0.2758 -0.1420 -0.6664
 5466SOL    HW127857   0.749   2.671  16.496 -0.0576  0.8383  0.6197
 5466SOL    HW227858   0.882   2.699  16.456 -1.3251  0.1371 -1.4700
 5467SOL     OW27859   4.119   0.235   6.708  0.4645 -0.6010 -0.0541
 5467SOL    HW127860   4.105   0.142   6.720 -0.1911 -0.5860 -0.6663
 5467SOL    HW227861   4.160   0.264   6.790 -1.7534 -1.1856  1.2824
 5468SOL     OW27862   4.439   1.753   8.149  0.3368  0.3204 -0.2186
 5468SOL    HW127863   4.470   1.774   8.237  2.6626  0.5875 -1.0987
 5468SOL    HW227864   4.519   1.730   8.101  0.0347 -1.2162  0.0010
 5469SOL     OW27865   1.632   3.007   5.739 -0.3922  0.7225  0.2317
 5469SOL    HW127866   1.546   2.970   5.758  0.2558 -1.0507 -0.2754
 5469SOL    HW227867   1.611   3.074   5.674 -2.3626 -0.1781 -0.0488
 5470SOL     OW27868   1.951   3.571   5.906 -0.2417 -0.6412  0.0958
 5470SOL    HW127869   1.939   3.660   5.874  3.5695  0.3765  1.5076
 5470SOL    HW227870   1.869   3.556   5.953 -0.5527 -0.2688 -0.3286
 5471SOL     OW27871   2.927   2.834   8.473  0.2921 -0.1989 -0.3653
 5471SOL    HW127872   2.917   2.855   8.380 -2.6516  0.0923  0.0160
 5471SOL    HW227873   2.873   2.902   8.512 -0.3125 -1.0683  0.3307
 5472SOL     OW27874   0.333   1.041   3.770  0.4540  0.4636  0.4617
 5472SOL    HW127875   0.336   1.038   3.674  0.1261  3.5337  0.3806
 5472SOL    HW227876   0.424   1.059   3.795  0.2801 -0.0194  1.4478
 5473SOL     OW27877   2.292   1.818   5.645 -0.0271  0.1330  0.8903
 5473SOL    HW127878   2.297   1.912   5.660  2.2165  0.2781 -0.7391
 5473SOL    HW227879   2.381   1.790   5.626  0.0397  1.7572 -1.2280
 5474SOL     OW27880   1.677   1.214   6.784 -0.3353  0.6901  0.0378
 5474SOL    HW127881   1.690   1.187   6.874  1.1274 -1.5118 -0.8468
 5474SOL    HW227882   1.672   1.128   6.742  0.3110  1.5729 -1.8715
 5475SOL     OW27883   2.583   0.915   7.588 -0.4266  0.6637  0.6044
 5475SOL    HW127884   2.535   0.927   7.670 -0.2059  0.8063  0.7121
 5475SOL    HW227885   2.568   1.001   7.549 -0.5433 -0.5193 -2.0089
 5476SOL     OW27886   3.563   0.433  12.218  0.1611 -0.2159 -0.7680
 5476SOL    HW127887   3.611   0.410  12.139  0.7324 -0.7210 -0.2706
 5476SOL    HW227888   3.614   0.510  12.243 -2.4443  1.4782 -0.6020
 5477SOL     OW27889   3.077   2.192  11.881  0.1583 -0.4974 -0.0695
 5477SOL    HW127890   3.093   2.169  11.972 -0.4031 -2.9522 -0.5889
 5477SOL    HW227891   3.009   2.128  11.860 -2.4382  1.4175  2.4931
 5478SOL     OW27892   2.049   2.986  11.079 -0.3167  0.2045 -0.4425
 5478SOL    HW127893   1.985   2.951  11.016 -0.6601 -0.3405  0.2186
 5478SOL    HW227894   2.106   2.910  11.071 -0.5929  0.0670 -1.1759
 5479SOL     OW27895   4.230   3.574   5.839 -0.6373  0.2619 -0.2885
 5479SOL    HW127896   4.298   3.638   5.816  0.6511 -0.1995  2.2293
 5479SOL    HW227897   4.282   3.516   5.895 -1.7144 -1.4847 -1.0938
 5480SOL     OW27898   2.044   4.361  11.632 -0.1141  0.2087 -0.0758
 5480SOL    HW127899   2.054   4.450  11.599  1.3005  0.2932  0.5837
 5480SOL    HW227900   2.132   4.348  11.667  0.0902  3.5907  0.6336
 5481SOL     OW27901   0.211   0.335   1.009  0.0346 -0.3154  0.2156
 5481SOL    HW127902   0.129   0.286   1.013  0.1018 -0.4818 -0.3604
 5481SOL    HW227903   0.176   0.422   1.027 -1.4641 -0.4282 -2.1432
 5482SOL     OW27904   2.514   2.530   3.459  0.1137  0.3422 -0.0650
 5482SOL    HW127905   2.419   2.529   3.446  0.4295  1.3405 -2.4800
 5482SOL    HW227906   2.528   2.436   3.455 -3.2724 -0.1577 -0.2729
 5483SOL     OW27907   1.347   2.785   1.378  0.4222 -0.3145 -0.4484
 5483SOL    HW127908   1.390   2.868   1.362  1.1412 -0.6447 -0.2384
 5483SOL    HW227909   1.360   2.790   1.472  1.3055 -2.5634 -0.4332
 5484SOL     OW27910   0.163   3.360   6.144 -0.2835 -0.4684 -0.0362
 5484SOL    HW127911   0.192   3.300   6.075  0.0726  1.0333 -1.1784
 5484SOL    HW227912   0.227   3.344   6.213 -0.2617 -0.1454  0.0161
 5485SOL     OW27913   2.627   3.824   4.143  0.3014 -0.3327 -0.2816
 5485SOL    HW127914   2.652   3.833   4.051  0.9250  0.6627 -0.0088
 5485SOL    HW227915   2.660   3.734   4.145  0.0525 -0.3489  2.4377
 5486SOL     OW27916   3.989   4.648   6.597  0.0096 -0.0786  0.5114
 5486SOL    HW127917   3.999   4.595   6.518  0.5759  2.6756 -1.2784
 5486SOL    HW227918   3.914   4.702   6.573  1.2709  1.0586 -0.9040
 5487SOL     OW27919   2.378   1.378   3.997  0.3520  0.0783  0.3927
 5487SOL    HW127920   2.451   1.318   3.980 -0.4005 -0.0947 -2.2490
 5487SOL    HW227921   2.425   1.457   3.969  0.1683  0.3591  0.8834
 5488SOL     OW27922   3.095   0.987   5.128  0.2803 -0.1365  0.5465
 5488SOL    HW127923   3.100   0.918   5.062  1.4254 -0.2491  0.7399
 5488SOL    HW227924   3.162   0.968   5.194  1.4130  0.1825 -0.5055
 5489SOL     OW27925   2.580   3.166   5.977  0.2790 -0.1744 -0.0098
 5489SOL    HW127926   2.502   3.216   5.953  1.6114  1.7719 -0.3156
 5489SOL    HW227927   2.630   3.217   6.041  0.1304 -0.1655  0.0986
 5490SOL     OW27928   4.541   3.991   8.054 -0.0176 -0.6632 -0.0046
 5490SOL    HW127929   4.564   4.051   8.126  0.6238 -0.3820 -0.4377
 5490SOL    HW227930   4.463   3.952   8.092 -0.5089  0.1686 -0.1585
 5491SOL     OW27931   2.719   4.180   6.713 -0.3352  0.0984  0.2518
 5491SOL    HW127932   2.788   4.229   6.669  1.1083 -2.2331 -0.1161
 5491SOL    HW227933   2.758   4.181   6.801 -0.3680 -2.6544  0.3103
 5492SOL     OW27934   2.025   2.625  17.261 -0.6775 -0.1086 -0.1403
 5492SOL    HW127935   2.069   2.604  17.343  2.6018  0.8525 -1.6800
 5492SOL    HW227936   2.056   2.712  17.237 -0.5980 -0.3971 -1.0876
 5493SOL     OW27937   4.131   1.264   2.736  0.3130  0.3084 -0.0212
 5493SOL    HW127938   4.210   1.224   2.771  0.7024  0.9146 -0.1958
 5493SOL    HW227939   4.095   1.187   2.692 -0.8403 -0.1304  1.7023
 5494SOL     OW27940   1.746   1.138  15.810 -0.2685 -0.2420 -0.5585
 5494SOL    HW127941   1.705   1.159  15.726 -0.6876 -0.3536 -0.3810
 5494SOL    HW227942   1.742   1.042  15.808 -1.9074 -0.2086  1.5714
 5495SOL     OW27943   4.237   0.524   8.334  0.6389  0.2348  0.0526
 5495SOL    HW127944   4.163   0.541   8.392  0.2320 -1.8756  0.1422
 5495SOL    HW227945   4.249   0.430   8.351 -0.6678  0.4969  2.3693
 5496SOL     OW27946   1.514   3.801   9.218  0.7179 -0.8087  0.0526
 5496SOL    HW127947   1.467   3.863   9.275  0.5119 -0.9740  0.0639
 5496SOL    HW227948   1.561   3.855   9.155  1.9963 -1.1555  0.7197
 5497SOL     OW27949   2.140   3.290   2.833 -0.0138  0.2738 -0.0744
 5497SOL    HW127950   2.205   3.340   2.784 -0.1713 -1.3269 -1.9285
 5497SOL    HW227951   2.115   3.222   2.771  1.3666  0.7581 -1.1400
 5498SOL     OW27952   2.370   1.527   3.016  0.6020  0.2376 -0.1063
 5498SOL    HW127953   2.382   1.500   3.107  0.7447  0.0350 -0.1867
 5498SOL    HW227954   2.408   1.614   3.024  0.5485  0.2288  0.2181
 5499SOL     OW27955   3.978   4.440   8.788  0.2304 -0.2888 -0.2606
 5499SOL    HW127956   4.017   4.475   8.868 -1.8492 -1.1411  1.1335
 5499SOL    HW227957   3.890   4.429   8.825  1.3800 -2.5022  1.7439
 5500SOL     OW27958   2.613   3.955   4.613 -0.0516  0.0554 -0.1417
 5500SOL    HW127959   2.633   4.014   4.685 -0.2614 -1.1746  0.9096
 5500SOL    HW227960   2.519   3.961   4.598  0.2934  1.4676 -1.7375
 5501SOL     OW27961   2.486   1.934   4.387 -0.4745  0.4780 -0.2071
 5501SOL    HW127962   2.498   1.839   4.390  1.6578  0.7160 -0.8559
 5501SOL    HW227963   2.399   1.947   4.424 -0.7234  1.1689 -1.0283
 5502SOL     OW27964   1.593   3.405   4.884 -0.4914  0.2155 -0.6839
 5502SOL    HW127965   1.628   3.337   4.942 -0.6383 -0.7610 -1.7621
 5502SOL    HW227966   1.622   3.381   4.796 -0.1614 -3.1091  0.3442
 5503SOL     OW27967   3.615   3.155   5.361 -0.2574  0.6700 -0.1098
 5503SOL    HW127968   3.598   3.097   5.286 -2.3367  0.5779  0.4420
 5503SOL    HW227969   3.710   3.159   5.372 -0.4180  0.7077  1.2093
 5504SOL     OW27970   4.458   4.672   3.111  0.2839  0.2443 -0.1953
 5504SOL    HW127971   4.432   4.595   3.060  3.0099 -0.7814 -0.0396
 5504SOL    HW227972   4.382   0.005   3.104 -0.5041 -0.8108 -0.5166
 5505SOL     OW27973   3.191   1.159   6.419  1.0550 -0.4066 -0.0407
 5505SOL    HW127974   3.255   1.145   6.489  0.3675 -0.2683  0.6149
 5505SOL    HW227975   3.244   1.149   6.340 -1.7733 -1.2383 -1.8205
 5506SOL     OW27976   4.476   2.992  14.462  0.1678 -0.5384  0.5426
 5506SOL    HW127977   4.421   2.916  14.484  1.3511 -2.1069 -1.9096
 5506SOL    HW227978   4.551   2.951  14.420  0.1325  1.2785 -1.2657
 5507SOL     OW27979   0.191   1.749   3.830  0.1077  0.2136  0.5110
 5507SOL    HW127980   0.135   1.696   3.886 -1.7351  0.6689 -0.8906
 5507SOL    HW227981   0.209   1.682   3.764  0.5116 -0.3816  1.2233
 5508SOL     OW27982   1.329   2.612  16.298  0.5009 -0.0296 -0.0372
 5508SOL    HW127983   1.242   2.589  16.268  0.7872 -1.7499  0.4640
 5508SOL    HW227984   1.310   2.692  16.348  2.0107  0.4752 -0.2666
 5509SOL     OW27985   0.373   1.301   7.146 -0.1397 -0.4837 -0.3881
 5509SOL    HW127986   0.279   1.318   7.155 -0.2697 -0.2346 -2.2702
 5509SOL    HW227987   0.419   1.371   7.191  0.3826 -0.0717 -1.5872
 5510SOL     OW27988   3.259   3.172   2.795  0.0982  0.0113  0.3348
 5510SOL    HW127989   3.197   3.244   2.809 -1.2695 -0.8461 -1.2861
 5510SOL    HW227990   3.211   3.123   2.861 -0.5670 -1.2497 -1.0907
 5511SOL     OW27991   1.896   3.428   6.402  0.0051  0.0907 -0.4658
 5511SOL    HW127992   1.948   3.352   6.429  0.2605  0.3240 -0.2987
 5511SOL    HW227993   1.900   3.428   6.307  0.2773 -1.6306 -0.4695
 5512SOL     OW27994   0.270   0.566   4.025  0.3229 -0.3000  0.4730
 5512SOL    HW127995   0.253   0.637   3.963  0.4391  0.9926  1.9203
 5512SOL    HW227996   0.288   0.488   3.973 -0.1234  0.1892 -0.4071
 5513SOL     OW27997   3.228   0.475   7.434  0.3410 -0.0932  0.3879
 5513SOL    HW127998   3.223   0.446   7.525 -1.3249 -1.1068 -0.0211
 5513SOL    HW227999   3.139   0.510   7.428  0.0289 -1.0389 -0.4984
 5514SOL     OW28000   1.365   0.216   5.090  0.2834  0.0301 -0.0489
 5514SOL    HW128001   1.461   0.209   5.085  0.2297  1.1760 -2.4652
 5514SOL    HW228002   1.346   0.289   5.032 -2.0489 -0.5177  0.0424
 5515SOL     OW28003   4.375   2.182   0.361  0.3231  0.0783 -0.5799
 5515SOL    HW128004   4.414   2.265   0.333 -1.1483  1.4432  1.4678
 5515SOL    HW228005   4.444   2.121   0.334  1.3855  0.2861  1.7258
 5516SOL     OW28006   0.698   0.336  11.408 -0.0160  0.9365  0.1798
 5516SOL    HW128007   0.788   0.316  11.381  0.5263 -0.2821  2.8479
 5516SOL    HW228008   0.703   0.371  11.497  1.2427  1.4196 -0.0779
 5517SOL     OW28009   3.136   1.634   3.527 -0.2176 -0.6486  0.8890
 5517SOL    HW128010   3.131   1.710   3.470  0.9452 -0.1061  1.5050
 5517SOL    HW228011   3.213   1.591   3.490 -0.2103  0.3255 -0.2193
 5518SOL     OW28012   0.744   3.627   4.394  0.0304  0.5674 -0.2482
 5518SOL    HW128013   0.692   3.559   4.437  1.6945 -0.0189  0.8557
 5518SOL    HW228014   0.800   3.643   4.471  1.3337 -0.0733 -1.0574
 5519SOL     OW28015   2.652   1.084   9.718 -0.0843  0.1076  0.3651
 5519SOL    HW128016   2.587   1.018   9.693  1.7816 -1.5107 -0.2532
 5519SOL    HW228017   2.693   1.095   9.632  0.8407  0.7283  0.8847
 5520SOL     OW28018   1.926   0.731   5.398 -0.5271 -0.6613 -0.3026
 5520SOL    HW128019   1.883   0.721   5.313 -0.1900  0.5025 -0.6114
 5520SOL    HW228020   1.966   0.818   5.395  0.7967 -1.1289  3.7794
 5521SOL     OW28021   1.802   1.342   6.426 -0.3274 -0.4012  0.4892
 5521SOL    HW128022   1.835   1.360   6.514  1.0038 -0.0475 -0.0823
 5521SOL    HW228023   1.834   1.254   6.406  1.2260  0.0039  1.2080
 5522SOL     OW28024   4.226   4.605   5.651  0.3157  0.2179  0.2338
 5522SOL    HW128025   4.200   4.588   5.742 -1.7997  1.1071 -0.2100
 5522SOL    HW228026   4.321   4.594   5.662 -0.0722  0.3657  3.9048
 5523SOL     OW28027   1.549   1.791   8.106 -0.0576 -0.2448  0.4236
 5523SOL    HW128028   1.520   1.875   8.070  3.3391 -0.7902 -3.6058
 5523SOL    HW228029   1.597   1.810   8.186  0.3958 -0.2705  0.1569
 5524SOL     OW28030   1.822   0.766   8.082 -0.4062 -0.9120  0.2439
 5524SOL    HW128031   1.744   0.818   8.102 -0.3506 -0.6985 -0.0877
 5524SOL    HW228032   1.826   0.796   7.991  0.9533 -0.4853  0.4395
 5525SOL     OW28033   3.402   0.806  13.744 -0.0429  0.3273 -0.1038
 5525SOL    HW128034   3.421   0.839  13.656  2.6999 -1.8794 -0.3483
 5525SOL    HW228035   3.355   0.887  13.762  0.2230 -0.1479  2.6258
 5526SOL     OW28036   2.212   1.503   6.799  0.4792  0.3086 -0.1127
 5526SOL    HW128037   2.199   1.529   6.708  1.3325  0.4189 -0.2083
 5526SOL    HW228038   2.152   1.560   6.846 -0.3854 -0.8228  0.1550
 5527SOL     OW28039   1.103   3.507   4.533  0.3064 -0.5752 -0.3208
 5527SOL    HW128040   1.133   3.471   4.617  1.9591 -0.6921 -0.9669
 5527SOL    HW228041   1.031   3.566   4.555  0.9191 -0.4572  1.3520
 5528SOL     OW28042   3.867   0.867   5.762  0.1770 -0.3385  0.0905
 5528SOL    HW128043   3.887   0.960   5.767  0.1551 -0.3672  0.6727
 5528SOL    HW228044   3.918   0.831   5.835 -1.2109 -1.6064  0.4346
 5529SOL     OW28045   2.120   4.447   1.613  0.5047 -0.1886 -0.2796
 5529SOL    HW128046   2.200   4.441   1.562  1.2498  0.8855  0.7791
 5529SOL    HW228047   2.064   4.376   1.580 -1.0143  0.4202  0.9890
 5530SOL     OW28048   1.406   4.336   6.805  0.0376  0.1754  0.0391
 5530SOL    HW128049   1.475   4.359   6.867  1.4318 -0.9230 -1.1067
 5530SOL    HW228050   1.441   4.255   6.768 -2.3408 -1.2787  0.9615
 5531SOL     OW28051   2.473   4.376  12.541 -0.4060  0.5482  0.0546
 5531SOL    HW128052   2.517   4.291  12.534 -0.9421  0.1873  1.1642
 5531SOL    HW228053   2.545   4.433  12.513 -1.1572  0.2327 -2.5240
 5532SOL     OW28054   0.357   2.622   6.692 -0.0174  0.1346  0.4205
 5532SOL    HW128055   0.434   2.568   6.711 -0.1816 -0.1882  0.1744
 5532SOL    HW228056   0.332   2.642   6.782  0.8401 -1.1676  0.9515
 5533SOL     OW28057   1.914   1.693  12.887  0.9160  0.3699  0.1079
 5533SOL    HW128058   1.981   1.651  12.832 -1.2226  0.8916 -2.9073
 5533SOL    HW228059   1.903   1.782  12.855  0.0042 -0.2840 -1.4017
 5534SOL     OW28060   0.281   4.026   2.745  0.0399 -0.6309  0.3682
 5534SOL    HW128061   0.225   4.068   2.681  1.4196 -0.4566 -0.7222
 5534SOL    HW228062   0.343   3.984   2.686  1.4127  0.3279  1.1419
 5535SOL     OW28063   0.960   1.245   0.755 -0.0784 -0.0663  0.7896
 5535SOL    HW128064   1.030   1.263   0.818 -1.6081 -0.4045  2.6155
 5535SOL    HW228065   0.897   1.197   0.809  0.2313  0.4824  1.6527
 5536SOL     OW28066   1.401   0.722   2.655 -0.0186  0.3962 -0.9124
 5536SOL    HW128067   1.365   0.652   2.601  1.6277  0.4129 -2.0328
 5536SOL    HW228068   1.377   0.693   2.743 -1.0994  1.0803 -0.9872
 5537SOL     OW28069   4.061   1.628  16.657  0.1873 -0.3640 -0.1157
 5537SOL    HW128070   4.092   1.585  16.736  0.4962 -1.0508 -0.6203
 5537SOL    HW228071   4.036   1.546  16.615 -1.4368 -1.1276  2.2929
 5538SOL     OW28072   2.048   0.128   2.888  0.8303 -0.3379  0.2983
 5538SOL    HW128073   2.043   0.054   2.828 -1.3769  0.0075  0.0638
 5538SOL    HW228074   1.960   0.124   2.925  1.2702 -2.1099  1.1425
 5539SOL     OW28075   3.264   0.576  13.416 -0.8357  0.6977 -0.1546
 5539SOL    HW128076   3.294   0.487  13.400 -0.3551  0.6657  0.9058
 5539SOL    HW228077   3.172   0.569  13.391 -0.4865  0.5614 -1.4214
 5540SOL     OW28078   3.903   2.109  14.433 -0.0746  0.1324 -0.1061
 5540SOL    HW128079   3.921   2.187  14.486  1.7875  0.0641 -0.6378
 5540SOL    HW228080   3.823   2.136  14.389  0.1827  0.2845 -0.4777
 5541SOL     OW28081   2.707   3.610   0.776  0.1056 -0.2065 -0.1452
 5541SOL    HW128082   2.650   3.659   0.835  0.5646  0.1837 -0.0202
 5541SOL    HW228083   2.646   3.570   0.714 -1.2949  0.4445  0.8294
 5542SOL     OW28084   0.520   2.165   3.819 -0.2312 -0.0482  0.3495
 5542SOL    HW128085   0.601   2.215   3.830  1.2018 -2.3512  0.3472
 5542SOL    HW228086   0.466   2.184   3.895 -0.7533 -0.6814  0.1413
 5543SOL     OW28087   0.580   4.111   8.235 -0.3856  0.6644  0.3204
 5543SOL    HW128088   0.527   4.033   8.252  2.1667 -1.4022 -1.2203
 5543SOL    HW228089   0.602   4.133   8.325 -2.4226  1.3455  0.6384
 5544SOL     OW28090   3.206   4.348   1.824  0.3456 -0.3522 -0.7758
 5544SOL    HW128091   3.297   4.380   1.820  0.2674  0.3795  3.1586
 5544SOL    HW228092   3.168   4.398   1.752  0.3009  2.1188  0.9720
 5545SOL     OW28093   2.717   3.072   2.856 -0.0016 -0.3313 -0.3624
 5545SOL    HW128094   2.746   3.041   2.770  0.7585 -1.1906  0.1933
 5545SOL    HW228095   2.663   3.145   2.828 -1.5619 -1.6689 -0.8410
 5546SOL     OW28096   2.322   0.587   6.425  0.0573  0.8224 -0.0928
 5546SOL    HW128097   2.395   0.547   6.378 -1.1610 -0.2655 -1.0753
 5546SOL    HW228098   2.265   0.510   6.436 -0.5134  1.0912 -1.1597
 5547SOL     OW28099   1.540   1.928  15.208 -0.1289  0.3921  0.3024
 5547SOL    HW128100   1.540   1.934  15.304  2.2643  1.1922  0.2508
 5547SOL    HW228101   1.588   2.005  15.180  1.4696 -0.4149  0.8529
 5548SOL     OW28102   3.932   1.169   6.944  0.4260 -0.5197  0.3074
 5548SOL    HW128103   3.876   1.194   6.871  1.8400 -0.0301 -0.6232
 5548SOL    HW228104   3.957   1.079   6.925 -0.4966 -1.1627  2.1887
 5549SOL     OW28105   0.682   0.575   8.836  0.3017  0.2657 -0.8705
 5549SOL    HW128106   0.750   0.643   8.843 -0.4928  0.7875  1.8209
 5549SOL    HW228107   0.653   0.570   8.927  2.9366 -1.5487 -0.1358
 5550SOL     OW28108   2.179   0.637  13.290  0.3143  0.7084  0.1290
 5550SOL    HW128109   2.132   0.717  13.314  0.1906  0.5218  0.5156
 5550SOL    HW228110   2.179   0.598  13.377  0.1082  0.2993 -0.0552
 5551SOL     OW28111   2.163   4.144   0.820  0.4447  0.0783 -0.1429
 5551SOL    HW128112   2.224   4.133   0.747 -1.0976 -1.0609 -1.2729
 5551SOL    HW228113   2.203   4.215   0.870 -0.0829  1.6161 -1.8756
 5552SOL     OW28114   3.827   4.086   4.570 -0.1345  0.0522  0.2792
 5552SOL    HW128115   3.878   4.163   4.542 -3.9009  2.3935 -0.1082
 5552SOL    HW228116   3.788   4.063   4.486 -1.2345 -0.2324  0.8649
 5553SOL     OW28117   2.670   2.375  17.603 -0.6914 -0.1583 -0.1245
 5553SOL    HW128118   2.657   2.336  17.690 -2.6137 -0.7071 -0.6549
 5553SOL    HW228119   2.732   2.320  17.555 -0.2087  3.2955 -3.4120
 5554SOL     OW28120   3.876   0.105   2.178 -0.4471 -0.2105  0.1000
 5554SOL    HW128121   3.810   0.150   2.125 -1.4540 -0.1210  1.4555
 5554SOL    HW228122   3.832   0.057   2.247 -1.8196  1.5087  0.4091
 5555SOL     OW28123   2.605   1.274  15.315 -0.4662 -0.3790  0.1447
 5555SOL    HW128124   2.522   1.243  15.279  0.1653 -1.1641 -0.6384
 5555SOL    HW228125   2.653   1.213  15.259  1.9188  0.8155  0.8946
 5556SOL     OW28126   0.821   0.453   7.249 -0.0382 -0.1860 -0.3255
 5556SOL    HW128127   0.729   0.470   7.265 -0.2304  0.1869 -1.8305
 5556SOL    HW228128   0.818   0.398   7.170  0.3750 -0.4528 -0.1564
 5557SOL     OW28129   2.172   4.390   3.407  0.5008 -0.2527  0.1588
 5557SOL    HW128130   2.166   4.476   3.448 -0.5984 -0.4913  0.4893
 5557SOL    HW228131   2.084   4.377   3.374  0.7957 -0.7633 -0.4309
 5558SOL     OW28132   1.219   0.725   1.850 -0.1859  0.0751  0.3500
 5558SOL    HW128133   1.234   0.818   1.832 -0.9702  0.2488  0.6206
 5558SOL    HW228134   1.310   0.697   1.861 -0.3313 -0.5380  0.0079
 5559SOL     OW28135   1.015   4.000   2.085 -0.1486 -0.2183  0.4198
 5559SOL    HW128136   0.992   4.044   2.167  0.5567 -1.5109  1.3054
 5559SOL    HW228137   1.104   3.967   2.100  0.1211 -0.7439 -2.3434
 5560SOL     OW28138   1.755   1.901   6.638  0.1530 -0.0075 -0.1821
 5560SOL    HW128139   1.834   1.850   6.655  0.3305  0.4236  0.2933
 5560SOL    HW228140   1.739   1.882   6.546 -2.3707  0.0229  0.2409
 5561SOL     OW28141   4.561   4.194  12.461 -0.1318  0.3338  0.4818
 5561SOL    HW128142   4.647   4.187  12.420 -0.1127 -1.2430  0.8039
 5561SOL    HW228143   4.575   4.285  12.489  1.3685 -0.0169  0.8612
 5562SOL     OW28144   1.539   4.681   6.279 -0.2911  0.0098  0.6242
 5562SOL    HW128145   1.559   4.596   6.238  2.9501  0.8058  0.5516
 5562SOL    HW228146   1.469   4.655   6.339 -1.4378 -1.2125 -1.2287
 5563SOL     OW28147   3.876   0.407   7.469  0.2738 -0.3972 -0.0555
 5563SOL    HW128148   3.882   0.490   7.422  1.6153 -0.2522  0.3709
 5563SOL    HW228149   3.925   0.421   7.550  0.2777  1.2733 -0.3561
 5564SOL     OW28150   0.455   2.008   8.243 -0.3592 -0.1711  0.2313
 5564SOL    HW128151   0.504   1.949   8.186 -1.1784 -0.4621 -0.1671
 5564SOL    HW228152   0.528   2.056   8.284 -1.3831  2.6147 -1.2152
 5565SOL     OW28153   0.270   1.442  14.960  0.1451 -0.1490  0.4173
 5565SOL    HW128154   0.346   1.434  14.902 -0.5158 -0.1091 -0.4424
 5565SOL    HW228155   0.259   1.534  14.983  0.3835  0.4816 -1.9914
 5566SOL     OW28156   3.001   1.475   3.704  0.2561  0.3941 -0.4279
 5566SOL    HW128157   3.043   1.534   3.642  1.7432  2.4412  2.5489
 5566SOL    HW228158   3.069   1.431   3.755 -0.3366  1.4947  1.3151
 5567SOL     OW28159   1.522   3.640   1.922  0.4586 -0.4813  0.1025
 5567SOL    HW128160   1.426   3.644   1.919  0.4247 -0.5259  1.1036
 5567SOL    HW228161   1.542   3.559   1.970  1.1773  0.8713  2.0634
 5568SOL     OW28162   3.155   2.619  10.571  0.1670  0.3478 -0.4258
 5568SOL    HW128163   3.198   2.695  10.611  0.3252  0.6092 -1.0861
 5568SOL    HW228164   3.096   2.664  10.510 -1.3123  0.8517  1.3667
 5569SOL     OW28165   0.077   2.565   5.009 -0.6451  0.6318  0.4613
 5569SOL    HW128166   0.051   2.655   4.988  1.1227  1.0868  0.1838
 5569SOL    HW228167   0.140   2.546   4.939 -0.5725 -1.0054  0.9755
 5570SOL     OW28168   3.178   0.320   3.836  0.0867  0.6983  0.7690
 5570SOL    HW128169   3.119   0.395   3.835 -0.0385  0.5885 -0.7420
 5570SOL    HW228170   3.111   0.254   3.856 -0.3872  0.3356 -2.0582
 5571SOL     OW28171   1.503   0.100  14.179 -0.2397  0.0623  0.2037
 5571SOL    HW128172   1.562   0.080  14.106 -1.2650 -0.7660 -0.3916
 5571SOL    HW228173   1.541   0.186  14.196 -3.5187  1.6573 -0.6602
 5572SOL     OW28174   2.000   2.310   9.700 -0.8051  0.7182  0.3160
 5572SOL    HW128175   1.964   2.356   9.776 -1.7208  1.2255 -0.4232
 5572SOL    HW228176   1.918   2.282   9.659 -0.8643 -1.7310  2.0812
 5573SOL     OW28177   1.462   0.473   1.234 -0.1542 -0.5803  0.4398
 5573SOL    HW128178   1.458   0.491   1.140 -0.3060 -0.1938  0.5216
 5573SOL    HW228179   1.416   0.548   1.272  0.8829 -0.3012  1.1379
 5574SOL     OW28180   4.632   4.499   6.938 -0.0971  0.3121  0.1904
 5574SOL    HW128181   4.592   4.412   6.940  0.8987 -0.0561  3.0645
 5574SOL    HW228182   4.639   4.508   7.033 -0.9035  3.0352 -0.0184
 5575SOL     OW28183   3.939   3.943   5.029  0.1458  0.5190  0.1338
 5575SOL    HW128184   4.015   3.884   5.031 -1.1389 -1.1514 -0.8870
 5575SOL    HW228185   3.965   4.009   4.964  0.7731  1.8064  1.6910
 5576SOL     OW28186   2.671   0.988  15.679 -0.1511 -0.4674  0.2787
 5576SOL    HW128187   2.725   0.933  15.735  1.1606  0.7785  0.2546
 5576SOL    HW228188   2.642   0.926  15.612 -0.0333 -0.3289  0.0989
 5577SOL     OW28189   1.796   0.885   9.472 -0.0275  0.7495  0.5858
 5577SOL    HW128190   1.822   0.972   9.442 -2.0301  1.4180  0.7975
 5577SOL    HW228191   1.884   0.848   9.471  0.0854  1.1625 -3.6468
 5578SOL     OW28192   2.679   2.843   2.303  0.8768 -0.4467 -0.5738
 5578SOL    HW128193   2.771   2.817   2.313  1.7511  1.9904 -2.1802
 5578SOL    HW228194   2.684   2.938   2.301 -0.0164 -0.3674  1.1289
 5579SOL     OW28195   1.867   2.740  17.509  0.6210 -0.6046  0.5594
 5579SOL    HW128196   1.939   2.765  17.567  0.3724  0.5583  0.3646
 5579SOL    HW228197   1.915   2.677  17.455  0.1799  0.6183 -1.2664
 5580SOL     OW28198   4.196   4.671  16.685 -0.0344  0.2725 -0.3974
 5580SOL    HW128199   4.127   4.615  16.649  0.0902 -0.1963  0.0858
 5580SOL    HW228200   4.187   4.661  16.780 -3.3565 -3.5274 -1.1226
 5581SOL     OW28201   3.363   0.166   2.615  0.2347  0.1675  0.0876
 5581SOL    HW128202   3.432   0.100   2.619 -1.0275 -1.1812 -0.5614
 5581SOL    HW228203   3.376   0.205   2.529 -1.1131 -0.7339 -0.5228
 5582SOL     OW28204   0.116   1.483   0.858 -0.2584  0.1666 -0.2055
 5582SOL    HW128205   0.034   1.504   0.902 -0.4532 -0.2860 -0.3438
 5582SOL    HW228206   0.178   1.554   0.871  0.5398 -0.4898 -0.4039
 5583SOL     OW28207   1.014   2.386   3.309  0.8516 -0.1542 -0.2130
 5583SOL    HW128208   1.014   2.463   3.252 -0.0610  0.3453  0.4605
 5583SOL    HW228209   1.084   2.400   3.373  1.4363 -1.8070 -0.4874
 5584SOL     OW28210   2.560   4.495  13.596  0.2815 -0.4948  0.4002
 5584SOL    HW128211   2.550   4.578  13.549  0.1109 -1.1178 -0.6655
 5584SOL    HW228212   2.626   4.523  13.659  0.0999  0.7302  0.0425
 5585SOL     OW28213   3.277   4.668   2.134 -0.1676  0.1775 -0.4144
 5585SOL    HW128214   3.267   0.036   2.155  3.0256  0.4309 -0.0835
 5585SOL    HW228215   3.287   4.632   2.221  1.8361  0.3204 -0.5908
 5586SOL     OW28216   2.346   2.304   0.803 -0.0593  0.3529 -0.1260
 5586SOL    HW128217   2.283   2.369   0.832 -3.4149 -2.5090 -0.9761
 5586SOL    HW228218   2.292   2.233   0.836 -1.3053  0.9257 -0.9630
 5587SOL     OW28219   1.003   0.070   2.638  0.0016 -0.0168  0.1566
 5587SOL    HW128220   1.091   0.068   2.600  0.0290 -2.5968  0.3125
 5587SOL    HW228221   1.024   0.095   2.728  1.0967 -0.8629  0.1436
 5588SOL     OW28222   2.407   1.548  15.620  0.0096 -0.3710  0.1593
 5588SOL    HW128223   2.472   1.600  15.666 -0.0140  0.1077 -0.3413
 5588SOL    HW228224   2.332   1.601  15.647 -0.3527 -0.8374  0.0743
 5589SOL     OW28225   1.020   3.811  17.612  0.5501 -0.1307 -0.1523
 5589SOL    HW128226   1.028   3.903  17.585 -0.7304  0.0533  0.0763
 5589SOL    HW228227   1.067   3.767  17.542 -0.9906 -2.6866  0.4371
 5590SOL     OW28228   2.842   3.780  12.959  0.2832 -0.3623  0.3304
 5590SOL    HW128229   2.798   3.859  12.992 -0.9980 -0.0303 -2.1740
 5590SOL    HW228230   2.903   3.762  13.031 -0.0492  1.8881  1.1814
 5591SOL     OW28231   4.398   0.807   8.874  0.4098 -0.2854 -0.2916
 5591SOL    HW128232   4.449   0.729   8.852  1.3746 -0.2726  1.9167
 5591SOL    HW228233   4.331   0.770   8.932  0.9405  0.0090  0.5094
 5592SOL     OW28234   1.124   2.174  13.583  0.0387  0.2760 -0.6195
 5592SOL    HW128235   1.063   2.219  13.641  0.8078  1.9641 -1.1428
 5592SOL    HW228236   1.059   2.133  13.527 -1.1095  0.0788  0.8606
 5593SOL     OW28237   0.930   4.708  16.126 -0.1773 -0.1747 -0.0796
 5593SOL    HW128238   0.983   4.642  16.171 -0.1538 -0.5412 -0.6421
 5593SOL    HW228239   0.901   0.034  16.201 -0.9022 -0.4007 -0.2106
 5594SOL     OW28240   3.586   0.872   4.442  0.1560  0.4337 -0.3370
 5594SOL    HW128241   3.594   0.894   4.349 -0.4509 -1.4262 -0.8362
 5594SOL    HW228242   3.529   0.945   4.467 -0.9958 -0.9576  1.0655
 5595SOL     OW28243   4.245   2.952   1.643 -0.2374  0.4518 -0.5858
 5595SOL    HW128244   4.155   2.939   1.612 -1.4250 -0.8370  3.5092
 5595SOL    HW228245   4.242   2.936   1.737  0.5776 -0.6368 -0.7342
 5596SOL     OW28246   0.131   2.685  15.320 -0.2751 -0.6000  0.4324
 5596SOL    HW128247   0.219   2.715  15.298 -0.3395  0.8064  2.0531
 5596SOL    HW228248   0.142   2.636  15.402  1.4495 -1.0667 -0.0802
 5597SOL     OW28249   1.175   2.188   8.981 -0.5676  0.5898  0.0251
 5597SOL    HW128250   1.164   2.197   8.886  0.8572 -0.5833 -0.2592
 5597SOL    HW228251   1.168   2.093   8.993 -0.2978  0.4651 -0.7845
 5598SOL     OW28252   1.581   3.839  14.705 -0.2156  0.1152  0.7289
 5598SOL    HW128253   1.643   3.879  14.766  0.6739 -0.9165  0.4899
 5598SOL    HW228254   1.534   3.905  14.655  0.8525  0.2461 -0.0998
 5599SOL     OW28255   0.987   0.734  15.203  0.0556  0.2140 -0.4456
 5599SOL    HW128256   0.913   0.675  15.217 -0.7881  1.5003  0.5117
 5599SOL    HW228257   0.979   0.761  15.111  0.7658  0.6216 -0.3848
 5600SOL     OW28258   3.875   1.368   7.368 -0.6649 -0.9283  0.2780
 5600SOL    HW128259   3.821   1.414   7.433 -1.1434  0.1133 -0.8414
 5600SOL    HW228260   3.835   1.281   7.370 -2.9543  0.1456  1.3157
 5601SOL     OW28261   3.453   3.702   8.319 -0.0757 -0.2299  0.4898
 5601SOL    HW128262   3.463   3.668   8.230  0.2618  1.4771 -0.1178
 5601SOL    HW228263   3.367   3.672   8.348 -1.0485  0.0867 -2.1302
 5602SOL     OW28264   2.610   1.156  10.459  0.3952  0.0568  0.0597
 5602SOL    HW128265   2.608   1.245  10.493  0.5349  0.9485 -2.2641
 5602SOL    HW228266   2.527   1.153  10.411 -0.0411  0.1363  0.8066
 5603SOL     OW28267   1.084   2.821   7.899  0.3524  0.2416  0.3793
 5603SOL    HW128268   1.059   2.892   7.841 -0.4079  0.6675  1.2175
 5603SOL    HW228269   1.056   2.842   7.988 -0.5721  2.6094 -0.4809
 5604SOL     OW28270   3.277   3.520   5.131  0.0267 -0.3465 -0.5192
 5604SOL    HW128271   3.334   3.486   5.062 -3.1082 -0.2000 -3.1999
 5604SOL    HW228272   3.222   3.566   5.067 -0.6557 -0.3970  0.0329
 5605SOL     OW28273   4.718   2.022  11.658  0.2429 -0.2996 -0.2747
 5605SOL    HW128274   4.631   1.992  11.684 -0.3300  2.0763  0.5805
 5605SOL    HW228275   0.037   2.040  11.742 -1.2247  0.5858  0.3049
 5606SOL     OW28276   1.229   4.558  15.702 -0.1510 -0.0042 -0.4995
 5606SOL    HW128277   1.236   4.490  15.770  0.5952 -0.7860 -1.3514
 5606SOL    HW228278   1.137   4.584  15.703 -0.5833 -1.4693 -1.3793
 5607SOL     OW28279   2.815   1.726  10.830  0.7891 -0.0644  0.2170
 5607SOL    HW128280   2.752   1.798  10.826 -1.5994 -2.4747 -5.6993
 5607SOL    HW228281   2.755   1.665  10.872  0.2556  1.2016  1.2849
 5608SOL     OW28282   4.525   3.072   9.618 -0.3305 -0.4639  0.3623
 5608SOL    HW128283   4.463   3.104   9.552  2.3288 -0.2716 -2.0308
 5608SOL    HW228284   4.589   3.144   9.619  0.0514 -0.8102  1.6359
 5609SOL     OW28285   2.432   0.941  11.502 -0.7400  0.2789  0.1021
 5609SOL    HW128286   2.372   0.876  11.466 -1.9453  1.5865 -0.2548
 5609SOL    HW228287   2.368   1.005  11.534  0.4145  0.9215  1.1000
 5610SOL     OW28288   1.376   3.921   8.333  0.0541 -0.2857  0.0888
 5610SOL    HW128289   1.317   3.976   8.384  0.9808  2.2370 -1.5935
 5610SOL    HW228290   1.427   3.890   8.408  1.8557  1.4201 -0.4128
 5611SOL     OW28291   1.419   3.174  10.520 -0.2945  0.3775 -0.5736
 5611SOL    HW128292   1.338   3.162  10.471  0.3493  0.4119 -1.6586
 5611SOL    HW228293   1.480   3.150  10.450 -0.0787  0.7723 -0.5248
 5612SOL     OW28294   0.674   1.569   7.599  0.0217  0.0417 -0.5804
 5612SOL    HW128295   0.753   1.532   7.638 -0.8681  0.3269  1.4547
 5612SOL    HW228296   0.685   1.539   7.509  1.5757 -0.6960 -0.1327
 5613SOL     OW28297   2.568   2.480   8.163  0.2926  0.5955  0.2657
 5613SOL    HW128298   2.499   2.541   8.136 -0.5029 -0.4833 -0.1557
 5613SOL    HW228299   2.631   2.498   8.094 -0.8143  0.2400 -0.8366
 5614SOL     OW28300   1.564   3.316   3.412 -0.2925  0.3329  0.5275
 5614SOL    HW128301   1.639   3.306   3.470  2.0081  2.6838 -2.0487
 5614SOL    HW228302   1.517   3.233   3.424  0.9540 -0.5897 -1.0193
 5615SOL     OW28303   1.588   3.551   9.190 -0.0765  0.2143 -0.7884
 5615SOL    HW128304   1.557   3.642   9.198 -0.0876 -0.1363  3.1504
 5615SOL    HW228305   1.528   3.506   9.250  2.8909 -3.3392 -0.5146
 5616SOL     OW28306   2.788   4.015  13.052 -0.6295  0.3597 -0.0450
 5616SOL    HW128307   2.740   4.098  13.052  1.2736  1.4533  2.0737
 5616SOL    HW228308   2.847   4.043  13.121  0.2813 -1.2871 -0.1547
 5617SOL     OW28309   1.098   4.594   7.978  0.1701  0.2092  0.3944
 5617SOL    HW128310   1.075   4.683   7.951 -1.0159  0.0931  0.9893
 5617SOL    HW228311   1.014   4.568   8.016  0.6630  0.4267  1.6190
 5618SOL     OW28312   2.790   2.139   6.851 -1.0448 -0.1555  0.2836
 5618SOL    HW128313   2.729   2.065   6.855  0.5292 -1.5847 -1.8151
 5618SOL    HW228314   2.852   2.104   6.915 -0.7281 -2.2541 -1.1410
 5619SOL     OW28315   4.620   3.977   2.737 -0.6836  0.0232 -0.0217
 5619SOL    HW128316   4.630   4.021   2.653 -0.3450 -0.5749 -0.2911
 5619SOL    HW228317   4.582   4.047   2.792  0.3128  1.7564 -1.5436
 5620SOL     OW28318   4.151   0.971  13.603  0.1224  0.2411  0.2386
 5620SOL    HW128319   4.078   1.024  13.636  1.6756  2.9288 -0.7358
 5620SOL    HW228320   4.105   0.933  13.528  1.5831  2.5040 -1.7994
 5621SOL     OW28321   1.849   2.354   8.592  0.0354 -0.1955 -0.9292
 5621SOL    HW128322   1.805   2.413   8.653 -1.3618 -0.8523 -1.3157
 5621SOL    HW228323   1.890   2.293   8.653 -1.2228 -0.3137 -0.2027
 5622SOL     OW28324   2.871   3.163  16.406 -0.3153  0.2274 -0.3484
 5622SOL    HW128325   2.947   3.108  16.389 -0.9075 -0.5006 -0.6368
 5622SOL    HW228326   2.894   3.237  16.350  0.2296  0.2963 -0.0336
 5623SOL     OW28327   1.279   3.219   2.317 -0.3627  0.1603 -0.0375
 5623SOL    HW128328   1.321   3.267   2.245  0.6392 -0.4519  0.1275
 5623SOL    HW228329   1.234   3.144   2.279 -1.8596  1.3183 -0.5591
 5624SOL     OW28330   0.534   3.628   5.637 -0.3965  0.0458  0.2272
 5624SOL    HW128331   0.589   3.555   5.609 -0.9078  0.1764 -1.1315
 5624SOL    HW228332   0.585   3.703   5.606  0.5158 -0.5752  0.2291
 5625SOL     OW28333   3.982   4.169   2.055  0.2785 -0.3494 -0.0969
 5625SOL    HW128334   4.057   4.204   2.104 -1.6839  2.3986  0.9262
 5625SOL    HW228335   4.019   4.087   2.021  0.9310  0.5430 -1.5391
 5626SOL     OW28336   2.813   1.658   1.221 -0.5773  0.1647 -0.5751
 5626SOL    HW128337   2.761   1.580   1.240  0.7296 -0.1130  1.8656
 5626SOL    HW228338   2.776   1.682   1.136  0.8967  0.1769 -1.2069
 5627SOL     OW28339   1.914   0.349   6.346  0.0538  0.1969 -0.5338
 5627SOL    HW128340   1.832   0.359   6.394  0.7906  1.0685  0.5346
 5627SOL    HW228341   1.885   0.351   6.254  0.5221 -0.1845 -0.6896
 5628SOL     OW28342   4.192   2.566   5.230  0.6584 -0.2646 -0.3308
 5628SOL    HW128343   4.170   2.572   5.137  2.3741  2.0480 -0.5870
 5628SOL    HW228344   4.125   2.621   5.271  0.3204  0.8610 -2.3839
 5629SOL     OW28345   3.567   3.067  11.425 -0.7440  0.5772  0.4865
 5629SOL    HW128346   3.576   3.036  11.334 -0.3922  1.2959  0.2786
 5629SOL    HW228347   3.516   3.000  11.472 -0.7136  0.4288  0.3121
 5630SOL     OW28348   3.174   0.501   8.849 -0.1231 -0.0490 -0.6007
 5630SOL    HW128349   3.084   0.497   8.881 -0.1978 -2.2800 -1.1507
 5630SOL    HW228350   3.166   0.494   8.754 -1.6639 -1.0268 -0.3931
 5631SOL     OW28351   3.219   2.707   4.774 -0.5799  0.0379  0.3949
 5631SOL    HW128352   3.132   2.748   4.774 -0.1697  0.8870 -1.0263
 5631SOL    HW228353   3.256   2.736   4.857 -0.2137  2.2517 -0.5459
 5632SOL     OW28354   4.613   1.204   3.606 -0.0872  0.1937  0.1263
 5632SOL    HW128355   4.576   1.280   3.561 -0.1836 -0.6323 -1.2017
 5632SOL    HW228356   4.699   1.243   3.625 -0.6522  0.8924  1.2879
 5633SOL     OW28357   1.603   1.192  10.973 -0.2966 -0.1402  0.1894
 5633SOL    HW128358   1.578   1.207  10.882 -0.8953 -2.9695 -0.1097
 5633SOL    HW228359   1.618   1.098  10.966 -0.7015 -0.2054  0.2014
 5634SOL     OW28360   2.401   0.646   5.642 -0.1878 -0.3408 -0.3250
 5634SOL    HW128361   2.462   0.648   5.716  1.0498  2.6771 -1.4052
 5634SOL    HW228362   2.455   0.665   5.565 -1.3874 -0.3689 -1.1709
 5635SOL     OW28363   2.760   0.691   4.467 -0.2552  0.0248 -0.2937
 5635SOL    HW128364   2.812   0.614   4.441 -2.0205 -1.2991  0.0747
 5635SOL    HW228365   2.675   0.654   4.444 -0.3492  0.3923 -0.5322
 5636SOL     OW28366   3.998   0.375   2.609  0.0868  0.1021 -0.4062
 5636SOL    HW128367   3.966   0.392   2.521 -1.2849 -3.0401 -0.5128
 5636SOL    HW228368   4.093   0.368   2.599 -0.2795 -0.4698 -3.4132
 5637SOL     OW28369   4.041   2.289   4.808  0.0947  0.7184  0.2811
 5637SOL    HW128370   4.127   2.325   4.783  0.8243 -2.9838 -2.5142
 5637SOL    HW228371   4.042   2.299   4.903  1.5203 -3.0777  0.6610
 5638SOL     OW28372   2.648   0.067   6.525  0.2712 -0.6831  0.2805
 5638SOL    HW128373   2.633   0.015   6.446  1.5317  0.2203 -0.5575
 5638SOL    HW228374   2.587   0.139   6.505  0.6157 -1.0897 -2.2901
 5639SOL     OW28375   1.903   1.301  13.668  0.9229 -0.0885  0.4884
 5639SOL    HW128376   1.834   1.315  13.604  1.7591  2.9597  0.2404
 5639SOL    HW228377   1.854   1.235  13.716  0.6989  0.4258  0.9712
 5640SOL     OW28378   2.387   4.181   5.191  0.5131  0.2301 -0.2500
 5640SOL    HW128379   2.306   4.215   5.152 -0.1373  1.4092  2.1399
 5640SOL    HW228380   2.399   4.107   5.132  1.2229  0.4160 -0.3493
 5641SOL     OW28381   3.138   2.995  12.761 -0.4510  0.5475  0.0347
 5641SOL    HW128382   3.186   3.030  12.687 -1.3425  2.2705  0.2553
 5641SOL    HW228383   3.095   3.073  12.796 -1.0122  1.0509 -1.7902
 5642SOL     OW28384   2.827   0.858   9.247  0.3927  0.1453 -0.4790
 5642SOL    HW128385   2.854   0.879   9.337 -2.3397  0.1052  0.3637
 5642SOL    HW228386   2.913   0.823   9.225  0.4455 -0.4275  0.6183
 5643SOL     OW28387   0.585   4.150   2.072 -0.2905  0.7099 -0.5493
 5643SOL    HW128388   0.578   4.221   2.008 -3.0098 -0.1619 -1.2124
 5643SOL    HW228389   0.613   4.074   2.021 -0.0283  0.3233  0.1876
 5644SOL     OW28390   3.422   0.333   3.994 -0.3869  0.2047  0.2177
 5644SOL    HW128391   3.344   0.327   3.939  0.4270 -2.6589 -0.6683
 5644SOL    HW228392   3.491   0.367   3.937 -2.6054  2.2660 -1.1973
 5645SOL     OW28393   3.199   0.374   8.156 -0.0317 -0.1311  0.6306
 5645SOL    HW128394   3.137   0.343   8.090 -2.5730 -0.5185  3.1651
 5645SOL    HW228395   3.231   0.299   8.207 -0.9504 -1.1306 -0.2653
 5646SOL     OW28396   0.109   1.731   3.449  0.2297  0.4061 -0.0933
 5646SOL    HW128397   0.121   1.754   3.357 -0.3117 -0.3872 -0.3661
 5646SOL    HW228398   0.080   1.640   3.446 -0.9106  0.7598  0.2892
 5647SOL     OW28399   4.613   2.328   8.722 -0.0647 -0.3563 -0.0456
 5647SOL    HW128400   4.583   2.285   8.642  0.0904 -1.0554  0.2735
 5647SOL    HW228401   4.527   2.361   8.748 -0.0830  1.7817 -2.7765
 5648SOL     OW28402   3.048   3.488   6.692  0.1851  0.5073 -0.4161
 5648SOL    HW128403   3.123   3.471   6.748 -1.6222  0.1274  1.8789
 5648SOL    HW228404   3.088   3.486   6.605 -1.2123  1.7918 -1.0932
 5649SOL     OW28405   1.926   1.415  12.637  0.1229 -0.2413  0.1268
 5649SOL    HW128406   1.995   1.469  12.677 -0.1508  0.1221  0.1088
 5649SOL    HW228407   1.896   1.377  12.719  1.1616  0.0601  0.6483
 5650SOL     OW28408   0.764   1.646  15.519 -0.6436 -0.1324 -0.1987
 5650SOL    HW128409   0.839   1.698  15.491  0.4852 -0.8803  1.4143
 5650SOL    HW228410   0.693   1.680  15.464 -1.0985  1.0817  1.1295
 5651SOL     OW28411   1.631   1.952  14.769 -0.3691  0.1011 -0.3163
 5651SOL    HW128412   1.704   1.905  14.809  0.5974  3.0016  1.3110
 5651SOL    HW228413   1.567   1.884  14.749 -2.2842  2.3371 -1.7413
 5652SOL     OW28414   2.694   2.728   8.817  0.8418 -0.2152  0.3302
 5652SOL    HW128415   2.635   2.723   8.893  0.9653  1.5583  0.5423
 5652SOL    HW228416   2.640   2.701   8.743  1.4952 -1.7011  0.3898
 5653SOL     OW28417   4.557   2.570  16.128 -0.4351  0.1959 -0.0352
 5653SOL    HW128418   4.512   2.650  16.154 -0.6403 -0.3297  1.2130
 5653SOL    HW228419   4.645   2.602  16.107 -0.3867 -0.6147 -1.0829
 5654SOL     OW28420   1.865   2.624   6.237  0.3905  0.3766 -0.4109
 5654SOL    HW128421   1.838   2.631   6.145  1.9690  5.1313 -0.5041
 5654SOL    HW228422   1.922   2.699   6.251  0.0821  0.4572  0.4157
 5655SOL     OW28423   4.004   2.249  16.307  0.3863 -0.6290 -0.2080
 5655SOL    HW128424   3.974   2.307  16.237  1.1817  0.3192  0.2280
 5655SOL    HW228425   4.100   2.259  16.307  0.5765 -2.6101 -0.4556
 5656SOL     OW28426   1.419   2.017   2.312  0.4360  0.5737  0.5237
 5656SOL    HW128427   1.398   1.935   2.356  1.4489  2.0962  3.8969
 5656SOL    HW228428   1.458   1.988   2.230  1.4233  0.1949  1.1249
 5657SOL     OW28429   2.992   2.570   6.571 -0.4005 -0.4342  0.0501
 5657SOL    HW128430   2.908   2.597   6.534 -1.2377  1.0085  3.0201
 5657SOL    HW228431   2.967   2.480   6.595 -0.5023  0.5726  3.6750
 5658SOL     OW28432   1.445   3.064  11.346 -0.6732 -0.5054  0.4723
 5658SOL    HW128433   1.506   3.058  11.419 -0.3747  1.0160  0.3424
 5658SOL    HW228434   1.370   3.010  11.372  0.2677 -1.3638  1.3832
 5659SOL     OW28435   2.797   4.000   0.151  0.5540  0.5232  0.2066
 5659SOL    HW128436   2.761   4.061   0.088 -0.7682 -0.2239  0.2462
 5659SOL    HW228437   2.883   4.040   0.165  1.2238 -0.8289 -0.0048
 5660SOL     OW28438   1.343   2.008  12.652 -0.3030 -0.5353  0.7446
 5660SOL    HW128439   1.345   2.025  12.746  0.1539  0.7222  0.5075
 5660SOL    HW228440   1.405   2.072  12.617 -1.4963  0.7928  1.0550
 5661SOL     OW28441   2.841   1.340   9.689  0.5081 -0.4350  0.4400
 5661SOL    HW128442   2.792   1.275   9.640  0.7982 -0.1374 -0.2527
 5661SOL    HW228443   2.895   1.375   9.618  2.0941 -1.0081  1.3561
 5662SOL     OW28444   3.506   4.663  12.162 -0.7785 -0.3226 -0.7159
 5662SOL    HW128445   3.449   4.723  12.113  0.3165  0.9267 -0.4482
 5662SOL    HW228446   3.486   4.679  12.254  0.1487  1.8136 -0.8978
 5663SOL     OW28447   3.801   3.417   6.563 -0.1321 -0.6653 -0.0508
 5663SOL    HW128448   3.744   3.443   6.490  1.0414  0.7387 -0.4618
 5663SOL    HW228449   3.864   3.354   6.529 -0.1847 -0.2949 -0.8323
 5664SOL     OW28450   1.963   1.334   8.044 -0.3647 -0.5304 -0.4214
 5664SOL    HW128451   2.000   1.417   8.013 -1.7773  0.2257 -0.0477
 5664SOL    HW228452   1.873   1.363   8.055 -0.5149 -0.4514 -1.8107
 5665SOL     OW28453   2.539   1.419  10.587 -0.2784 -0.7485 -0.5057
 5665SOL    HW128454   2.451   1.450  10.566 -0.8494 -2.8104 -1.1334
 5665SOL    HW228455   2.597   1.493  10.571  0.2818 -0.9526  0.5822
 5666SOL     OW28456   4.140   3.445   4.278  0.1742 -0.1496  0.4926
 5666SOL    HW128457   4.167   3.417   4.190  2.1817 -0.6374  1.2828
 5666SOL    HW228458   4.116   3.532   4.246  2.8487  0.4451  0.1104
 5667SOL     OW28459   2.133   1.346   5.225 -0.3302  0.6115  0.0625
 5667SOL    HW128460   2.173   1.272   5.179 -1.3048  0.9460 -1.3346
 5667SOL    HW228461   2.042   1.318   5.234 -0.1651  0.4964  1.2787
 5668SOL     OW28462   0.512   1.272   3.046  0.2749  0.6946  0.2285
 5668SOL    HW128463   0.542   1.340   2.986 -0.7872  0.0250 -1.0740
 5668SOL    HW228464   0.466   1.214   2.985 -1.2450  1.5156  0.5937
 5669SOL     OW28465   4.489   2.101   6.639  0.0153 -0.3885 -0.1216
 5669SOL    HW128466   4.540   2.053   6.573  1.0374 -1.7226  1.6348
 5669SOL    HW228467   4.416   2.113   6.578 -0.0191  2.0808  0.4065
 5670SOL     OW28468   3.185   2.251   6.450 -0.1585 -0.0335  0.2511
 5670SOL    HW128469   3.234   2.215   6.376 -2.0850 -0.6910 -0.7050
 5670SOL    HW228470   3.097   2.217   6.436 -0.0051 -0.6329  0.7128
 5671SOL     OW28471   2.492   2.705   5.231 -0.2018  0.0871 -0.2805
 5671SOL    HW128472   2.471   2.791   5.195 -2.2281  0.3109  1.4755
 5671SOL    HW228473   2.472   2.723   5.323 -0.7813  0.3932 -0.4619
 5672SOL     OW28474   3.793   4.525   2.864 -0.1102 -0.2336  0.4152
 5672SOL    HW128475   3.876   4.503   2.823 -0.8563 -0.7182 -0.8411
 5672SOL    HW228476   3.820   4.565   2.947  1.2284  0.2205 -0.2526
 5673SOL     OW28477   0.265   3.118   8.581 -0.0627  0.7729  0.9622
 5673SOL    HW128478   0.216   3.119   8.663 -0.9717 -0.9215  0.4500
 5673SOL    HW228479   0.187   3.111   8.526  0.5713  0.2931  0.1330
 5674SOL     OW28480   4.129   0.309   3.430 -0.5028 -0.4487 -0.1677
 5674SOL    HW128481   4.191   0.305   3.356  1.0331  0.1044  1.0944
 5674SOL    HW228482   4.190   0.298   3.502 -0.6477  0.1158  0.0381
 5675SOL     OW28483   1.278   0.398   9.653 -0.3883 -0.3948  0.5203
 5675SOL    HW128484   1.315   0.405   9.741  0.4181 -1.1983  0.2361
 5675SOL    HW228485   1.286   0.492   9.633 -2.2624  0.1046  2.0310
 5676SOL     OW28486   1.706   1.216   7.090  0.2312  0.1567  0.1789
 5676SOL    HW128487   1.759   1.199   7.168  1.2430 -1.7423 -0.9406
 5676SOL    HW228488   1.615   1.197   7.111  0.0351  0.7804 -0.0819
 5677SOL     OW28489   1.467   4.603  13.370 -0.2536  0.4130  0.8171
 5677SOL    HW128490   1.547   4.625  13.418 -0.5549 -1.0843  2.0140
 5677SOL    HW228491   1.452   4.513  13.400  0.9226  0.4281  1.4466
 5678SOL     OW28492   0.075   2.603   5.696  0.2727 -0.0531 -0.1682
 5678SOL    HW128493   0.090   2.584   5.788  0.7606 -0.5468 -0.3455
 5678SOL    HW228494   0.138   2.672   5.678 -2.9957  2.9440 -0.1107
 5679SOL     OW28495   0.879   3.578   8.319 -0.5698 -0.2428 -0.6887
 5679SOL    HW128496   0.927   3.622   8.249 -0.9560  1.1993 -0.0518
 5679SOL    HW228497   0.945   3.536   8.375  0.2638  0.1003 -1.4161
 5680SOL     OW28498   3.270   4.106   2.282 -0.3555  0.4500  0.6818
 5680SOL    HW128499   3.306   4.037   2.338 -1.8749 -0.3593  0.6682
 5680SOL    HW228500   3.339   4.171   2.292  1.6842 -1.6584  0.4394
 5681SOL     OW28501   3.477   2.375   4.328 -0.3580 -0.1997 -0.3692
 5681SOL    HW128502   3.565   2.340   4.342 -0.7974 -1.7475 -1.4394
 5681SOL    HW228503   3.462   2.399   4.419  0.3363 -2.0655  0.2367
 5682SOL     OW28504   2.171   2.114   9.675 -0.0782  0.5805 -0.3422
 5682SOL    HW128505   2.097   2.064   9.640  0.4124  1.1616 -2.2007
 5682SOL    HW228506   2.109   2.178   9.712 -0.6732  1.3119 -2.5884
 5683SOL     OW28507   2.242   0.186   6.853  0.5556 -0.0082  0.4259
 5683SOL    HW128508   2.320   0.135   6.831  1.3925  0.8964  1.3015
 5683SOL    HW228509   2.236   0.165   6.946 -0.2686  1.8977  0.8010
 5684SOL     OW28510   0.407   0.255   4.677 -0.6304  0.1848 -0.3289
 5684SOL    HW128511   0.338   0.316   4.649 -2.1360 -1.0539  0.6678
 5684SOL    HW228512   0.484   0.309   4.661  0.0099 -1.1269 -1.6934
 5685SOL     OW28513   2.393   3.049   4.853  0.3774 -0.0942 -0.4884
 5685SOL    HW128514   2.416   3.025   4.943  0.5683  0.0440 -0.5026
 5685SOL    HW228515   2.463   3.005   4.805 -1.8525 -3.2820 -0.8578
 5686SOL     OW28516   4.068   0.985   6.098  0.3537 -0.1431  0.3127
 5686SOL    HW128517   4.135   1.003   6.033  0.2450 -0.7044  0.0430
 5686SOL    HW228518   4.084   0.892   6.114  0.0033 -0.1831  0.4307
 5687SOL     OW28519   4.220   2.139   4.009  0.3178 -0.2227 -0.5701
 5687SOL    HW128520   4.150   2.096   3.960 -0.2708  0.1909 -0.0900
 5687SOL    HW228521   4.278   2.157   3.935  0.7742  1.7543  0.2881
 5688SOL     OW28522   0.137   3.140  12.288 -0.2170  0.1166  0.0923
 5688SOL    HW128523   0.126   3.145  12.193  1.7660  1.7813 -0.0558
 5688SOL    HW228524   0.156   3.232  12.307  1.9232  0.0369 -1.5611
 5689SOL     OW28525   1.248   4.635   8.663 -0.1582 -0.5711 -0.0376
 5689SOL    HW128526   1.260   4.692   8.739  1.5490 -1.6891  0.5480
 5689SOL    HW228527   1.334   4.593   8.665  0.3019  0.2869 -2.0568
 5690SOL     OW28528   3.362   3.398  10.362 -0.1418  0.1853  0.0089
 5690SOL    HW128529   3.291   3.353  10.318  0.2148  0.4047 -0.7967
 5690SOL    HW228530   3.376   3.471  10.301  0.0334  1.3006  1.3887
 5691SOL     OW28531   4.558   1.777   5.518  0.5592 -0.0861  0.1627
 5691SOL    HW128532   4.473   1.736   5.538  0.4671  0.2389  0.4426
 5691SOL    HW228533   4.611   1.701   5.542  1.9186  0.9471  0.4222
 5692SOL     OW28534   1.733   1.340   2.260 -0.1634  0.0430  0.4636
 5692SOL    HW128535   1.789   1.321   2.335  1.7009 -1.0356 -1.2171
 5692SOL    HW228536   1.654   1.294   2.290 -0.1388 -1.2487 -1.4500
 5693SOL     OW28537   1.121   4.489   9.014  0.2402  0.2793  0.1716
 5693SOL    HW128538   1.180   4.435   9.067  0.6808 -1.1516 -1.7863
 5693SOL    HW228539   1.179   4.547   8.965  0.1071 -2.0282 -2.6772
 5694SOL     OW28540   2.092   1.723   4.223  0.8163  0.0024 -0.2822
 5694SOL    HW128541   2.117   1.814   4.206  0.5334  0.0339 -0.5264
 5694SOL    HW228542   2.037   1.740   4.300  0.1326 -1.4750 -0.4330
 5695SOL     OW28543   1.468   2.103  14.530 -0.0486 -0.4948 -0.4951
 5695SOL    HW128544   1.553   2.095  14.572 -1.1252  0.1345  1.8017
 5695SOL    HW228545   1.469   2.029  14.470  2.3086 -0.7631 -0.1039
 5696SOL     OW28546   1.441   1.897   6.776  0.6891 -0.0667  0.7538
 5696SOL    HW128547   1.347   1.900   6.760  0.8662 -1.5832 -0.5657
 5696SOL    HW228548   1.458   1.811   6.737  1.9957 -0.3619  1.9617
 5697SOL     OW28549   1.042   1.701   6.100  0.0880 -0.0385  0.1736
 5697SOL    HW128550   1.061   1.613   6.132  0.8587  0.8474  2.1936
 5697SOL    HW228551   1.126   1.743   6.117  0.5508 -0.8203 -0.1869
 5698SOL     OW28552   0.497   3.860   1.576  0.5244 -0.0719  0.3161
 5698SOL    HW128553   0.517   3.788   1.637  1.1298 -0.0665  0.1262
 5698SOL    HW228554   0.416   3.826   1.538  0.7735  0.2385 -0.4727
 5699SOL     OW28555   0.141   2.227   7.840 -0.6203  0.2131  0.1259
 5699SOL    HW128556   0.171   2.226   7.749 -0.4757  2.7583  0.1352
 5699SOL    HW228557   0.202   2.175   7.892  0.2792  1.6147  0.4722
 5700SOL     OW28558   1.805   4.609   8.011 -0.9144 -0.3195  0.0761
 5700SOL    HW128559   1.717   4.644   7.999 -0.1131  0.1872 -4.4350
 5700SOL    HW228560   1.859   4.686   7.997 -1.5224 -0.0768 -0.9046
 5701SOL     OW28561   4.599   4.669   5.124 -0.2263 -0.6195  0.1163
 5701SOL    HW128562   4.653   4.673   5.204 -0.0734  0.6574 -0.0559
 5701SOL    HW228563   4.568   4.578   5.121  1.4102 -1.2522  1.5702
 5702SOL     OW28564   0.437   0.784   6.655  0.4389 -0.3089 -0.0870
 5702SOL    HW128565   0.386   0.757   6.579  1.8101 -2.3340 -0.2963
 5702SOL    HW228566   0.514   0.815   6.608  0.8564 -0.0533  0.7676
 5703SOL     OW28567   1.566   1.580  11.113  0.5049  0.1896  0.2401
 5703SOL    HW128568   1.493   1.523  11.137 -0.1119  0.6730 -0.4762
 5703SOL    HW228569   1.625   1.583  11.188  0.2597 -0.3519  0.4546
 5704SOL     OW28570   0.104   0.993   0.455  0.6100  0.3724 -0.0363
 5704SOL    HW128571   0.151   0.989   0.371 -0.7478  2.7205 -0.9277
 5704SOL    HW228572   0.087   0.905   0.488  0.5565  0.8080  1.0734
 5705SOL     OW28573   2.926   0.141   3.469  0.1680  0.1359 -0.1500
 5705SOL    HW128574   3.011   0.122   3.508 -0.2430  0.8559  1.1172
 5705SOL    HW228575   2.963   0.170   3.386  0.8758  1.4686  0.6291
 5706SOL     OW28576   1.341   1.416   5.786 -0.4766  0.2231  0.0904
 5706SOL    HW128577   1.380   1.498   5.813  0.4182 -0.5723  1.1701
 5706SOL    HW228578   1.380   1.401   5.699 -0.1933 -0.7445  0.3802
 5707SOL     OW28579   3.676   3.045  14.939  0.4513 -0.1680  0.9045
 5707SOL    HW128580   3.697   3.019  15.029 -0.3953 -2.6323  0.3775
 5707SOL    HW228581   3.583   3.024  14.937  0.0293  1.5945  1.5360
 5708SOL     OW28582   0.127   1.330   3.067  0.5197 -0.2287 -0.0765
 5708SOL    HW128583   0.155   1.261   3.007 -0.7761 -1.7117  1.0097
 5708SOL    HW228584   0.194   1.398   3.059  0.1877 -0.0526 -1.2502
 5709SOL     OW28585   1.228   2.313  16.378  0.1830 -0.0725 -0.2759
 5709SOL    HW128586   1.278   2.394  16.371  1.4733 -0.7877  0.7134
 5709SOL    HW228587   1.267   2.255  16.313  1.8514  0.4901  0.2314
 5710SOL     OW28588   1.331   4.612  13.122  0.6172 -0.0860 -0.4182
 5710SOL    HW128589   1.375   4.591  13.204 -2.4153  2.3934  1.8522
 5710SOL    HW228590   1.386   4.681  13.086 -2.0677  2.7958  1.0353
 5711SOL     OW28591   1.802   3.958   5.631 -0.4872 -0.6300  0.3339
 5711SOL    HW128592   1.895   3.937   5.626 -0.7722 -1.9592  0.6441
 5711SOL    HW228593   1.760   3.891   5.577 -0.9408 -0.7567  0.8441
 5712SOL     OW28594   0.142   4.017  12.466 -0.2888  0.4181  0.6059
 5712SOL    HW128595   0.098   4.002  12.383 -0.4280 -1.6838  1.0508
 5712SOL    HW228596   0.230   3.982  12.450 -0.3850  0.6835 -0.4474
 5713SOL     OW28597   1.922   4.616  15.957  0.0063 -0.2769  0.1011
 5713SOL    HW128598   1.917   4.562  15.878 -0.3415 -1.4266  0.9086
 5713SOL    HW228599   1.840   4.665  15.952 -1.1150 -2.1920 -0.4149
 5714SOL     OW28600   0.241   4.634   4.028  0.4681  0.0330  0.3588
 5714SOL    HW128601   0.276   4.554   3.988  0.9240  0.9636 -1.1021
 5714SOL    HW228602   0.310   4.693   4.000  0.1403  0.2824  0.0766
 5715SOL     OW28603   1.614   1.060   6.413 -0.1529 -0.1470  0.9214
 5715SOL    HW128604   1.697   1.060   6.365 -0.1591 -0.5583  0.9038
 5715SOL    HW228605   1.599   0.965   6.408  3.0984 -0.4118 -4.3560
 5716SOL     OW28606   1.051   0.493   9.168  0.1318 -0.3704 -0.0205
 5716SOL    HW128607   1.038   0.499   9.262 -0.3673 -3.5102  0.1139
 5716SOL    HW228608   1.147   0.483   9.170  0.1124 -0.7266 -0.7746
 5717SOL     OW28609   2.493   4.628   1.617 -0.0593  0.0333  0.1060
 5717SOL    HW128610   2.411   4.584   1.639 -0.8740  0.3592 -2.2634
 5717SOL    HW228611   2.556   4.557   1.613 -0.8585 -0.5431 -2.2511
 5718SOL     OW28612   0.221   3.154   5.497 -0.4617 -0.3394  0.1890
 5718SOL    HW128613   0.286   3.217   5.466 -0.9378 -0.3057 -0.7552
 5718SOL    HW228614   0.160   3.200   5.555 -2.3638  0.5534 -2.4767
 5719SOL     OW28615   4.257   0.592   7.665  0.9300  0.2780  0.9457
 5719SOL    HW128616   4.182   0.534   7.655  0.2195  1.2512  0.6416
 5719SOL    HW228617   4.217   0.679   7.661 -2.4526 -1.2276  1.7095
 5720SOL     OW28618   2.781   0.084   2.578 -0.3795 -0.5455  0.1261
 5720SOL    HW128619   2.695   0.078   2.535 -0.8190  1.3924  0.7177
 5720SOL    HW228620   2.849   0.059   2.516 -0.5500 -0.5042 -0.0777
 5721SOL     OW28621   0.415   2.046  12.335 -0.3795  0.2610 -0.9274
 5721SOL    HW128622   0.464   1.994  12.271 -0.4616  1.4669 -1.9771
 5721SOL    HW228623   0.334   2.070  12.291 -0.9982 -1.1904 -0.5354
 5722SOL     OW28624   4.082   4.051   6.977  0.1069  0.5239  0.1426
 5722SOL    HW128625   4.039   4.124   7.022  1.1921  2.1712 -1.4947
 5722SOL    HW228626   4.084   3.991   7.052  0.4543  1.1107  0.6026
 5723SOL     OW28627   2.430   2.554   9.712 -0.5507  0.4518 -0.7548
 5723SOL    HW128628   2.394   2.616   9.776  1.8712  1.1771 -0.0777
 5723SOL    HW228629   2.350   2.513   9.678 -0.5273 -0.9720  0.9329
 5724SOL     OW28630   3.787   0.513   3.986  0.1340 -0.9705  0.1597
 5724SOL    HW128631   3.881   0.493   3.985  0.1314 -0.8511 -3.0718
 5724SOL    HW228632   3.758   0.486   4.073  1.1978 -1.3409  0.4019
 5725SOL     OW28633   4.062   2.994   5.259 -0.0542  0.0997  0.5360
 5725SOL    HW128634   4.150   2.989   5.297  0.1921 -1.2520 -0.1968
 5725SOL    HW228635   4.034   2.908   5.290 -0.9300  0.1506 -0.1187
 5726SOL     OW28636   4.080   4.062   7.916  0.4983  0.3507 -0.0456
 5726SOL    HW128637   4.156   4.089   7.967  0.4096 -0.2619  0.4085
 5726SOL    HW228638   4.050   4.144   7.877  2.2395 -0.9950 -4.2248
 5727SOL     OW28639   1.957   4.431   2.067  0.2249  0.0288 -0.3970
 5727SOL    HW128640   1.936   4.383   1.987 -0.0228  0.0318 -0.3326
 5727SOL    HW228641   1.915   4.514   2.047 -1.7995 -0.2556  2.6132
 5728SOL     OW28642   3.400   3.270   7.202  0.9668  0.6236  0.2777
 5728SOL    HW128643   3.371   3.220   7.277  2.2693 -0.0700  0.3137
 5728SOL    HW228644   3.333   3.339   7.207 -0.5251 -0.7853 -0.3624
 5729SOL     OW28645   3.681   3.639   2.527 -0.4299 -0.4053 -0.0917
 5729SOL    HW128646   3.649   3.549   2.532  2.2833 -1.3099  0.4753
 5729SOL    HW228647   3.705   3.650   2.435 -2.6098  0.2837 -0.5898
 5730SOL     OW28648   3.418   3.557   5.612 -0.1077  0.2269  0.1809
 5730SOL    HW128649   3.444   3.648   5.627 -0.8129  0.7538 -1.7709
 5730SOL    HW228650   3.370   3.574   5.530  0.4662  0.6103 -0.0720
 5731SOL     OW28651   0.606   2.592   2.397 -0.0504  0.5061 -0.9142
 5731SOL    HW128652   0.679   2.534   2.375  0.3778 -0.4038  2.8465
 5731SOL    HW228653   0.530   2.534   2.399  0.3357  0.0016 -0.6274
 5732SOL     OW28654   4.489   0.486   8.246 -0.1550 -0.1079  0.4152
 5732SOL    HW128655   4.398   0.513   8.259  0.1267  0.6601  0.7471
 5732SOL    HW228656   4.491   0.492   8.150  1.9795 -1.9193  0.3391
 5733SOL     OW28657   0.265   3.312  16.730  0.0723 -0.3556  0.1048
 5733SOL    HW128658   0.355   3.321  16.760 -0.0421  0.2512  0.2733
 5733SOL    HW228659   0.224   3.390  16.769 -2.3673 -0.9050 -1.3509
 5734SOL     OW28660   1.163   2.305   6.249  0.0532  0.3852 -0.0983
 5734SOL    HW128661   1.180   2.221   6.207 -0.1711  0.7278 -0.8709
 5734SOL    HW228662   1.161   2.280   6.341  0.7556  0.7460  0.0176
 5735SOL     OW28663   1.496   3.055   9.026 -0.0821  0.1457  0.5533
 5735SOL    HW128664   1.497   2.975   9.077 -1.9284 -0.8062 -0.8891
 5735SOL    HW228665   1.502   3.015   8.939 -0.9461  0.5016  0.3311
 5736SOL     OW28666   3.400   1.735   1.607  0.1303  0.4782 -0.2446
 5736SOL    HW128667   3.328   1.673   1.623 -1.3904  2.4279  0.4852
 5736SOL    HW228668   3.466   1.669   1.588 -0.1660  0.5287 -1.4179
 5737SOL     OW28669   1.951   2.149   7.547  0.6940 -0.6078  0.3755
 5737SOL    HW128670   1.887   2.169   7.478 -0.8823  0.0099  2.0275
 5737SOL    HW228671   1.940   2.054   7.555  0.8487 -0.8297 -1.9325
 5738SOL     OW28672   0.026   0.361  12.980 -0.0195 -0.0875  0.6814
 5738SOL    HW128673   4.661   0.390  12.966  0.6311  0.8511 -1.5764
 5738SOL    HW228674   0.070   0.446  12.988  0.2399 -0.3449  2.0073
 5739SOL     OW28675   0.085   4.201   8.679  0.0184 -0.3505  0.0737
 5739SOL    HW128676   0.119   4.251   8.605  0.1044 -2.9511 -1.6675
 5739SOL    HW228677   4.715   4.196   8.667  0.1597  0.0880 -1.2631
 5740SOL     OW28678   3.393   1.313   8.619  0.1767  0.3144  0.4273
 5740SOL    HW128679   3.481   1.334   8.650 -0.5436 -0.3791  2.9355
 5740SOL    HW228680   3.394   1.220   8.597  0.9242  0.1911  0.9665
 5741SOL     OW28681   2.317   0.559   7.525 -0.1604 -0.4344  0.0117
 5741SOL    HW128682   2.261   0.630   7.496  1.1346  0.5244 -0.1057
 5741SOL    HW228683   2.295   0.551   7.618  0.2973 -1.0698  0.0738
 5742SOL     OW28684   4.049   0.144  10.194  0.1453  0.5130 -0.4301
 5742SOL    HW128685   4.060   0.219  10.253 -0.1277  0.8877 -0.8491
 5742SOL    HW228686   3.959   0.117  10.214  0.4159  0.4323  0.6439
 5743SOL     OW28687   3.091   4.187   7.105 -0.0738 -0.0763 -0.1523
 5743SOL    HW128688   3.150   4.237   7.048 -0.0582  0.5090  0.3793
 5743SOL    HW228689   3.044   4.128   7.046  0.1053  0.8465 -1.2174
 5744SOL     OW28690   4.597   0.735   3.684  1.0042 -0.9319  0.5320
 5744SOL    HW128691   4.643   0.805   3.637 -0.1234 -1.7430 -1.7831
 5744SOL    HW228692   4.512   0.773   3.706  1.4871 -0.2175  1.1615
 5745SOL     OW28693   4.136   0.859   8.374 -0.3699 -1.0601 -0.1225
 5745SOL    HW128694   4.125   0.808   8.293 -2.4942 -2.3118  0.9607
 5745SOL    HW228695   4.096   0.797   8.435  2.0622 -1.4282  1.1045
 5746SOL     OW28696   4.113   2.321   4.415 -0.2690  0.0942  0.3746
 5746SOL    HW128697   4.056   2.259   4.461 -1.5666  0.5852 -0.5692
 5746SOL    HW228698   4.088   2.406   4.451 -1.7400 -1.1456  2.2076
 5747SOL     OW28699   0.726   4.103   5.860 -0.4082  0.6317  0.4161
 5747SOL    HW128700   0.789   4.169   5.891  0.4398 -0.8899  1.9184
 5747SOL    HW228701   0.757   4.090   5.771 -1.5498 -1.1480  0.2717
 5748SOL     OW28702   2.066   2.286   1.680  0.2597  0.0002 -0.2023
 5748SOL    HW128703   1.987   2.250   1.640  0.5712 -2.1485  1.1125
 5748SOL    HW228704   2.082   2.225   1.753  0.0066  2.6821  2.0833
 5749SOL     OW28705   2.689   1.835   2.732 -0.0525  0.1225 -0.0490
 5749SOL    HW128706   2.702   1.925   2.704 -0.2418 -0.1513 -1.0074
 5749SOL    HW228707   2.682   1.835   2.828  1.7040 -2.9141  0.0807
 5750SOL     OW28708   4.172   2.201   7.780  0.3601  0.3247 -0.7588
 5750SOL    HW128709   4.223   2.210   7.700 -0.4201  2.1042 -1.0345
 5750SOL    HW228710   4.232   2.234   7.847 -2.2334  2.1766  0.6399
 5751SOL     OW28711   3.713   2.074  10.964  0.6143  0.1343  0.8441
 5751SOL    HW128712   3.625   2.079  10.929  0.6660  2.3101  1.0225
 5751SOL    HW228713   3.683   1.999  11.014  1.3758  0.1711  1.3591
 5752SOL     OW28714   1.923   2.989   3.365 -0.5531  0.0501 -0.7072
 5752SOL    HW128715   1.929   2.965   3.457  1.1921 -1.6133 -1.2493
 5752SOL    HW228716   1.895   2.908   3.323  1.8194 -1.0778 -0.1287
 5753SOL     OW28717   2.206   2.750  11.097  0.2277  0.1656 -0.0046
 5753SOL    HW128718   2.201   2.702  11.180 -1.1001  0.1204 -0.0971
 5753SOL    HW228719   2.292   2.791  11.100  0.4292 -0.2883  0.3337
 5754SOL     OW28720   1.944   4.274  10.702 -0.2825  0.2822  0.3196
 5754SOL    HW128721   1.951   4.238  10.790 -0.3942  0.9112  0.5821
 5754SOL    HW228722   1.862   4.322  10.710 -0.0190  0.6413  0.8344
 5755SOL     OW28723   1.112   0.640   6.856  0.2317  0.3559  0.3990
 5755SOL    HW128724   1.159   0.586   6.921 -1.6111 -0.4020  1.1061
 5755SOL    HW228725   1.026   0.605   6.876 -1.3514  2.8772 -2.0593
 5756SOL     OW28726   4.691   2.549  14.546 -0.1692  0.5435 -0.3321
 5756SOL    HW128727   4.722   2.463  14.574 -1.7735 -0.2536 -1.0372
 5756SOL    HW228728   4.716   2.596  14.625  1.9625  0.8143 -1.1512
 5757SOL     OW28729   1.334   4.092   9.107 -0.1417  0.5140  0.0748
 5757SOL    HW128730   1.408   4.114   9.051  0.9403  1.1157  1.7687
 5757SOL    HW228731   1.274   4.048   9.046 -0.4561 -1.1085  1.5474
 5758SOL     OW28732   4.065   3.467   6.279  0.1068 -0.2375  0.0307
 5758SOL    HW128733   3.975   3.454   6.249 -0.2069 -0.4472  1.0644
 5758SOL    HW228734   4.062   3.558   6.308 -1.7631 -0.4027  0.3453
 5759SOL     OW28735   1.945   0.509  17.618  0.4231  0.7635 -0.2646
 5759SOL    HW128736   2.019   0.471  17.571 -0.9484  1.5592 -3.1101
 5759SOL    HW228737   1.941   0.458  17.698 -0.7306  0.2580 -0.6454
 5760SOL     OW28738   1.496   1.948  16.993  0.3294  0.1106  0.0939
 5760SOL    HW128739   1.459   1.995  17.067 -1.0536 -1.1295  0.1822
 5760SOL    HW228740   1.590   1.965  16.991  0.7584 -2.5970 -2.7429
 5761SOL     OW28741   0.540   0.667   8.324 -0.2461  0.1875  0.3521
 5761SOL    HW128742   0.591   0.742   8.296 -1.6774  1.2782  0.6699
 5761SOL    HW228743   0.554   0.662   8.418 -1.0041 -2.5329  0.3161
 5762SOL     OW28744   4.384   0.523   6.483  0.1052 -0.1445 -0.0136
 5762SOL    HW128745   4.352   0.485   6.402  0.7287 -3.2466  1.1733
 5762SOL    HW228746   4.332   0.603   6.495  1.6026  1.0905 -1.7375
 5763SOL     OW28747   1.062   2.001   2.819  0.4229 -0.1182  0.1310
 5763SOL    HW128748   1.055   1.977   2.911 -0.6518  0.7267  0.2731
 5763SOL    HW228749   0.974   1.999   2.780 -0.5356 -1.3812  2.3956
 5764SOL     OW28750   4.041   3.634  12.805  0.6606  0.2345 -0.6236
 5764SOL    HW128751   3.949   3.611  12.817  0.4333  1.6777  0.3922
 5764SOL    HW228752   4.092   3.556  12.828 -0.6475 -0.6389 -0.7238
 5765SOL     OW28753   3.846   1.535   8.046 -0.2269  0.1806 -0.1890
 5765SOL    HW128754   3.924   1.492   8.082  0.7011  0.4298 -1.8719
 5765SOL    HW228755   3.858   1.512   7.954 -1.7724 -0.7815 -0.1430
 5766SOL     OW28756   4.699   4.597   4.450  0.1651 -0.3995 -0.3397
 5766SOL    HW128757   0.037   4.621   4.382 -0.3525  3.1661  0.4084
 5766SOL    HW228758   0.010   4.638   4.529  1.1887  1.2184 -1.6543
 5767SOL     OW28759   2.465   4.081   9.182  0.1853 -0.3038 -0.1317
 5767SOL    HW128760   2.515   4.000   9.190 -2.1142 -1.5029  1.9266
 5767SOL    HW228761   2.512   4.134   9.248  0.8070 -0.5608 -0.3647
 5768SOL     OW28762   2.691   0.551  14.031  0.7040  0.1726  0.2115
 5768SOL    HW128763   2.653   0.538  14.117 -0.8188 -0.0743 -0.5005
 5768SOL    HW228764   2.654   0.478  13.982  1.3788 -0.9517  1.3928
 5769SOL     OW28765   0.568   2.634   7.426  0.1664  0.4135 -0.0133
 5769SOL    HW128766   0.526   2.699   7.483 -3.7921 -2.4059  0.3006
 5769SOL    HW228767   0.627   2.579   7.479  0.7407 -0.4574 -1.5583
 5770SOL     OW28768   4.211   4.211   4.127  0.9532 -0.0894 -0.2261
 5770SOL    HW128769   4.204   4.121   4.160  0.3760 -0.5328 -1.5516
 5770SOL    HW228770   4.287   4.207   4.068  0.7959 -0.6539 -0.3950
 5771SOL     OW28771   3.238   1.761   0.694 -0.2595 -0.4773 -0.4331
 5771SOL    HW128772   3.290   1.681   0.697 -1.0039 -0.9393 -0.0458
 5771SOL    HW228773   3.177   1.739   0.624 -1.0542  0.7749 -0.1386
 5772SOL     OW28774   0.925   3.722   6.793 -0.1611 -0.4262  0.2502
 5772SOL    HW128775   0.854   3.681   6.743 -2.1043  0.0998  2.5667
 5772SOL    HW228776   0.985   3.745   6.723  0.2927 -2.4803 -0.0398
 5773SOL     OW28777   1.365   4.317   7.802  0.0880 -0.0565  0.5498
 5773SOL    HW128778   1.304   4.280   7.738  0.1600 -2.5894  1.9639
 5773SOL    HW228779   1.378   4.393   7.745  0.1338  0.8997  1.8605
 5774SOL     OW28780   4.152   3.328   3.467 -0.6583  0.0791 -0.0668
 5774SOL    HW128781   4.122   3.321   3.377  0.2883  1.2043 -0.4707
 5774SOL    HW228782   4.246   3.343   3.459 -0.3711  0.1129  3.2380
 5775SOL     OW28783   3.746   1.130   0.964 -0.1767  0.5899  0.3558
 5775SOL    HW128784   3.841   1.145   0.962  0.0057 -0.5701  0.1450
 5775SOL    HW228785   3.720   1.198   0.902  0.0160  0.5153  0.1914
 5776SOL     OW28786   3.742   3.981   9.874 -1.0129 -0.2644  0.7242
 5776SOL    HW128787   3.732   4.072   9.844 -0.6632  0.2956  2.3424
 5776SOL    HW228788   3.760   3.931   9.794 -0.0255 -0.4427  1.0596
 5777SOL     OW28789   3.273   3.468   8.057 -0.4099 -0.0569 -0.2688
 5777SOL    HW128790   3.307   3.557   8.042  1.0619 -0.4748  0.5829
 5777SOL    HW228791   3.252   3.467   8.150  0.6322  1.1987 -0.0055
 5778SOL     OW28792   2.042   1.016  12.854  0.5296 -0.1231  0.0418
 5778SOL    HW128793   1.965   1.062  12.888  0.0140 -0.1646 -1.0686
 5778SOL    HW228794   2.101   1.089  12.832  2.2164 -2.3923 -2.8736
 5779SOL     OW28795   2.918   3.614   9.204 -0.2344 -0.0659 -0.1606
 5779SOL    HW128796   2.864   3.555   9.256  0.4194 -2.1191 -1.7937
 5779SOL    HW228797   2.885   3.588   9.118 -0.7639  0.2065 -0.0361
 5780SOL     OW28798   4.677   4.618   1.797  0.6591  0.2226 -0.5545
 5780SOL    HW128799   0.038   4.653   1.772  1.1394  0.1126  0.9341
 5780SOL    HW228800   4.630   4.661   1.725 -0.5137 -1.8487 -1.0030
 5781SOL     OW28801   2.250   3.445   4.748  0.0704 -0.0033 -0.8371
 5781SOL    HW128802   2.273   3.355   4.722 -1.4191 -0.7422  0.4304
 5781SOL    HW228803   2.317   3.477   4.808 -0.2277  2.4450 -1.8369
 5782SOL     OW28804   2.251   0.800   9.665  0.0812 -0.0810  0.1410
 5782SOL    HW128805   2.285   0.712   9.651 -1.7838 -0.6487 -0.7405
 5782SOL    HW228806   2.330   0.847   9.692  1.4804 -1.8969 -0.8536
 5783SOL     OW28807   0.932   3.282   2.414  0.2669 -0.1743  0.8573
 5783SOL    HW128808   0.878   3.205   2.433  2.6488 -1.6265  1.6876
 5783SOL    HW228809   1.008   3.263   2.469  0.1928  1.5297  1.5485
 5784SOL     OW28810   2.574   0.733   7.839 -0.4300  0.2202 -0.7484
 5784SOL    HW128811   2.568   0.640   7.816 -1.1942  0.1949 -0.4265
 5784SOL    HW228812   2.582   0.768   7.750  0.4407  1.6335 -0.1193
 5785SOL     OW28813   2.266   1.191   2.074 -0.1910 -0.0405 -0.5973
 5785SOL    HW128814   2.288   1.099   2.087 -1.1330 -0.0270  1.0759
 5785SOL    HW228815   2.330   1.226   2.136  1.2795 -0.7130 -1.7556
 5786SOL     OW28816   0.889   0.165   3.645  0.7938 -0.0764  0.1956
 5786SOL    HW128817   0.911   0.099   3.580  0.1249 -0.1625  0.0567
 5786SOL    HW228818   0.968   0.166   3.700  0.8531  0.5596  0.0996
 5787SOL     OW28819   4.524   4.714   8.610 -0.5763  0.5071 -0.0921
 5787SOL    HW128820   4.598   4.714   8.550  1.5381 -0.3626  2.5333
 5787SOL    HW228821   4.499   0.081   8.601 -0.9204  0.4271  0.0445
 5788SOL     OW28822   1.213   0.733   7.957  0.3445 -0.0178 -0.2590
 5788SOL    HW128823   1.255   0.727   8.043 -0.9552  0.4293  0.4019
 5788SOL    HW228824   1.268   0.675   7.905  0.3295 -0.3145  0.0557
 5789SOL     OW28825   2.729   1.198   8.532  0.6221 -0.3070  0.0915
 5789SOL    HW128826   2.785   1.134   8.576  3.2767  2.9150  1.4451
 5789SOL    HW228827   2.646   1.155   8.553 -0.1648  0.7424 -0.9202
 5790SOL     OW28828   2.671   0.866  13.575 -0.2074 -0.1890 -0.5963
 5790SOL    HW128829   2.643   0.781  13.610  1.6351 -0.1838  0.8757
 5790SOL    HW228830   2.634   0.859  13.487 -0.1775  1.1818 -0.7223
 5791SOL     OW28831   1.307   2.019   4.012 -0.3537  0.3561  0.5619
 5791SOL    HW128832   1.309   1.964   3.934  0.5811  1.0750  0.0836
 5791SOL    HW228833   1.400   2.044   4.011 -0.7278  1.4969 -4.2741
 5792SOL     OW28834   0.256   2.978  14.048  0.0289 -0.3524 -0.3841
 5792SOL    HW128835   0.296   2.948  14.130 -0.1680  0.0850 -0.1245
 5792SOL    HW228836   0.174   2.930  14.057  1.4977 -2.3680  2.2726
 5793SOL     OW28837   1.751   3.784  12.785 -0.5516 -0.3728 -0.3295
 5793SOL    HW128838   1.785   3.827  12.864  2.1840 -0.3412 -1.5377
 5793SOL    HW228839   1.800   3.821  12.712 -0.4405  1.0092  0.4411
 5794SOL     OW28840   1.684   1.813   9.128 -0.5754 -0.2898  0.1245
 5794SOL    HW128841   1.754   1.760   9.090  0.7230  2.0586 -0.8051
 5794SOL    HW228842   1.641   1.825   9.044 -0.8901 -0.6593  0.2331
 5795SOL     OW28843   1.886   4.118   3.600 -0.0267  0.0001  0.5431
 5795SOL    HW128844   1.829   4.084   3.669 -1.9807  1.0171 -0.5661
 5795SOL    HW228845   1.826   4.108   3.526 -1.8237  2.0098  1.7188
 5796SOL     OW28846   0.552   1.769   9.944  0.7178 -0.0895  0.2306
 5796SOL    HW128847   0.635   1.735   9.978  0.1242 -0.9380  0.8074
 5796SOL    HW228848   0.570   1.779   9.850 -2.1782 -2.0302 -0.5164
 5797SOL     OW28849   4.643   3.990   3.185 -0.2047  0.1009 -0.3391
 5797SOL    HW128850   4.657   3.900   3.157  0.2721  0.1378 -0.2129
 5797SOL    HW228851   4.549   3.998   3.169 -0.3928 -2.2048 -0.3441
 5798SOL     OW28852   3.933   2.055   7.904 -0.8504  0.2843 -0.0550
 5798SOL    HW128853   3.988   2.123   7.864 -0.1156 -1.2640 -1.6453
 5798SOL    HW228854   3.993   2.022   7.971  0.6161 -1.4047 -2.2322
 5799SOL     OW28855   3.298   2.645   6.949 -0.3408 -0.3701 -0.0042
 5799SOL    HW128856   3.229   2.680   6.892 -0.1111  0.8742  0.4705
 5799SOL    HW228857   3.318   2.718   7.008 -1.1673 -1.0103  1.0744
 5800SOL     OW28858   2.539   1.911   1.816 -0.7250  0.4607 -0.2715
 5800SOL    HW128859   2.578   1.991   1.781 -0.8815  0.8345  0.4202
 5800SOL    HW228860   2.534   1.947   1.904  2.1708 -1.4431  0.6678
 5801SOL     OW28861   3.323   3.736  13.820  0.4203 -0.2838  0.4893
 5801SOL    HW128862   3.246   3.750  13.877  0.7648 -0.5412  1.0220
 5801SOL    HW228863   3.324   3.820  13.774 -1.2175 -1.1866 -1.2129
 5802SOL     OW28864   4.197   3.810  10.232  0.1794 -0.2504 -0.2020
 5802SOL    HW128865   4.181   3.884  10.291 -1.0639 -0.1277 -0.7027
 5802SOL    HW228866   4.291   3.830  10.224 -0.1070  1.5262  0.7602
 5803SOL     OW28867   1.299   4.094   5.289 -0.1412 -0.0984  0.9234
 5803SOL    HW128868   1.267   4.071   5.376  0.5731 -1.7022  0.7510
 5803SOL    HW228869   1.238   4.048   5.232 -2.0117 -0.6574  3.3265
 5804SOL     OW28870   0.566   0.759   2.735 -0.3534 -0.0635  0.4667
 5804SOL    HW128871   0.475   0.748   2.761 -0.2354 -1.4497  0.2882
 5804SOL    HW228872   0.548   0.778   2.643  1.3944 -1.0320 -0.0842
 5805SOL     OW28873   2.560   1.130   8.182  0.4706  0.1796  0.4534
 5805SOL    HW128874   2.473   1.162   8.159 -0.1728 -0.1128  2.5833
 5805SOL    HW228875   2.556   1.125   8.277 -2.1373  1.3732  0.3924
 5806SOL     OW28876   0.678   4.692   6.104 -0.3289 -0.0638 -0.1425
 5806SOL    HW128877   0.651   4.621   6.164 -0.2026 -0.6512 -0.7788
 5806SOL    HW228878   0.630   0.043   6.139  0.3312 -0.3196  1.3366
 5807SOL     OW28879   0.841   3.759  10.528 -0.3546  0.0726 -0.0595
 5807SOL    HW128880   0.864   3.851  10.543  1.2994  0.0535 -2.5097
 5807SOL    HW228881   0.750   3.762  10.500  0.3684  0.9294 -2.2858
 5808SOL     OW28882   4.689   0.508   3.557 -0.0586  0.3211 -0.4080
 5808SOL    HW128883   4.693   0.542   3.468  0.3260  4.0574  1.0181
 5808SOL    HW228884   4.709   0.588   3.605 -0.3218  0.9953 -1.4167
 5809SOL     OW28885   0.431   2.828   7.102 -0.0257 -0.0931 -0.7546
 5809SOL    HW128886   0.410   2.915   7.134  1.5211  0.1418 -0.3526
 5809SOL    HW228887   0.494   2.853   7.034  1.7455 -0.9075  0.5911
 5810SOL     OW28888   2.084   1.530   1.474 -0.2573 -0.5378 -0.0048
 5810SOL    HW128889   2.106   1.441   1.499 -1.0503 -0.9300 -0.7238
 5810SOL    HW228890   1.993   1.508   1.456 -0.4640  0.6199 -0.3887
 5811SOL     OW28891   4.097   2.696   8.003  0.5687  0.5197  0.2052
 5811SOL    HW128892   4.077   2.704   7.910  1.3558  0.6249  0.0385
 5811SOL    HW228893   4.152   2.618   8.009  1.9391  1.4233 -0.5971
 5812SOL     OW28894   2.790   4.323   6.974  0.0977  0.7294  0.0489
 5812SOL    HW128895   2.777   4.414   7.001  1.1233  1.3602 -1.5809
 5812SOL    HW228896   2.875   4.314   6.930  0.7853  1.2304  1.2711
 5813SOL     OW28897   3.232   0.428  11.408 -0.1156  0.6784 -0.8714
 5813SOL    HW128898   3.314   0.383  11.390 -1.2886 -1.4671 -0.8555
 5813SOL    HW228899   3.240   0.457  11.499 -0.5583 -1.0478 -0.2720
 5814SOL     OW28900   2.545   4.553  14.542 -0.2249  0.2313 -0.7441
 5814SOL    HW128901   2.481   4.514  14.483 -1.6906  1.0735  0.3006
 5814SOL    HW228902   2.493   4.615  14.593 -0.2678 -1.6214  1.4732
 5815SOL     OW28903   1.577   1.582   7.101 -0.3560  0.5332  0.2081
 5815SOL    HW128904   1.570   1.668   7.061 -0.8509  0.5950  0.4400
 5815SOL    HW228905   1.564   1.532   7.020 -0.2913  0.0067  0.5227
 5816SOL     OW28906   1.958   1.678   8.289  0.2841  0.3470 -0.1881
 5816SOL    HW128907   1.951   1.752   8.348  0.6233 -0.0112  0.3023
 5816SOL    HW228908   1.990   1.614   8.353  2.7431  3.5418  1.7561
 5817SOL     OW28909   1.167   3.326  14.093  0.7785 -0.5729  0.3254
 5817SOL    HW128910   1.099   3.351  14.155  0.5266  0.1142 -0.2229
 5817SOL    HW228911   1.108   3.310  14.019  1.9019 -0.2441 -0.6402
 5818SOL     OW28912   3.557   0.900   2.761 -0.5626  0.2214 -0.5034
 5818SOL    HW128913   3.488   0.914   2.696  0.4070  1.7345 -1.2163
 5818SOL    HW228914   3.616   0.966   2.726 -0.2743 -0.2070 -0.8312
 5819SOL     OW28915   1.964   2.014   8.131 -0.0350  0.3095  0.5454
 5819SOL    HW128916   1.942   1.976   8.216 -0.0941 -0.8742  0.0112
 5819SOL    HW228917   2.015   1.945   8.087 -0.1780  0.7036 -0.2311
 5820SOL     OW28918   2.798   2.516   7.951 -0.3971  0.3320 -0.4372
 5820SOL    HW128919   2.825   2.484   7.864  0.0099 -1.2757  0.2652
 5820SOL    HW228920   2.779   2.606   7.927 -2.0142  0.3228  0.8180
 5821SOL     OW28921   0.564   4.149  16.531  0.5155  0.5534  0.2955
 5821SOL    HW128922   0.587   4.060  16.506 -0.0133  0.4419  0.2092
 5821SOL    HW228923   0.515   4.128  16.611  0.4560  1.8974  0.6158
 5822SOL     OW28924   1.593   0.836   3.103 -0.0889  0.2323  0.4066
 5822SOL    HW128925   1.515   0.789   3.074 -0.0359 -0.0950  0.7847
 5822SOL    HW228926   1.648   0.804   3.032 -1.3144  0.7475 -0.7691
 5823SOL     OW28927   1.604   3.032   8.751  0.4228  0.5925  0.3666
 5823SOL    HW128928   1.569   2.982   8.677 -3.3216  3.3295  0.2445
 5823SOL    HW228929   1.692   2.994   8.746  0.3631  0.4630  0.3082
 5824SOL     OW28930   1.282   1.044  15.363 -0.0344 -0.1971  0.0255
 5824SOL    HW128931   1.367   1.080  15.335 -0.2136 -0.1854 -0.4984
 5824SOL    HW228932   1.278   1.090  15.447  1.9959  1.6118 -0.8288
 5825SOL     OW28933   4.506   3.230   1.193  0.4464 -0.4253  0.6865
 5825SOL    HW128934   4.467   3.216   1.279 -2.0652 -0.8944 -0.5439
 5825SOL    HW228935   4.519   3.325   1.203 -2.4538 -0.2676  2.8426
 5826SOL     OW28936   4.398   2.605  13.213 -0.5838  0.3051 -0.2913
 5826SOL    HW128937   4.431   2.695  13.213  1.2490 -0.3536  3.0396
 5826SOL    HW228938   4.309   2.624  13.244 -0.3501 -2.6475  2.1696
 5827SOL     OW28939   1.939   0.348   6.883 -0.3298 -0.6686 -0.7056
 5827SOL    HW128940   1.877   0.276   6.872 -0.2500 -1.1972  2.3641
 5827SOL    HW228941   2.021   0.301   6.870  0.3055  0.0667  0.7577
 5828SOL     OW28942   3.991   4.340   7.070  0.0705  0.4607 -0.4952
 5828SOL    HW128943   3.943   4.391   7.006  0.6157  2.6810  0.8492
 5828SOL    HW228944   3.966   4.393   7.146  0.8707  0.5324 -0.2755
 5829SOL     OW28945   2.796   3.815   6.882 -0.3733  0.7806  0.4813
 5829SOL    HW128946   2.807   3.874   6.957  0.5034 -0.3809  1.2710
 5829SOL    HW228947   2.724   3.848   6.828 -1.2101  0.3743  1.3652
 5830SOL     OW28948   2.552   0.502  11.160 -0.1659 -0.7145 -0.1394
 5830SOL    HW128949   2.598   0.424  11.191  0.7165 -0.5757 -1.0798
 5830SOL    HW228950   2.565   0.567  11.229  1.4833 -0.6203 -0.5250
 5831SOL     OW28951   3.676   3.212   0.277  0.1230  0.2710  0.3190
 5831SOL    HW128952   3.751   3.246   0.327 -0.6163  1.5918  0.5279
 5831SOL    HW228953   3.647   3.284   0.222  0.7075  0.8148  0.7322
 5832SOL     OW28954   4.406   0.339  11.178  0.0704  0.6516 -0.0351
 5832SOL    HW128955   4.341   0.360  11.246 -0.7283  0.7338 -0.8312
 5832SOL    HW228956   4.452   0.422  11.175  1.9760 -0.3224  1.7312
 5833SOL     OW28957   1.533   2.951   8.519 -0.7702 -0.3348 -0.6372
 5833SOL    HW128958   1.486   2.882   8.472 -1.0482 -0.6399  0.0799
 5833SOL    HW228959   1.624   2.924   8.507 -0.1162  1.1436  0.9345
 5834SOL     OW28960   3.182   3.934  17.562  0.0491  0.0035  0.2532
 5834SOL    HW128961   3.234   3.861  17.528 -0.7576 -1.4327  2.1210
 5834SOL    HW228962   3.210   3.927  17.654 -0.0812 -0.6780  0.2428
 5835SOL     OW28963   0.271   1.514   7.953 -0.0502  0.3776  0.2361
 5835SOL    HW128964   0.183   1.535   7.922 -0.3976  0.2873  1.1647
 5835SOL    HW228965   0.308   1.466   7.878 -0.8668 -0.9144  0.6651
 5836SOL     OW28966   1.965   0.915   0.591 -0.0242  0.1773 -0.3010
 5836SOL    HW128967   1.890   0.931   0.648  1.3330 -1.4583  1.9284
 5836SOL    HW228968   1.985   1.002   0.555  0.1826  0.9064  1.5967
 5837SOL     OW28969   2.222   1.808   3.961  0.6066 -0.2567 -0.4464
 5837SOL    HW128970   2.146   1.789   4.015  1.1907 -0.4123  0.3210
 5837SOL    HW228971   2.221   1.726   3.911 -0.8466 -1.0273  0.8621
 5838SOL     OW28972   1.937   4.395  15.737 -0.4459  0.4549  0.2961
 5838SOL    HW128973   2.001   4.452  15.694 -0.8609  0.0347 -0.8736
 5838SOL    HW228974   1.990   4.320  15.763 -0.7110 -0.3063 -1.3389
 5839SOL     OW28975   1.300   2.312   5.739 -0.2657 -0.2936 -0.7894
 5839SOL    HW128976   1.288   2.332   5.832  0.8385 -2.0119 -0.2927
 5839SOL    HW228977   1.213   2.327   5.702 -0.4239  0.8764  0.0395
 5840SOL     OW28978   0.950   1.415   7.297 -0.0201  0.2083  0.0277
 5840SOL    HW128979   0.979   1.337   7.249 -1.2964 -0.0457 -0.3247
 5840SOL    HW228980   1.026   1.416   7.355  0.1808  1.5557 -0.2618
 5841SOL     OW28981   4.335   2.130  15.682 -0.3020 -0.5155 -0.6404
 5841SOL    HW128982   4.256   2.115  15.733  1.5961 -1.0491  2.1490
 5841SOL    HW228983   4.346   2.224  15.671  0.6131 -0.5592 -0.1679
 5842SOL     OW28984   2.968   4.615   4.496  0.3923 -0.0914 -0.1609
 5842SOL    HW128985   3.059   4.586   4.506  0.4230 -0.4142 -1.2667
 5842SOL    HW228986   2.958   4.671   4.572  1.5751 -0.1824  0.0713
 5843SOL     OW28987   3.231   1.976  13.984  0.2835  0.3415 -0.5892
 5843SOL    HW128988   3.182   1.895  13.967 -1.5375  1.0951  1.0198
 5843SOL    HW228989   3.227   1.978  14.079 -0.1719  2.3613 -0.6569
 5844SOL     OW28990   1.425   3.405  17.228 -0.2813  0.7381 -0.3572
 5844SOL    HW128991   1.399   3.425  17.318  0.1288 -1.4292  0.2362
 5844SOL    HW228992   1.444   3.490  17.188  2.8109 -0.2867 -1.0832
 5845SOL     OW28993   0.160   0.958   6.598 -0.3422  0.5171  0.0478
 5845SOL    HW128994   0.191   0.870   6.577  0.7099  0.6487  1.0657
 5845SOL    HW228995   0.153   0.994   6.510  0.8707  3.1678  1.0513
 5846SOL     OW28996   0.970   3.655   1.987  0.1201 -0.5295 -0.1455
 5846SOL    HW128997   0.903   3.723   1.992  1.4187  0.5518  2.1870
 5846SOL    HW228998   0.952   3.608   2.069 -0.3325  0.7904  0.5091
 5847SOL     OW28999   0.544   1.618  14.504 -0.7831  0.0999  0.6426
 5847SOL    HW129000   0.533   1.713  14.497 -1.6302 -0.0696 -0.3664
 5847SOL    HW229001   0.559   1.593  14.413  0.9499  1.1750  0.6261
 5848SOL     OW29002   3.120   0.878   6.213  0.4862 -0.2048 -0.2925
 5848SOL    HW129003   3.170   0.809   6.256  0.9390  0.8917  0.9401
 5848SOL    HW229004   3.058   0.912   6.277 -0.0635 -0.8951 -0.4593
 5849SOL     OW29005   2.694   0.313   8.783  0.3537 -0.3319  0.1422
 5849SOL    HW129006   2.598   0.322   8.778  0.3123 -0.0759  1.4191
 5849SOL    HW229007   2.695   0.219   8.799  0.7957 -0.5569 -1.1957
 5850SOL     OW29008   0.130   0.323  15.145  0.0349 -0.1674  0.2889
 5850SOL    HW129009   0.174   0.318  15.230 -1.6716 -2.3678  1.0391
 5850SOL    HW229010   0.077   0.246  15.164  0.0965  0.0950  1.5961
 5851SOL     OW29011   0.058   3.683   0.424 -0.2451 -0.7481  0.5615
 5851SOL    HW129012   0.051   3.757   0.484  1.8356 -0.1650  0.0860
 5851SOL    HW229013   0.149   3.655   0.437 -0.5121 -1.5800  0.6905
 5852SOL     OW29014   1.235   0.347   6.068  0.2151 -0.0337 -0.1372
 5852SOL    HW129015   1.286   0.286   6.015  1.9526  0.7716  0.6206
 5852SOL    HW229016   1.286   0.424   6.044 -0.4616  0.8999  1.4511
 5853SOL     OW29017   2.103   2.531   5.934 -0.3854  0.0591 -0.4383
 5853SOL    HW129018   2.063   2.616   5.951  0.2049  0.4708 -1.1136
 5853SOL    HW229019   2.076   2.474   6.005  0.5859  1.7943  1.3153
 5854SOL     OW29020   3.044   0.307   5.507 -0.5938 -0.2305 -0.0497
 5854SOL    HW129021   3.103   0.372   5.545  2.3075 -3.0748  0.3184
 5854SOL    HW229022   3.058   0.316   5.413 -1.5342 -1.8745 -0.3502
 5855SOL     OW29023   3.434   0.584  14.659  0.3649  0.0558 -0.2046
 5855SOL    HW129024   3.434   0.676  14.685 -1.9065 -0.1696  0.5907
 5855SOL    HW229025   3.350   0.573  14.613  0.5875  0.7982 -0.7939
 5856SOL     OW29026   2.139   1.210   2.902 -0.0594  1.0492 -0.6715
 5856SOL    HW129027   2.222   1.238   2.863 -0.6369 -0.0030 -2.6136
 5856SOL    HW229028   2.148   1.117   2.883  0.2747  0.9883 -0.2204
 5857SOL     OW29029   0.734   1.857   2.246  0.3000 -0.2910  0.9438
 5857SOL    HW129030   0.691   1.862   2.332  0.2667 -1.7474  1.0197
 5857SOL    HW229031   0.820   1.824   2.272  0.8495 -1.1358 -1.9173
 5858SOL     OW29032   4.554   1.859   3.712  0.6354  0.1167  0.2078
 5858SOL    HW129033   4.641   1.865   3.672  0.7372  0.6042  0.4996
 5858SOL    HW229034   4.517   1.932   3.663  0.7003 -0.2925 -0.4550
 5859SOL     OW29035   2.343   1.337  11.474  0.7702 -0.2068  0.2090
 5859SOL    HW129036   2.302   1.272  11.531  2.6088 -2.6238 -1.2202
 5859SOL    HW229037   2.282   1.411  11.473  2.4006  1.1321 -0.0160
 5860SOL     OW29038   2.107   4.048   6.868 -0.0035  0.1367  0.2936
 5860SOL    HW129039   2.117   3.986   6.940  0.8078 -1.2225 -1.0165
 5860SOL    HW229040   2.197   4.078   6.866  0.5809 -1.8976 -2.6323
 5861SOL     OW29041   3.200   1.780   8.269  0.4593  0.0577  0.4270
 5861SOL    HW129042   3.198   1.712   8.202  1.0854  2.1767 -1.7791
 5861SOL    HW229043   3.144   1.742   8.336  0.0348  0.1748  0.1398
 5862SOL     OW29044   3.793   0.687   5.580 -0.9373  0.0194  0.4965
 5862SOL    HW129045   3.809   0.753   5.648  0.4882  0.6588 -0.4756
 5862SOL    HW229046   3.871   0.686   5.524 -0.4650 -2.1089  1.2052
 5863SOL     OW29047   2.458   2.182  14.207 -0.2576 -0.1343 -0.3394
 5863SOL    HW129048   2.486   2.138  14.287  1.7858 -0.1320 -1.0455
 5863SOL    HW229049   2.539   2.186  14.156  2.0783  0.7732  3.3868
 5864SOL     OW29050   0.878   0.533  16.772  0.1575  0.2968 -0.4518
 5864SOL    HW129051   0.823   0.539  16.850  0.2326 -3.5672 -0.1120
 5864SOL    HW229052   0.960   0.505  16.812  0.9503 -0.8430 -2.8770
 5865SOL     OW29053   0.180   0.632   6.178  0.2614  0.2043 -0.6558
 5865SOL    HW129054   0.238   0.578   6.124  0.2336 -2.0709  1.6228
 5865SOL    HW229055   0.097   0.586   6.171 -0.1145  0.5011  1.8285
 5866SOL     OW29056   4.219   3.117   1.274 -0.6490 -0.4034 -0.3427
 5866SOL    HW129057   4.178   3.187   1.325 -1.2532 -0.5482 -0.6315
 5866SOL    HW229058   4.213   3.159   1.188  2.7805  0.2652 -0.2432
 5867SOL     OW29059   2.439   0.486   6.146  0.0884  0.3698  0.4423
 5867SOL    HW129060   2.504   0.536   6.194  0.2265  0.0363  0.6057
 5867SOL    HW229061   2.473   0.396   6.147  1.0089  0.7116 -0.5883
 5868SOL     OW29062   2.008   3.461   7.986  0.1453  0.0360  0.0389
 5868SOL    HW129063   1.996   3.375   7.946  3.3177  0.5356 -1.9904
 5868SOL    HW229064   2.085   3.483   7.933  0.0489 -0.0181 -0.1217
 5869SOL     OW29065   3.049   3.374   5.249  0.1473 -0.5474 -0.8780
 5869SOL    HW129066   3.037   3.285   5.216 -1.6954 -0.8266  0.5806
 5869SOL    HW229067   3.131   3.396   5.205  0.6848  0.1303  0.4435
 5870SOL     OW29068   0.013   1.490   4.231  0.2902  0.1731  0.3454
 5870SOL    HW129069   4.676   1.427   4.267  2.3032 -1.6923  0.5399
 5870SOL    HW229070   4.721   1.572   4.277  2.5521 -0.3906  2.1833
 5871SOL     OW29071   2.891   3.967   2.049 -0.2169 -0.3026  0.8998
 5871SOL    HW129072   2.922   3.991   1.962  2.0624 -1.5680  1.3767
 5871SOL    HW229073   2.933   4.031   2.105  1.4011 -1.4886  1.0353
 5872SOL     OW29074   2.702   2.872  14.039 -0.1389  0.8535 -0.1045
 5872SOL    HW129075   2.778   2.815  14.051 -1.3736 -0.6882  0.4181
 5872SOL    HW229076   2.636   2.806  14.015  1.5211 -0.2509 -1.6315
 5873SOL     OW29077   1.128   1.646   7.847  0.0237 -0.4854  0.2934
 5873SOL    HW129078   1.069   1.594   7.792 -0.4759  0.8651 -0.4457
 5873SOL    HW229079   1.059   1.691   7.897 -2.2734 -2.3904 -1.1189
 5874SOL     OW29080   2.832   3.848   9.920  0.6350 -0.1685 -0.4732
 5874SOL    HW129081   2.810   3.757   9.903  2.2731 -0.7226  0.3491
 5874SOL    HW229082   2.923   3.834   9.946  0.7154 -0.5468 -0.9651
 5875SOL     OW29083   0.366   3.452   3.611  0.4916 -0.1312  0.6399
 5875SOL    HW129084   0.422   3.376   3.628 -1.5751 -1.1684  2.7305
 5875SOL    HW229085   0.285   3.401   3.609  0.7543 -0.4031 -3.8551
 5876SOL     OW29086   2.460   0.550  11.535 -0.2248 -0.0195 -0.0067
 5876SOL    HW129087   2.475   0.626  11.478  2.4190  0.9214  1.9051
 5876SOL    HW229088   2.485   0.588  11.620 -0.1437  0.1471 -0.1053
 5877SOL     OW29089   0.984   0.689   1.957  0.0847  0.2992 -0.3989
 5877SOL    HW129090   1.027   0.745   1.893  0.1539  1.9177  1.0462
 5877SOL    HW229091   1.001   0.604   1.917 -0.2410 -0.2124  0.5434
 5878SOL     OW29092   4.417   0.857   4.540  0.7536 -0.2725  0.5597
 5878SOL    HW129093   4.393   0.905   4.460 -1.7580 -0.9153  0.9185
 5878SOL    HW229094   4.329   0.826   4.563  0.9151 -1.4900 -0.4618
 5879SOL     OW29095   2.065   1.168  12.563 -0.4708  0.5231 -0.1277
 5879SOL    HW129096   2.113   1.087  12.550 -2.0536 -0.6456  1.1975
 5879SOL    HW229097   2.105   1.220  12.633  1.7988  1.3955 -2.0919
 5880SOL     OW29098   2.464   0.878  10.793 -0.1370  0.6165 -0.0744
 5880SOL    HW129099   2.406   0.922  10.732  0.2462  1.3177  0.0591
 5880SOL    HW229100   2.531   0.946  10.802  1.4027 -0.6164 -2.1131
 5881SOL     OW29101   1.790   3.931   4.302 -0.1741  0.1060  0.4653
 5881SOL    HW129102   1.782   4.005   4.242 -0.8479 -3.1864 -3.4898
 5881SOL    HW229103   1.868   3.889   4.264  0.3720  1.0555  0.5357
 5882SOL     OW29104   3.898   3.825   4.661 -0.8842  0.1084  0.1538
 5882SOL    HW129105   3.904   3.916   4.690  0.0732 -1.1376  3.8524
 5882SOL    HW229106   3.878   3.828   4.568  2.8578  1.1400 -0.5987
 5883SOL     OW29107   4.427   2.896   7.193 -0.0186  0.3623 -0.0313
 5883SOL    HW129108   4.341   2.913   7.156  0.8356  1.3879 -1.5639
 5883SOL    HW229109   4.409   2.812   7.237  1.6751  0.6885  1.3171
 5884SOL     OW29110   2.093   0.818   2.790  0.4655  0.4344 -0.2156
 5884SOL    HW129111   2.142   0.823   2.872  0.0624  0.0944  0.0539
 5884SOL    HW229112   2.030   0.749   2.813  0.1101  0.5947 -0.6978
 5885SOL     OW29113   0.372   1.869   6.997  0.6326 -0.1596 -0.4175
 5885SOL    HW129114   0.373   1.822   6.913 -2.5803 -0.6435 -0.1845
 5885SOL    HW229115   0.464   1.892   7.010  1.2364 -1.3891 -2.3538
 5886SOL     OW29116   0.992   0.527   6.444 -0.7831  0.2425 -0.0652
 5886SOL    HW129117   1.071   0.581   6.432 -0.7354  0.3158  0.5910
 5886SOL    HW229118   0.957   0.566   6.524 -1.1384 -0.4482  0.1094
 5887SOL     OW29119   2.798   3.493   2.543  0.1271  0.1321 -0.8009
 5887SOL    HW129120   2.787   3.587   2.532  0.1202  0.0217 -1.7576
 5887SOL    HW229121   2.718   3.456   2.505 -2.1473  2.2471  1.9292
 5888SOL     OW29122   1.737   0.215   4.399 -0.5447 -0.4496  0.0516
 5888SOL    HW129123   1.802   0.148   4.378  0.3519  0.8601 -1.3330
 5888SOL    HW229124   1.678   0.202   4.325 -0.1315 -2.4450  0.0758
 5889SOL     OW29125   2.986   3.636   6.132 -0.5578  0.4745 -0.0293
 5889SOL    HW129126   2.924   3.605   6.197  0.7745 -0.0380  1.0105
 5889SOL    HW229127   2.971   3.574   6.061 -0.6482  0.2771  0.1651
 5890SOL     OW29128   3.717   2.828  16.611  0.5124  0.1467  0.3101
 5890SOL    HW129129   3.713   2.858  16.520  0.1132 -0.0653  0.2570
 5890SOL    HW229130   3.672   2.744  16.601  1.9333 -0.5364 -0.4412
 5891SOL     OW29131   0.700   0.129   2.960  0.0151  0.2866  0.5920
 5891SOL    HW129132   0.742   0.180   2.890 -0.1600 -1.3231 -0.6705
 5891SOL    HW229133   0.624   0.186   2.971 -1.2155 -1.2470 -0.0298
 5892SOL     OW29134   1.810   0.300  10.834 -0.8008 -0.0380 -0.1041
 5892SOL    HW129135   1.796   0.370  10.770 -0.9062  0.6580  0.6859
 5892SOL    HW229136   1.755   0.232  10.794 -1.3933 -0.5664  1.6284
 5893SOL     OW29137   1.395   0.628   3.772 -0.1620  0.7990 -0.7121
 5893SOL    HW129138   1.300   0.629   3.784 -0.1795  0.2096 -0.8090
 5893SOL    HW229139   1.403   0.720   3.748 -0.2412  0.6417 -1.3470
 5894SOL     OW29140   0.305   0.221  11.048  0.6886 -0.2677 -0.0256
 5894SOL    HW129141   0.327   0.274  10.972  3.0767 -1.2272  0.0096
 5894SOL    HW229142   0.373   0.239  11.112  2.4963  0.0192 -2.0328
 5895SOL     OW29143   0.489   0.047   3.308 -0.4775 -0.0203  0.3138
 5895SOL    HW129144   0.576   0.033   3.269 -0.5085 -0.9346  0.5772
 5895SOL    HW229145   0.470   4.687   3.348  2.4894 -0.1729  1.4298
 5896SOL     OW29146   1.819   0.413   4.664 -0.4457  0.0773  0.1206
 5896SOL    HW129147   1.899   0.425   4.716  0.7687  0.7892 -1.8931
 5896SOL    HW229148   1.796   0.500   4.630 -2.1585 -0.2341  0.4819
 5897SOL     OW29149   4.076   4.451   4.383 -0.0970 -0.2000 -0.1165
 5897SOL    HW129150   4.120   4.385   4.435 -2.4030 -1.0005  0.8153
 5897SOL    HW229151   4.152   4.478   4.332  0.1163  1.8711  1.3002
 5898SOL     OW29152   2.361   0.515   8.058  0.1326 -0.0911 -0.2201
 5898SOL    HW129153   2.368   0.446   8.125  2.1291 -0.8660 -1.2166
 5898SOL    HW229154   2.450   0.528   8.025  0.4924 -0.7647  0.4924
 5899SOL     OW29155   0.356   3.486   4.084  0.0415 -0.2381 -0.1677
 5899SOL    HW129156   0.381   3.511   3.995 -2.2940  0.4921 -0.6162
 5899SOL    HW229157   0.398   3.400   4.083  0.7031  0.0951 -2.2009
 5900SOL     OW29158   4.660   1.897   6.494  0.2704  0.1786 -0.1114
 5900SOL    HW129159   4.625   1.809   6.483  1.9439 -0.4440 -0.3999
 5900SOL    HW229160   4.706   1.891   6.578  2.1961 -0.4347 -1.1935
 5901SOL     OW29161   1.660   2.961   7.491  0.1641  0.1322  0.3283
 5901SOL    HW129162   1.618   2.934   7.409  0.5010  1.3250 -0.2426
 5901SOL    HW229163   1.582   2.959   7.546 -0.5411  2.1289 -0.6040
 5902SOL     OW29164   0.875   3.566   5.731  0.0226 -0.0083 -0.4932
 5902SOL    HW129165   0.828   3.536   5.653  1.0777 -0.3608 -0.9805
 5902SOL    HW229166   0.879   3.487   5.786  2.0422 -0.1715 -0.8769
 5903SOL     OW29167   3.402   3.000   1.238 -0.1197 -0.4278  0.2525
 5903SOL    HW129168   3.458   3.061   1.285 -2.1448  1.5719  0.1210
 5903SOL    HW229169   3.384   2.934   1.305 -0.4561 -0.1636  0.4252
 5904SOL     OW29170   2.751   0.840  10.383  0.2367 -0.1760 -0.2447
 5904SOL    HW129171   2.775   0.751  10.357  1.8342  1.0416 -2.9881
 5904SOL    HW229172   2.789   0.891  10.311  3.3572 -1.5715  0.3981
 5905SOL     OW29173   3.760   1.778   8.701 -0.4363 -0.3617 -0.0114
 5905SOL    HW129174   3.777   1.757   8.793  2.5274 -0.5537 -0.6316
 5905SOL    HW229175   3.678   1.828   8.700 -0.4571 -0.3927  0.1287
 5906SOL     OW29176   2.304   2.548  11.990 -0.2707  0.6641 -0.1801
 5906SOL    HW129177   2.387   2.527  12.032  0.3404  0.2292 -1.6353
 5906SOL    HW229178   2.250   2.522  12.065  0.3472 -0.9390 -0.2933
 5907SOL     OW29179   1.505   2.202   5.258  0.0662  0.5493  0.1688
 5907SOL    HW129180   1.570   2.170   5.320 -0.8063 -2.9281 -0.7518
 5907SOL    HW229181   1.536   2.293   5.253  1.8345 -0.2563 -3.1970
 5908SOL     OW29182   2.764   2.649  12.323 -0.1750  0.3374  0.2533
 5908SOL    HW129183   2.694   2.650  12.389  2.1109  1.1400  2.6831
 5908SOL    HW229184   2.723   2.604  12.250 -0.1472  0.2059  0.3184
 5909SOL     OW29185   3.581   2.835  14.447 -0.0514  0.2120  0.2639
 5909SOL    HW129186   3.617   2.922  14.464  0.9618 -0.4369  1.5171
 5909SOL    HW229187   3.585   2.840  14.352  0.0168  0.2831  0.2703
 5910SOL     OW29188   1.511   3.863  13.152  0.4808 -0.0007  0.5712
 5910SOL    HW129189   1.491   3.878  13.244 -2.2929  0.2532 -0.0879
 5910SOL    HW229190   1.581   3.799  13.168 -0.3410 -0.9345  0.4046
 5911SOL     OW29191   2.274   2.564   2.619 -0.1853 -0.3717  0.0720
 5911SOL    HW129192   2.344   2.628   2.609  0.3882 -1.1511 -0.8863
 5911SOL    HW229193   2.322   2.487   2.652  0.8893  0.0526 -0.5191
 5912SOL     OW29194   0.447   1.039   7.741 -0.1327 -0.4794  0.7788
 5912SOL    HW129195   0.518   1.079   7.791  2.3819  1.2134 -4.1864
 5912SOL    HW229196   0.379   1.055   7.806  0.8422 -1.3604  2.0098
 5913SOL     OW29197   1.970   2.725   7.355  0.5586  0.3665 -0.0222
 5913SOL    HW129198   2.018   2.648   7.325 -1.8439 -0.7370 -1.0475
 5913SOL    HW229199   1.899   2.670   7.388 -0.3792  1.6193  0.0529
 5914SOL     OW29200   0.123   0.817   7.898 -0.4310 -0.1361  0.2666
 5914SOL    HW129201   0.031   0.837   7.879  0.1158  0.0459 -2.2168
 5914SOL    HW229202   0.120   0.761   7.976 -1.6694  0.5069  0.6754
 5915SOL     OW29203   3.045   0.864   1.824 -0.4343 -0.0196  0.4057
 5915SOL    HW129204   2.980   0.926   1.856 -1.7824 -1.2680  0.0612
 5915SOL    HW229205   3.099   0.927   1.776 -2.2154  2.9725  2.3159
 5916SOL     OW29206   0.191   1.048   5.198 -0.8375  0.5280 -0.1822
 5916SOL    HW129207   0.187   0.953   5.199  1.8721  0.3758 -1.7674
 5916SOL    HW229208   0.278   1.051   5.158 -0.2508 -0.6123  0.9979
 5917SOL     OW29209   0.303   2.121   9.576 -0.2735 -0.0752  0.0993
 5917SOL    HW129210   0.340   2.091   9.659  0.4667 -3.2067 -1.3571
 5917SOL    HW229211   0.251   2.043   9.557  0.6085 -0.7405  0.3987
 5918SOL     OW29212   2.837   4.506   5.022  0.4710 -0.2887  0.5256
 5918SOL    HW129213   2.825   4.412   5.036  1.0739 -0.1740  1.8456
 5918SOL    HW229214   2.926   4.515   4.989  0.1304  0.2426 -0.2309
 5919SOL     OW29215   1.898   2.890  14.722 -0.5327  0.0689 -0.5626
 5919SOL    HW129216   1.922   2.982  14.711 -1.1063  0.4614  1.4585
 5919SOL    HW229217   1.936   2.869  14.808  1.0034 -1.1612 -1.5445
 5920SOL     OW29218   3.574   0.367   9.792  0.2452 -0.2108  0.3779
 5920SOL    HW129219   3.607   0.291   9.840  0.9283  0.5781  1.1791
 5920SOL    HW229220   3.527   0.415   9.861 -2.1091  1.1955 -2.1994
 5921SOL     OW29221   2.589   3.453   9.666 -0.0351  0.3530 -0.5968
 5921SOL    HW129222   2.537   3.528   9.693  0.0867  0.6280 -1.1244
 5921SOL    HW229223   2.668   3.497   9.635  3.1651 -3.2387  2.4291
 5922SOL     OW29224   2.026   2.795  14.511  0.1369 -0.1956 -0.4762
 5922SOL    HW129225   2.009   2.840  14.594  2.2329 -1.1732  0.5019
 5922SOL    HW229226   2.090   2.732  14.543  0.9264  0.7953 -0.1004
 5923SOL     OW29227   2.800   1.301   5.674 -0.5317  0.6033 -0.2012
 5923SOL    HW129228   2.782   1.236   5.607 -2.0791 -1.3997  2.1676
 5923SOL    HW229229   2.728   1.292   5.737 -1.1266 -0.9227 -1.1157
 5924SOL     OW29230   3.488   2.198   3.457  0.1140  0.4720 -0.3020
 5924SOL    HW129231   3.529   2.112   3.452 -1.5664 -0.3361 -0.1238
 5924SOL    HW229232   3.562   2.258   3.452  0.1410  0.4401 -0.2751
 5925SOL     OW29233   0.823   3.453   3.299  0.5236  0.0480  0.2514
 5925SOL    HW129234   0.860   3.537   3.328 -2.5604  0.7825  2.0407
 5925SOL    HW229235   0.828   3.474   3.206  0.2391 -2.3690 -0.2894
 5926SOL     OW29236   1.578   2.807   6.417 -0.1390 -0.4415  0.1883
 5926SOL    HW129237   1.546   2.717   6.424  1.5382 -1.1875 -1.6680
 5926SOL    HW229238   1.661   2.795   6.463  0.0602  1.5461  0.3301
 5927SOL     OW29239   2.061   4.148   5.961 -0.0605  0.2311  1.0347
 5927SOL    HW129240   2.057   4.063   6.004 -0.8559  1.3752  3.1957
 5927SOL    HW229241   1.973   4.167   5.928  1.3337  0.8508 -2.3297
 5928SOL     OW29242   4.255   1.351   5.820  0.0498  0.4798 -0.5217
 5928SOL    HW129243   4.261   1.393   5.905 -0.3707 -1.1740  0.3379
 5928SOL    HW229244   4.187   1.401   5.776 -0.3605  0.6538  0.3185
 5929SOL     OW29245   1.876   3.205   2.442 -0.0883 -0.0809 -0.0057
 5929SOL    HW129246   1.796   3.254   2.456 -1.6995 -2.7012 -0.0205
 5929SOL    HW229247   1.854   3.165   2.358 -1.3486 -0.3672  0.4717
 5930SOL     OW29248   4.131   3.397   3.972  0.5585  0.3455 -0.1844
 5930SOL    HW129249   4.049   3.446   3.970  0.0350 -0.4698  1.3018
 5930SOL    HW229250   4.192   3.455   3.927  1.0978 -0.3724 -0.3865
 5931SOL     OW29251   1.929   0.656   4.009 -0.5693  0.7354  0.0935
 5931SOL    HW129252   1.912   0.575   4.057  0.8647  0.6242  0.3956
 5931SOL    HW229253   2.002   0.635   3.950 -0.6248 -2.4593  1.1835
 5932SOL     OW29254   2.680   1.724   3.355 -0.0338 -0.4766 -0.5646
 5932SOL    HW129255   2.695   1.799   3.412 -1.5646 -0.0573 -0.7044
 5932SOL    HW229256   2.660   1.659   3.423  0.3322 -0.2016 -0.1952
 5933SOL     OW29257   1.316   4.626   9.337  0.2084  0.5210 -0.3998
 5933SOL    HW129258   1.262   4.576   9.399 -0.6890  1.2078 -0.6425
 5933SOL    HW229259   1.358   4.553   9.291 -1.4236 -1.4875  1.3042
 5934SOL     OW29260   2.123   0.769  12.797  0.4661 -0.1674  0.6558
 5934SOL    HW129261   2.084   0.719  12.868  0.2841  0.6601  1.1336
 5934SOL    HW229262   2.080   0.854  12.802  1.1034  0.2613 -0.9360
 5935SOL     OW29263   3.697   2.060   3.763 -0.0119  0.0348  0.0330
 5935SOL    HW129264   3.638   2.135   3.760  0.6533  0.6642  2.3671
 5935SOL    HW229265   3.688   2.019   3.677 -0.8936  0.7416 -0.2081
 5936SOL     OW29266   2.359   1.804   6.768 -0.0381  0.6365 -0.8886
 5936SOL    HW129267   2.408   1.885   6.758 -3.1117  2.3703 -1.8278
 5936SOL    HW229268   2.325   1.795   6.857 -0.9831  0.2939 -1.2928
 5937SOL     OW29269   3.850   3.012  15.821 -0.3251 -0.0651  0.1204
 5937SOL    HW129270   3.929   3.009  15.768 -0.7704  0.7359 -0.5821
 5937SOL    HW229271   3.826   3.104  15.816 -1.6092 -0.2302  2.9546
 5938SOL     OW29272   0.362   1.511   5.655 -0.1087 -0.0764  0.1185
 5938SOL    HW129273   0.445   1.492   5.698 -0.1038 -5.0010 -2.1248
 5938SOL    HW229274   0.308   1.439   5.687  0.6667 -0.4282  0.6444
 5939SOL     OW29275   3.702   1.343   6.045  0.2825 -0.3444 -0.0472
 5939SOL    HW129276   3.643   1.269   6.026 -0.8318  0.8640 -1.2611
 5939SOL    HW229277   3.638   1.413   6.057  0.4003 -0.3613  0.6528
 5940SOL     OW29278   1.809   3.478  13.338  0.2142  0.3402  0.1557
 5940SOL    HW129279   1.747   3.425  13.288  1.8984 -0.0991 -1.4515
 5940SOL    HW229280   1.814   3.422  13.415 -0.5975  1.3718  0.9531
 5941SOL     OW29281   1.709   0.455   5.329  0.4448  0.3074  1.1054
 5941SOL    HW129282   1.746   0.493   5.250  0.0589 -0.3845  0.5887
 5941SOL    HW229283   1.621   0.493   5.338  0.2948 -0.0401  1.0947
 5942SOL     OW29284   2.999   0.327   2.591  0.2923 -0.4662 -0.2278
 5942SOL    HW129285   3.035   0.377   2.665  0.2377 -0.7685  0.0029
 5942SOL    HW229286   2.915   0.299   2.627 -0.1775 -0.4609 -1.3378
 5943SOL     OW29287   0.730   1.791   5.052 -0.2956 -0.4625  0.5088
 5943SOL    HW129288   0.743   1.778   5.146 -2.0341  0.9452  0.9539
 5943SOL    HW229289   0.686   1.707   5.036 -0.8918 -0.0180 -0.1940
 5944SOL     OW29290   0.104   1.703   8.550 -0.2250 -0.5927  0.2812
 5944SOL    HW129291   0.099   1.608   8.546 -0.4584 -0.6600  2.1290
 5944SOL    HW229292   0.186   1.705   8.599  0.3861 -1.2942 -0.7034
 5945SOL     OW29293   3.599   1.978   1.759 -0.1976  0.0562 -0.1330
 5945SOL    HW129294   3.598   2.067   1.793  0.3514  0.4191 -1.0578
 5945SOL    HW229295   3.550   1.992   1.677  0.8829  0.2846 -0.7338
 5946SOL     OW29296   1.397   2.455   8.766  0.2224  0.1001 -0.6365
 5946SOL    HW129297   1.329   2.523   8.772  0.8781  0.6598  0.5258
 5946SOL    HW229298   1.467   2.500   8.718  1.0645 -0.6715 -0.1208
 5947SOL     OW29299   4.017   0.946   6.549  0.5889  0.2207 -0.3075
 5947SOL    HW129300   3.933   0.993   6.553  1.8737  2.2842  2.6100
 5947SOL    HW229301   4.037   0.934   6.642 -0.2645  1.3619  0.0386
 5948SOL     OW29302   1.256   2.448   7.906 -0.1020  0.2390 -0.1591
 5948SOL    HW129303   1.349   2.451   7.885 -0.7110 -2.0228 -3.2815
 5948SOL    HW229304   1.244   2.502   7.984 -0.7845 -0.2169  0.0599
 5949SOL     OW29305   1.711   3.470  13.661  0.7459  0.0421  0.1889
 5949SOL    HW129306   1.717   3.414  13.739 -0.9426  0.6930  0.7913
 5949SOL    HW229307   1.764   3.424  13.595  1.7805 -0.8916  1.6612
 5950SOL     OW29308   4.587   1.327  17.125 -0.2389  0.8766  0.1173
 5950SOL    HW129309   4.493   1.311  17.123  0.0116 -0.3284 -1.5714
 5950SOL    HW229310   4.617   1.321  17.034 -2.6452  0.6344 -0.6577
 5951SOL     OW29311   4.277   1.244   3.211  0.5040  0.2414  0.1449
 5951SOL    HW129312   4.311   1.165   3.168  2.6914 -0.2292  2.7470
 5951SOL    HW229313   4.227   1.213   3.286 -0.2686  0.3066 -0.3390
 5952SOL     OW29314   2.604   1.473   3.501 -0.1241  0.2725  0.6636
 5952SOL    HW129315   2.594   1.400   3.440  0.9733 -0.2577  1.1001
 5952SOL    HW229316   2.653   1.422   3.566 -0.0688 -1.2178 -0.5502
 5953SOL     OW29317   1.556   2.706   7.112 -0.2622 -0.5745  0.2869
 5953SOL    HW129318   1.618   2.708   7.039 -0.2202 -1.1130  0.3040
 5953SOL    HW229319   1.543   2.798   7.135  3.3102  0.1359 -0.4749
 5954SOL     OW29320   3.363   1.490   6.670  0.1011 -0.2919 -0.2659
 5954SOL    HW129321   3.454   1.481   6.696  0.5339  1.6856 -1.0853
 5954SOL    HW229322   3.373   1.537   6.588  0.0696  3.2181  1.7289
 5955SOL     OW29323   3.395   3.879   7.589  0.6571  0.0049  0.4439
 5955SOL    HW129324   3.306   3.907   7.568  1.4918  1.6162 -0.9301
 5955SOL    HW229325   3.390   3.784   7.576 -1.4474  0.0651  0.9289
 5956SOL     OW29326   0.590   0.715   7.878  0.6790 -0.4074 -0.0202
 5956SOL    HW129327   0.517   0.692   7.936 -0.2121  2.4826 -0.0253
 5956SOL    HW229328   0.661   0.660   7.911 -0.4793 -1.8193  0.1226
 5957SOL     OW29329   3.497   0.405   4.369  0.1998  0.3083 -0.0797
 5957SOL    HW129330   3.427   0.349   4.404  0.4267  1.1141  1.6320
 5957SOL    HW229331   3.544   0.426   4.450 -1.9107  3.8674  0.2054
 5958SOL     OW29332   0.890   0.426   4.417 -0.3658  0.4991 -0.3327
 5958SOL    HW129333   0.910   0.485   4.489  1.7599 -1.4878  0.6852
 5958SOL    HW229334   0.975   0.420   4.373 -1.0049 -1.3300 -1.3223
 5959SOL     OW29335   0.272   2.531  10.128  0.1989  0.6311  0.0559
 5959SOL    HW129336   0.349   2.527  10.071  1.5701  0.8227  1.8935
 5959SOL    HW229337   0.222   2.456  10.096 -0.1763  1.0623 -0.3730
 5960SOL     OW29338   4.087   3.926  12.636 -0.4575  0.0801  0.3761
 5960SOL    HW129339   4.119   3.837  12.623 -0.9431 -0.3254  1.8998
 5960SOL    HW229340   4.068   3.965  12.551 -0.0007 -0.3738  0.0695
 5961SOL     OW29341   2.309   2.623   8.380 -0.3643  0.4383 -0.2260
 5961SOL    HW129342   2.330   2.660   8.294 -0.3041 -1.6116 -1.0893
 5961SOL    HW229343   2.215   2.611   8.394 -0.7497  2.1678 -1.3888
 5962SOL     OW29344   1.792   1.110   3.680  0.9177 -0.1957 -0.2733
 5962SOL    HW129345   1.781   1.020   3.710  0.3221 -0.6352 -1.7871
 5962SOL    HW229346   1.798   1.159   3.762  2.3975  1.0414 -1.1169
 5963SOL     OW29347   2.359   3.574   8.684  0.1981  0.3473  0.5420
 5963SOL    HW129348   2.345   3.664   8.712 -1.2217  0.0365  0.7994
 5963SOL    HW229349   2.454   3.557   8.686  0.2446  0.9378  2.4478
 5964SOL     OW29350   0.960   2.537   9.350 -0.1451 -0.3912  0.3860
 5964SOL    HW129351   0.880   2.485   9.345 -0.1070 -0.4599  0.4824
 5964SOL    HW229352   1.023   2.488   9.298 -0.1003 -0.2898  0.3446
 5965SOL     OW29353   2.219   0.491   9.858 -0.4372 -0.5437 -0.2474
 5965SOL    HW129354   2.166   0.430   9.806 -2.2762  1.0820 -0.2950
 5965SOL    HW229355   2.167   0.517   9.934 -1.2479 -0.8074 -0.7076
 5966SOL     OW29356   1.977   4.524   5.327 -0.4096 -0.8738 -0.0190
 5966SOL    HW129357   1.902   4.583   5.337  0.1531  0.0018 -0.9588
 5966SOL    HW229358   1.937   4.451   5.280 -0.1953 -0.2732 -1.1276
 5967SOL     OW29359   0.132   1.434   2.287 -0.1118 -0.0476  0.1093
 5967SOL    HW129360   0.164   1.383   2.362 -0.9457  0.8770  1.1066
 5967SOL    HW229361   0.132   1.364   2.223 -2.5123  1.2859 -1.3260
 5968SOL     OW29362   3.728   0.938   6.543  0.3893  0.2433 -0.0358
 5968SOL    HW129363   3.735   0.976   6.455  2.5897 -1.7867 -0.7361
 5968SOL    HW229364   3.754   0.847   6.532 -0.9257 -0.4830  2.7842
 5969SOL     OW29365   0.993   0.554   9.440  0.5412 -0.3894  0.1455
 5969SOL    HW129366   0.900   0.565   9.420  0.8772  3.5205  0.6485
 5969SOL    HW229367   0.980   0.552   9.535  0.6695  3.5055  0.2556
 5970SOL     OW29368   2.992   0.595  14.382  0.0325  0.3571 -0.3517
 5970SOL    HW129369   2.911   0.552  14.354  0.1199  0.5865 -0.9492
 5970SOL    HW229370   2.965   0.671  14.434  0.1654  0.6985 -0.7857
 5971SOL     OW29371   2.238   4.645   1.895 -0.1402  0.3413  0.0317
 5971SOL    HW129372   2.278   4.572   1.942 -0.6869  0.2062  0.2836
 5971SOL    HW229373   2.150   4.639   1.931 -0.9837  1.6226 -1.8222
 5972SOL     OW29374   2.057   4.566   9.344  0.3921  0.0259 -0.1247
 5972SOL    HW129375   1.977   4.602   9.306 -0.3370  3.0650  4.3133
 5972SOL    HW229376   2.036   4.580   9.437  0.2413  0.7394 -0.2643
 5973SOL     OW29377   2.714   1.320   9.940  0.3405 -0.1007  0.3691
 5973SOL    HW129378   2.748   1.318   9.850  1.5743 -1.2641  0.8501
 5973SOL    HW229379   2.775   1.387   9.970  0.6843 -1.1653  2.0408
 5974SOL     OW29380   2.001   2.781   5.944  0.7111 -0.4885 -0.0055
 5974SOL    HW129381   2.052   2.853   5.906 -0.2579 -0.6663 -1.6369
 5974SOL    HW229382   1.916   2.826   5.941  0.8808 -0.2683 -1.5409
 5975SOL     OW29383   1.360   4.445   9.985 -0.3061  0.0564  0.0919
 5975SOL    HW129384   1.359   4.349   9.992  2.5980  0.1304  1.5916
 5975SOL    HW229385   1.450   4.458   9.955 -1.1552  0.8153 -2.0964
 5976SOL     OW29386   3.599   3.786   5.754  0.5065  0.2345  0.6451
 5976SOL    HW129387   3.668   3.853   5.761  0.0382  0.8328 -0.4819
 5976SOL    HW229388   3.529   3.834   5.711  0.5305 -0.4898 -0.1988
 5977SOL     OW29389   1.540   1.953   2.718  0.6669  0.0787  0.3870
 5977SOL    HW129390   1.582   2.000   2.790 -1.5651  3.5843 -0.6116
 5977SOL    HW229391   1.608   1.891   2.692  1.5312 -0.2315  3.3314
 5978SOL     OW29392   1.655   3.803   4.489 -0.7778 -0.0885  0.6404
 5978SOL    HW129393   1.723   3.824   4.425 -0.3923 -2.3184  0.3091
 5978SOL    HW229394   1.583   3.819   4.429 -0.3877 -1.0029 -0.0832
 5979SOL     OW29395   1.858   0.867   3.854 -0.0389  0.4710  0.3575
 5979SOL    HW129396   1.869   0.811   3.931 -0.3307 -0.2587 -0.1278
 5979SOL    HW229397   1.945   0.901   3.834 -0.4225  2.8460  2.7234
 5980SOL     OW29398   3.479   4.586  13.134  0.0161  0.0340  0.0794
 5980SOL    HW129399   3.531   4.622  13.205 -0.4723  1.5627 -0.3500
 5980SOL    HW229400   3.393   4.604  13.170  0.1467  0.5770  0.1230
 5981SOL     OW29401   0.806   0.931   7.312  0.3091 -0.0553 -0.2430
 5981SOL    HW129402   0.812   0.990   7.237 -0.7552 -0.5281 -0.6952
 5981SOL    HW229403   0.794   0.851   7.261  1.0141 -1.4804  1.7883
 5982SOL     OW29404   0.636   0.113   2.252 -0.2254 -0.2531 -0.0491
 5982SOL    HW129405   0.614   0.034   2.203  0.1989  0.3026 -1.1364
 5982SOL    HW229406   0.598   0.117   2.339 -0.5391  0.2314 -0.2086
 5983SOL     OW29407   3.410   4.280  17.016  0.8234  0.3684 -0.5973
 5983SOL    HW129408   3.405   4.332  16.936 -1.8906 -1.0611 -1.3572
 5983SOL    HW229409   3.337   4.220  17.007 -1.5541  3.0597  0.5912
 5984SOL     OW29410   1.433   2.302   0.304 -0.2513 -0.3854  0.3831
 5984SOL    HW129411   1.419   2.271   0.393 -1.0582  0.6388  0.6168
 5984SOL    HW229412   1.348   2.282   0.265  0.3423 -2.1864 -0.0047
 5985SOL     OW29413   0.597   1.225   8.880 -0.8389  0.7591  0.6064
 5985SOL    HW129414   0.555   1.242   8.964  1.4254 -0.3762  1.9423
 5985SOL    HW229415   0.641   1.143   8.900 -0.6244  0.5984 -0.5299
 5986SOL     OW29416   2.870   1.817   5.471 -0.5612  0.7542  0.0374
 5986SOL    HW129417   2.821   1.847   5.548  0.1692 -0.5217  1.0200
 5986SOL    HW229418   2.962   1.820   5.497 -0.7513 -2.5047  1.1705
 5987SOL     OW29419   1.596   4.293  14.454  0.0647 -0.4851  0.1525
 5987SOL    HW129420   1.682   4.302  14.494 -0.2811  3.9564 -0.0569
 5987SOL    HW229421   1.536   4.319  14.524 -1.3071  2.4392 -2.0682
 5988SOL     OW29422   1.430   1.106   7.089 -0.5342 -0.5563  0.0791
 5988SOL    HW129423   1.455   1.019   7.058  3.1712  0.5183  0.0565
 5988SOL    HW229424   1.411   1.148   7.005  1.1255 -0.6736 -0.3554
 5989SOL     OW29425   0.878   3.211   7.841  0.5828 -0.1231  0.5958
 5989SOL    HW129426   0.882   3.210   7.746 -0.0701  0.7687  0.5656
 5989SOL    HW229427   0.952   3.269   7.858 -0.8460  1.2332  2.1806
 5990SOL     OW29428   2.087   1.211  10.562 -0.2968 -0.5202  0.4656
 5990SOL    HW129429   2.070   1.219  10.468 -0.7331 -0.6070  0.5349
 5990SOL    HW229430   2.001   1.180  10.590 -0.4868  0.2267  0.7260
 5991SOL     OW29431   2.670   0.366   4.273 -0.4175  0.2689 -0.4434
 5991SOL    HW129432   2.607   0.372   4.200  0.0075  0.9932 -0.7542
 5991SOL    HW229433   2.655   0.273   4.290  0.2887  0.0058 -1.2146
 5992SOL     OW29434   0.560   4.655   4.572 -0.3288 -0.0551 -0.0926
 5992SOL    HW129435   0.519   4.706   4.642  1.2514  0.6716  0.3110
 5992SOL    HW229436   0.556   4.717   4.500 -2.1979 -0.0077  0.0408
 5993SOL     OW29437   2.643   3.483   2.940 -0.3904  0.2038 -0.2500
 5993SOL    HW129438   2.670   3.459   3.029  1.3211  0.8847 -0.5890
 5993SOL    HW229439   2.548   3.483   2.953 -0.5222 -2.1494 -1.2236
 5994SOL     OW29440   4.627   4.179   8.274 -0.5307 -0.0998  0.0921
 5994SOL    HW129441   4.719   4.153   8.283 -0.0297  0.6544 -2.6331
 5994SOL    HW229442   4.638   4.272   8.255  1.4439 -0.4114 -0.2668
 5995SOL     OW29443   4.556   3.892   7.402  0.2142 -0.7479 -0.0205
 5995SOL    HW129444   4.460   3.884   7.398  0.1517  0.5203 -1.3729
 5995SOL    HW229445   4.574   3.953   7.330  2.7142  0.9369  2.0446
 5996SOL     OW29446   1.403   0.403   6.418 -0.1419  0.2184 -0.7830
 5996SOL    HW129447   1.485   0.388   6.465  1.7148  1.8142 -3.5075
 5996SOL    HW229448   1.412   0.351   6.339  1.0652 -1.0589  0.2043
 5997SOL     OW29449   4.229   3.288   7.886 -0.3112 -0.3130 -0.4264
 5997SOL    HW129450   4.271   3.354   7.940 -2.5224  0.5108  0.2830
 5997SOL    HW229451   4.199   3.220   7.947 -1.3764  0.2552 -0.3240
 5998SOL     OW29452   4.252   2.339  15.344  0.1049  0.5760  0.4239
 5998SOL    HW129453   4.239   2.245  15.357 -2.4729  0.7837 -0.5384
 5998SOL    HW229454   4.248   2.373  15.433  4.2730 -1.1202  1.2504
 5999SOL     OW29455   1.450   1.579   2.723  0.1991 -0.2609  0.2253
 5999SOL    HW129456   1.513   1.607   2.656  0.6481  1.4254  1.3576
 5999SOL    HW229457   1.412   1.666   2.733  1.0817  0.3741 -1.7969
 6000SOL     OW29458   1.641   1.368   3.089 -0.1704 -0.1107 -0.4979
 6000SOL    HW129459   1.620   1.277   3.112 -0.0944 -0.6242 -2.4839
 6000SOL    HW229460   1.721   1.355   3.039 -0.2236 -1.0870 -0.3477
 6001SOL     OW29461   1.068   2.789   7.001  0.6920  0.3576  0.4940
 6001SOL    HW129462   1.161   2.806   7.016  0.8018 -0.0448  0.2738
 6001SOL    HW229463   1.069   2.714   7.061  0.9518  0.9528  1.2435
 6002SOL     OW29464   2.514   1.068   8.846 -0.2593 -0.2458 -0.5093
 6002SOL    HW129465   2.540   1.018   8.924  0.1083  0.9303  0.1261
 6002SOL    HW229466   2.559   1.152   8.857 -1.1881  0.1753  0.1047
 6003SOL     OW29467   1.126   4.049   0.236 -0.5001 -0.3336 -0.3501
 6003SOL    HW129468   1.192   3.982   0.249  0.8754  1.1824  0.4865
 6003SOL    HW229469   1.089   4.027   0.150 -1.2102 -1.6487  0.2946
 6004SOL     OW29470   4.480   4.560   2.026 -0.4089  0.2272 -0.4543
 6004SOL    HW129471   4.530   4.564   1.945 -1.4931  4.7299 -0.8811
 6004SOL    HW229472   4.416   4.494   2.000  0.2963  0.3260 -2.4083
 6005SOL     OW29473   2.511   2.058  13.289 -0.0849  0.8690  0.1121
 6005SOL    HW129474   2.594   2.077  13.244 -0.3148  0.9314 -0.2849
 6005SOL    HW229475   2.546   2.059  13.378  1.3369  1.8718 -0.4490
 6006SOL     OW29476   3.653   0.125  13.440 -0.2617  0.2235 -0.0652
 6006SOL    HW129477   3.607   0.047  13.472  0.0466  0.5105  1.0830
 6006SOL    HW229478   3.689   0.098  13.356 -2.4358 -2.3837 -0.1650
 6007SOL     OW29479   3.835   3.302   4.852 -0.1123 -0.1270 -0.1459
 6007SOL    HW129480   3.853   3.241   4.780  1.1464  0.0046  0.0673
 6007SOL    HW229481   3.882   3.254   4.919  0.7831  0.3987 -0.3973
 6008SOL     OW29482   2.654   1.427   1.191  0.5721  0.2519 -0.3122
 6008SOL    HW129483   2.625   1.395   1.106 -0.3881  0.5537 -0.0937
 6008SOL    HW229484   2.623   1.358   1.249 -0.5436  2.0232  1.2177
 6009SOL     OW29485   3.400   2.337   7.491  0.1280 -0.5974 -0.0573
 6009SOL    HW129486   3.409   2.316   7.584  1.8994 -0.5061 -0.2108
 6009SOL    HW229487   3.361   2.425   7.488 -0.4887 -0.9173 -1.3931
 6010SOL     OW29488   0.352   3.891   5.847 -0.2312 -0.6594  0.1978
 6010SOL    HW129489   0.380   3.982   5.847 -1.9815 -0.1220 -1.9615
 6010SOL    HW229490   0.418   3.860   5.785  0.7742  2.4958 -0.3015
 6011SOL     OW29491   0.876   3.692   3.444  0.0339 -0.2755  0.0915
 6011SOL    HW129492   0.834   3.776   3.464 -0.0127 -0.6680  1.5985
 6011SOL    HW229493   0.849   3.651   3.526 -1.4556  1.2451  0.3673
 6012SOL     OW29494   0.759   1.221   3.192  0.2108 -0.0907 -0.1263
 6012SOL    HW129495   0.674   1.244   3.155  1.6854  0.1608 -3.4083
 6012SOL    HW229496   0.741   1.196   3.282  1.2052  0.8183  0.3280
 6013SOL     OW29497   0.028   1.257   5.058  0.3480  0.0962 -0.5991
 6013SOL    HW129498   0.089   1.203   5.108  0.4957 -2.1222 -3.1462
 6013SOL    HW229499   0.083   1.303   4.995  0.9981  1.6394  1.1119
 6014SOL     OW29500   0.980   1.283  12.132  0.6171  0.6736 -0.0114
 6014SOL    HW129501   0.974   1.257  12.040 -1.5270  1.7953 -0.1919
 6014SOL    HW229502   1.071   1.313  12.133  0.9961 -0.5211  1.0717
 6015SOL     OW29503   0.979   0.746   2.749 -0.0266 -0.0328  0.0976
 6015SOL    HW129504   0.965   0.656   2.720  3.8841 -0.6224 -0.0152
 6015SOL    HW229505   1.054   0.731   2.807  0.2528  1.9678  0.2384
 6016SOL     OW29506   1.783   1.099  12.651 -0.6471 -0.9608 -0.1711
 6016SOL    HW129507   1.831   1.017  12.658  1.8852  0.5949  0.7724
 6016SOL    HW229508   1.745   1.115  12.738  0.1560  0.5506 -0.0808
 6017SOL     OW29509   1.489   2.957   7.734 -0.1340 -0.1897  0.7345
 6017SOL    HW129510   1.436   2.989   7.807 -2.1009  1.0969 -1.2553
 6017SOL    HW229511   1.427   2.890   7.705  0.6487 -0.4002 -0.4584
 6018SOL     OW29512   3.981   2.025   7.600  0.0061 -0.3825  0.0615
 6018SOL    HW129513   4.044   2.097   7.601 -1.3826  0.8434 -0.6172
 6018SOL    HW229514   4.020   1.981   7.675 -0.1350  0.0353  0.3772
 6019SOL     OW29515   4.634   2.920   1.933  0.0959 -0.2075 -0.2864
 6019SOL    HW129516   4.651   3.012   1.950  1.2613 -0.4338 -0.2016
 6019SOL    HW229517   4.630   2.909   1.838 -0.3293 -1.3414 -0.1364
 6020SOL     OW29518   3.170   3.465   7.292 -0.2415  0.8166 -0.2008
 6020SOL    HW129519   3.082   3.501   7.287 -0.3121  0.6677 -0.0200
 6020SOL    HW229520   3.164   3.431   7.381 -1.4117  3.5014  0.7353
 6021SOL     OW29521   3.274   0.357  16.135  0.2131  0.2548 -0.1393
 6021SOL    HW129522   3.364   0.327  16.127  0.8176  2.0927 -0.3792
 6021SOL    HW229523   3.252   0.313  16.217  1.3379 -0.2697 -0.1264
 6022SOL     OW29524   3.284   2.202  13.557  0.4630 -0.2700  0.2579
 6022SOL    HW129525   3.270   2.192  13.463 -0.0030 -0.7786  0.3790
 6022SOL    HW229526   3.324   2.289  13.566 -1.3332  0.5854  0.0464
 6023SOL     OW29527   3.488   0.675   3.651 -0.0648 -0.3432  0.1382
 6023SOL    HW129528   3.522   0.722   3.575  0.0375 -0.3256  0.1948
 6023SOL    HW229529   3.436   0.746   3.689 -1.0662 -0.9199 -0.1536
 6024SOL     OW29530   2.748   4.259   5.793  0.0419  0.5856  0.0434
 6024SOL    HW129531   2.674   4.313   5.765 -0.8472 -1.0605 -0.7563
 6024SOL    HW229532   2.749   4.295   5.881 -1.5747 -1.1005  0.7293
 6025SOL     OW29533   0.780   2.427   9.076  0.6890  0.6882 -0.4936
 6025SOL    HW129534   0.795   2.342   9.035  2.3272  0.6599  0.1571
 6025SOL    HW229535   0.760   2.380   9.157 -0.9223  0.0689 -1.2621
 6026SOL     OW29536   3.095   3.139   7.468  0.2266  0.0518 -0.0570
 6026SOL    HW129537   3.040   3.184   7.403  1.7054 -0.3661 -1.5924
 6026SOL    HW229538   3.063   3.167   7.553  1.4597 -0.5359  0.5998
 6027SOL     OW29539   1.925   3.392  11.293 -0.3961  0.0821  0.5864
 6027SOL    HW129540   1.925   3.297  11.304  4.0122  0.1210  1.0489
 6027SOL    HW229541   1.936   3.428  11.381  0.3186  0.1528  0.4706
 6028SOL     OW29542   4.054   0.292   8.536  0.1041  0.0664  0.2228
 6028SOL    HW129543   4.079   0.201   8.523  2.4057  0.5083  1.5561
 6028SOL    HW229544   4.119   0.321   8.600  1.3723  0.3493 -1.2062
 6029SOL     OW29545   0.047   3.822  17.497  0.4636 -0.0910  0.1065
 6029SOL    HW129546   4.710   3.851  17.564 -0.8909 -0.0944 -1.1361
 6029SOL    HW229547   0.000   3.854  17.420 -0.6570 -1.6424  0.1549
 6030SOL     OW29548   0.370   2.431   2.411  0.4415  0.2116 -0.6656
 6030SOL    HW129549   0.283   2.464   2.388 -0.0563 -0.4868  0.2214
 6030SOL    HW229550   0.364   2.450   2.505  1.5401 -1.8248 -0.1852
 6031SOL     OW29551   2.755   1.656  14.182  0.1274 -0.2556 -0.0161
 6031SOL    HW129552   2.679   1.690  14.134  0.3283 -1.0848 -0.9329
 6031SOL    HW229553   2.733   1.690  14.269 -3.0051 -1.8385 -0.1765
 6032SOL     OW29554   2.753   1.274   7.000  0.4978  0.4273  0.1200
 6032SOL    HW129555   2.692   1.291   6.929  1.0489 -2.3215 -1.0258
 6032SOL    HW229556   2.824   1.241   6.945  0.4962  0.7434 -0.0709
 6033SOL     OW29557   1.185   3.719   6.593  0.1411 -0.6843 -0.0049
 6033SOL    HW129558   1.246   3.663   6.545  0.2786 -0.2445 -0.3438
 6033SOL    HW229559   1.243   3.783   6.633  1.5223 -1.7493 -0.2881
 6034SOL     OW29560   1.393   2.073   6.573  0.3735  0.3043 -0.8623
 6034SOL    HW129561   1.301   2.051   6.586  1.0891 -1.0580  1.7625
 6034SOL    HW229562   1.429   2.008   6.634 -1.2646 -0.0857 -0.3153
 6035SOL     OW29563   3.971   1.832   6.014  0.6003  0.0602 -0.3891
 6035SOL    HW129564   3.982   1.897   5.945  2.6337  2.0494  1.8162
 6035SOL    HW229565   3.937   1.762   5.958  3.3471 -2.4817  1.1934
 6036SOL     OW29566   4.641   3.393   8.520  0.5428  0.1945 -0.0037
 6036SOL    HW129567   4.633   3.328   8.590 -0.0976  1.2829  0.9410
 6036SOL    HW229568   4.553   3.429   8.505 -0.1689 -0.5712  2.2794
 6037SOL     OW29569   4.279   1.857   7.181  0.0916  0.3024  0.1737
 6037SOL    HW129570   4.211   1.871   7.248 -1.6830 -2.3096 -1.1152
 6037SOL    HW229571   4.272   1.941   7.136  1.4139 -1.1782 -2.7185
 6038SOL     OW29572   3.353   2.072   5.590 -0.4627 -0.6649 -0.7341
 6038SOL    HW129573   3.433   2.046   5.636  0.3965  0.8588 -1.3748
 6038SOL    HW229574   3.331   2.141   5.653  0.5604 -1.5671  0.6025
 6039SOL     OW29575   0.827   4.025   1.909 -0.0668 -0.2962  0.4061
 6039SOL    HW129576   0.913   4.030   1.952  0.3331  0.3490 -0.4753
 6039SOL    HW229577   0.848   4.043   1.817  1.5437 -2.0769  0.4128
 6040SOL     OW29578   0.224   0.197   3.319  0.1887  0.0291  0.3822
 6040SOL    HW129579   0.285   0.129   3.289 -1.8964 -1.3232 -0.8086
 6040SOL    HW229580   0.242   0.255   3.245  0.2631  2.2565  2.1715
 6041SOL     OW29581   1.128   4.132   3.121  0.2184  0.2020  0.5888
 6041SOL    HW129582   1.136   4.218   3.162  0.7166  0.2225  0.4539
 6041SOL    HW229583   1.052   4.140   3.064  1.2203  1.4915 -0.5847
 6042SOL     OW29584   2.290   0.575  16.766 -0.0015 -0.0281  0.2516
 6042SOL    HW129585   2.309   0.541  16.679 -0.7772 -0.6403  0.3160
 6042SOL    HW229586   2.345   0.521  16.823 -1.2749 -1.5045  0.0861
 6043SOL     OW29587   4.449   2.684   5.637 -0.1465  0.7014 -0.4513
 6043SOL    HW129588   4.458   2.665   5.544 -0.3825 -2.6199  0.1922
 6043SOL    HW229589   4.421   2.597   5.666  2.2893  0.4179  1.0498
 6044SOL     OW29590   1.742   0.157  12.071  0.1034 -0.3624 -0.2172
 6044SOL    HW129591   1.835   0.178  12.077  0.2710 -1.4833  1.0516
 6044SOL    HW229592   1.702   0.233  12.113 -3.1872 -1.7898 -0.7560
 6045SOL     OW29593   1.581   1.717   4.733 -0.1403  0.5181 -0.1420
 6045SOL    HW129594   1.588   1.621   4.729 -2.3328  0.3918 -0.8797
 6045SOL    HW229595   1.670   1.750   4.749  0.2479  0.0992 -1.4359
 6046SOL     OW29596   1.655   3.587   6.464 -0.1189  0.6121 -0.1368
 6046SOL    HW129597   1.686   3.622   6.380  1.9419 -0.6028  0.1032
 6046SOL    HW229598   1.732   3.534   6.486  0.3354  0.8318 -1.1967
 6047SOL     OW29599   1.477   3.409   3.162  0.1178 -0.4238  0.5874
 6047SOL    HW129600   1.514   3.497   3.151 -0.0813 -0.2594  1.1770
 6047SOL    HW229601   1.528   3.380   3.238  1.0187  0.4808  0.3322
 6048SOL     OW29602   3.266   0.733  10.626 -0.1761 -0.5286 -0.1350
 6048SOL    HW129603   3.298   0.653  10.584 -2.4011 -0.6405 -1.6524
 6048SOL    HW229604   3.349   0.770  10.654 -0.7982 -0.5434  1.7058
 6049SOL     OW29605   1.247   1.104   6.212 -0.1529  0.0893 -0.3410
 6049SOL    HW129606   1.305   1.147   6.150 -0.4565 -0.8542 -1.2769
 6049SOL    HW229607   1.225   1.177   6.271 -0.0190 -1.3174  1.4702
 6050SOL     OW29608   1.098   2.039   7.162 -0.0497 -0.0081 -0.3528
 6050SOL    HW129609   1.192   2.030   7.182 -0.1824  0.2550  0.4101
 6050SOL    HW229610   1.077   1.949   7.136 -1.6151  0.2149  0.1349
 6051SOL     OW29611   1.810   3.817   3.470 -0.0420  0.7259  0.4825
 6051SOL    HW129612   1.840   3.882   3.406 -0.0385  0.1902 -0.0729
 6051SOL    HW229613   1.739   3.861   3.515  0.9052  1.8409  0.8664
 6052SOL     OW29614   2.753   0.401   8.296 -0.1427  0.0938  0.8795
 6052SOL    HW129615   2.807   0.462   8.346 -1.6356  2.1210  0.0572
 6052SOL    HW229616   2.737   0.330   8.357 -2.4513 -1.0236 -1.0349
 6053SOL     OW29617   0.635   3.469  14.377 -0.3149 -0.4028  0.7686
 6053SOL    HW129618   0.644   3.531  14.305  1.1061 -0.8941  0.5159
 6053SOL    HW229619   0.699   3.488  14.445 -1.6507  1.3466  1.5030
 6054SOL     OW29620   1.806   2.244   5.691  0.4149 -0.3783  0.3891
 6054SOL    HW129621   1.845   2.302   5.626  0.5139 -0.0403  0.7494
 6054SOL    HW229622   1.713   2.265   5.691  0.4751 -0.1706 -2.3474
 6055SOL     OW29623   3.831   2.373  15.788  0.1440  0.1839 -0.6819
 6055SOL    HW129624   3.829   2.378  15.693  0.4839  0.9886 -0.6406
 6055SOL    HW229625   3.846   2.459  15.827  2.3262 -0.5206  0.0819
 6056SOL     OW29626   3.649   1.482   2.282 -0.1490  0.2059 -0.6398
 6056SOL    HW129627   3.723   1.422   2.278  0.6966  1.2544 -0.5873
 6056SOL    HW229628   3.639   1.493   2.377 -1.3205  0.4627 -0.7859
 6057SOL     OW29629   1.599   1.603   3.868  0.0662 -0.1411  1.0096
 6057SOL    HW129630   1.520   1.569   3.826  0.2414 -1.6304  1.8856
 6057SOL    HW229631   1.604   1.696   3.844 -0.7518 -0.3546  0.0041
 6058SOL     OW29632   4.134   0.119   9.506 -0.2874  0.5806 -0.3169
 6058SOL    HW129633   4.168   0.123   9.417  1.1019 -0.1933  0.1873
 6058SOL    HW229634   4.088   0.203   9.516  1.2745  1.4363 -0.3057
 6059SOL     OW29635   2.287   3.597   7.419 -0.3590  0.3174  0.4060
 6059SOL    HW129636   2.207   3.587   7.367 -0.1792  1.7546 -0.1484
 6059SOL    HW229637   2.355   3.571   7.357 -0.1584 -1.3026  1.3052
 6060SOL     OW29638   0.470   2.957  16.193 -0.0803 -0.2446 -0.2843
 6060SOL    HW129639   0.383   2.967  16.231  0.0243 -0.8196  0.1070
 6060SOL    HW229640   0.459   3.004  16.110  1.8311  2.5835  1.0816
 6061SOL     OW29641   3.645   1.988   4.327  0.2619 -0.0329 -0.3328
 6061SOL    HW129642   3.603   1.981   4.241  1.5484 -1.9462 -0.8022
 6061SOL    HW229643   3.718   1.929   4.307  0.7632  1.0067 -1.5095
 6062SOL     OW29644   0.149   1.571  17.315 -0.5103  0.0343  0.2752
 6062SOL    HW129645   0.060   1.563  17.351 -0.9118  0.7978 -0.5445
 6062SOL    HW229646   0.200   1.510  17.368 -0.4921  0.1786  0.4210
 6063SOL     OW29647   2.582   2.251   7.930  0.5744 -0.5590 -0.1116
 6063SOL    HW129648   2.515   2.186   7.954  1.4938 -1.5123 -0.0981
 6063SOL    HW229649   2.531   2.321   7.889 -1.5933 -1.0567  1.7640
 6064SOL     OW29650   3.860   2.059   5.005  0.1862  0.0723  0.1052
 6064SOL    HW129651   3.943   2.091   5.041  0.1405  0.1704  0.1252
 6064SOL    HW229652   3.848   1.973   5.044 -1.0381 -0.1908 -0.8610
 6065SOL     OW29653   0.789   4.232  14.088  0.3924  0.3891 -0.1969
 6065SOL    HW129654   0.790   4.306  14.150  1.0194  1.1511 -1.1105
 6065SOL    HW229655   0.828   4.158  14.134 -0.6418 -0.1041 -0.1218
 6066SOL     OW29656   1.964   0.569   7.409  0.1880 -0.7960  0.2516
 6066SOL    HW129657   2.026   0.598   7.475 -0.8703  0.0936  0.8535
 6066SOL    HW229658   2.014   0.556   7.328 -0.4786 -1.9742  0.0211
 6067SOL     OW29659   3.994   0.372  14.672 -0.3018 -0.3640 -0.2648
 6067SOL    HW129660   4.004   0.464  14.645 -0.4057 -0.2485  0.0844
 6067SOL    HW229661   3.959   0.330  14.594  2.6445 -1.4042 -1.0502
 6068SOL     OW29662   1.461   1.497   5.410 -0.1939  0.6047 -0.6052
 6068SOL    HW129663   1.482   1.437   5.481  0.8881 -0.6656 -2.0091
 6068SOL    HW229664   1.518   1.573   5.423  1.4868 -0.9474  1.1199
 6069SOL     OW29665   2.053   0.020   6.229 -0.5575 -0.3104 -0.7620
 6069SOL    HW129666   1.963   0.014   6.260  0.2533 -0.2766  1.5422
 6069SOL    HW229667   2.114   0.026   6.302  0.2224 -1.0026 -1.3553
 6070SOL     OW29668   0.452   4.174   9.268  0.2240  0.3261 -0.5928
 6070SOL    HW129669   0.473   4.130   9.350  0.4686  2.6923  0.6146
 6070SOL    HW229670   0.477   4.106   9.205  0.1972  0.3846 -0.6657
 6071SOL     OW29671   2.637   1.744  14.788 -0.4417  0.6210 -0.7266
 6071SOL    HW129672   2.553   1.699  14.785  0.0209 -0.4047  1.2860
 6071SOL    HW229673   2.671   1.731  14.877 -0.3077  0.0543 -0.8608
 6072SOL     OW29674   1.801   0.349   1.998  0.2751  0.3330  0.5880
 6072SOL    HW129675   1.779   0.408   1.926  0.8818  1.5259  1.3731
 6072SOL    HW229676   1.895   0.332   1.988  0.4964  1.2699  1.1047
 6073SOL     OW29677   3.705   0.105  17.650 -0.2775  0.3375 -0.3853
 6073SOL    HW129678   3.701   0.026  17.597 -1.7212  0.3481 -0.2680
 6073SOL    HW229679   3.612   0.117  17.667  0.0810  1.3785  0.8498
 6074SOL     OW29680   1.929   0.028   3.707 -0.6574  0.1375 -0.0524
 6074SOL    HW129681   2.021   0.008   3.720 -0.4226  1.2273 -0.0583
 6074SOL    HW229682   1.888   4.670   3.681 -1.3716  0.1098  1.1595
 6075SOL     OW29683   3.400   1.261   0.141 -0.0011 -0.1579  0.0995
 6075SOL    HW129684   3.364   1.173   0.130  1.2941 -0.6723  0.0653
 6075SOL    HW229685   3.347   1.308   0.076 -0.2317 -0.4424  0.0803
 6076SOL     OW29686   2.207   3.830   2.285  0.1605  0.1250  0.3748
 6076SOL    HW129687   2.265   3.754   2.275  2.4350  2.0025 -0.6230
 6076SOL    HW229688   2.125   3.801   2.243 -0.0692  0.7583  0.3897
 6077SOL     OW29689   2.031   1.042   9.649  0.5380  0.1896  0.5918
 6077SOL    HW129690   2.061   1.056   9.559  1.4828  2.5306  1.2669
 6077SOL    HW229691   2.020   1.133   9.675  0.9593  0.2699  0.5028
 6078SOL     OW29692   2.580   2.263   9.745  0.0399  0.3009  0.2969
 6078SOL    HW129693   2.651   2.281   9.683 -1.6796  0.4648 -1.6188
 6078SOL    HW229694   2.509   2.249   9.682  0.7386  0.1705 -0.4595
 6079SOL     OW29695   2.147   0.373  10.279 -1.0251  0.0567 -0.0105
 6079SOL    HW129696   2.125   0.429  10.205 -1.3249  0.9893  0.7839
 6079SOL    HW229697   2.062   0.338  10.304  0.2769 -2.6676  0.6216
 6080SOL     OW29698   2.048   3.495   7.312 -0.0970 -0.1337 -0.3086
 6080SOL    HW129699   1.954   3.512   7.317 -0.6391 -2.6177 -1.4735
 6080SOL    HW229700   2.053   3.400   7.303  1.2163 -0.2126  1.3717
 6081SOL     OW29701   3.058   3.412   7.592 -0.3630 -0.4370 -0.1130
 6081SOL    HW129702   3.118   3.421   7.665  0.7429 -2.1713 -0.7992
 6081SOL    HW229703   2.978   3.374   7.628 -1.0078  2.2206  1.1967
 6082SOL     OW29704   1.154   3.692  17.416 -0.5820  0.1027 -0.3254
 6082SOL    HW129705   1.248   3.672  17.418 -0.7122 -0.4270  0.3183
 6082SOL    HW229706   1.166   3.752  17.342  2.3375 -0.1360 -0.0534
 6083SOL     OW29707   0.855   4.347   9.190  0.1864 -0.2147  0.2519
 6083SOL    HW129708   0.855   4.346   9.095  2.6382 -1.2799  0.2472
 6083SOL    HW229709   0.947   4.323   9.207 -0.6773 -2.2207  2.1891
 6084SOL     OW29710   3.231   4.445  15.821 -0.3196 -0.5939  0.6926
 6084SOL    HW129711   3.143   4.408  15.829 -0.2243 -1.6609 -3.3297
 6084SOL    HW229712   3.220   4.519  15.761 -1.4249 -1.6909 -0.4484
 6085SOL     OW29713   2.553   1.711   3.115  0.1891 -0.2140  0.0661
 6085SOL    HW129714   2.600   1.720   3.198  0.4746 -1.9290  0.0902
 6085SOL    HW229715   2.560   1.798   3.077  1.7259 -0.1181  0.5641
 6086SOL     OW29716   1.599   0.098   6.673  0.0655 -0.1184  0.0277
 6086SOL    HW129717   1.598   0.010   6.635 -1.3022 -0.0023 -0.1921
 6086SOL    HW229718   1.531   0.085   6.740 -0.8498 -1.7365 -1.2208
 6087SOL     OW29719   2.666   0.898   9.027  0.3349  0.0747 -0.3756
 6087SOL    HW129720   2.728   0.900   9.100  1.0405  1.2793 -1.0111
 6087SOL    HW229721   2.603   0.840   9.070 -1.5933  1.1787 -1.7017
 6088SOL     OW29722   3.280   3.525   3.467  0.1074 -0.5660 -0.0372
 6088SOL    HW129723   3.245   3.478   3.542 -0.3542 -3.6048 -2.1758
 6088SOL    HW229724   3.373   3.503   3.469  0.3087  0.2000 -0.6627
 6089SOL     OW29725   3.176   3.269   6.186  0.4446 -0.5956 -0.2727
 6089SOL    HW129726   3.232   3.213   6.239  0.1785  0.5651  1.2433
 6089SOL    HW229727   3.088   3.259   6.221  0.6602  0.9455  0.7173
 6090SOL     OW29728   0.815   2.242   3.893 -0.5540  0.1532  0.4041
 6090SOL    HW129729   0.834   2.336   3.899 -0.7765  0.3363 -1.7665
 6090SOL    HW229730   0.902   2.203   3.898  0.1428  1.6604 -0.0473
 6091SOL     OW29731   0.917   2.059   6.263  0.3058  1.0876  0.0009
 6091SOL    HW129732   0.975   2.047   6.189  1.2701  1.2510  0.7332
 6091SOL    HW229733   0.850   2.111   6.218  0.3355 -0.1156 -1.4235
 6092SOL     OW29734   0.996   3.649   7.290  0.1558 -0.2354  0.2492
 6092SOL    HW129735   0.967   3.725   7.238 -0.3038 -1.1467 -0.8345
 6092SOL    HW229736   1.031   3.697   7.365 -0.5722 -1.9557  1.6952
 6093SOL     OW29737   4.429   3.762   5.801 -0.0271 -0.6959 -0.3594
 6093SOL    HW129738   4.469   3.755   5.715  1.7934  1.2368  0.3420
 6093SOL    HW229739   4.485   3.703   5.852 -0.6637 -0.2762  0.8430
 6094SOL     OW29740   4.494   4.671   4.686  0.6187  0.2355  0.3367
 6094SOL    HW129741   4.450   4.680   4.602 -0.2566  0.7123  0.8447
 6094SOL    HW229742   4.520   0.038   4.687  0.7773  0.1919  0.0942
 6095SOL     OW29743   4.507   1.846   1.036  0.2858  0.5182 -0.1333
 6095SOL    HW129744   4.522   1.940   1.025 -2.2922  1.1793  1.8235
 6095SOL    HW229745   4.439   1.837   0.969 -0.7993 -2.0837  1.3022
 6096SOL     OW29746   1.235   0.921  10.016 -0.2057  0.4713  0.4585
 6096SOL    HW129747   1.322   0.913   9.977 -1.6157  0.3949 -2.6002
 6096SOL    HW229748   1.254   0.962  10.101  0.5176  0.0606  0.4931
 6097SOL     OW29749   1.200   0.050   0.707 -0.0631 -0.1402  0.5396
 6097SOL    HW129750   1.134   0.110   0.740  0.4269  1.2356 -0.9765
 6097SOL    HW229751   1.184   0.046   0.613  2.0316 -1.3511  0.2289
 6098SOL     OW29752   2.647   4.015   4.870  0.6508 -0.0990 -0.2041
 6098SOL    HW129753   2.652   4.093   4.926 -0.5719 -0.8229  0.9294
 6098SOL    HW229754   2.558   3.985   4.890 -0.1549  0.6508 -2.7061
 6099SOL     OW29755   3.714   4.325   5.778 -0.6151  0.3476  0.3114
 6099SOL    HW129756   3.732   4.337   5.685 -0.5343  0.4613  0.3427
 6099SOL    HW229757   3.765   4.396   5.816 -1.1463 -0.0341  1.7185
 6100SOL     OW29758   3.003   1.928   3.612  0.1488  0.6798 -0.0257
 6100SOL    HW129759   2.999   1.923   3.708  3.9131 -1.0884  0.0431
 6100SOL    HW229760   3.090   1.966   3.600  1.1219 -0.9208  1.7223
 6101SOL     OW29761   4.144   2.573   0.052  0.1556  0.5620 -0.0138
 6101SOL    HW129762   4.232   2.611   0.055  0.9065 -1.2327  1.1017
 6101SOL    HW229763   4.132   2.532   0.138 -0.2773  3.3239  1.2181
 6102SOL     OW29764   0.181   4.530  13.008 -0.0792 -0.1430 -0.1966
 6102SOL    HW129765   0.232   4.606  13.035 -1.5849  0.0917  2.0274
 6102SOL    HW229766   0.095   4.528  13.051  1.0251 -1.3162  1.9682
 6103SOL     OW29767   3.019   2.036   6.988 -0.3547 -0.5824  0.2564
 6103SOL    HW129768   3.087   1.986   7.033  1.1895  1.2857 -0.0075
 6103SOL    HW229769   2.994   1.969   6.923 -2.2997 -1.0692  1.5106
 6104SOL     OW29770   0.491   0.560   1.331  0.1696  0.1359 -0.1242
 6104SOL    HW129771   0.456   0.544   1.418 -0.5783 -0.0632 -0.4664
 6104SOL    HW229772   0.414   0.603   1.294 -0.6660 -1.7570 -0.5769
 6105SOL     OW29773   1.549   4.517   1.989  0.3278  0.1165 -0.0948
 6105SOL    HW129774   1.460   4.551   1.986 -0.0856 -0.9666  0.3601
 6105SOL    HW229775   1.584   4.606   1.979  0.2382  0.1465 -0.1430
 6106SOL     OW29776   3.353   4.626   4.262 -0.3104  0.0849 -0.0863
 6106SOL    HW129777   3.395   4.706   4.229 -2.5757  1.5348  0.5575
 6106SOL    HW229778   3.290   4.605   4.193 -1.0185  0.5165  0.4269
 6107SOL     OW29779   3.649   3.361  14.493 -0.0787 -0.1795  0.1412
 6107SOL    HW129780   3.716   3.302  14.529 -0.3577  0.0557  1.0382
 6107SOL    HW229781   3.694   3.382  14.411  0.4879  2.5831  1.1631
 6108SOL     OW29782   3.449   2.121  10.916 -0.0432 -0.0014 -0.3706
 6108SOL    HW129783   3.425   2.204  10.957 -0.9019  0.2388 -1.3573
 6108SOL    HW229784   3.447   2.149  10.825 -1.6537  0.1289 -0.2973
 6109SOL     OW29785   1.686   1.339  12.453 -0.3878 -0.3421  0.3682
 6109SOL    HW129786   1.602   1.377  12.480 -0.8437 -0.4762 -0.8755
 6109SOL    HW229787   1.691   1.387  12.370  0.1045 -0.5943  0.2531
 6110SOL     OW29788   1.470   2.212  11.290 -1.1660 -0.2318 -0.6391
 6110SOL    HW129789   1.540   2.218  11.225 -0.9953 -2.3579 -0.6279
 6110SOL    HW229790   1.401   2.262  11.246 -0.5480  0.5519 -0.7339
 6111SOL     OW29791   4.329   0.453  12.245  0.7094 -0.1117 -0.7144
 6111SOL    HW129792   4.326   0.365  12.283  2.3905  0.5738  1.0258
 6111SOL    HW229793   4.340   0.436  12.152  2.1303  2.7195 -1.0891
 6112SOL     OW29794   3.748   3.290   9.539 -0.1459 -0.2950 -0.6134
 6112SOL    HW129795   3.738   3.235   9.617 -5.2929  0.1704 -0.9727
 6112SOL    HW229796   3.729   3.375   9.579  1.1359  0.3597 -1.3962
 6113SOL     OW29797   2.799   2.469   2.326 -0.3035 -1.1924  0.0001
 6113SOL    HW129798   2.894   2.472   2.312 -0.1396  1.0441  1.6052
 6113SOL    HW229799   2.764   2.476   2.238  0.1337  1.4381  0.0535
 6114SOL     OW29800   3.527   2.588   5.764 -0.5044  0.1178 -0.6467
 6114SOL    HW129801   3.526   2.682   5.785  3.2329  0.4419 -2.0737
 6114SOL    HW229802   3.431   2.583   5.762 -0.6576  1.7652  3.0831
 6115SOL     OW29803   1.125   4.425   4.782 -0.2243  0.3785  0.1224
 6115SOL    HW129804   1.151   4.352   4.838  0.6256  0.6974  0.1495
 6115SOL    HW229805   1.129   4.394   4.692  1.2428  1.4593 -0.1966
 6116SOL     OW29806   0.092   1.113  10.822  0.2260 -0.1705 -0.3014
 6116SOL    HW129807   0.111   1.136  10.913  1.3267 -1.3841 -0.2136
 6116SOL    HW229808   0.046   1.188  10.785  2.2836  1.1078 -0.3161
 6117SOL     OW29809   4.555   3.047   4.769 -0.2299 -0.1783  0.3455
 6117SOL    HW129810   4.615   2.983   4.731 -0.3360  0.8571 -1.5885
 6117SOL    HW229811   4.501   2.999   4.831  0.8273 -1.4389  0.2918
 6118SOL     OW29812   3.475   1.040   8.571 -0.6694  0.2138  0.1016
 6118SOL    HW129813   3.417   0.970   8.601  0.3523 -1.2840 -1.4264
 6118SOL    HW229814   3.447   1.053   8.481 -2.6262 -1.9115  0.4112
 6119SOL     OW29815   0.369   1.100  16.103  0.6609  0.0949 -0.1375
 6119SOL    HW129816   0.370   1.026  16.043  0.3883 -0.1140  0.1138
 6119SOL    HW229817   0.433   1.067  16.167  0.6707  1.7721  0.7056
 6120SOL     OW29818   4.002   0.633   1.053  0.3257  0.3423  0.1282
 6120SOL    HW129819   4.058   0.682   1.113 -0.3059 -0.6619  1.5094
 6120SOL    HW229820   3.915   0.655   1.085  0.8393  1.3421  0.8535
 6121SOL     OW29821   4.499   1.253  16.002 -1.0547  0.1199 -0.6014
 6121SOL    HW129822   4.564   1.257  15.932  1.4030  1.2427  1.7616
 6121SOL    HW229823   4.533   1.176  16.048  0.5746  0.7667 -0.7322
 6122SOL     OW29824   2.351   4.546   8.016  0.2627  0.3162 -0.2993
 6122SOL    HW129825   2.383   4.460   7.990 -0.4791  0.2766 -1.0717
 6122SOL    HW229826   2.330   4.537   8.108  0.1797  1.8419 -0.1712
 6123SOL     OW29827   3.116   4.363  11.244 -0.3297  0.0156 -0.3700
 6123SOL    HW129828   3.106   4.293  11.309 -0.9549  2.0686  1.7627
 6123SOL    HW229829   3.212   4.355  11.241 -0.3566 -0.9820  1.0188
 6124SOL     OW29830   1.521   0.467  15.488 -0.6488 -0.2258  0.3610
 6124SOL    HW129831   1.454   0.531  15.514 -0.0858  1.4130 -2.2354
 6124SOL    HW229832   1.480   0.441  15.406  1.0600  0.4754 -0.6921
 6125SOL     OW29833   4.136   0.681  17.296  0.7089 -0.4796 -0.1386
 6125SOL    HW129834   4.172   0.692  17.384 -0.0609 -0.2100  0.1453
 6125SOL    HW229835   4.168   0.752  17.240  1.2291 -1.4760 -1.0928
 6126SOL     OW29836   1.501   2.662   7.385  0.3831 -0.3295 -0.2275
 6126SOL    HW129837   1.526   2.662   7.292 -0.0805  1.4129 -0.3430
 6126SOL    HW229838   1.438   2.590   7.377  0.9516 -0.9664  1.0994
 6127SOL     OW29839   2.233   1.036  15.251  0.2596 -0.1060 -0.4157
 6127SOL    HW129840   2.285   1.113  15.275 -0.3269  0.0908  0.2118
 6127SOL    HW229841   2.190   0.998  15.328  0.3542  2.5763  0.9675
 6128SOL     OW29842   3.013   4.601   2.986 -0.5594  0.1711 -0.2137
 6128SOL    HW129843   3.056   4.603   2.900  0.5788 -0.5334  0.3393
 6128SOL    HW229844   3.084   4.623   3.047 -1.4928 -1.8642  1.5967
 6129SOL     OW29845   2.850   0.780   1.059 -0.2606 -0.5862  0.5171
 6129SOL    HW129846   2.863   0.824   1.143  0.5591  3.4619 -1.7379
 6129SOL    HW229847   2.812   0.848   1.004 -2.1368  1.3481  4.2448
 6130SOL     OW29848   2.374   1.011  10.584 -0.1244  0.0345 -0.4201
 6130SOL    HW129849   2.292   1.060  10.579  0.2093  0.7147  0.8706
 6130SOL    HW229850   2.426   1.063  10.523 -0.1962  0.7810  0.1575
 6131SOL     OW29851   1.022   1.777  16.699 -0.0393 -0.7704 -0.1017
 6131SOL    HW129852   1.100   1.784  16.755 -0.7904  0.6283  0.7751
 6131SOL    HW229853   0.958   1.831  16.745  1.9199  0.2441  1.4364
 6132SOL     OW29854   2.200   2.242  14.168  0.1887  0.5798  0.1328
 6132SOL    HW129855   2.295   2.250  14.180  0.0233  1.2149  0.9838
 6132SOL    HW229856   2.171   2.276  14.252 -2.0926  0.6158 -0.6711
 6133SOL     OW29857   3.331   2.350   8.525 -0.8211  0.6327  0.2759
 6133SOL    HW129858   3.270   2.314   8.461 -0.6737  1.4520 -0.3315
 6133SOL    HW229859   3.354   2.434   8.484  0.3419 -0.9321 -2.2441
 6134SOL     OW29860   4.275   2.655   3.217  0.9178 -0.2866  0.1976
 6134SOL    HW129861   4.256   2.724   3.153  0.3643 -0.9081 -0.3117
 6134SOL    HW229862   4.235   2.573   3.188  1.5677 -0.7595  0.6205
 6135SOL     OW29863   3.576   0.108  15.422 -0.6114  0.1694 -0.2755
 6135SOL    HW129864   3.524   0.138  15.497  1.5417  1.6466  0.6354
 6135SOL    HW229865   3.548   0.162  15.348  0.6094  0.1886 -0.7208
 6136SOL     OW29866   1.430   3.005   2.740  0.5853  0.3536  0.1835
 6136SOL    HW129867   1.473   3.048   2.814 -0.5484  0.4001  0.8237
 6136SOL    HW229868   1.473   3.034   2.660 -0.8615 -0.1204 -0.7653
 6137SOL     OW29869   2.075   0.889  13.378  0.2178 -0.4423  0.1168
 6137SOL    HW129870   2.014   0.934  13.320 -1.7216 -1.1854  1.5908
 6137SOL    HW229871   2.029   0.879  13.461 -1.4973  2.7214 -0.4717
 6138SOL     OW29872   3.272   1.551   5.976  0.5298  0.3356 -0.0950
 6138SOL    HW129873   3.188   1.519   6.008  1.9387 -1.9070  1.4362
 6138SOL    HW229874   3.241   1.609   5.907  0.3272  0.7345  0.3309
 6139SOL     OW29875   0.236   3.522   0.743  0.7078  0.1040 -0.3327
 6139SOL    HW129876   0.239   3.608   0.702  2.1068 -0.9451 -2.4157
 6139SOL    HW229877   0.270   3.532   0.832  0.2442  0.1284 -0.1595
 6140SOL     OW29878   3.109   3.837   3.484 -0.0220  0.2126 -0.0824
 6140SOL    HW129879   3.097   3.743   3.498 -1.5512  0.3803 -0.2326
 6140SOL    HW229880   3.034   3.853   3.426  1.5061  2.7719 -1.3167
 6141SOL     OW29881   1.963   0.916   4.624 -0.1006 -0.0483  0.1853
 6141SOL    HW129882   1.951   1.001   4.667  0.3103  0.3275 -0.4447
 6141SOL    HW229883   2.054   0.922   4.594  0.1848 -0.8327  0.8750
 6142SOL     OW29884   4.589   1.099  10.418 -0.2792 -0.4889  0.0570
 6142SOL    HW129885   4.518   1.136  10.365  1.2721  3.0054  0.4400
 6142SOL    HW229886   4.551   1.082  10.505  0.2265 -0.7408  0.2322
 6143SOL     OW29887   0.795   2.800   5.871 -0.8889  0.1737  0.1634
 6143SOL    HW129888   0.707   2.780   5.838 -0.7816 -3.0613  1.8336
 6143SOL    HW229889   0.770   2.868   5.934 -1.4554 -1.5443  1.8023
 6144SOL     OW29890   2.492   0.231   6.124 -0.4432  0.9139  0.0461
 6144SOL    HW129891   2.473   0.146   6.165  1.3468  0.2417 -0.5165
 6144SOL    HW229892   2.426   0.228   6.055 -0.0441  1.9465 -0.3720
 6145SOL     OW29893   2.275   1.942   7.307 -0.3188  0.6160  0.0079
 6145SOL    HW129894   2.266   1.913   7.398 -1.2442  1.6593  0.2422
 6145SOL    HW229895   2.366   1.971   7.311  0.5563 -1.7996 -2.1943
 6146SOL     OW29896   0.383   3.064   7.241  0.8726  0.2744 -0.5963
 6146SOL    HW129897   0.287   3.062   7.249  1.1815 -0.9239  2.6595
 6146SOL    HW229898   0.409   3.137   7.297  0.4335 -0.8400  1.0581
 6147SOL     OW29899   4.661   0.017   8.386 -0.7681  0.1294  0.3470
 6147SOL    HW129900   0.030   0.030   8.372 -0.2420 -1.2899  2.6441
 6147SOL    HW229901   4.625   0.072   8.316 -0.8101 -0.5586 -0.1732
 6148SOL     OW29902   1.416   2.884   5.556 -0.0214  0.1684  0.5431
 6148SOL    HW129903   1.435   2.974   5.529  2.9245 -1.3610 -2.4767
 6148SOL    HW229904   1.328   2.894   5.593 -0.5569  1.0348 -0.9504
 6149SOL     OW29905   3.747   3.081  11.146 -0.3509  0.4608 -0.0160
 6149SOL    HW129906   3.699   3.001  11.124 -1.1938  1.1855 -0.8137
 6149SOL    HW229907   3.794   3.054  11.225 -0.5323 -0.3356 -0.1717
 6150SOL     OW29908   3.783   0.576   8.517  0.2256 -0.1056 -0.2958
 6150SOL    HW129909   3.784   0.481   8.505 -1.1270 -0.5366  2.8662
 6150SOL    HW229910   3.793   0.601   8.425  0.7239 -1.4104 -0.5971
 6151SOL     OW29911   3.719   1.852   4.783  0.8408 -0.1932  0.0537
 6151SOL    HW129912   3.782   1.866   4.712 -0.1198  2.1538 -0.3387
 6151SOL    HW229913   3.777   1.857   4.859 -0.1363  0.2401  0.7722
 6152SOL     OW29914   1.489   0.376  16.503 -0.0717 -0.2659 -0.3619
 6152SOL    HW129915   1.445   0.459  16.482 -1.0155 -0.6041  0.2794
 6152SOL    HW229916   1.475   0.326  16.422  1.5643 -1.5073  0.1287
 6153SOL     OW29917   3.714   4.449  11.167 -0.3505 -0.1377 -0.3510
 6153SOL    HW129918   3.643   4.512  11.158 -0.9265 -0.8053 -0.5039
 6153SOL    HW229919   3.684   4.361  11.145  0.9504 -0.8990  0.8537
 6154SOL     OW29920   0.422   1.058   2.536 -0.2825 -0.2179 -0.2526
 6154SOL    HW129921   0.453   1.012   2.458  1.1090 -0.2813  0.3238
 6154SOL    HW229922   0.419   0.979   2.591 -2.6264 -1.5813 -2.3436
 6155SOL     OW29923   1.684   2.701   6.873 -0.6300 -0.2024 -0.0135
 6155SOL    HW129924   1.601   2.726   6.831 -0.6160  0.8322  0.5583
 6155SOL    HW229925   1.707   2.614   6.841 -1.2789 -0.7384  0.9686
 6156SOL     OW29926   1.932   0.224  13.547 -0.1429 -0.1858 -0.0125
 6156SOL    HW129927   1.951   0.222  13.453  2.2909  2.5527  0.4299
 6156SOL    HW229928   1.878   0.304  13.547  0.5675  0.2984 -0.6380
 6157SOL     OW29929   2.614   0.481   7.830 -0.4906 -0.3327  0.1695
 6157SOL    HW129930   2.652   0.437   7.906 -1.1728 -1.7699 -0.3157
 6157SOL    HW229931   2.638   0.422   7.759 -1.7726  0.4641 -0.9301
 6158SOL     OW29932   2.268   4.273   3.091  0.3753  0.4312  0.7908
 6158SOL    HW129933   2.327   4.227   3.151 -0.3564 -0.9784  0.4135
 6158SOL    HW229934   2.314   4.264   3.008  1.2661  0.6347  1.2613
 6159SOL     OW29935   3.023   2.563   5.142  0.2646  0.5105 -0.8879
 6159SOL    HW129936   2.948   2.508   5.164 -0.1599  1.5064  0.0740
 6159SOL    HW229937   3.081   2.491   5.116  1.4863  0.6461  1.4932
 6160SOL     OW29938   3.322   0.828   8.623 -0.6708  0.2870 -0.5328
 6160SOL    HW129939   3.383   0.754   8.634  0.0020  0.9194  0.0049
 6160SOL    HW229940   3.288   0.823   8.534  0.0559  0.6779 -0.8301
 6161SOL     OW29941   3.722   3.049   5.675 -0.5307  0.5190 -0.4097
 6161SOL    HW129942   3.749   3.104   5.748 -0.0570 -1.1083  0.6490
 6161SOL    HW229943   3.760   3.091   5.598 -0.7626  3.2893  1.0232
 6162SOL     OW29944   0.804   0.682   5.984  0.2678 -0.0754 -0.0206
 6162SOL    HW129945   0.752   0.603   5.999 -1.8708  1.6691  1.6399
 6162SOL    HW229946   0.886   0.645   5.952  0.3418  0.1801 -0.1279
 6163SOL     OW29947   3.384   2.259  11.463 -0.2074 -0.0479  0.3020
 6163SOL    HW129948   3.347   2.304  11.538  0.5328  1.9421 -0.5282
 6163SOL    HW229949   3.354   2.169  11.477 -2.7899  0.6537 -0.6062
 6164SOL     OW29950   0.270   0.320   8.012  0.2243  0.2069 -0.0074
 6164SOL    HW129951   0.216   0.399   8.021 -1.8426 -1.0629 -1.2384
 6164SOL    HW229952   0.360   0.352   8.007  0.5188 -0.2712  2.3233
 6165SOL     OW29953   1.360   4.052  14.037  0.3357 -0.1226 -0.0385
 6165SOL    HW129954   1.436   4.109  14.031  0.1098  0.0620 -1.2532
 6165SOL    HW229955   1.366   4.014  13.949  1.7118 -0.0596  0.0245
 6166SOL     OW29956   0.189   3.682   5.786  0.1751  0.2191  0.5317
 6166SOL    HW129957   0.109   3.733   5.775  0.7153  1.4167  2.2430
 6166SOL    HW229958   0.256   3.748   5.805 -0.1186  0.7225 -0.1709
 6167SOL     OW29959   2.693   3.632   5.614  0.0171  0.4518  0.0392
 6167SOL    HW129960   2.620   3.580   5.580  0.6968 -0.0981 -0.5813
 6167SOL    HW229961   2.759   3.615   5.547  1.4201  0.4678  1.4172
 6168SOL     OW29962   3.000   3.281   0.052 -0.0968  0.3782  0.1199
 6168SOL    HW129963   3.035   3.275  17.664  1.1334  0.4996  0.6073
 6168SOL    HW229964   2.934   3.350   0.039 -0.0348  0.6685  1.3434
 6169SOL     OW29965   2.640   1.940   3.014  0.1642  0.4138 -0.1206
 6169SOL    HW129966   2.722   1.985   3.035 -0.4031  0.2254  2.4669
 6169SOL    HW229967   2.578   2.013   3.014 -0.9967 -0.5546  0.9629
 6170SOL     OW29968   1.965   3.711   8.114  0.8726  0.1389 -0.0349
 6170SOL    HW129969   1.925   3.674   8.193 -2.6714  0.9069 -1.4837
 6170SOL    HW229970   1.942   3.641   8.052 -1.7378 -0.7707  1.9141
 6171SOL     OW29971   3.461   0.692   7.887 -0.2345  0.4237 -0.3871
 6171SOL    HW129972   3.414   0.733   7.814 -0.7576  0.2008 -0.1759
 6171SOL    HW229973   3.480   0.767   7.943  2.3699 -2.5355  2.7609
 6172SOL     OW29974   0.440   3.872   8.255 -0.6243  0.2784 -0.1040
 6172SOL    HW129975   0.511   3.807   8.257 -1.7845 -1.0056 -0.2397
 6172SOL    HW229976   0.374   3.820   8.210 -0.7551  2.1820 -2.1415
 6173SOL     OW29977   3.255   0.811   5.770 -0.1027  0.1571  0.5620
 6173SOL    HW129978   3.212   0.727   5.753 -0.7225  0.6611 -0.4002
 6173SOL    HW229979   3.183   0.856   5.813  0.3812  2.6790 -1.2330
 6174SOL     OW29980   0.562   0.514   7.575 -0.0897  0.1364  0.0302
 6174SOL    HW129981   0.545   0.606   7.597  0.5209 -0.1104  1.5323
 6174SOL    HW229982   0.657   0.522   7.573  0.0619 -2.2530 -2.2758
 6175SOL     OW29983   2.264   0.566   2.479  0.2814  0.6349 -0.4996
 6175SOL    HW129984   2.290   0.542   2.568 -0.9381  0.0549 -0.2906
 6175SOL    HW229985   2.208   0.491   2.459  1.0523 -0.3340  0.9715
 6176SOL     OW29986   2.263   2.053   1.757  0.7014 -0.0395 -0.4274
 6176SOL    HW129987   2.334   1.989   1.762  0.9156  0.3603  1.6260
 6176SOL    HW229988   2.208   2.022   1.685  2.2640 -3.5382 -0.1106
 6177SOL     OW29989   2.450   3.623   4.544 -0.2514  0.1644 -0.2839
 6177SOL    HW129990   2.388   3.555   4.517  2.0170 -1.2404 -1.9706
 6177SOL    HW229991   2.431   3.697   4.487  1.8134 -1.1314 -2.6158
 6178SOL     OW29992   1.628   3.241   7.361  0.4578  0.3606  0.0597
 6178SOL    HW129993   1.594   3.323   7.396  1.7867  2.2506 -3.0686
 6178SOL    HW229994   1.669   3.208   7.441  0.1911 -0.3167 -0.0871
 6179SOL     OW29995   0.029   0.114   7.700 -0.3150 -0.5101 -0.1190
 6179SOL    HW129996   0.044   0.123   7.606  1.2366 -0.1770  0.1635
 6179SOL    HW229997   0.120   0.131   7.725 -0.0282 -1.5097 -0.5262
 6180SOL     OW29998   3.607   1.802  13.752  0.0696 -0.1638  0.1647
 6180SOL    HW129999   3.696   1.769  13.766  0.1794  0.8101  1.7291
 6180SOL    HW230000   3.583   1.756  13.672  0.9015 -0.4066  0.0541
 6181SOL     OW30001   3.238   1.446   3.886  0.1872 -0.3848  0.3289
 6181SOL    HW130002   3.295   1.409   3.818  3.7028 -0.4385  3.2906
 6181SOL    HW230003   3.273   1.533   3.905 -0.8354  0.1060 -0.0554
 6182SOL     OW30004   3.960   2.261   5.282  0.1621  0.4595  0.5890
 6182SOL    HW130005   4.055   2.270   5.277  0.0103  0.3321 -2.4252
 6182SOL    HW230006   3.948   2.171   5.313  1.5880  0.0810  0.0221
 6183SOL     OW30007   2.149   2.344   8.455  0.1845 -0.3307  0.0022
 6183SOL    HW130008   2.226   2.340   8.399 -1.0037 -2.6932 -1.4525
 6183SOL    HW230009   2.102   2.404   8.397 -0.1498 -0.0356  0.5699
 6184SOL     OW30010   0.447   2.181   7.679 -0.1277 -0.2131 -0.0136
 6184SOL    HW130011   0.484   2.245   7.740 -0.0879  1.5414 -1.8938
 6184SOL    HW230012   0.381   2.235   7.636  1.8817  2.7331  0.5960
 6185SOL     OW30013   0.212   4.278   6.971 -0.0325  0.0206 -0.4320
 6185SOL    HW130014   0.305   4.276   6.950 -0.2226 -4.1476 -0.8640
 6185SOL    HW230015   0.211   4.239   7.059  0.1882 -1.2667 -0.9922
 6186SOL     OW30016   3.637   2.142  16.208 -0.0625 -0.9375  0.0397
 6186SOL    HW130017   3.676   2.118  16.123  1.0752 -1.8096  0.8046
 6186SOL    HW230018   3.545   2.157  16.187 -0.4845 -3.4800  0.1115
 6187SOL     OW30019   1.312   0.209   5.830  0.1151 -0.4088 -0.3454
 6187SOL    HW130020   1.391   0.239   5.784  1.4718 -0.9719  1.5851
 6187SOL    HW230021   1.300   0.115   5.814 -3.0510  0.2598 -1.8817
 6188SOL     OW30022   2.517   3.649   1.186  0.1685  0.5828  0.1934
 6188SOL    HW130023   2.504   3.727   1.132 -0.2394  0.1627 -0.3216
 6188SOL    HW230024   2.457   3.584   1.149  1.6277 -0.2188 -0.8325
 6189SOL     OW30025   2.926   3.943   6.235  0.3983 -0.3009  0.5986
 6189SOL    HW130026   2.888   3.871   6.286  3.3346 -1.7381  0.7363
 6189SOL    HW230027   2.983   3.896   6.174 -1.4207 -2.2098  0.3823
 6190SOL     OW30028   1.643   0.339   6.541 -0.0285  0.5581 -0.6726
 6190SOL    HW130029   1.695   0.391   6.602  1.7325 -0.9548 -0.8814
 6190SOL    HW230030   1.630   0.253   6.582  0.4485  0.0946 -1.4705
 6191SOL     OW30031   3.828   1.459   4.938 -0.9115 -1.1002 -0.3383
 6191SOL    HW130032   3.785   1.415   5.011 -0.3363 -0.9708  0.0820
 6191SOL    HW230033   3.755   1.498   4.891  0.5600  0.4236 -1.3797
 6192SOL     OW30034   0.446   4.436   5.921 -0.0090  0.0019 -0.0642
 6192SOL    HW130035   0.356   4.404   5.919 -0.2389  0.6251  0.3209
 6192SOL    HW230036   0.455   4.443   6.016  1.9773  0.8925 -0.3233
 6193SOL     OW30037   3.027   1.495   9.534  0.3118  0.1262 -0.1841
 6193SOL    HW130038   3.069   1.577   9.562  0.0964  0.6220 -1.3179
 6193SOL    HW230039   3.097   1.454   9.484 -1.4688 -1.9924 -0.9357
 6194SOL     OW30040   0.253   1.809   9.969 -0.2563  0.1511  0.0031
 6194SOL    HW130041   0.347   1.817   9.951 -0.6228 -0.3519 -2.1474
 6194SOL    HW230042   0.232   1.742   9.904  1.3752 -1.8492  1.5556
 6195SOL     OW30043   2.320   3.471   2.172 -0.5244  0.0761 -0.0237
 6195SOL    HW130044   2.392   3.446   2.113 -1.3548 -2.1135 -0.1132
 6195SOL    HW230045   2.359   3.554   2.201  0.0462 -0.1728 -0.0815
 6196SOL     OW30046   2.677   1.129   5.119  0.4056  0.3815 -0.3339
 6196SOL    HW130047   2.722   1.170   5.046  0.3278 -0.3647 -0.7986
 6196SOL    HW230048   2.667   1.038   5.091  1.0546  0.6185 -1.3171
 6197SOL     OW30049   4.249   1.084   5.919 -0.1586 -0.3889  0.2113
 6197SOL    HW130050   4.335   1.057   5.889  0.3778  1.5243  0.0230
 6197SOL    HW230051   4.234   1.162   5.866 -0.7910  0.4647  1.6392
 6198SOL     OW30052   1.194   1.263   7.305  0.4681  0.2524 -0.1036
 6198SOL    HW130053   1.217   1.173   7.327  0.7520 -0.1072 -1.8903
 6198SOL    HW230054   1.258   1.311   7.358  0.1814 -0.0984  0.5512
 6199SOL     OW30055   1.115   0.477  15.168 -0.1697 -0.7933 -0.0563
 6199SOL    HW130056   1.077   0.564  15.180 -0.9252 -1.4397  2.1050
 6199SOL    HW230057   1.093   0.425  15.245 -1.0432 -0.8744 -0.3621
 6200SOL     OW30058   0.538   4.327   0.294 -0.3300  0.4272  0.2051
 6200SOL    HW130059   0.541   4.414   0.335 -1.2969 -0.1010  1.4311
 6200SOL    HW230060   0.610   4.283   0.339 -0.5426  0.4435  0.5684
 6201SOL     OW30061   3.725   2.680  16.885  0.0682 -0.3221 -0.3695
 6201SOL    HW130062   3.760   2.600  16.923  1.4612  0.5623  0.2052
 6201SOL    HW230063   3.638   2.674  16.924 -0.7617 -3.0060 -2.6952
 6202SOL     OW30064   1.465   0.790  15.190  0.7821 -0.2840 -0.5046
 6202SOL    HW130065   1.423   0.811  15.106  1.9289  1.9870 -0.5079
 6202SOL    HW230066   1.389   0.799  15.247  0.9742 -3.9124  0.3078
 6203SOL     OW30067   4.620   3.137  10.994 -0.8477  0.0931 -0.3835
 6203SOL    HW130068   4.636   3.050  10.957  0.4205  0.4021 -0.5409
 6203SOL    HW230069   4.554   3.172  10.933  0.2118  0.5598 -1.2550
 6204SOL     OW30070   3.825   1.670  12.300  0.0634 -0.3258 -0.1556
 6204SOL    HW130071   3.920   1.660  12.292  0.1029 -2.4238  2.6262
 6204SOL    HW230072   3.809   1.720  12.221  3.1717  1.3117  0.2396
 6205SOL     OW30073   2.544   2.297   3.365 -0.1778  0.2572  0.0521
 6205SOL    HW130074   2.626   2.304   3.317 -0.8160 -2.4273 -1.4337
 6205SOL    HW230075   2.577   2.235   3.430  0.8338  1.3978  0.6172
 6206SOL     OW30076   0.367   0.522   2.895  0.2263 -0.1869 -0.3034
 6206SOL    HW130077   0.292   0.480   2.853  0.3620 -0.1572 -0.5724
 6206SOL    HW230078   0.352   0.612   2.866  1.0324  0.0262 -0.0478
 6207SOL     OW30079   1.301   4.285   7.232  0.4739 -0.1179 -0.0800
 6207SOL    HW130080   1.377   4.343   7.237  0.2088  0.1387  0.9656
 6207SOL    HW230081   1.337   4.202   7.202 -0.9098 -0.3113 -1.1746
 6208SOL     OW30082   3.616   1.260   4.276  0.8120  0.1974 -0.2104
 6208SOL    HW130083   3.668   1.192   4.232 -1.5911 -1.1562 -0.9547
 6208SOL    HW230084   3.535   1.212   4.294  0.3620  1.5957  1.4498
 6209SOL     OW30085   3.898   1.129   5.901 -0.5315  0.2725 -0.6401
 6209SOL    HW130086   3.879   1.066   5.971 -0.5499 -0.2782 -1.1372
 6209SOL    HW230087   3.957   1.188   5.948  0.5947  0.4097 -2.2233
 6210SOL     OW30088   1.235   1.832   6.425  0.3493 -0.0875 -0.2305
 6210SOL    HW130089   1.201   1.810   6.338 -0.3899 -0.0927  0.0652
 6210SOL    HW230090   1.317   1.874   6.399  0.5032 -0.1484  0.1562
 6211SOL     OW30091   2.511   4.386   5.359  0.1249 -0.0554  0.3884
 6211SOL    HW130092   2.480   4.327   5.290  1.8530  1.0954 -1.4007
 6211SOL    HW230093   2.444   4.455   5.351  0.2147  0.0106  0.2023
 6212SOL     OW30094   2.125   0.380   5.243 -0.6164 -0.2854  0.1657
 6212SOL    HW130095   2.129   0.458   5.187 -0.4213 -0.3478  0.0941
 6212SOL    HW230096   2.082   0.402   5.325  1.6411 -1.1627  1.5704
 6213SOL     OW30097   0.322   2.957  10.292  0.0597 -0.2611 -0.0210
 6213SOL    HW130098   0.322   2.865  10.317 -1.0448 -0.9596 -2.6398
 6213SOL    HW230099   0.293   2.954  10.201  0.5589  3.8835 -0.3251
 6214SOL     OW30100   2.546   1.110  15.880 -0.3871  0.4689 -0.2636
 6214SOL    HW130101   2.570   1.090  15.789 -0.1630  0.2346 -0.1535
 6214SOL    HW230102   2.486   1.181  15.856 -1.1036  0.2535  0.8998
 6215SOL     OW30103   1.623   1.775   6.194 -0.5904 -0.0476 -0.0834
 6215SOL    HW130104   1.671   1.826   6.260 -3.0259 -1.3871  2.7487
 6215SOL    HW230105   1.599   1.702   6.251  0.4936  0.3499  0.8983
 6216SOL     OW30106   3.171   4.718   7.540 -0.0735  0.2382  0.0862
 6216SOL    HW130107   3.100   4.671   7.497  0.4456 -3.1560  2.9746
 6216SOL    HW230108   3.202   0.043   7.464  0.1699 -2.6305 -1.6867
 6217SOL     OW30109   3.022   3.163   2.442 -0.2020  0.2877  0.0583
 6217SOL    HW130110   3.039   3.085   2.495 -2.9682 -0.4881 -0.2142
 6217SOL    HW230111   3.112   3.191   2.426  1.0307 -2.6871  1.7548
 6218SOL     OW30112   4.250   4.218   1.312 -0.5323 -0.1683  0.3563
 6218SOL    HW130113   4.276   4.128   1.295 -0.9705  0.0783 -1.7285
 6218SOL    HW230114   4.333   4.265   1.306 -1.9503  2.3578  0.4754
 6219SOL     OW30115   3.910   0.316   6.956  0.2114  0.0389  0.1637
 6219SOL    HW130116   3.870   0.379   6.895 -0.1170 -0.8273 -0.5155
 6219SOL    HW230117   3.994   0.360   6.966  0.0250  0.4269  0.0500
 6220SOL     OW30118   0.396   1.766  11.869  0.0023  0.1118 -0.7499
 6220SOL    HW130119   0.348   1.762  11.786 -0.3840 -1.8602 -0.4401
 6220SOL    HW230120   0.329   1.731  11.927  0.4892  0.2796 -0.0749
 6221SOL     OW30121   2.472   3.226  14.466 -0.6317  0.1370  0.3778
 6221SOL    HW130122   2.484   3.131  14.474 -1.4975 -0.0870 -1.0775
 6221SOL    HW230123   2.479   3.244  14.560 -1.0521 -1.7288  0.7514
 6222SOL     OW30124   0.579   3.204   6.176  0.7205  0.0825  0.0684
 6222SOL    HW130125   0.538   3.291   6.169 -2.0415 -1.2011  0.3143
 6222SOL    HW230126   0.512   3.139   6.197  0.4128  0.2355 -0.4326
 6223SOL     OW30127   0.971   0.409   8.513 -0.0863 -0.8450 -0.7704
 6223SOL    HW130128   0.981   0.335   8.574 -0.7732  0.6053  1.1139
 6223SOL    HW230129   0.889   0.442   8.551  1.4598  2.0848 -0.0242
 6224SOL     OW30130   3.940   1.277  10.971  0.9577  0.6720  0.1438
 6224SOL    HW130131   3.857   1.322  10.952  0.0559 -0.2577  1.8894
 6224SOL    HW230132   3.962   1.321  11.053 -0.9130  2.4394 -0.2892
 6225SOL     OW30133   2.039   0.976   3.697  0.2661 -0.0172 -0.1496
 6225SOL    HW130134   2.075   1.064   3.694 -0.1239  0.2223  2.5714
 6225SOL    HW230135   2.092   0.940   3.625 -0.2848 -0.6742 -0.2270
 6226SOL     OW30136   2.064   2.081  11.727  0.1770  0.0532  0.0646
 6226SOL    HW130137   2.153   2.057  11.702  0.6553  1.0530  0.7984
 6226SOL    HW230138   2.056   2.174  11.703 -0.2096 -0.0082 -0.0448
 6227SOL     OW30139   2.281   3.883   3.972 -0.4388 -0.4524 -0.4193
 6227SOL    HW130140   2.198   3.932   3.978 -0.3038 -0.7847  3.6522
 6227SOL    HW230141   2.279   3.844   3.884  0.0109 -1.2909 -0.0530
 6228SOL     OW30142   2.531   4.328   7.494 -0.1559  0.2914 -0.0402
 6228SOL    HW130143   2.580   4.399   7.452 -0.4165 -0.3998 -1.5176
 6228SOL    HW230144   2.574   4.335   7.579  0.5798 -1.8851 -0.2272
 6229SOL     OW30145   3.585   3.375   0.717 -0.0026 -0.2515 -0.3678
 6229SOL    HW130146   3.578   3.281   0.702 -1.1547 -0.1942 -0.1807
 6229SOL    HW230147   3.493   3.403   0.721  0.2667  0.5375  0.2981
 6230SOL     OW30148   3.276   2.732   1.897  0.0350  0.1500 -0.7975
 6230SOL    HW130149   3.267   2.675   1.973 -1.4555 -0.4394 -1.3919
 6230SOL    HW230150   3.264   2.671   1.824  0.9753  0.0286 -0.8463
 6231SOL     OW30151   0.284   4.335   4.503  0.5747 -0.1663 -0.2605
 6231SOL    HW130152   0.284   4.380   4.588 -1.2933 -0.6178 -0.0040
 6231SOL    HW230153   0.188   4.340   4.508  0.4968  0.3616 -2.1788
 6232SOL     OW30154   2.286   4.295  11.814  0.1685 -0.3604  0.0310
 6232SOL    HW130155   2.231   4.253  11.880  0.4297 -0.1813  0.3675
 6232SOL    HW230156   2.367   4.250  11.836 -0.6394 -1.4417  0.8037
 6233SOL     OW30157   0.948   0.103  12.571  0.1625  0.0694 -0.1328
 6233SOL    HW130158   0.919   0.153  12.495 -2.9149  3.0039  2.9846
 6233SOL    HW230159   0.882   0.035  12.581  0.5609 -0.1064  1.2582
 6234SOL     OW30160   0.550   3.377   8.373 -0.3739 -0.3163 -0.7688
 6234SOL    HW130161   0.579   3.389   8.463 -0.6280  0.2102 -0.7623
 6234SOL    HW230162   0.635   3.376   8.328  0.2431  0.6234  0.3938
 6235SOL     OW30163   4.401   3.947   5.017  0.1802  0.3248  0.0309
 6235SOL    HW130164   4.337   3.972   4.951 -0.4455 -3.1283 -0.6525
 6235SOL    HW230165   4.408   3.851   5.017 -0.8354  0.2565 -0.8950
 6236SOL     OW30166   0.439   0.746  16.167 -1.1311 -0.0031  0.0113
 6236SOL    HW130167   0.445   0.842  16.164 -0.3621  0.0046  1.5202
 6236SOL    HW230168   0.375   0.727  16.235 -2.8602  1.0513 -1.3290
 6237SOL     OW30169   1.142   2.642  15.995 -0.5686  0.9665  0.4230
 6237SOL    HW130170   1.093   2.724  15.994  0.0715  1.3500  0.6202
 6237SOL    HW230171   1.138   2.622  16.088  0.6791 -0.6347  0.1518
 6238SOL     OW30172   3.143   2.009   9.668 -0.3508  0.0048 -0.2482
 6238SOL    HW130173   3.054   2.012   9.633 -0.6540 -0.1148  0.5129
 6238SOL    HW230174   3.146   2.088   9.724 -1.5176 -0.0143 -0.1747
 6239SOL     OW30175   1.087   1.732   4.903 -0.0352  0.2137  0.0889
 6239SOL    HW130176   1.177   1.707   4.920 -0.0385 -1.4809 -2.2624
 6239SOL    HW230177   1.080   1.801   4.968  1.2065 -0.6146  1.0958
 6240SOL     OW30178   3.317   3.514   0.419  0.3584 -0.3221 -0.5129
 6240SOL    HW130179   3.320   3.602   0.382 -1.6053 -0.2141 -0.4325
 6240SOL    HW230180   3.258   3.469   0.358 -0.9373  0.5178  0.1410
 6241SOL     OW30181   3.450   2.993   6.164  0.1866  0.1888 -0.0255
 6241SOL    HW130182   3.431   2.905   6.197  2.4148  0.2407  1.4164
 6241SOL    HW230183   3.405   2.977   6.081 -0.8632  0.6719  0.4610
 6242SOL     OW30184   1.333   4.269   1.195  0.4414 -0.5864  0.4746
 6242SOL    HW130185   1.325   4.243   1.287 -1.4132  1.9659  1.0322
 6242SOL    HW230186   1.252   4.225   1.169 -0.6023  0.8615  1.2945
 6243SOL     OW30187   1.598   4.537   5.512 -0.3400 -0.5166  0.2668
 6243SOL    HW130188   1.677   4.575   5.475 -0.6667  0.1820  0.2884
 6243SOL    HW230189   1.593   4.455   5.463  2.3270  0.3557 -1.4945
 6244SOL     OW30190   0.748   3.477   5.488  0.3232  0.2988  0.1069
 6244SOL    HW130191   0.758   3.389   5.451  0.6305 -0.0846  1.1153
 6244SOL    HW230192   0.736   3.536   5.413  2.2171 -1.8476 -1.9151
 6245SOL     OW30193   4.607   4.248   9.445 -0.2767 -0.2128 -0.0490
 6245SOL    HW130194   4.564   4.201   9.516  0.2629  1.6287  1.4908
 6245SOL    HW230195   4.621   4.334   9.484  1.5907 -0.1415 -0.8941
 6246SOL     OW30196   3.982   4.106   4.786  0.1560 -0.4558 -0.6312
 6246SOL    HW130197   3.904   4.109   4.730 -0.9351  1.3441  0.9926
 6246SOL    HW230198   3.974   4.190   4.833 -2.2222 -1.3276  0.5361
 6247SOL     OW30199   2.943   3.546   5.482 -0.0749 -0.3156 -0.1475
 6247SOL    HW130200   2.985   3.532   5.397 -1.8773 -0.6013 -1.0081
 6247SOL    HW230201   2.997   3.489   5.536 -2.0743 -0.6526  1.4857
 6248SOL     OW30202   1.026   4.031   1.671 -0.0307 -0.2500  0.8581
 6248SOL    HW130203   1.034   3.936   1.681 -1.5070 -0.3507  1.1614
 6248SOL    HW230204   0.960   4.048   1.603 -0.3763 -0.5703  1.1091
 6249SOL     OW30205   0.197   2.053   7.408 -0.0380 -0.1019 -0.5204
 6249SOL    HW130206   0.281   2.011   7.425  0.7480  1.0671 -1.5045
 6249SOL    HW230207   0.194   2.039   7.313 -0.0122 -1.4643 -0.3210
 6250SOL     OW30208   3.379   3.497   2.924  0.5723  0.0781 -0.1696
 6250SOL    HW130209   3.319   3.467   2.992  1.3434 -0.0252  0.4678
 6250SOL    HW230210   3.318   3.480   2.853  2.0904  0.0461 -1.4662
 6251SOL     OW30211   3.363   3.744  17.499 -0.4845 -0.0486  0.0196
 6251SOL    HW130212   3.437   3.684  17.496 -0.5274 -0.1740  1.3753
 6251SOL    HW230213   3.354   3.766  17.406 -3.0169 -0.9893  0.0476
 6252SOL     OW30214   2.426   1.983   1.070  0.2083  0.2834 -0.4553
 6252SOL    HW130215   2.441   2.002   0.977  0.2280 -3.1420 -1.1398
 6252SOL    HW230216   2.426   1.887   1.071 -1.1110  0.2713 -0.6906
 6253SOL     OW30217   3.499   4.038  16.515 -0.5097  0.0205 -0.6304
 6253SOL    HW130218   3.409   4.070  16.526 -0.3964  0.1820 -0.1567
 6253SOL    HW230219   3.493   3.986  16.435  2.9365 -1.8998  0.3413
 6254SOL     OW30220   0.806   3.888  17.318 -0.0478 -0.3657  0.4436
 6254SOL    HW130221   0.722   3.884  17.362 -0.1497 -1.6524  0.1119
 6254SOL    HW230222   0.856   3.955  17.366  1.3291 -0.1908 -1.2175
 6255SOL     OW30223   1.065   3.730   2.371  0.5022  0.1332  0.4555
 6255SOL    HW130224   1.054   3.654   2.314 -0.5524  1.9299 -1.7496
 6255SOL    HW230225   0.976   3.765   2.366  0.5819 -0.0364 -2.2930
 6256SOL     OW30226   1.824   4.509   2.946  0.9148 -0.2932  0.3665
 6256SOL    HW130227   1.796   4.443   2.881  0.5764 -0.6480  0.8751
 6256SOL    HW230228   1.917   4.498   2.927  0.8298 -0.1260 -0.1620
 6257SOL     OW30229   3.375   2.728   8.707  0.1646 -0.0075 -0.2651
 6257SOL    HW130230   3.308   2.766   8.763  1.7128  1.1110  0.8528
 6257SOL    HW230231   3.389   2.808   8.656  0.7852 -1.3241 -2.1957
 6258SOL     OW30232   1.320   3.435   4.787 -0.0320 -0.0332  0.5197
 6258SOL    HW130233   1.310   3.434   4.882 -0.7798  0.6776  0.4456
 6258SOL    HW230234   1.415   3.424   4.785 -0.1203 -0.8373  0.5868
 6259SOL     OW30235   3.133   2.374  17.547 -0.0729  0.1728 -0.4742
 6259SOL    HW130236   3.189   2.301  17.575  0.4587  0.6403 -0.3140
 6259SOL    HW230237   3.196   2.443  17.525 -0.9666  1.2112  0.2461
 6260SOL     OW30238   1.502   4.482   1.296  0.1994  0.4951 -0.3715
 6260SOL    HW130239   1.430   4.429   1.263  0.9835  1.5819 -3.8879
 6260SOL    HW230240   1.482   4.572   1.269 -0.4254  0.5736  0.3575
 6261SOL     OW30241   1.116   0.134   6.695 -0.2280 -0.7429 -0.4118
 6261SOL    HW130242   1.050   0.066   6.703 -0.6231 -0.4558 -1.2576
 6261SOL    HW230243   1.159   0.106   6.614 -0.9485  0.6725 -1.2719
 6262SOL     OW30244   0.146   1.787   8.943  0.0927  0.0345 -0.3730
 6262SOL    HW130245   0.059   1.828   8.946  0.6862  1.2788  0.0890
 6262SOL    HW230246   0.147   1.705   8.993  0.1333  0.7861  0.8789
 6263SOL     OW30247   2.314   4.203   4.871  0.0004 -0.0774  0.4216
 6263SOL    HW130248   2.232   4.244   4.899 -0.2606 -1.4437  1.6201
 6263SOL    HW230249   2.281   4.164   4.791  4.0823 -0.4199 -1.1200
 6264SOL     OW30250   4.044   4.187   6.252 -0.1784 -0.0022  0.2767
 6264SOL    HW130251   4.085   4.263   6.294  1.7968  0.1229 -1.8901
 6264SOL    HW230252   3.958   4.217   6.220  0.0989  1.3159  0.7744
 6265SOL     OW30253   3.981   2.567  13.148  0.1150 -0.2664  0.0889
 6265SOL    HW130254   4.039   2.598  13.217  2.4978 -0.6168 -1.7556
 6265SOL    HW230255   4.036   2.579  13.071 -1.0870  1.2860 -0.5376
 6266SOL     OW30256   2.031   2.607   8.343  0.2186 -0.1180 -0.2023
 6266SOL    HW130257   2.015   2.701   8.340  1.4826  0.0925 -0.5075
 6266SOL    HW230258   1.991   2.586   8.258  1.1391  0.2604 -0.7309
 6267SOL     OW30259   4.277   0.950   3.557 -0.0580  0.4960 -0.1106
 6267SOL    HW130260   4.246   1.038   3.532 -1.0916  0.4508  1.0018
 6267SOL    HW230261   4.216   0.914   3.621  0.5707 -1.3263 -0.5474
 6268SOL     OW30262   3.281   2.994  11.285 -0.1679  0.0303  0.1498
 6268SOL    HW130263   3.325   2.921  11.243  0.1729  0.1806  0.2497
 6268SOL    HW230264   3.231   3.019  11.207  2.6276  0.6484 -1.4420
 6269SOL     OW30265   4.197   4.602   3.925  0.0648  0.6627 -0.2306
 6269SOL    HW130266   4.279   4.639   3.959 -0.2249 -0.2113  1.4230
 6269SOL    HW230267   4.136   4.639   3.988 -0.3008 -0.5805  0.1448
 6270SOL     OW30268   2.762   1.523   8.975 -0.2357  0.4594  0.0271
 6270SOL    HW130269   2.829   1.519   9.043  0.1495 -1.3909 -0.4618
 6270SOL    HW230270   2.769   1.614   8.945 -2.0209  0.2644 -0.9716
 6271SOL     OW30271   3.539   4.062  17.161  0.2812 -0.5863 -0.1375
 6271SOL    HW130272   3.503   4.116  17.232 -1.2852 -3.9238  1.5954
 6271SOL    HW230273   3.533   4.115  17.082  1.0174 -0.6594 -0.2432
 6272SOL     OW30274   0.929   3.873   8.769 -0.8957 -0.2906 -0.7524
 6272SOL    HW130275   0.893   3.938   8.829 -1.3383 -2.7847  1.7316
 6272SOL    HW230276   1.022   3.870   8.795 -1.6322  0.1266  1.9595
 6273SOL     OW30277   1.018   4.263  10.120  0.0879  0.0649 -0.0273
 6273SOL    HW130278   1.089   4.227  10.174  1.4127  0.0418 -1.7512
 6273SOL    HW230279   1.037   4.356  10.129 -1.2509  0.2553  0.7428
 6274SOL     OW30280   4.702   4.436  11.287  0.8191  0.1481  0.1794
 6274SOL    HW130281   4.652   4.473  11.359  2.1450  1.1910  0.5655
 6274SOL    HW230282   4.645   4.369  11.248  0.7120  1.2305 -1.5069
 6275SOL     OW30283   4.595   0.203   4.960 -0.0753 -0.2576 -0.2083
 6275SOL    HW130284   4.582   0.109   4.978  0.5844 -0.0048  1.5906
 6275SOL    HW230285   4.689   0.217   4.968 -0.1259 -1.1790  2.0390
 6276SOL     OW30286   0.375   1.937  10.699 -0.0664  0.9839  0.8346
 6276SOL    HW130287   0.306   1.974  10.644  0.3579  0.0613 -0.3224
 6276SOL    HW230288   0.453   1.983  10.667  1.6764 -1.7194  1.1806
 6277SOL     OW30289   0.598   0.913   0.333  0.0987 -0.2232 -0.7266
 6277SOL    HW130290   0.558   0.954   0.410 -1.9504 -0.5827 -1.5886
 6277SOL    HW230291   0.677   0.964   0.319  0.1732  0.0685  0.7159
 6278SOL     OW30292   4.606   2.481   4.852 -0.2382 -0.1376  0.0198
 6278SOL    HW130293   4.633   2.515   4.767 -0.6954  0.5685  0.1546
 6278SOL    HW230294   4.681   2.514   4.901 -1.5781 -1.1722  2.7510
 6279SOL     OW30295   1.655   1.464  13.642  0.4757  0.2869 -0.3840
 6279SOL    HW130296   1.645   1.373  13.666  0.3988  0.8136  1.5369
 6279SOL    HW230297   1.705   1.450  13.561  2.2154  0.9785  0.5587
 6280SOL     OW30298   1.965   3.505   2.868 -0.5785 -0.1667 -0.0342
 6280SOL    HW130299   2.010   3.428   2.835 -0.0691  0.4194 -0.7061
 6280SOL    HW230300   2.029   3.574   2.847 -0.6099  0.0841  0.6928
 6281SOL     OW30301   3.019   0.776  10.520 -0.2194  0.5333  0.0234
 6281SOL    HW130302   3.111   0.764  10.545  0.0828 -0.2294 -1.4504
 6281SOL    HW230303   3.001   0.846  10.582  2.0936  1.3173 -0.1982
 6282SOL     OW30304   1.011   3.900  10.051 -0.1883 -0.4191 -0.4150
 6282SOL    HW130305   0.977   3.974  10.001  1.4646  1.5062  1.2833
 6282SOL    HW230306   0.931   3.880  10.098 -0.4835 -3.4138 -2.2093
 6283SOL     OW30307   1.982   3.809   5.057 -0.2011 -0.2546  0.1755
 6283SOL    HW130308   1.969   3.722   5.019 -2.3754  0.5044 -0.8262
 6283SOL    HW230309   1.919   3.865   5.011  0.5715 -0.1555 -0.7755
 6284SOL     OW30310   2.523   3.402  16.777  0.7799  0.0861  0.7723
 6284SOL    HW130311   2.540   3.495  16.785 -1.3011  0.3207  2.2662
 6284SOL    HW230312   2.610   3.365  16.758  0.3839  0.2266 -1.3591
 6285SOL     OW30313   0.593   1.157   3.867  0.1850 -0.1509 -0.4814
 6285SOL    HW130314   0.619   1.072   3.831 -0.1423  0.2787 -1.7497
 6285SOL    HW230315   0.674   1.206   3.876 -0.8346  1.5463 -0.3763
 6286SOL     OW30316   0.175   2.695   8.909  0.1129  0.0879 -0.3831
 6286SOL    HW130317   0.157   2.601   8.913 -0.4499  0.1436 -1.4832
 6286SOL    HW230318   0.266   2.693   8.878  1.0056  1.0263  2.1670
 6287SOL     OW30319   3.324   4.264   5.881  0.0428  0.0444  0.5763
 6287SOL    HW130320   3.282   4.250   5.966  1.1017 -2.8283  0.6260
 6287SOL    HW230321   3.403   4.212   5.893  1.1352  0.8151 -3.0347
 6288SOL     OW30322   0.903   1.476   8.479  0.2700 -0.1513 -0.3419
 6288SOL    HW130323   0.977   1.505   8.426  1.1909  3.2724  2.8011
 6288SOL    HW230324   0.916   1.459   8.572  0.8274  1.2884 -0.1600
 6289SOL     OW30325   3.307   3.874   3.032 -0.5859 -0.4956 -0.4225
 6289SOL    HW130326   3.393   3.855   3.070 -0.1584  0.6339 -0.8190
 6289SOL    HW230327   3.282   3.953   3.079 -1.0041  0.2837 -1.9503
 6290SOL     OW30328   1.564   2.944  13.231  0.0424 -0.1724 -0.5143
 6290SOL    HW130329   1.593   2.863  13.272  0.7439  0.1320 -0.4115
 6290SOL    HW230330   1.508   2.905  13.163 -0.2434 -0.9333  0.1641
 6291SOL     OW30331   1.162   2.450   3.950 -0.2962 -0.0137 -0.3617
 6291SOL    HW130332   1.103   2.375   3.940  1.5446 -1.4920 -0.0679
 6291SOL    HW230333   1.176   2.485   3.862 -1.8837 -1.7583 -1.3169
 6292SOL     OW30334   3.224   1.925  14.298 -0.3624  0.2188  0.1214
 6292SOL    HW130335   3.154   1.861  14.291  0.4926 -0.8074  0.9999
 6292SOL    HW230336   3.300   1.870  14.315  0.1605  0.4030 -1.7122
 6293SOL     OW30337   1.629   4.368  10.278 -0.0689 -0.3375 -0.4105
 6293SOL    HW130338   1.600   4.455  10.249  0.1004 -1.1630 -3.0515
 6293SOL    HW230339   1.623   4.361  10.373 -1.5549  1.3751 -0.3858
 6294SOL     OW30340   1.874   3.274   3.538  0.3933  0.6346  0.0020
 6294SOL    HW130341   1.877   3.358   3.493  1.0531  0.7668  0.2904
 6294SOL    HW230342   1.963   3.239   3.544 -0.6958 -2.3401 -1.1803
 6295SOL     OW30343   0.468   1.438   8.603  0.1523 -0.2491 -0.4060
 6295SOL    HW130344   0.464   1.467   8.512  1.9366 -0.5970 -0.6087
 6295SOL    HW230345   0.529   1.364   8.599  2.6377  1.8135 -0.5112
 6296SOL     OW30346   2.747   1.050   8.016 -0.3898 -0.5332  0.0529
 6296SOL    HW130347   2.743   0.954   8.017  0.5624 -0.5327  2.4046
 6296SOL    HW230348   2.681   1.081   8.078  0.1790 -1.3179  1.0494
 6297SOL     OW30349   4.690   4.583   7.809 -0.0001  0.1656 -0.0566
 6297SOL    HW130350   4.672   4.554   7.720  0.8187  1.1048 -0.5276
 6297SOL    HW230351   0.019   4.658   7.785 -2.0208  1.9336  0.9191
 6298SOL     OW30352   4.233   4.336   6.917  0.1860 -0.2151  0.2025
 6298SOL    HW130353   4.163   4.345   6.981 -1.2539  3.2482 -1.8466
 6298SOL    HW230354   4.212   4.408   6.857  0.2947 -0.3696 -0.0212
 6299SOL     OW30355   1.511   1.660   5.667  0.0823 -0.0479  0.0360
 6299SOL    HW130356   1.586   1.648   5.609 -0.1069 -1.6140  0.1061
 6299SOL    HW230357   1.547   1.708   5.741  2.2119 -1.8613  0.1774
 6300SOL     OW30358   4.008   2.590   1.731  0.7172 -0.9637  0.4127
 6300SOL    HW130359   4.000   2.639   1.650  1.7987  2.5794  2.4340
 6300SOL    HW230360   4.098   2.557   1.723  1.9300  1.7756  2.8037
 6301SOL     OW30361   4.055   3.887   2.671  0.0626  0.2050 -0.5472
 6301SOL    HW130362   4.080   3.799   2.698  0.2969  0.7252  0.9427
 6301SOL    HW230363   3.960   3.890   2.656  0.2214  0.5244 -1.5259
 6302SOL     OW30364   1.594   4.147   2.285  0.2698  0.0516  0.1361
 6302SOL    HW130365   1.675   4.199   2.285  1.2683 -1.4848 -1.2347
 6302SOL    HW230366   1.614   4.089   2.358  3.0506 -0.9463 -1.3940
 6303SOL     OW30367   0.091   4.535   2.032  0.5071  0.1739  0.0900
 6303SOL    HW130368   0.102   4.502   1.943 -1.0066 -0.1670  0.0241
 6303SOL    HW230369   0.030   4.603   2.003  1.8062  1.5026  0.4735
 6304SOL     OW30370   1.232   0.567  13.474  0.3350 -0.2641 -0.2389
 6304SOL    HW130371   1.250   0.571  13.568 -0.1850  0.2172 -0.1584
 6304SOL    HW230372   1.203   0.478  13.456 -0.8008  0.1863 -0.6697
 6305SOL     OW30373   1.744   2.268   8.365 -0.0199 -0.3853  0.2036
 6305SOL    HW130374   1.781   2.317   8.439  0.6559 -1.2110  0.4103
 6305SOL    HW230375   1.828   2.239   8.330 -0.8197 -1.9875 -0.3566
 6306SOL     OW30376   0.605   3.371   2.549 -0.0693 -0.2622 -0.0901
 6306SOL    HW130377   0.670   3.439   2.568  0.4846 -0.8382  0.1160
 6306SOL    HW230378   0.610   3.360   2.454  2.5340 -0.9758  0.1193
 6307SOL     OW30379   2.762   4.364   9.076 -0.8004  0.6044  0.4790
 6307SOL    HW130380   2.683   4.361   9.130 -0.3869 -0.1607  1.0373
 6307SOL    HW230381   2.765   4.446   9.028 -2.5209 -0.2751 -1.1624
 6308SOL     OW30382   1.641   4.197   6.339  0.8454  0.3841 -0.0020
 6308SOL    HW130383   1.656   4.112   6.296 -1.2477 -0.1844  0.3661
 6308SOL    HW230384   1.673   4.162   6.422 -2.6358 -0.0017  1.1873
 6309SOL     OW30385   2.167   2.312  15.273 -0.1533  0.1736  0.3868
 6309SOL    HW130386   2.143   2.387  15.328 -0.4138  1.5295 -1.5757
 6309SOL    HW230387   2.148   2.241  15.334  1.5477 -1.4919 -1.0256
 6310SOL     OW30388   1.476   0.960   7.805 -0.8451  0.0377 -0.4859
 6310SOL    HW130389   1.388   0.964   7.843 -0.7026 -0.9352 -0.0353
 6310SOL    HW230390   1.485   0.865   7.793 -2.5310 -0.0715 -0.9706
 6311SOL     OW30391   0.945   1.897   9.827  0.2860  0.0640  0.6283
 6311SOL    HW130392   0.919   1.812   9.861 -2.1601  0.9433  0.9692
 6311SOL    HW230393   1.038   1.885   9.808 -0.2385  0.5878 -2.3475
 6312SOL     OW30394   2.143   4.117   7.311 -0.2856  0.4355  0.4305
 6312SOL    HW130395   2.218   4.105   7.369 -1.0631  2.9214  1.9472
 6312SOL    HW230396   2.163   4.201   7.270  0.9478  0.4799  1.1478
 6313SOL     OW30397   1.179   1.241   2.594  0.2402  0.1548  0.0985
 6313SOL    HW130398   1.158   1.234   2.500 -1.4059 -2.0793  0.6429
 6313SOL    HW230399   1.208   1.150   2.600 -0.9438 -0.3441 -1.5514
 6314SOL     OW30400   3.613   0.532  14.891  0.8686 -0.6504  0.3342
 6314SOL    HW130401   3.675   0.462  14.866  0.1048 -1.0810 -0.3530
 6314SOL    HW230402   3.565   0.537  14.809 -0.5725  1.4585  1.3081
 6315SOL     OW30403   2.917   0.371  12.319  0.2056 -0.1848  0.1266
 6315SOL    HW130404   2.970   0.310  12.370 -1.8326 -0.5438  1.7915
 6315SOL    HW230405   2.827   0.369  12.351  0.7359 -0.3119  1.6468
 6316SOL     OW30406   2.950   2.881   0.679 -0.8841 -0.5968  0.1371
 6316SOL    HW130407   2.882   2.944   0.654 -1.6676 -2.0242 -1.3973
 6316SOL    HW230408   2.979   2.835   0.600  0.7682 -0.9901  0.9647
 6317SOL     OW30409   3.691   1.697   2.115  0.3165  0.4133 -0.1689
 6317SOL    HW130410   3.780   1.664   2.108  0.1170  0.1032 -1.3221
 6317SOL    HW230411   3.654   1.640   2.183 -1.0491  0.5786 -0.7660
 6318SOL     OW30412   2.297   1.122   4.360 -0.1349 -0.1356  0.4708
 6318SOL    HW130413   2.246   1.113   4.279  1.4538  0.6974 -0.6087
 6318SOL    HW230414   2.286   1.215   4.376  1.3547  0.0311  0.5326
 6319SOL     OW30415   0.431   2.765   5.442  0.6780  0.1949 -0.6541
 6319SOL    HW130416   0.462   2.679   5.411 -1.0375 -0.5801 -0.1651
 6319SOL    HW230417   0.390   2.805   5.365  0.4826 -1.2171 -1.2769
 6320SOL     OW30418   4.586   0.292   2.062 -0.1890 -0.2167  0.2234
 6320SOL    HW130419   4.656   0.239   2.100  0.4597 -0.2494 -1.0129
 6320SOL    HW230420   4.514   0.230   2.063 -0.1434 -0.2877 -1.0990
 6321SOL     OW30421   3.427   3.926   4.319  0.1933 -0.2070 -0.0437
 6321SOL    HW130422   3.420   3.959   4.230 -0.0562 -0.9500 -0.2960
 6321SOL    HW230423   3.331   3.921   4.324  0.2822 -3.2400 -1.5820
 6322SOL     OW30424   4.400   4.135   3.929 -0.2768  0.1453 -0.0303
 6322SOL    HW130425   4.483   4.181   3.910 -0.2168  0.4000  0.8301
 6322SOL    HW230426   4.435   4.047   3.916 -2.7139 -1.3260  3.2634
 6323SOL     OW30427   1.359   0.823  13.913 -0.3349 -0.2134 -0.2456
 6323SOL    HW130428   1.342   0.812  14.007  1.1792 -0.8703 -0.0486
 6323SOL    HW230429   1.436   0.879  13.910 -1.1109  0.8855  0.2030
 6324SOL     OW30430   1.206   3.335   3.091 -0.2995  0.2606  0.3352
 6324SOL    HW130431   1.185   3.242   3.091  0.0878  0.1717 -1.6147
 6324SOL    HW230432   1.291   3.338   3.135 -0.3081  0.5522  0.3304
 6325SOL     OW30433   1.693   3.490   2.877  0.5142  0.5894  0.2899
 6325SOL    HW130434   1.715   3.466   2.967 -0.5901 -0.3690  0.2971
 6325SOL    HW230435   1.786   3.500   2.857  0.2771  1.7809 -0.2621
 6326SOL     OW30436   4.097   3.976   8.377 -0.1648 -0.5863 -0.3906
 6326SOL    HW130437   4.024   3.919   8.352 -0.1120  0.3087 -2.5891
 6326SOL    HW230438   4.076   4.060   8.336  0.8788 -0.1623 -0.0559
 6327SOL     OW30439   2.506   2.861   1.652 -0.3152 -0.3057 -0.9075
 6327SOL    HW130440   2.460   2.783   1.683  1.2368 -0.8212  0.0286
 6327SOL    HW230441   2.527   2.836   1.562  1.3596  2.7119 -1.3692
 6328SOL     OW30442   3.921   3.355  17.534 -0.0569  0.0758  0.3108
 6328SOL    HW130443   3.930   3.303  17.454  1.4786  2.1263 -0.8394
 6328SOL    HW230444   4.005   3.398  17.552 -1.3578  2.9536 -0.5062
 6329SOL     OW30445   4.461   0.763  13.881 -0.4038  0.3106  0.3095
 6329SOL    HW130446   4.490   0.855  13.879 -1.1075  0.5420  0.5119
 6329SOL    HW230447   4.366   0.775  13.880 -0.6938 -1.9120  1.7544
 6330SOL     OW30448   2.378   0.290   4.205  0.5066  0.4760  0.2072
 6330SOL    HW130449   2.290   0.287   4.168 -0.0632 -0.1412  1.6080
 6330SOL    HW230450   2.417   0.319   4.123 -1.4047 -0.9051 -1.1706
 6331SOL     OW30451   2.128   1.033   2.630  0.1308  0.1121 -0.3234
 6331SOL    HW130452   2.101   0.955   2.677 -1.1582  0.1628 -0.9989
 6331SOL    HW230453   2.200   1.000   2.576  0.1132 -1.7951  0.8253
 6332SOL     OW30454   1.845   2.608   2.573  0.2805 -0.4708 -0.4219
 6332SOL    HW130455   1.905   2.683   2.572  0.3045 -0.5002 -0.9951
 6332SOL    HW230456   1.764   2.654   2.549 -1.4727 -3.8601 -0.9822
 6333SOL     OW30457   0.961   3.240  13.587  0.3467 -0.3677 -0.2358
 6333SOL    HW130458   1.038   3.187  13.568  0.3118 -0.3564 -0.4050
 6333SOL    HW230459   0.994   3.306  13.526  2.8960 -1.1219  0.3265
 6334SOL     OW30460   2.270   3.919   3.484  0.1049  0.7672  0.4205
 6334SOL    HW130461   2.313   4.000   3.459  0.3309  0.3337 -0.6041
 6334SOL    HW230462   2.217   3.962   3.551  0.8736  0.9558  0.9066
 6335SOL     OW30463   2.210   4.099  16.911  0.0796 -0.4464  0.0916
 6335SOL    HW130464   2.210   4.006  16.935 -2.2706 -0.3284  0.4827
 6335SOL    HW230465   2.233   4.087  16.819 -0.7055 -0.1060 -0.1398
 6336SOL     OW30466   1.485   3.694  12.773 -0.0364 -0.1380 -0.3412
 6336SOL    HW130467   1.575   3.722  12.789  0.5536 -1.9567 -0.4820
 6336SOL    HW230468   1.496   3.599  12.766 -2.8698 -0.4479 -0.7225
 6337SOL     OW30469   3.563   3.192   2.496  0.1754  0.5281  0.5968
 6337SOL    HW130470   3.603   3.279   2.487  1.4343 -0.1733 -0.6256
 6337SOL    HW230471   3.469   3.212   2.499 -0.2911 -1.6130  0.0797
 6338SOL     OW30472   0.982   2.513  15.812  0.3402 -0.2193  0.3132
 6338SOL    HW130473   1.044   2.554  15.872  2.0508  0.0447 -1.6742
 6338SOL    HW230474   0.970   2.435  15.866 -2.3389 -1.6912 -2.3977
 6339SOL     OW30475   0.537   0.679   6.215 -0.9300  0.0802 -0.1474
 6339SOL    HW130476   0.593   0.741   6.261  1.8099 -2.6736  0.2315
 6339SOL    HW230477   0.446   0.682   6.246 -0.8468 -2.3650  0.3712
 6340SOL     OW30478   4.174   0.675   5.634  0.0422 -0.0697  1.2178
 6340SOL    HW130479   4.120   0.692   5.556  0.0123 -2.7196  0.6798
 6340SOL    HW230480   4.202   0.584   5.632  1.3564  0.3323  1.7749
 6341SOL     OW30481   1.053   4.122   4.804 -0.1701  0.0189  0.1304
 6341SOL    HW130482   1.100   4.058   4.750  3.0806  0.8328  2.0341
 6341SOL    HW230483   1.115   4.135   4.875 -1.6629 -0.1777  1.4688
 6342SOL     OW30484   1.508   0.379   1.646 -0.0490 -0.1126 -0.2615
 6342SOL    HW130485   1.468   0.318   1.583  3.1378 -0.9212 -1.4915
 6342SOL    HW230486   1.572   0.430   1.597 -0.8404 -0.7198 -1.9235
 6343SOL     OW30487   1.744   0.383   8.756  0.4256  0.5298 -0.0280
 6343SOL    HW130488   1.649   0.370   8.758  0.6634 -1.0996  0.4766
 6343SOL    HW230489   1.767   0.370   8.664 -1.0909  1.1191 -0.4851
 6344SOL     OW30490   4.715   4.328   4.549  0.1579  0.7488 -0.1034
 6344SOL    HW130491   4.701   4.406   4.494 -0.0142 -0.5556 -1.9067
 6344SOL    HW230492   4.679   4.264   4.489 -0.5302  2.1781 -1.2251
 6345SOL     OW30493   0.923   0.144   0.179  0.2722 -0.3209  0.2932
 6345SOL    HW130494   0.914   0.135   0.274 -0.0923  0.1664  0.3022
 6345SOL    HW230495   0.831   0.137   0.155  0.2510 -0.3735  0.3912
 6346SOL     OW30496   3.754   2.936  16.349 -0.0568  0.4015  0.3422
 6346SOL    HW130497   3.785   2.851  16.318  0.2749  0.5339  0.3052
 6346SOL    HW230498   3.812   2.995  16.300  1.0692 -0.3993  0.7069
 6347SOL     OW30499   1.042   0.536   5.939  0.1198 -0.2564 -0.5064
 6347SOL    HW130500   1.092   0.488   6.005 -0.3258 -0.1106 -0.0649
 6347SOL    HW230501   1.020   0.460   5.885  0.4412 -0.1516 -0.7798
 6348SOL     OW30502   1.107   3.110   5.961  0.0738 -0.1191  0.0775
 6348SOL    HW130503   1.102   3.021   5.998  2.1068  0.2863  1.3081
 6348SOL    HW230504   1.079   3.158   6.039  0.2777  0.1485 -0.0165
 6349SOL     OW30505   3.998   1.284  16.935 -0.1855 -0.4152  0.6425
 6349SOL    HW130506   3.919   1.243  16.970  0.9708 -1.1244  2.4477
 6349SOL    HW230507   3.991   1.371  16.973 -0.7798 -0.6110  0.9860
 6350SOL     OW30508   2.249   0.449  16.529 -0.4902  0.1791  0.4161
 6350SOL    HW130509   2.211   0.381  16.584 -0.3057 -1.0099 -0.9238
 6350SOL    HW230510   2.166   0.477  16.492 -0.8016  1.1054  1.8217
 6351SOL     OW30511   2.703   1.959   1.054 -0.2539  0.1490 -0.6415
 6351SOL    HW130512   2.646   1.992   1.123 -1.0550 -1.7264 -0.4214
 6351SOL    HW230513   2.650   1.962   0.974  1.5660  0.8784 -1.8371
 6352SOL     OW30514   1.199   2.458   6.537 -0.3033 -0.2588 -0.1330
 6352SOL    HW130515   1.171   2.500   6.619 -1.0660  0.4720 -0.7649
 6352SOL    HW230516   1.151   2.375   6.548 -1.0296 -0.1061 -2.1268
 6353SOL     OW30517   0.879   0.780   4.940  0.1433 -0.2782  0.4459
 6353SOL    HW130518   0.871   0.694   4.982 -2.3154  0.3399  1.2740
 6353SOL    HW230519   0.906   0.749   4.854  1.3030 -2.2791  1.5192
 6354SOL     OW30520   1.288   0.439   9.950  0.4097  0.3864  0.5472
 6354SOL    HW130521   1.195   0.418   9.960  0.5157 -0.7757 -0.8048
 6354SOL    HW230522   1.286   0.503  10.021 -1.0129  1.3565 -0.3631
 6355SOL     OW30523   2.106   2.475  17.490 -0.3716  0.3707  0.1266
 6355SOL    HW130524   2.061   2.481  17.574 -0.9802  2.8905 -0.3838
 6355SOL    HW230525   2.151   2.391  17.490  0.0727  0.6033  1.3814
 6356SOL     OW30526   2.394   1.488  13.272  0.4205  0.0579  0.7797
 6356SOL    HW130527   2.462   1.422  13.281  1.0635  0.0861 -3.9314
 6356SOL    HW230528   2.411   1.536  13.353  0.7548  0.0442  0.7185
 6357SOL     OW30529   0.331   0.735  14.645  0.3490 -0.1167 -0.0053
 6357SOL    HW130530   0.342   0.671  14.574 -2.5619 -1.0430  0.3945
 6357SOL    HW230531   0.297   0.815  14.606 -1.1571 -0.5879  0.3579
 6358SOL     OW30532   3.366   0.668  17.234 -0.2076 -0.0831 -0.2612
 6358SOL    HW130533   3.285   0.617  17.232  0.0879 -0.4589 -2.7367
 6358SOL    HW230534   3.430   0.604  17.264 -1.5124 -0.8371  0.9126
 6359SOL     OW30535   4.591   3.292  15.133  0.3992  0.0899  0.2438
 6359SOL    HW130536   4.537   3.252  15.201  2.1960  1.4710  2.4816
 6359SOL    HW230537   4.607   3.377  15.174 -0.2590  1.3015 -1.9702
 6360SOL     OW30538   2.403   1.286   8.407 -0.0146 -0.0689  0.7374
 6360SOL    HW130539   2.360   1.202   8.423  1.3339 -0.6239  1.4874
 6360SOL    HW230540   2.376   1.332   8.486 -3.1555  0.7535 -0.8286
 6361SOL     OW30541   1.191   0.519   5.494 -0.5587  0.5344  0.2246
 6361SOL    HW130542   1.261   0.470   5.451 -0.2869 -0.9954  2.3818
 6361SOL    HW230543   1.201   0.607   5.456  1.7745  0.1028 -0.2108
 6362SOL     OW30544   0.307   0.042   2.444 -0.6126 -0.1989 -0.3039
 6362SOL    HW130545   0.340   0.047   2.354 -0.7416  1.2230 -0.2715
 6362SOL    HW230546   0.213   0.020   2.448 -0.6810 -0.5520 -3.4105
 6363SOL     OW30547   0.879   2.846   3.537  0.1081  0.3546 -0.2827
 6363SOL    HW130548   0.904   2.860   3.446  0.9520  1.6452  0.1418
 6363SOL    HW230549   0.820   2.774   3.518  1.2443 -0.3839 -1.0489
 6364SOL     OW30550   1.706   3.695   0.920  0.3316  0.1446  0.3320
 6364SOL    HW130551   1.750   3.611   0.936 -0.6419 -0.0936  1.7850
 6364SOL    HW230552   1.744   3.761   0.978 -2.3218 -1.0942  3.5518
 6365SOL     OW30553   0.479   3.549   6.539  0.0509 -0.4072 -0.4792
 6365SOL    HW130554   0.391   3.541   6.577 -0.3184  1.0137 -1.0207
 6365SOL    HW230555   0.492   3.455   6.531  0.3434 -0.5661  1.7249
 6366SOL     OW30556   0.613   1.653   3.251 -0.1197  0.0672 -0.3888
 6366SOL    HW130557   0.592   1.561   3.266  1.2505 -0.1504  0.1605
 6366SOL    HW230558   0.522   1.683   3.251 -0.1549 -0.0381 -3.0721
 6367SOL     OW30559   3.759   0.913   6.057  0.0444  0.3800  0.5504
 6367SOL    HW130560   3.805   0.833   6.033 -0.4163  0.5625 -0.9752
 6367SOL    HW230561   3.670   0.905   6.022 -0.6286 -0.2230  2.3949
 6368SOL     OW30562   3.792   1.689   3.383 -0.3396 -0.3973  0.5472
 6368SOL    HW130563   3.698   1.687   3.362 -0.6511 -0.4008  1.9217
 6368SOL    HW230564   3.789   1.611   3.438 -0.4381 -2.3601 -2.2984
 6369SOL     OW30565   0.975   3.134   5.028 -1.1759  0.4568 -0.3823
 6369SOL    HW130566   1.008   3.046   5.008  1.2821  1.1216  0.7403
 6369SOL    HW230567   0.936   3.159   4.944  0.4581  1.1621 -0.9354
 6370SOL     OW30568   0.915   3.153   0.231 -0.4268  0.1325 -0.5965
 6370SOL    HW130569   0.911   3.248   0.234  1.7523  0.1948  0.2956
 6370SOL    HW230570   0.940   3.130   0.321 -0.3154 -1.2422 -0.9780
 6371SOL     OW30571   0.828   0.567   7.597  0.3564 -0.7968  0.0524
 6371SOL    HW130572   0.910   0.564   7.547  0.9911  0.6396  1.0308
 6371SOL    HW230573   0.852   0.643   7.650  0.0438 -0.3501 -0.4499
 6372SOL     OW30574   2.371   0.870   6.826  0.0258 -0.3159 -0.7595
 6372SOL    HW130575   2.395   0.891   6.916  3.5671 -0.3624 -1.6883
 6372SOL    HW230576   2.419   0.938   6.777  0.2115 -0.0146 -0.1579
 6373SOL     OW30577   1.009   3.324   5.484  0.5803  0.2358  0.2988
 6373SOL    HW130578   0.946   3.297   5.551  0.6027 -0.4251  0.0524
 6373SOL    HW230579   1.021   3.417   5.501 -0.6308  0.3186  0.7587
 6374SOL     OW30580   4.198   1.591   7.841  0.5233  0.2761 -0.3793
 6374SOL    HW130581   4.171   1.670   7.889  1.1155  0.8919 -1.0592
 6374SOL    HW230582   4.292   1.594   7.826  0.8409  0.4364  1.6483
 6375SOL     OW30583   0.054   0.511   0.597  0.1497 -0.1445 -0.4478
 6375SOL    HW130584   0.029   0.466   0.678 -2.0348  0.4177 -0.8195
 6375SOL    HW230585   0.084   0.436   0.546 -0.3096 -0.1783 -0.6699
 6376SOL     OW30586   0.420   3.993   7.565  0.1632  0.4216 -0.0949
 6376SOL    HW130587   0.488   3.999   7.498 -0.6539  1.1881 -0.8692
 6376SOL    HW230588   0.414   4.087   7.586 -1.4355 -0.3866  3.0611
 6377SOL     OW30589   0.227   2.508   4.761  0.0363  0.0433 -0.7803
 6377SOL    HW130590   0.206   2.436   4.701  0.8750  0.1348 -1.1840
 6377SOL    HW230591   0.225   2.581   4.699  0.7645  0.1548 -0.6627
 6378SOL     OW30592   1.916   3.723   3.076  0.6463 -0.8857  0.1300
 6378SOL    HW130593   2.003   3.746   3.109  0.1869 -0.2500  0.8804
 6378SOL    HW230594   1.912   3.633   3.044 -2.1180 -0.4797 -0.6373
 6379SOL     OW30595   0.075   3.855   0.650 -0.3390  0.0948  0.2647
 6379SOL    HW130596   0.106   3.810   0.728 -1.4347 -1.6699 -0.3076
 6379SOL    HW230597   0.048   3.937   0.690 -0.0241  0.9543 -1.2495
 6380SOL     OW30598   0.968   4.655   4.904  0.7506 -0.1316 -0.3667
 6380SOL    HW130599   1.010   4.572   4.884 -0.0414 -0.6646  0.1486
 6380SOL    HW230600   0.894   4.650   4.843  0.6559 -1.2021 -0.1636
 6381SOL     OW30601   1.052   4.598   0.089 -0.0424 -0.4621  0.5740
 6381SOL    HW130602   1.066   4.573   0.180 -2.4775 -2.7759  0.3230
 6381SOL    HW230603   0.984   4.665   0.097  0.2043 -0.4805  2.8269
 6382SOL     OW30604   4.485   4.235  10.485  0.0153  1.0714  0.2233
 6382SOL    HW130605   4.565   4.286  10.493  0.3570  0.8576 -1.9089
 6382SOL    HW230606   4.431   4.294  10.433 -0.5707 -0.1256 -0.5408
 6383SOL     OW30607   2.273   3.015   9.452 -0.9492 -0.2996 -0.0631
 6383SOL    HW130608   2.178   3.025   9.463 -1.0447  0.7022 -1.7773
 6383SOL    HW230609   2.288   3.098   9.499  0.5184 -0.3808 -0.3908
 6384SOL     OW30610   0.670   3.887   8.037 -0.0648 -0.3007  0.2772
 6384SOL    HW130611   0.663   3.807   8.090 -1.7862 -0.9830 -0.9731
 6384SOL    HW230612   0.630   3.960   8.085 -0.2885 -0.8765  0.9773
 6385SOL     OW30613   2.822   4.460   8.633 -0.1201  0.2873 -0.3394
 6385SOL    HW130614   2.828   4.365   8.628 -1.1699  0.3797 -3.8015
 6385SOL    HW230615   2.912   4.488   8.652 -1.4744  3.0792  2.0011
 6386SOL     OW30616   0.672   2.776   7.708 -0.7067  0.4544 -0.0347
 6386SOL    HW130617   0.584   2.762   7.743 -0.1066 -1.0458  0.8813
 6386SOL    HW230618   0.692   2.863   7.742 -0.8083  0.8729 -1.0742
 6387SOL     OW30619   1.118   3.791   5.890  0.1133  0.0216 -0.2546
 6387SOL    HW130620   1.179   3.746   5.831  1.9404  0.1485  1.5423
 6387SOL    HW230621   1.112   3.736   5.968  3.0160 -0.2104 -0.1991
 6388SOL     OW30622   3.909   1.101   8.376 -0.0110  0.1818 -0.2267
 6388SOL    HW130623   3.978   1.038   8.360 -1.1231 -1.1052  0.0796
 6388SOL    HW230624   3.914   1.110   8.471 -0.9836  3.4680 -0.4498
 6389SOL     OW30625   3.084   2.242   2.054 -0.1154 -0.2715  0.1584
 6389SOL    HW130626   3.080   2.284   2.140 -0.1363  0.0386  0.0061
 6389SOL    HW230627   3.114   2.319   2.005  0.9332 -0.4739  0.4713
 6390SOL     OW30628   3.895   3.256   3.798  0.7259  0.2529  0.1160
 6390SOL    HW130629   3.826   3.320   3.818  2.6936  2.2439  0.4851
 6390SOL    HW230630   3.949   3.304   3.736 -2.8942 -0.5931 -3.7700
 6391SOL     OW30631   1.845   3.592   8.377 -0.3000  0.2829 -0.3063
 6391SOL    HW130632   1.873   3.579   8.468  3.7421  1.4386 -1.3973
 6391SOL    HW230633   1.803   3.506   8.368  0.7482 -0.2193 -0.4331
 6392SOL     OW30634   3.239   1.096  17.110  0.1959  0.1833  0.5670
 6392SOL    HW130635   3.163   1.044  17.084 -0.8039  2.4097 -0.9051
 6392SOL    HW230636   3.258   1.155  17.037  1.1488 -0.4516  0.2874
 6393SOL     OW30637   3.425   0.107   1.037 -0.0308 -0.1087 -0.1300
 6393SOL    HW130638   3.436   0.057   1.117 -0.2826  1.2818  0.7767
 6393SOL    HW230639   3.372   0.042   0.991 -0.0056 -1.2444  1.4548
 6394SOL     OW30640   4.030   4.409  16.777  0.6333 -0.1009 -0.2197
 6394SOL    HW130641   3.972   4.333  16.768 -1.5532  1.2981  2.0380
 6394SOL    HW230642   4.085   4.397  16.699  0.5105  0.2117 -0.3534
 6395SOL     OW30643   2.035   2.333  12.055  0.0986  0.2439 -0.3890
 6395SOL    HW130644   2.039   2.370  12.143 -2.4475  0.4684 -0.3568
 6395SOL    HW230645   1.998   2.247  12.072 -0.4026  0.5791  0.2318
 6396SOL     OW30646   2.678   2.039   6.279 -0.3033 -0.2071 -0.4069
 6396SOL    HW130647   2.600   2.050   6.225  0.6000  1.6087 -1.3343
 6396SOL    HW230648   2.628   1.987   6.343  1.5530 -0.8268  0.5301
 6397SOL     OW30649   0.239   4.278   5.080  0.3253 -0.4016 -0.2217
 6397SOL    HW130650   0.206   4.262   5.169  0.5342 -0.2223 -0.1117
 6397SOL    HW230651   0.196   4.211   5.028  1.6662 -1.1634 -0.3669
 6398SOL     OW30652   4.326   0.783   8.092  0.2226  0.2195 -0.7039
 6398SOL    HW130653   4.265   0.731   8.145 -0.5146 -0.1097 -1.8641
 6398SOL    HW230654   4.260   0.850   8.075 -2.0658 -1.5659  1.2398
 6399SOL     OW30655   4.194   2.340   7.045 -0.1954  0.3600 -0.1062
 6399SOL    HW130656   4.203   2.261   6.992  1.2182  0.4032  0.0715
 6399SOL    HW230657   4.116   2.377   7.003 -1.0412 -2.4593 -0.9958
 6400SOL     OW30658   3.497   0.824  16.286 -0.2105  0.1820  0.1843
 6400SOL    HW130659   3.556   0.898  16.296 -0.8072  0.1903  3.7642
 6400SOL    HW230660   3.483   0.808  16.193 -0.9776  2.2530 -0.0617
 6401SOL     OW30661   1.177   2.456   4.869  0.2792  0.3533 -0.3295
 6401SOL    HW130662   1.194   2.363   4.860 -1.4181 -0.1368  1.6783
 6401SOL    HW230663   1.188   2.488   4.780  0.9510  0.7186 -0.1210
 6402SOL     OW30664   2.125   0.539   4.494  0.1362  0.3804  0.4085
 6402SOL    HW130665   2.145   0.606   4.559 -1.5534  1.3374 -0.0543
 6402SOL    HW230666   2.173   0.588   4.426 -1.2118 -0.7658 -1.3753
 6403SOL     OW30667   1.523   0.270  15.224 -0.2633  0.2568 -0.0464
 6403SOL    HW130668   1.481   0.349  15.189 -1.9355 -0.9652 -0.7918
 6403SOL    HW230669   1.461   0.204  15.191  1.4415  0.2613 -3.2422
 6404SOL     OW30670   2.760   2.697   1.161 -0.5660 -0.7532  0.0792
 6404SOL    HW130671   2.855   2.693   1.172 -0.3911  0.5532 -0.9884
 6404SOL    HW230672   2.750   2.782   1.118  0.4688 -0.7574 -0.1855
 6405SOL     OW30673   2.477   1.634   0.094  0.2943 -0.6632 -0.0156
 6405SOL    HW130674   2.399   1.581   0.077 -0.9640  0.9348  0.7001
 6405SOL    HW230675   2.484   1.608   0.186 -0.7847 -3.2926 -0.6831
 6406SOL     OW30676   2.047   4.069   1.985 -0.2306 -0.2618  0.2620
 6406SOL    HW130677   2.063   4.015   1.909  0.8483 -0.3049  0.5276
 6406SOL    HW230678   1.979   4.126   1.949 -0.6810 -1.1670 -0.3062
 6407SOL     OW30679   3.151   0.961   2.775  0.2970 -0.6678 -0.5371
 6407SOL    HW130680   3.096   1.011   2.835  2.5483  1.8032 -0.5433
 6407SOL    HW230681   3.233   0.955   2.825  0.2558 -3.1148 -0.7793
 6408SOL     OW30682   2.678   4.291   2.270  0.1557  0.0129  0.2685
 6408SOL    HW130683   2.665   4.385   2.286 -0.4178  0.1476 -0.9466
 6408SOL    HW230684   2.664   4.266   2.361 -1.2130  0.4567  0.1769
 6409SOL     OW30685   1.912   4.092   8.545 -0.5034 -0.8182  0.0263
 6409SOL    HW130686   1.929   4.150   8.471  0.6400 -2.2147 -0.8114
 6409SOL    HW230687   1.923   4.146   8.623  0.4144  1.3492 -1.6210
 6410SOL     OW30688   0.671   3.996   6.239 -0.4662 -0.1144  0.6452
 6410SOL    HW130689   0.656   3.948   6.158  0.2565  0.5316  0.1278
 6410SOL    HW230690   0.604   3.960   6.297 -1.1848 -1.8150 -1.2243
 6411SOL     OW30691   1.379   1.701   1.776 -0.1148  0.0612 -0.7513
 6411SOL    HW130692   1.304   1.644   1.763 -0.4196  0.7451 -2.0261
 6411SOL    HW230693   1.347   1.778   1.729  1.2549  0.4867 -0.9838
 6412SOL     OW30694   3.083   0.995   9.059 -0.1009  0.5715  0.0862
 6412SOL    HW130695   3.079   0.980   8.965 -2.4580 -0.5895  0.3767
 6412SOL    HW230696   3.031   1.075   9.068 -0.2092  0.6367 -1.0651
 6413SOL     OW30697   4.499   2.149   8.234  0.5865  0.0145  0.5225
 6413SOL    HW130698   4.408   2.131   8.257  1.4985 -2.2671  2.3916
 6413SOL    HW230699   4.511   2.241   8.258  0.8105  0.0119  0.4243
 6414SOL     OW30700   4.451   2.395   4.036  0.2169 -0.0872  0.4309
 6414SOL    HW130701   4.515   2.327   4.053 -1.0619 -1.3245  0.3113
 6414SOL    HW230702   4.378   2.342   4.002  0.3128  0.5259 -0.7567
 6415SOL     OW30703   2.713   2.199   4.213  0.3414  0.2361 -0.7724
 6415SOL    HW130704   2.702   2.284   4.256  1.7785 -1.3485  2.7206
 6415SOL    HW230705   2.725   2.146   4.292 -0.2453 -0.4863 -1.1827
 6416SOL     OW30706   2.341   3.840   4.225 -0.0871  0.2521  0.0650
 6416SOL    HW130707   2.430   3.847   4.192 -0.0373 -0.8930 -0.0316
 6416SOL    HW230708   2.294   3.796   4.154 -1.0554 -0.4646  1.1450
 6417SOL     OW30709   0.400   2.131  10.288  0.3119 -0.6533  0.2925
 6417SOL    HW130710   0.445   2.066  10.235  0.0905 -1.4399  1.0768
 6417SOL    HW230711   0.312   2.120  10.253  1.3158  1.9771 -3.0561
 6418SOL     OW30712   3.973   4.660  14.566  0.3725 -0.1162 -0.9158
 6418SOL    HW130713   4.041   4.633  14.628  0.2749  2.3384  0.2748
 6418SOL    HW230714   4.032   4.670  14.492  2.6015 -1.7187  0.6615
 6419SOL     OW30715   3.374   2.122   9.884  0.1976  0.9537  0.1178
 6419SOL    HW130716   3.289   2.164   9.871  0.5252  2.4198  2.6634
 6419SOL    HW230717   3.389   2.148   9.975  2.0164  0.0721  0.0728
 6420SOL     OW30718   1.868   0.936  10.287 -0.2056  0.0233  0.1715
 6420SOL    HW130719   1.920   1.016  10.279  0.4231 -0.4007  0.0441
 6420SOL    HW230720   1.779   0.967  10.303 -0.4265 -0.2843 -0.4243
 6421SOL     OW30721   2.499   1.651   1.906 -0.0701  0.5084  0.2365
 6421SOL    HW130722   2.525   1.706   1.832 -1.2469 -0.4055 -0.8406
 6421SOL    HW230723   2.420   1.612   1.868  1.2290 -1.8126 -0.0639
 6422SOL     OW30724   1.768   3.390   8.089  0.5923 -0.3835  0.2728
 6422SOL    HW130725   1.784   3.301   8.120 -0.0757 -0.6763 -0.2279
 6422SOL    HW230726   1.856   3.418   8.066  0.4074 -1.7130 -1.9828
 6423SOL     OW30727   4.063   4.405   2.799  0.0678 -0.1285 -0.3914
 6423SOL    HW130728   4.117   4.326   2.792  1.2592  0.5016  1.8748
 6423SOL    HW230729   4.099   4.447   2.720  1.3753 -0.9270 -0.2196
 6424SOL     OW30730   2.298   1.842   7.567 -0.6128 -0.2035 -0.0004
 6424SOL    HW130731   2.308   1.928   7.607  1.3659 -1.0238  1.2823
 6424SOL    HW230732   2.260   1.795   7.642  1.9566  1.5305  2.3857
 6425SOL     OW30733   0.203   2.373   0.318 -0.2276 -0.5561 -0.2405
 6425SOL    HW130734   0.175   2.292   0.360  1.2483 -1.7470 -1.5437
 6425SOL    HW230735   0.292   2.379   0.353  0.4800 -0.6811 -2.0169
 6426SOL     OW30736   3.606   3.328   4.699  0.2681  0.0944 -0.6969
 6426SOL    HW130737   3.559   3.382   4.763  0.3556  2.0623 -2.2936
 6426SOL    HW230738   3.693   3.325   4.738 -0.4385 -1.2575  0.7908
 6427SOL     OW30739   2.246   1.878  10.984 -0.2867  0.2125  0.2340
 6427SOL    HW130740   2.182   1.939  10.948 -1.1853 -1.4486 -0.9843
 6427SOL    HW230741   2.189   1.814  11.026 -0.8293  1.5404  1.4983
 6428SOL     OW30742   4.266   1.662   3.539 -0.3194  0.2488 -0.1408
 6428SOL    HW130743   4.241   1.626   3.454 -0.2075  3.7523 -1.6620
 6428SOL    HW230744   4.241   1.754   3.531 -1.2656 -0.0529 -0.6509
 6429SOL     OW30745   0.692   3.868   5.620 -0.5195  0.3788 -0.8619
 6429SOL    HW130746   0.758   3.875   5.689  0.1812  0.7477 -1.5526
 6429SOL    HW230747   0.706   3.957   5.585  2.3054  1.4871  3.0436
 6430SOL     OW30748   0.589   1.090  14.778 -0.0682  0.4228 -0.3384
 6430SOL    HW130749   0.540   1.085  14.861  2.0875  0.1322  0.9140
 6430SOL    HW230750   0.649   1.163  14.794  1.2067 -0.3153 -1.8306
 6431SOL     OW30751   2.879   2.319   6.638  0.3128  0.0527 -0.2811
 6431SOL    HW130752   2.894   2.276   6.722  0.1053  0.7147  0.0897
 6431SOL    HW230753   2.902   2.246   6.580  3.1344  2.8261 -2.6855
 6432SOL     OW30754   2.061   0.303   9.747  0.4936  0.1501  0.7931
 6432SOL    HW130755   2.012   0.384   9.758 -1.2750 -0.7147 -0.6782
 6432SOL    HW230756   2.023   0.254   9.820  0.4185 -2.6298 -1.1115
 6433SOL     OW30757   1.286   2.527  13.219  0.7009  0.4567  0.6360
 6433SOL    HW130758   1.355   2.477  13.263  1.4947  0.7815 -0.2313
 6433SOL    HW230759   1.290   2.483  13.134 -0.1590  2.3289 -0.3661
 6434SOL     OW30760   1.901   3.984   2.200 -0.3977  0.1370 -0.1731
 6434SOL    HW130761   1.961   4.010   2.130  2.7677 -2.0256  1.7699
 6434SOL    HW230762   1.925   3.893   2.216  1.7564  0.6342 -0.5886
 6435SOL     OW30763   0.132   2.566   8.380 -0.1773  0.0545 -0.4205
 6435SOL    HW130764   0.194   2.629   8.419 -2.4240  2.1081 -0.1201
 6435SOL    HW230765   0.192   2.513   8.329 -0.5051  1.2634 -2.0623
 6436SOL     OW30766   1.530   1.779  15.585 -0.0401 -0.5104  0.3425
 6436SOL    HW130767   1.551   1.701  15.534  1.4010 -0.4680  0.8669
 6436SOL    HW230768   1.529   1.854  15.526 -2.0059 -2.7875 -2.5400
 6437SOL     OW30769   1.848   3.287  13.531  0.4597 -0.5174  0.0543
 6437SOL    HW130770   1.782   3.219  13.520 -1.3292  1.2916 -0.5323
 6437SOL    HW230771   1.888   3.261  13.613  1.2046 -0.6612 -0.3622
 6438SOL     OW30772   0.251   3.945   5.100 -0.0854 -0.1586 -0.5614
 6438SOL    HW130773   0.233   3.852   5.091 -0.0986 -0.1360 -0.7585
 6438SOL    HW230774   0.215   3.986   5.021  3.0292  1.1247 -1.3442
 6439SOL     OW30775   1.019   2.662   2.763 -0.9928 -0.1047 -0.1459
 6439SOL    HW130776   1.104   2.676   2.721 -0.8047  0.4544  0.4108
 6439SOL    HW230777   1.024   2.579   2.810 -1.5449 -1.2271 -2.0641
 6440SOL     OW30778   0.502   0.424   5.682  0.1522  0.3375 -0.6483
 6440SOL    HW130779   0.537   0.390   5.764  0.0545 -0.6772 -1.0283
 6440SOL    HW230780   0.437   0.485   5.716  1.3522  1.6294 -0.6882
 6441SOL     OW30781   2.373   3.638   2.507  0.1892 -0.2399  0.1703
 6441SOL    HW130782   2.430   3.681   2.571 -0.3324  0.2768  0.2847
 6441SOL    HW230783   2.432   3.637   2.431  0.1231 -0.9436  0.1332
 6442SOL     OW30784   0.488   2.225   6.627  0.2001  0.3377  0.0802
 6442SOL    HW130785   0.507   2.169   6.552  2.2956 -0.6674  1.3742
 6442SOL    HW230786   0.398   2.248   6.604  0.3740 -0.0734 -0.9733
 6443SOL     OW30787   3.954   4.054   3.565  0.5038  0.0977  0.2177
 6443SOL    HW130788   3.958   4.037   3.471  3.7004 -0.4298  0.4748
 6443SOL    HW230789   3.915   4.141   3.567  1.9783  0.7675 -0.3717
 6444SOL     OW30790   1.014   3.480   2.202  0.8180  0.1144  0.6386
 6444SOL    HW130791   1.020   3.412   2.136  0.9622  1.4570 -0.7239
 6444SOL    HW230792   0.980   3.440   2.282  2.2355 -2.0161  0.1712
 6445SOL     OW30793   3.375   3.800   6.449 -0.0346  0.0068 -0.1816
 6445SOL    HW130794   3.466   3.799   6.418  0.6612 -1.7371  1.9814
 6445SOL    HW230795   3.387   3.743   6.525  1.2998  1.6452  0.8429
 6446SOL     OW30796   0.271   2.628  14.980 -0.0200 -0.8540 -0.0325
 6446SOL    HW130797   0.251   2.534  14.981 -1.6789 -0.4497  2.6302
 6446SOL    HW230798   0.218   2.645  14.902 -0.0410  0.2071  0.2188
 6447SOL     OW30799   4.617   1.859  12.020  0.0605  0.5696 -0.6952
 6447SOL    HW130800   4.601   1.932  12.080  1.9923  0.9669 -0.6551
 6447SOL    HW230801   4.621   1.778  12.072 -0.9777  2.0575  1.6795
 6448SOL     OW30802   4.313   0.705   5.087  0.4588  0.3418 -0.4212
 6448SOL    HW130803   4.301   0.651   5.009 -1.6889 -0.6826  0.6020
 6448SOL    HW230804   4.282   0.791   5.059 -2.0116 -0.6877 -0.8421
 6449SOL     OW30805   1.504   4.189  14.867  0.2037  0.2529 -0.2493
 6449SOL    HW130806   1.579   4.131  14.874  0.2303  0.1548 -1.3502
 6449SOL    HW230807   1.442   4.155  14.932 -1.4992 -0.2442 -2.1446
 6450SOL     OW30808   3.033   4.505   3.434 -0.1054  0.1798  0.1482
 6450SOL    HW130809   2.939   4.510   3.448  0.0545  2.3495  0.4481
 6450SOL    HW230810   3.055   4.471   3.347  1.0549 -0.2303  0.5963
 6451SOL     OW30811   1.539   4.636   3.474 -0.2102  0.1494 -0.1815
 6451SOL    HW130812   1.590   4.556   3.465  1.3902  1.2716 -0.9355
 6451SOL    HW230813   1.614   4.692   3.491 -0.4392 -0.0434  1.5039
 6452SOL     OW30814   3.195   0.355   7.679 -0.2239  0.3733 -0.7229
 6452SOL    HW130815   3.101   0.339   7.695  0.8017 -4.8093  0.0752
 6452SOL    HW230816   3.228   0.344   7.768  0.6187 -0.5654 -1.1575
 6453SOL     OW30817   0.308   0.939   6.103  0.0761 -0.6461  0.4782
 6453SOL    HW130818   0.366   0.899   6.038 -2.2182 -1.6812 -0.9170
 6453SOL    HW230819   0.239   0.974   6.047  2.5944  2.1462 -0.8772
 6454SOL     OW30820   2.265   1.372   4.272 -0.3916 -0.2037  0.1627
 6454SOL    HW130821   2.182   1.419   4.266 -1.2413 -1.4465  2.0755
 6454SOL    HW230822   2.300   1.365   4.183  0.5137 -0.6213  0.5569
 6455SOL     OW30823   0.554   0.178   8.739 -0.5456 -0.7624 -0.4427
 6455SOL    HW130824   0.561   0.186   8.834  0.1412  0.6855 -0.6136
 6455SOL    HW230825   0.608   0.106   8.705 -3.4249 -2.5630 -1.1734
 6456SOL     OW30826   1.417   0.811  16.089  0.0440 -0.3139 -0.1240
 6456SOL    HW130827   1.382   0.807  16.178  0.2734 -1.0195 -0.0602
 6456SOL    HW230828   1.346   0.763  16.047 -0.2547  0.9709 -1.0661
 6457SOL     OW30829   2.031   0.184   2.216 -0.0218 -0.4321  0.1900
 6457SOL    HW130830   2.059   0.195   2.125  1.6320 -0.4964  0.6874
 6457SOL    HW230831   1.938   0.163   2.214 -0.5913  2.0976 -0.1149
 6458SOL     OW30832   0.895   0.268   7.454  0.2299  0.1155  0.4402
 6458SOL    HW130833   0.851   0.334   7.399 -0.2758 -1.0488 -0.5401
 6458SOL    HW230834   0.849   0.191   7.420  1.1997  0.1721 -0.9773
 6459SOL     OW30835   1.779   3.839  13.484 -0.1835 -0.6097 -0.1614
 6459SOL    HW130836   1.867   3.862  13.513 -0.8676  3.3296 -1.2268
 6459SOL    HW230837   1.732   3.911  13.525 -2.4334 -0.8549 -2.3320
 6460SOL     OW30838   3.995   4.342   4.945  0.8182 -0.1710 -0.6565
 6460SOL    HW130839   3.961   4.321   5.032  0.0714 -0.5385 -1.0358
 6460SOL    HW230840   3.963   4.431   4.930  1.5122  0.1355 -0.2992
 6461SOL     OW30841   1.772   3.112   3.731  0.0692  0.0233  0.3068
 6461SOL    HW130842   1.805   3.160   3.655  2.3946 -1.2373  0.5121
 6461SOL    HW230843   1.826   3.034   3.723  1.1978  0.9008 -0.5528
 6462SOL     OW30844   0.427   0.779   9.319  0.3561 -0.0215  0.5621
 6462SOL    HW130845   0.392   0.698   9.355 -0.2095  1.3528  3.0973
 6462SOL    HW230846   0.516   0.772   9.354  0.5498  0.2544  0.1299
 6463SOL     OW30847   4.629   2.013  11.355  0.5025  0.1222 -0.1174
 6463SOL    HW130848   4.567   2.072  11.398  1.2765  2.4118 -2.1871
 6463SOL    HW230849   4.619   1.932  11.406  1.0238 -0.5325 -1.0593
 6464SOL     OW30850   1.696   2.612   5.998 -0.2738 -0.4082  0.5317
 6464SOL    HW130851   1.745   2.578   5.924  0.7614  0.6092  0.7479
 6464SOL    HW230852   1.623   2.656   5.954  0.4997 -0.3560 -0.6819
 6465SOL     OW30853   1.450   0.979  10.224 -0.0351  0.5726 -0.5133
 6465SOL    HW130854   1.488   0.941  10.303  0.0085  1.5104 -0.0906
 6465SOL    HW230855   1.429   1.069  10.248  1.8596  0.7303  0.5267
 6466SOL     OW30856   1.759   2.081  11.902 -0.0223  0.4854  0.0017
 6466SOL    HW130857   1.799   2.074  11.988  0.4936 -1.4383 -0.4012
 6466SOL    HW230858   1.837   2.097  11.848  0.6395 -0.8558  0.5620
 6467SOL     OW30859   4.142   2.647   4.974  0.1152  0.4397 -0.3387
 6467SOL    HW130860   4.153   2.742   4.972 -0.5445  0.4960 -1.6550
 6467SOL    HW230861   4.063   2.624   4.926 -0.5850  0.9075  0.6027
 6468SOL     OW30862   4.532   3.492   6.691 -0.1345 -0.1116 -0.2801
 6468SOL    HW130863   4.517   3.549   6.616 -0.1856  0.3540  0.0826
 6468SOL    HW230864   4.490   3.412   6.659 -0.1594  0.2858 -1.2144
 6469SOL     OW30865   1.981   3.826   4.710  0.1083  0.2556 -0.0529
 6469SOL    HW130866   2.016   3.744   4.674 -0.8858 -0.6666  1.0974
 6469SOL    HW230867   1.903   3.790   4.752 -0.2013  0.2557 -0.6381
 6470SOL     OW30868   1.219   1.613   7.261  0.0446  0.1383  0.1529
 6470SOL    HW130869   1.263   1.543   7.311 -0.5331  1.5363  2.6219
 6470SOL    HW230870   1.272   1.690   7.279  0.2343 -0.3900  1.9101
 6471SOL     OW30871   3.481   1.034  11.772 -0.2783  0.0388  0.2824
 6471SOL    HW130872   3.417   1.048  11.701 -1.8908  1.1601  1.9562
 6471SOL    HW230873   3.437   0.962  11.818 -0.1085 -0.5308 -0.4294
 6472SOL     OW30874   3.042   4.381   6.833  0.6264  0.0010 -0.1727
 6472SOL    HW130875   3.064   4.440   6.761  2.4143 -1.8549 -1.1243
 6472SOL    HW230876   3.060   4.433   6.911 -0.0223  1.2753 -0.8770
 6473SOL     OW30877   4.714   1.533  11.540 -0.3775  0.0665  0.4466
 6473SOL    HW130878   4.642   1.500  11.595 -0.9171 -0.2694 -0.4615
 6473SOL    HW230879   0.026   1.452  11.504 -0.7647  0.2743 -0.4248
 6474SOL     OW30880   3.926   1.020  10.523  0.8970  0.5994 -0.0738
 6474SOL    HW130881   3.920   1.005  10.618  0.3191  1.3873  0.0227
 6474SOL    HW230882   3.888   1.108  10.514  1.3177  0.7618 -0.2768
 6475SOL     OW30883   0.681   0.502   6.495  0.1020 -0.1661 -0.3495
 6475SOL    HW130884   0.716   0.540   6.415  0.5683 -0.8318 -0.4587
 6475SOL    HW230885   0.726   0.545   6.568  1.5539 -0.2329 -1.2041
 6476SOL     OW30886   2.041   3.251  16.849 -0.6677  0.1993 -0.3687
 6476SOL    HW130887   2.108   3.291  16.905 -2.6214 -0.5513  2.5297
 6476SOL    HW230888   2.043   3.310  16.774  0.2447  0.3703 -0.2134
 6477SOL     OW30889   3.054   2.944   6.350 -0.1051  0.1078 -0.7898
 6477SOL    HW130890   3.108   2.880   6.304 -1.0282 -2.1863  1.3524
 6477SOL    HW230891   3.124   3.001   6.382 -0.9686  1.2676 -0.9476
 6478SOL     OW30892   1.524   0.749   1.597  0.5767  0.1237 -0.2852
 6478SOL    HW130893   1.498   0.840   1.587  0.4637  0.0212 -0.9076
 6478SOL    HW230894   1.552   0.715   1.512 -0.0550 -0.2393 -0.3517
 6479SOL     OW30895   4.436   4.716   4.413 -0.0027 -0.0752 -0.0218
 6479SOL    HW130896   4.519   4.667   4.407  1.1231  1.7326  0.8889
 6479SOL    HW230897   4.385   4.682   4.340  1.8163 -1.4778 -0.6485
 6480SOL     OW30898   1.890   1.842   5.456  0.3881  0.3344 -0.0580
 6480SOL    HW130899   1.893   1.881   5.543 -1.5183 -0.4406  0.3613
 6480SOL    HW230900   1.970   1.791   5.453 -1.3428 -2.2974 -1.5773
 6481SOL     OW30901   4.120   2.961   7.066 -0.2396 -0.3393  0.5410
 6481SOL    HW130902   4.135   2.869   7.044 -0.9992 -0.3891  0.2125
 6481SOL    HW230903   4.051   2.947   7.131  0.4663 -1.4466  1.0445
 6482SOL     OW30904   4.422   3.112   4.052 -0.1546  0.0626 -0.2463
 6482SOL    HW130905   4.450   3.203   4.059  0.6555 -0.1492 -0.7505
 6482SOL    HW230906   4.489   3.076   3.994  0.5875  2.3461 -0.7738
 6483SOL     OW30907   2.616   1.392  12.075 -0.1201 -0.1111  0.7168
 6483SOL    HW130908   2.670   1.470  12.061 -0.8931 -0.1818 -2.5420
 6483SOL    HW230909   2.563   1.383  11.996  1.1771  0.7200 -0.2527
 6484SOL     OW30910   2.674   2.519   5.915 -0.3389  0.5483 -0.0994
 6484SOL    HW130911   2.621   2.544   5.839  1.1521 -1.6273 -1.8473
 6484SOL    HW230912   2.612   2.538   5.985  0.8283  0.6554  0.9075
 6485SOL     OW30913   3.113   0.293   4.342  0.0994 -0.1553  0.4024
 6485SOL    HW130914   3.193   0.296   4.394 -0.6616  0.2966  1.5586
 6485SOL    HW230915   3.085   0.203   4.359  0.5466 -0.3444  0.1422
 6486SOL     OW30916   4.482   1.517   2.704  0.2030 -0.4532 -0.6780
 6486SOL    HW130917   4.517   1.594   2.748 -2.2889  0.5802 -0.5236
 6486SOL    HW230918   4.546   1.446   2.712  0.3198 -0.6701 -3.5366
 6487SOL     OW30919   1.424   1.571  13.478  0.0090 -0.5938 -0.3103
 6487SOL    HW130920   1.416   1.656  13.520  1.1879 -0.7235  0.1602
 6487SOL    HW230921   1.477   1.596  13.403  0.7002  2.5916  1.2313
 6488SOL     OW30922   2.112   1.236   1.835  0.7945  0.8158 -0.8152
 6488SOL    HW130923   2.179   1.236   1.902 -0.2504  1.1009  0.2233
 6488SOL    HW230924   2.060   1.161   1.863  0.9864  0.0412 -2.4883
 6489SOL     OW30925   2.676   2.074  13.883  0.3736  0.2804  0.2273
 6489SOL    HW130926   2.738   2.053  13.813  1.6179 -0.0826  1.4376
 6489SOL    HW230927   2.730   2.033  13.950  0.4740  0.4053  0.2219
 6490SOL     OW30928   2.781   1.648  15.494 -0.1005  0.0916 -0.3709
 6490SOL    HW130929   2.764   1.599  15.574 -0.4266 -0.6176 -0.8751
 6490SOL    HW230930   2.854   1.699  15.529 -0.9372  1.1112 -0.1083
 6491SOL     OW30931   0.859   2.182   7.679 -0.4351  0.0550 -0.0025
 6491SOL    HW130932   0.790   2.117   7.665 -0.5322  0.3073 -0.6866
 6491SOL    HW230933   0.849   2.198   7.773 -0.6460 -0.2754  0.0301
 6492SOL     OW30934   4.192   1.220  12.731 -0.0170 -0.5682  0.2662
 6492SOL    HW130935   4.149   1.224  12.817 -3.0116  1.5664 -1.3382
 6492SOL    HW230936   4.255   1.148  12.733  0.1076 -0.4406  1.1871
 6493SOL     OW30937   2.263   1.536  16.008  0.1835  0.8796 -0.2108
 6493SOL    HW130938   2.235   1.543  16.099 -3.2381 -2.8059 -0.9599
 6493SOL    HW230939   2.185   1.540  15.954  2.0371  2.6192 -2.7536
 6494SOL     OW30940   1.296   4.687   7.040  0.3116 -0.0095 -0.2852
 6494SOL    HW130941   1.266   4.623   6.976 -1.0828  1.0167 -0.6495
 6494SOL    HW230942   1.288   4.634   7.120 -1.9971  0.0181 -0.4877
 6495SOL     OW30943   4.311   0.899   7.061  0.1245 -0.3905  0.0833
 6495SOL    HW130944   4.286   0.944   6.980 -1.8242  0.8362  1.3722
 6495SOL    HW230945   4.398   0.936   7.076  0.7950 -1.3447 -1.4536
 6496SOL     OW30946   4.304   2.962   6.521  0.4051 -0.6527 -0.4646
 6496SOL    HW130947   4.390   3.002   6.530  1.6662 -3.6354  0.8127
 6496SOL    HW230948   4.279   3.015   6.445  0.0333 -2.7127 -1.7798
 6497SOL     OW30949   0.581   4.049   9.501 -0.1516  0.5501  0.3760
 6497SOL    HW130950   0.650   4.098   9.457 -0.2554  2.4312  2.2665
 6497SOL    HW230951   0.617   3.962   9.484  0.1074  0.9618 -1.1271
 6498SOL     OW30952   1.763   4.687   5.366 -0.1805  0.1088 -0.6783
 6498SOL    HW130953   1.683   4.672   5.317 -1.6290 -0.4208  1.8383
 6498SOL    HW230954   1.803   0.019   5.300 -0.5341  0.1994 -0.8129
 6499SOL     OW30955   2.481   4.684   8.402 -0.4019 -0.1371 -0.2806
 6499SOL    HW130956   2.558   4.636   8.432 -0.8990 -1.2265 -0.7410
 6499SOL    HW230957   2.444   0.001   8.480  2.6821  0.4673  0.8569
 6500SOL     OW30958   1.903   2.611   8.059 -0.6554 -0.4238  0.7613
 6500SOL    HW130959   1.915   2.526   8.016 -1.4963  0.9998 -2.2435
 6500SOL    HW230960   1.815   2.598   8.092 -0.5809 -3.1980 -0.1332
 6501SOL     OW30961   0.877   0.551   4.659  0.1243 -0.3876 -0.0407
 6501SOL    HW130962   0.935   0.502   4.716 -1.6887 -0.9320  1.3377
 6501SOL    HW230963   0.919   0.637   4.654 -0.9130  0.1065 -0.2536
 6502SOL     OW30964   3.664   4.592   1.763  0.1814 -0.8585  0.3950
 6502SOL    HW130965   3.720   4.667   1.744  0.6441 -1.4436 -0.5406
 6502SOL    HW230966   3.609   4.617   1.837 -0.3027 -1.1681  0.1405
 6503SOL     OW30967   2.560   0.881  16.025  0.2381  0.1183  0.5456
 6503SOL    HW130968   2.548   0.967  15.983  0.1038  1.3047  2.9990
 6503SOL    HW230969   2.466   0.880  16.046  0.1881  0.3939  0.3425
 6504SOL     OW30970   0.322   1.670   6.051 -0.3498 -0.0856  0.1954
 6504SOL    HW130971   0.309   1.578   6.029 -0.6880 -0.0436  0.2162
 6504SOL    HW230972   0.385   1.697   5.984 -0.1653 -0.7505  0.1034
 6505SOL     OW30973   1.291   4.617   4.518  0.1691 -0.1659  0.0037
 6505SOL    HW130974   1.203   4.606   4.555  0.4208  0.0317  0.6629
 6505SOL    HW230975   1.335   4.657   4.593  0.0475 -2.0487  1.0936
 6506SOL     OW30976   1.592   3.262  11.512 -0.0837  0.1137 -0.1045
 6506SOL    HW130977   1.596   3.167  11.524  0.4937 -0.0140 -1.2718
 6506SOL    HW230978   1.615   3.254  11.419  1.1027 -0.7911  0.2719
 6507SOL     OW30979   1.757   4.208  10.910  0.6457  0.3793 -0.1975
 6507SOL    HW130980   1.699   4.201  10.986  1.8914  0.5774  0.7651
 6507SOL    HW230981   1.719   4.294  10.891  0.5510  0.3375 -0.1944
 6508SOL     OW30982   0.988   1.707   2.284 -0.2735 -0.7322  0.6276
 6508SOL    HW130983   1.059   1.700   2.220 -1.4604  1.0718 -0.9206
 6508SOL    HW230984   1.018   1.761   2.357  0.3113  0.0839 -0.2218
 6509SOL     OW30985   0.978   2.204   3.119 -0.2139 -0.2433 -0.2471
 6509SOL    HW130986   1.003   2.286   3.075 -1.5180  0.4884  0.3775
 6509SOL    HW230987   0.994   2.231   3.209 -0.9157  0.9401 -0.4701
 6510SOL     OW30988   4.147   2.938   4.999  0.3486 -0.2152  0.1751
 6510SOL    HW130989   4.069   2.969   4.953 -0.0349 -0.1522  0.8535
 6510SOL    HW230990   4.113   2.958   5.086 -0.7902 -0.7656 -0.1547
 6511SOL     OW30991   2.612   0.409  16.657  0.6120 -0.2947 -0.3762
 6511SOL    HW130992   2.700   0.433  16.686  0.4315 -1.8116  1.3783
 6511SOL    HW230993   2.570   0.398  16.742 -1.0200  1.2206 -0.9758
 6512SOL     OW30994   0.155   3.227   3.617 -0.0326 -0.0788 -0.4207
 6512SOL    HW130995   0.185   3.195   3.702 -0.8475  0.9388  0.2450
 6512SOL    HW230996   0.093   3.157   3.594 -0.4715 -0.3120  1.4950
 6513SOL     OW30997   1.006   0.772  13.757 -0.4692 -0.2175  0.1498
 6513SOL    HW130998   1.011   0.689  13.709  0.0975 -0.3053  0.3634
 6513SOL    HW230999   0.913   0.784  13.775 -0.5309  2.6149 -1.9947
 6514SOL     OW31000   2.502   2.085   2.413  0.4101  0.5976  0.0713
 6514SOL    HW131001   2.434   2.129   2.465 -0.3315  3.2842 -3.0762
 6514SOL    HW231002   2.524   2.161   2.358  1.2386 -0.6691 -1.3297
 6515SOL     OW31003   2.991   0.719  10.012 -0.4230  0.0466  0.6188
 6515SOL    HW131004   2.995   0.738  10.106 -1.3267 -1.8628  1.0328
 6515SOL    HW231005   3.045   0.641  10.004 -2.3414 -1.1769 -0.2105
 6516SOL     OW31006   0.911   0.198   4.098  0.1069  0.0691  0.4046
 6516SOL    HW131007   0.829   0.165   4.061 -1.0972  0.3813  2.8092
 6516SOL    HW231008   0.886   0.176   4.187 -0.6684 -1.5785 -0.2117
 6517SOL     OW31009   0.412   0.851  16.879  0.1468  0.3733  0.2882
 6517SOL    HW131010   0.323   0.823  16.898  0.3848 -0.6516 -0.0931
 6517SOL    HW231011   0.452   0.891  16.957  3.4094 -0.0696 -1.1567
 6518SOL     OW31012   1.499   0.105   5.533 -0.3776 -1.0504  0.4104
 6518SOL    HW131013   1.577   0.155   5.556 -2.1202  1.0815  1.6974
 6518SOL    HW231014   1.534   0.016   5.524  0.4798 -0.8477  1.7127
 6519SOL     OW31015   0.506   1.707   0.974 -0.0365 -0.1476  0.1543
 6519SOL    HW131016   0.501   1.802   0.980 -0.2640 -0.1368 -0.1986
 6519SOL    HW231017   0.415   1.691   0.949 -0.5124 -1.2909  2.6184
 6520SOL     OW31018   0.431   2.725   8.828  0.0394 -0.5444 -0.5713
 6520SOL    HW131019   0.478   2.808   8.837  1.1730 -1.1017 -1.2512
 6520SOL    HW231020   0.498   2.664   8.858  1.5370  0.3948 -2.0005
 6521SOL     OW31021   2.569   4.132  14.554 -0.1261  0.5170 -0.0402
 6521SOL    HW131022   2.478   4.103  14.554 -0.5898  1.9181  3.5110
 6521SOL    HW231023   2.587   4.144  14.461  2.7816 -0.7219  0.3728
 6522SOL     OW31024   4.069   1.685   6.511 -0.6444  0.0500 -0.0142
 6522SOL    HW131025   4.056   1.758   6.450 -1.2871  0.1796  0.2752
 6522SOL    HW231026   4.114   1.732   6.580 -2.6609  1.5685  0.2955
 6523SOL     OW31027   2.455   0.012   6.719  0.1191  0.2454  0.0971
 6523SOL    HW131028   2.517   4.699   6.656 -0.1851  0.1331 -0.1356
 6523SOL    HW231029   2.513   0.050   6.785 -1.2409  1.7909  0.3965
 6524SOL     OW31030   3.669   0.442   7.118 -0.3859  0.3292  0.3149
 6524SOL    HW131031   3.741   0.462   7.058  0.0357 -2.4107 -0.1069
 6524SOL    HW231032   3.615   0.520   7.104 -0.9335 -0.0125  0.5371
 6525SOL     OW31033   1.044   3.254   3.766 -0.3667  0.1573  0.2492
 6525SOL    HW131034   0.967   3.299   3.801 -1.2398 -0.4016 -0.9447
 6525SOL    HW231035   1.016   3.222   3.680 -1.1950  0.5337  0.3813
 6526SOL     OW31036   0.941   0.508   2.612  0.4160  0.2651  0.1119
 6526SOL    HW131037   1.022   0.479   2.570  0.4769  1.1073 -0.3448
 6526SOL    HW231038   0.893   0.532   2.533 -0.5732  0.1043  0.6670
 6527SOL     OW31039   0.933   4.689   9.223  0.6426 -0.4837  0.4638
 6527SOL    HW131040   0.906   4.661   9.135  0.5116  0.0649  0.3318
 6527SOL    HW231041   1.027   4.697   9.206  0.2615  1.6583 -0.6417
 6528SOL     OW31042   0.035   1.572  16.321  0.2998  0.0402 -0.3626
 6528SOL    HW131043   0.084   1.490  16.317  1.9267  1.0542 -1.0074
 6528SOL    HW231044   4.674   1.541  16.292  1.1245 -3.6918  1.1539
 6529SOL     OW31045   0.009   3.386   5.003  0.1295 -0.1059 -0.0594
 6529SOL    HW131046   4.666   3.383   4.936  0.9315 -1.2265 -0.8088
 6529SOL    HW231047   4.689   3.344   5.077 -0.9569 -1.2371 -1.3668
 6530SOL     OW31048   4.053   0.177   9.107  0.2076  0.2176 -0.0204
 6530SOL    HW131049   3.990   0.242   9.076  0.2798  0.4606  0.3355
 6530SOL    HW231050   4.051   0.122   9.029  0.9186 -2.4183  1.7879
 6531SOL     OW31051   3.363   2.488   7.169  0.0228  0.4815  0.3251
 6531SOL    HW131052   3.370   2.548   7.094 -4.2022 -0.4149 -0.7764
 6531SOL    HW231053   3.454   2.472   7.193  0.1646  1.7064  0.6422
 6532SOL     OW31054   0.405   3.969   7.214  0.5043 -0.1007  0.7387
 6532SOL    HW131055   0.367   3.964   7.126 -2.3422 -1.4229  2.0192
 6532SOL    HW231056   0.336   3.933   7.270 -1.7264  0.8342 -1.4033
 6533SOL     OW31057   3.672   3.513   7.358  0.3319 -0.1961 -0.5525
 6533SOL    HW131058   3.657   3.549   7.445 -1.8059  2.4428 -2.0008
 6533SOL    HW231059   3.697   3.591   7.308  0.4897  0.3918  0.4375
 6534SOL     OW31060   2.524   3.689  10.522  0.1127 -0.1500  0.8358
 6534SOL    HW131061   2.432   3.677  10.498 -0.1629 -1.8163  2.7322
 6534SOL    HW231062   2.505   3.726  10.608 -1.4005  0.2569  0.3357
 6535SOL     OW31063   1.088   4.439   7.198 -0.4167  0.4811 -0.7212
 6535SOL    HW131064   1.147   4.366   7.176 -1.1436 -1.3332  3.3386
 6535SOL    HW231065   1.078   4.439   7.293  1.1918 -0.8677 -0.5496
 6536SOL     OW31066   0.542   0.406   7.992  0.3412 -0.2668 -0.1763
 6536SOL    HW131067   0.630   0.439   8.010  0.7966 -0.9115 -1.2197
 6536SOL    HW231068   0.550   0.374   7.902  0.4106  0.1445 -0.3154
 6537SOL     OW31069   2.380   0.312   8.232 -0.2052  0.0240 -0.3534
 6537SOL    HW131070   2.419   0.235   8.191 -0.1959 -0.2812  0.2288
 6537SOL    HW231071   2.452   0.330   8.293 -0.6610 -2.2124  0.8203
 6538SOL     OW31072   4.525   3.194   7.292  0.0058  0.0221  0.1737
 6538SOL    HW131073   4.448   3.241   7.325  1.9244  2.9835  0.3901
 6538SOL    HW231074   4.487   3.116   7.252 -0.2153 -0.9597  2.3200
 6539SOL     OW31075   1.657   3.090  14.614  0.1339  0.2603  0.5278
 6539SOL    HW131076   1.567   3.057  14.612 -0.2311  1.2660  0.5985
 6539SOL    HW231077   1.697   3.066  14.530  1.8215  0.5299  1.2612
 6540SOL     OW31078   2.544   3.563  17.679  0.1785  0.1086 -0.0357
 6540SOL    HW131079   2.606   3.629  17.647 -0.9423  1.7122  1.1205
 6540SOL    HW231080   2.529   3.601   0.065  0.4278 -0.9407  0.4675
 6541SOL     OW31081   1.662   0.454   7.937 -0.1870  0.8112  0.4061
 6541SOL    HW131082   1.752   0.446   7.905 -0.1263  3.6853 -0.1832
 6541SOL    HW231083   1.608   0.445   7.859 -1.2454 -0.1539  1.2589
 6542SOL     OW31084   0.810   3.498  16.433  0.9639 -0.2454  0.1360
 6542SOL    HW131085   0.859   3.498  16.350  3.0834  1.7864  1.3872
 6542SOL    HW231086   0.835   3.416  16.475  1.5028  0.3562  0.9773
 6543SOL     OW31087   3.029   2.648   1.696 -0.2587 -0.2660 -0.0315
 6543SOL    HW131088   3.085   2.619   1.623 -0.3676 -1.8004  0.4831
 6543SOL    HW231089   2.957   2.700   1.660  0.2234 -0.3364 -1.0970
 6544SOL     OW31090   0.765   0.596  17.460 -0.0603 -0.1265 -0.3894
 6544SOL    HW131091   0.833   0.543  17.419  1.2946  1.4913 -0.2805
 6544SOL    HW231092   0.746   0.551  17.542  1.4905  0.7870  0.4719
 6545SOL     OW31093   1.456   3.147   6.012  0.1747 -0.3122 -0.8075
 6545SOL    HW131094   1.412   3.142   6.097  1.3309 -0.5674 -0.2195
 6545SOL    HW231095   1.536   3.099   6.034  0.3883 -0.6948 -2.4390
 6546SOL     OW31096   4.106   0.074  14.998 -0.2062  0.1568  0.3422
 6546SOL    HW131097   4.194   0.109  15.009 -1.2801  2.0488  2.6835
 6546SOL    HW231098   4.082   0.092  14.907  2.3525  1.7576  0.0055
 6547SOL     OW31099   3.962   3.603   2.124  0.0843 -0.2409 -0.2329
 6547SOL    HW131100   3.882   3.568   2.085 -1.3965  0.7582  1.9396
 6547SOL    HW231101   3.947   3.584   2.217 -1.3436  3.3380  0.2776
 6548SOL     OW31102   1.166   1.554   4.217  0.3969  0.1313 -0.2508
 6548SOL    HW131103   1.098   1.563   4.150  0.2889 -2.4682 -0.4760
 6548SOL    HW231104   1.114   1.549   4.297  0.9527  0.9449  0.1606
 6549SOL     OW31105   3.363   3.974   8.159 -0.3229 -0.3993  0.0785
 6549SOL    HW131106   3.270   3.996   8.157 -0.2782 -0.1079  1.1041
 6549SOL    HW231107   3.393   4.047   8.105  0.7065 -0.6206  0.3514
 6550SOL     OW31108   4.518   1.432   5.064 -0.3112 -0.0283 -0.0120
 6550SOL    HW131109   4.569   1.353   5.084  1.9189  0.5146 -3.6793
 6550SOL    HW231110   4.570   1.495   5.113  1.1248  1.2210 -3.1694
 6551SOL     OW31111   1.323   4.637  10.913  0.3486  0.7573  0.7316
 6551SOL    HW131112   1.326   4.545  10.886  3.8162  1.1175 -0.1660
 6551SOL    HW231113   1.413   4.668  10.929  0.0703  1.8686  0.1529
 6552SOL     OW31114   0.801   4.387   3.463  0.0394 -0.5493  0.0464
 6552SOL    HW131115   0.892   4.359   3.474 -0.2824 -1.4118  0.5581
 6552SOL    HW231116   0.802   4.471   3.509  2.9596 -1.3453  1.4052
 6553SOL     OW31117   4.688   0.814   5.432 -0.0710 -0.3985  0.2332
 6553SOL    HW131118   4.611   0.842   5.483 -0.7069 -0.6408 -0.5915
 6553SOL    HW231119   4.639   0.778   5.358  0.5303 -0.1434 -0.2875
 6554SOL     OW31120   1.199   3.890  17.232 -0.5420  0.7034  0.5487
 6554SOL    HW131121   1.285   3.918  17.262  0.6575 -2.8919  0.3705
 6554SOL    HW231122   1.181   3.943  17.154  0.8660 -0.1016 -0.3271
 6555SOL     OW31123   0.864   2.735   4.552  0.0670 -0.9519 -0.1354
 6555SOL    HW131124   0.956   2.762   4.548  0.1917 -1.3098  0.4488
 6555SOL    HW231125   0.866   2.666   4.618  1.9647 -1.1815 -0.4277
 6556SOL     OW31126   0.933   1.234   8.883 -0.1760 -0.9938 -0.5434
 6556SOL    HW131127   0.889   1.150   8.885 -1.0433 -0.5519 -0.7744
 6556SOL    HW231128   1.015   1.224   8.930  1.1414 -3.0308 -3.2731
 6557SOL     OW31129   3.030   4.653   8.650 -0.0927  0.5212  0.2635
 6557SOL    HW131130   3.116   4.655   8.608 -0.3276  2.1749 -0.1401
 6557SOL    HW231131   3.024   0.019   8.679  0.4609  0.4188  0.7208
 6558SOL     OW31132   1.938   3.675   0.707 -0.2754 -0.1829 -0.7453
 6558SOL    HW131133   1.869   3.655   0.770  1.4496  2.3598  1.9436
 6558SOL    HW231134   1.895   3.749   0.664  2.3453  1.3010 -0.8122
 6559SOL     OW31135   2.769   3.206   1.033 -0.2514  0.1988  0.4858
 6559SOL    HW131136   2.690   3.252   1.063  1.2384  3.9151 -1.2314
 6559SOL    HW231137   2.788   3.239   0.945 -0.2706  0.8648  0.7283
 6560SOL     OW31138   0.577   4.436   5.209 -0.4423  0.1561 -0.2923
 6560SOL    HW131139   0.612   4.466   5.125  1.0394  0.5148  0.4434
 6560SOL    HW231140   0.532   4.512   5.245 -1.6056  0.1862 -1.8422
 6561SOL     OW31141   1.863   3.021   9.439  0.1935 -0.1685  0.0640
 6561SOL    HW131142   1.922   2.980   9.376 -0.4278 -1.3421  0.2539
 6561SOL    HW231143   1.875   3.114   9.420  0.3416 -0.1441  0.2836
 6562SOL     OW31144   0.848   3.956   4.278  0.6639  0.1085 -0.2528
 6562SOL    HW131145   0.763   3.959   4.323  1.3730  2.1279  0.9463
 6562SOL    HW231146   0.903   3.921   4.349 -0.0418 -0.3766  0.0557
 6563SOL     OW31147   1.869   4.005   7.363 -0.0594  0.0348  0.0576
 6563SOL    HW131148   1.947   4.059   7.352  0.0917  0.0171  0.9899
 6563SOL    HW231149   1.897   3.930   7.311  0.9053  1.4525 -1.4445
 6564SOL     OW31150   2.568   2.702   3.270 -0.5817 -0.5576 -0.8923
 6564SOL    HW131151   2.580   2.782   3.322 -1.4779  0.6915 -2.6050
 6564SOL    HW231152   2.552   2.638   3.340 -1.0324  0.7923  0.2418
 6565SOL     OW31153   0.469   1.982   7.485  0.0190  0.3915  1.0282
 6565SOL    HW131154   0.537   2.008   7.424 -0.3579  0.5396  0.6704
 6565SOL    HW231155   0.481   2.047   7.555  1.7894 -0.1545  1.2292
 6566SOL     OW31156   1.544   0.689   7.936 -0.4143  0.1359  0.4660
 6566SOL    HW131157   1.573   0.599   7.925 -2.0087 -0.0469 -2.2135
 6566SOL    HW231158   1.503   0.689   8.022 -0.1692 -2.3461  0.5750
 6567SOL     OW31159   1.010   4.557   5.456  0.0864  0.0087 -0.5416
 6567SOL    HW131160   1.100   4.589   5.462  0.4794 -0.7408 -2.6480
 6567SOL    HW231161   0.970   4.555   5.543  0.7675 -0.5537 -0.2419
 6568SOL     OW31162   3.630   3.697   7.938  0.2131  0.0543 -0.1628
 6568SOL    HW131163   3.713   3.704   7.986 -0.8959  0.2049  1.7125
 6568SOL    HW231164   3.650   3.614   7.895  1.2861  1.3029 -2.0825
 6569SOL     OW31165   3.921   0.977   3.529  0.1359 -0.0119 -0.2720
 6569SOL    HW131166   3.839   1.011   3.493 -0.4676  0.0403  1.1380
 6569SOL    HW231167   3.882   0.912   3.588  1.9847 -0.1991  0.7454
 6570SOL     OW31168   2.834   2.931   6.897 -0.0062  0.1705 -0.4433
 6570SOL    HW131169   2.757   2.886   6.863 -0.4820  0.4374  0.2830
 6570SOL    HW231170   2.855   2.982   6.818  0.3137  2.2950  1.0111
 6571SOL     OW31171   0.389   3.569   4.339  0.3955 -0.1820  0.6832
 6571SOL    HW131172   0.394   3.473   4.333  0.4527 -0.4094  4.5682
 6571SOL    HW231173   0.356   3.578   4.249  0.0886 -1.4997  0.6581
 6572SOL     OW31174   3.775   0.685   4.412  0.2415 -0.5467 -0.1715
 6572SOL    HW131175   3.701   0.740   4.436  1.2980  0.7422  0.1366
 6572SOL    HW231176   3.758   0.613   4.474 -0.1460  0.2292  0.6124
 6573SOL     OW31177   2.402   3.308  17.192  0.3496  0.8843 -0.5789
 6573SOL    HW131178   2.355   3.363  17.129  0.2145  0.3093 -0.9862
 6573SOL    HW231179   2.461   3.369  17.236 -0.9129  2.2071 -0.7263
 6574SOL     OW31180   0.238   4.393   9.328 -0.3500  0.1120 -0.3230
 6574SOL    HW131181   0.221   4.455   9.257  1.8208 -2.2862 -2.9352
 6574SOL    HW231182   0.296   4.335   9.278  2.0476  2.0062  0.2829
 6575SOL     OW31183   1.519   3.451   8.201  0.1775  0.0952 -0.0490
 6575SOL    HW131184   1.487   3.488   8.119  1.5943 -0.6843 -0.9387
 6575SOL    HW231185   1.604   3.420   8.172  0.2923  1.4659 -1.2075
 6576SOL     OW31186   1.685   3.594   3.684 -0.2713 -0.2991 -0.3644
 6576SOL    HW131187   1.763   3.556   3.644  1.2785  0.0497  2.3502
 6576SOL    HW231188   1.708   3.667   3.742 -0.1970 -0.1933 -0.5259
 6577SOL     OW31189   0.893   3.060   8.272 -0.0985 -0.6822 -0.5895
 6577SOL    HW131190   0.889   3.012   8.355  3.8477  0.0271  0.0023
 6577SOL    HW231191   0.879   2.988   8.211  0.5600  0.2877 -1.8779
 6578SOL     OW31192   3.197   2.185   0.895 -0.0406 -0.3415 -0.4955
 6578SOL    HW131193   3.123   2.203   0.952  1.9902  1.4969  1.5547
 6578SOL    HW231194   3.260   2.255   0.912 -0.2191  0.4107 -2.9501
 6579SOL     OW31195   4.202   2.562   6.786  0.0419  0.1718 -0.1838
 6579SOL    HW131196   4.136   2.531   6.724 -0.5191 -1.4366  1.2041
 6579SOL    HW231197   4.261   2.606   6.726  0.7224 -0.6444 -0.1041
 6580SOL     OW31198   3.031   2.186   2.328 -0.4813 -0.0706 -0.1756
 6580SOL    HW131199   3.077   2.189   2.412  1.1584  0.1164 -1.0840
 6580SOL    HW231200   2.986   2.102   2.338  1.0987 -0.9615 -0.6083
 6581SOL     OW31201   4.105   2.194   6.685 -0.1136 -0.4028  0.5439
 6581SOL    HW131202   4.120   2.278   6.641  2.3044 -1.0821  0.0853
 6581SOL    HW231203   4.187   2.170   6.727  0.2461 -0.1534 -0.0100
 6582SOL     OW31204   1.411   2.791   4.034 -0.6267 -0.0643  0.6426
 6582SOL    HW131205   1.437   2.784   3.943 -0.5597  1.2476  0.5626
 6582SOL    HW231206   1.451   2.707   4.055  3.0042  0.4138 -4.3317
 6583SOL     OW31207   3.230   3.155   0.314  0.4125  0.6058  0.0752
 6583SOL    HW131208   3.140   3.123   0.303  0.4918  0.7570 -0.9790
 6583SOL    HW231209   3.215   3.247   0.296  0.0300  0.8699  1.7309
 6584SOL     OW31210   4.670   1.501  13.870  0.4472 -0.4188 -1.2065
 6584SOL    HW131211   4.601   1.546  13.919  0.9206  0.3808 -1.2851
 6584SOL    HW231212   4.609   1.432  13.843  1.0381 -1.1670 -0.6247
 6585SOL     OW31213   4.640   1.741  17.154 -0.2114 -0.9280  0.0907
 6585SOL    HW131214   4.714   1.769  17.207 -0.8583  0.7979  0.1074
 6585SOL    HW231215   4.693   1.697  17.088 -0.9262  0.4116 -1.3865
 6586SOL     OW31216   2.766   0.167   6.035 -0.5272 -0.4912 -0.0202
 6586SOL    HW131217   2.749   0.106   5.964  0.2971 -0.0450 -0.6101
 6586SOL    HW231218   2.677   0.191   6.061  0.0907  2.1378 -0.3606
 6587SOL     OW31219   1.160   2.600   4.175 -0.3765  0.3362 -0.2520
 6587SOL    HW131220   1.142   2.548   4.096  0.7839  0.6039 -0.7018
 6587SOL    HW231221   1.231   2.543   4.207  0.2194  1.0805 -0.2571
 6588SOL     OW31222   4.276   0.028   5.984  1.2924  0.3712  0.3525
 6588SOL    HW131223   4.338   0.011   6.054 -0.7422 -1.5818  1.6934
 6588SOL    HW231224   4.270   4.661   5.959  1.7252  0.2567  0.6690
 6589SOL     OW31225   4.325   0.086  14.185  0.0193 -0.1108 -0.0304
 6589SOL    HW131226   4.305   0.178  14.164  0.5916 -0.3929 -1.8506
 6589SOL    HW231227   4.387   0.065  14.115 -1.4738 -1.3302 -0.9741
 6590SOL     OW31228   0.326   2.501   3.320  0.7344  0.2718  0.0014
 6590SOL    HW131229   0.363   2.558   3.388  1.2545  0.6514 -0.6007
 6590SOL    HW231230   0.290   2.569   3.263 -2.4154 -0.7036  0.8269
 6591SOL     OW31231   3.958   4.283   1.259 -0.3596 -0.4337  0.5390
 6591SOL    HW131232   4.046   4.268   1.292 -0.6216 -1.6590  0.7116
 6591SOL    HW231233   3.953   4.371   1.294  1.0969 -0.4633  0.8304
 6592SOL     OW31234   2.158   2.805   5.299  0.1772  0.0862 -0.1632
 6592SOL    HW131235   2.115   2.774   5.219 -3.3174  0.6387  1.4879
 6592SOL    HW231236   2.193   2.721   5.327 -1.8026 -0.2317  1.3269
 6593SOL     OW31237   0.183   4.189   7.223  0.0296  0.1695 -0.6957
 6593SOL    HW131238   0.211   4.116   7.278 -0.8098  0.2980 -0.1080
 6593SOL    HW231239   0.091   4.163   7.214  0.2334 -0.9224  0.3575
 6594SOL     OW31240   1.251   0.502  11.458 -0.1430 -0.0543 -0.9679
 6594SOL    HW131241   1.191   0.497  11.533  1.9337  0.7164  0.7494
 6594SOL    HW231242   1.301   0.421  11.473  0.4625  0.4646 -0.1983
 6595SOL     OW31243   1.473   4.010  15.408  0.2928 -0.2351 -0.1927
 6595SOL    HW131244   1.387   4.049  15.389 -0.7347 -2.3808  0.0206
 6595SOL    HW231245   1.518   4.078  15.458  0.3238 -1.8703  2.0226
 6596SOL     OW31246   4.686   1.957   7.027 -0.3548 -0.3477 -0.5813
 6596SOL    HW131247   0.001   2.037   6.993 -0.7280 -0.3686 -1.0640
 6596SOL    HW231248   4.694   1.897   6.953 -1.1113  1.5643 -2.2240
 6597SOL     OW31249   0.114   2.211   8.779  0.0056 -0.7216  0.2846
 6597SOL    HW131250   0.081   2.143   8.838  0.3226  0.7333  2.1279
 6597SOL    HW231251   0.034   2.253   8.747 -0.5216 -1.5892  0.4521
 6598SOL     OW31252   3.583   0.374   9.106  0.3928 -0.4044  0.2724
 6598SOL    HW131253   3.520   0.354   9.037 -1.7518  1.6722  1.6125
 6598SOL    HW231254   3.590   0.288   9.146  0.2168 -0.7166 -0.3742
 6599SOL     OW31255   4.197   4.556   7.560 -0.2064 -0.1151  0.1019
 6599SOL    HW131256   4.129   4.623   7.558  0.1487  0.2655  1.1530
 6599SOL    HW231257   4.270   4.615   7.577  0.1985  0.2867 -2.9075
 6600SOL     OW31258   3.516   0.799   3.426 -0.3161 -0.3163 -0.4051
 6600SOL    HW131259   3.489   0.760   3.344 -2.0423  0.5295 -0.2404
 6600SOL    HW231260   3.503   0.894   3.423 -1.6728 -0.5430 -1.4460
 6601SOL     OW31261   2.991   2.416   9.135 -0.0246  0.0219  0.4829
 6601SOL    HW131262   3.079   2.396   9.167  0.7493  2.5746 -0.0303
 6601SOL    HW231263   3.007   2.508   9.111  0.6714 -0.3350 -0.4028
 6602SOL     OW31264   3.131   0.433   6.251 -0.8321  0.2813  0.7597
 6602SOL    HW131265   3.183   0.363   6.212 -2.5609 -1.5156  1.6387
 6602SOL    HW231266   3.045   0.391   6.241 -0.2721 -0.6756 -0.0599
 6603SOL     OW31267   4.496   4.662   6.124  0.0964  0.1490 -0.3236
 6603SOL    HW131268   4.558   4.706   6.066 -0.0562  2.3784  1.2015
 6603SOL    HW231269   4.509   4.713   6.204  1.7283 -1.0387  0.1678
 6604SOL     OW31270   0.830   0.093   5.484  0.0100  0.7892 -0.1561
 6604SOL    HW131271   0.750   0.073   5.532 -0.7320  1.6007 -1.0351
 6604SOL    HW231272   0.893   0.049   5.541 -2.1028 -0.9752  0.8224
 6605SOL     OW31273   1.337   4.088   2.967 -0.0236 -0.1648  0.4296
 6605SOL    HW131274   1.271   4.076   3.036  1.5423 -1.7838  1.6667
 6605SOL    HW231275   1.362   3.997   2.955  1.9192  0.4150  0.1584
 6606SOL     OW31276   4.177   4.633  14.396 -0.5225 -0.2586  0.2968
 6606SOL    HW131277   4.209   4.548  14.426 -0.2793  0.3005  1.6303
 6606SOL    HW231278   4.107   4.609  14.335  0.6187  2.4233 -2.0106
 6607SOL     OW31279   3.516   2.813   7.251  0.4915  0.6977 -0.3457
 6607SOL    HW131280   3.430   2.795   7.214  0.6311  1.7288 -1.1790
 6607SOL    HW231281   3.564   2.842   7.173 -1.9791  0.1833 -2.0310
 6608SOL     OW31282   3.997   3.463   3.639  0.2982 -0.4082  0.4233
 6608SOL    HW131283   4.046   3.415   3.571  0.3021  0.1857  0.0075
 6608SOL    HW231284   4.056   3.537   3.654 -1.3759  0.8859  0.5011
 6609SOL     OW31285   0.092   0.850  14.154  0.0379 -0.3294 -0.5304
 6609SOL    HW131286   0.186   0.862  14.163 -0.5337  4.2695 -0.6377
 6609SOL    HW231287   0.060   0.850  14.244 -0.2518  2.2687 -0.6161
 6610SOL     OW31288   1.879   2.796   1.932 -0.5458 -0.1768 -0.4568
 6610SOL    HW131289   1.796   2.825   1.969 -1.0191 -2.6266  0.3738
 6610SOL    HW231290   1.945   2.860   1.959 -0.2839 -0.9127  0.6206
 6611SOL     OW31291   2.283   2.352   8.156  0.2280 -0.0901 -0.1848
 6611SOL    HW131292   2.259   2.348   8.064  1.7307  0.8194 -0.6170
 6611SOL    HW231293   2.336   2.431   8.166  2.5318 -1.6207 -0.0463
 6612SOL     OW31294   3.215   2.580   1.513 -0.2789  0.3708  0.1361
 6612SOL    HW131295   3.266   2.508   1.550  0.5854 -0.2398 -2.2294
 6612SOL    HW231296   3.188   2.551   1.426  1.7820 -0.2035 -0.3115
 6613SOL     OW31297   3.423   1.549   7.018 -0.2386  0.7802 -0.1383
 6613SOL    HW131298   3.488   1.594   6.964 -1.0063  1.1270 -0.7822
 6613SOL    HW231299   3.481   1.522   7.089  0.4302  2.0217 -0.2030
 6614SOL     OW31300   0.892   3.134   3.583  0.4597  0.0169  0.3287
 6614SOL    HW131301   0.884   3.039   3.576  0.6757 -0.0994  1.6867
 6614SOL    HW231302   0.876   3.168   3.495  0.5806 -1.1986 -0.1499
 6615SOL     OW31303   1.788   1.071   2.522  0.0921  0.0095 -0.0398
 6615SOL    HW131304   1.713   1.016   2.502 -1.2167  1.7026  0.2315
 6615SOL    HW231305   1.858   1.010   2.500  0.8642  1.6674 -2.1512
 6616SOL     OW31306   0.663   0.892   6.503  0.1839 -0.0890  0.0914
 6616SOL    HW131307   0.758   0.875   6.500  0.0578 -0.8648  0.3458
 6616SOL    HW231308   0.662   0.935   6.418  2.5499  0.3046  0.2607
 6617SOL     OW31309   2.097   1.800   2.549 -0.3147  1.0278 -0.6951
 6617SOL    HW131310   2.054   1.725   2.591  0.7218  0.5119 -0.5625
 6617SOL    HW231311   2.080   1.787   2.456 -0.0013  0.5439 -0.6817
 6618SOL     OW31312   0.769   1.138  13.425  0.0194 -0.2879  0.1262
 6618SOL    HW131313   0.783   1.180  13.510 -1.6181  0.1824  0.1625
 6618SOL    HW231314   0.680   1.106  13.437 -0.2030 -1.1719 -3.9868
 6619SOL     OW31315   0.208   2.733   3.913 -0.7122  0.1668 -0.3841
 6619SOL    HW131316   0.240   2.817   3.878 -0.3478  1.1795  2.3670
 6619SOL    HW231317   0.291   2.694   3.942 -0.3498  2.4996  1.7044
 6620SOL     OW31318   3.676   0.970   1.181  0.0961 -0.5176 -0.1546
 6620SOL    HW131319   3.588   0.969   1.142  0.4459  0.7595 -0.9897
 6620SOL    HW231320   3.714   1.035   1.121  0.0563 -1.4736 -1.2191
 6621SOL     OW31321   3.029   3.415   1.949  0.1934 -0.2089 -0.5419
 6621SOL    HW131322   3.104   3.417   1.889 -0.2617  0.3635 -1.0899
 6621SOL    HW231323   3.076   3.421   2.032 -2.8666 -2.5227  1.3473
 6622SOL     OW31324   0.331   3.537  15.355 -0.3532 -0.2598 -0.1801
 6622SOL    HW131325   0.342   3.461  15.412 -0.2919 -0.0647  0.0671
 6622SOL    HW231326   0.280   3.495  15.285 -0.3690  0.5684 -0.6642
 6623SOL     OW31327   0.592   0.843   9.643 -0.0681 -0.7128 -1.1068
 6623SOL    HW131328   0.617   0.860   9.552  0.3733  1.3562 -0.6027
 6623SOL    HW231329   0.611   0.751   9.660 -1.7299 -0.4923  1.9870
 6624SOL     OW31330   4.607   2.592  10.379 -0.8155  0.2886 -0.3101
 6624SOL    HW131331   4.669   2.661  10.359 -0.5714 -0.2360 -1.3835
 6624SOL    HW231332   4.584   2.564  10.290  2.1020 -1.2197 -0.5764
 6625SOL     OW31333   1.120   4.228   9.224 -0.0516  0.4484 -0.4251
 6625SOL    HW131334   1.209   4.235   9.189 -0.1243  0.9185 -0.5171
 6625SOL    HW231335   1.124   4.173   9.302  0.9978  0.4947 -0.4436
 6626SOL     OW31336   3.340   2.647   7.876 -0.2418 -0.5517 -0.2336
 6626SOL    HW131337   3.433   2.670   7.875 -0.0902 -1.2268 -1.5845
 6626SOL    HW231338   3.332   2.573   7.935 -2.2367  0.8905  1.3096
 6627SOL     OW31339   1.703   0.012   4.867  0.2269 -0.1674  0.0231
 6627SOL    HW131340   1.721   0.060   4.786 -2.0748  0.2292 -0.2416
 6627SOL    HW231341   1.686   0.071   4.940 -3.3361 -2.0522  0.7384
 6628SOL     OW31342   2.815   0.336  10.091 -0.0188  0.0657 -0.0759
 6628SOL    HW131343   2.759   0.347  10.015 -1.6803  2.1424  1.4422
 6628SOL    HW231344   2.773   0.256  10.121 -0.4570 -0.1552 -1.2985
 6629SOL     OW31345   0.111   3.284   5.726  0.6100 -0.0668  0.1896
 6629SOL    HW131346   0.185   3.343   5.738 -1.3209  2.4629 -0.2319
 6629SOL    HW231347   0.049   3.334   5.780  0.0974  1.7644 -2.0686
 6630SOL     OW31348   3.340   1.367  10.564 -0.0880  0.3522  0.1673
 6630SOL    HW131349   3.255   1.326  10.549 -0.3234  0.3741  1.4820
 6630SOL    HW231350   3.345   1.344  10.656 -1.2394  2.0258  0.6303
 6631SOL     OW31351   1.526   4.635  15.772  0.1373  0.8760  0.4373
 6631SOL    HW131352   1.442   4.625  15.727 -0.1499  2.6109  0.5937
 6631SOL    HW231353   1.569   4.553  15.746  1.2229  2.2609 -2.1761
 6632SOL     OW31354   0.614   0.569   1.065  0.2260  0.3954  0.4770
 6632SOL    HW131355   0.519   0.567   1.049 -0.0675  0.9953  2.1255
 6632SOL    HW231356   0.611   0.581   1.160 -1.3249  0.0672  0.4721
 6633SOL     OW31357   0.437   0.086   7.001 -0.0412  0.7902 -0.3301
 6633SOL    HW131358   0.385   0.011   6.973  0.3559  0.6409 -0.6622
 6633SOL    HW231359   0.512   0.091   6.942  1.1993 -3.0699  0.9484
 6634SOL     OW31360   2.494   0.618   6.834 -0.1550 -0.5947 -0.2333
 6634SOL    HW131361   2.436   0.555   6.792  0.0657  0.3616 -1.9854
 6634SOL    HW231362   2.461   0.706   6.812 -1.6528 -1.7222 -2.4460
 6635SOL     OW31363   2.490   0.443   7.386  0.4178  0.0889  0.0018
 6635SOL    HW131364   2.438   0.489   7.453  0.2637 -1.2314  0.7802
 6635SOL    HW231365   2.442   0.360   7.391 -1.9815  1.6523  3.2928
 6636SOL     OW31366   1.681   0.650  10.322 -0.4954  0.6396 -0.1075
 6636SOL    HW131367   1.631   0.652  10.240 -0.2485  3.4818 -0.2038
 6636SOL    HW231368   1.642   0.728  10.361  1.9666  1.6785  0.2356
 6637SOL     OW31369   3.493   0.463   6.608  0.1131 -0.4452 -0.8262
 6637SOL    HW131370   3.413   0.421   6.637 -1.0105  0.9559 -1.9026
 6637SOL    HW231371   3.519   0.516   6.683  1.0475 -4.1113  1.4497
 6638SOL     OW31372   0.739   4.449  11.710  0.1722  0.0289 -0.0896
 6638SOL    HW131373   0.804   4.464  11.641 -0.0955 -1.3667 -0.6459
 6638SOL    HW231374   0.669   4.509  11.687  0.4361  0.3517 -0.0459
 6639SOL     OW31375   0.897   4.258   4.202 -0.3619 -0.1715  0.5276
 6639SOL    HW131376   0.806   4.233   4.187  0.1723 -0.6853 -1.8678
 6639SOL    HW231377   0.935   4.170   4.204 -2.4352 -1.0354  1.4186
 6640SOL     OW31378   4.486   1.573   8.742 -0.1446  0.9047  0.0588
 6640SOL    HW131379   4.575   1.536   8.744 -0.0630  1.0487 -0.8696
 6640SOL    HW231380   4.498   1.662   8.776  2.9411 -0.0762  1.5617
 6641SOL     OW31381   3.566   3.476  14.124  0.1617  0.5597  0.2431
 6641SOL    HW131382   3.484   3.428  14.135  0.9458 -0.4666  1.6055
 6641SOL    HW231383   3.529   3.562  14.107 -0.8149  0.3513  1.3729
 6642SOL     OW31384   2.605   4.664   2.778 -0.1728 -0.4925 -0.0351
 6642SOL    HW131385   2.659   4.690   2.852 -0.7894 -1.2087  0.6606
 6642SOL    HW231386   2.536   0.005   2.775 -0.7992 -1.0655  1.9564
 6643SOL     OW31387   0.766   3.722   6.444  0.0784 -0.1450  0.4213
 6643SOL    HW131388   0.734   3.644   6.400  0.8960 -0.2544  0.0291
 6643SOL    HW231389   0.849   3.735   6.398  1.2151 -0.7429  2.3038
 6644SOL     OW31390   0.730   3.378   8.581 -0.0785 -0.3472  0.1031
 6644SOL    HW131391   0.717   3.445   8.649 -2.2570 -0.9759  0.3014
 6644SOL    HW231392   0.757   3.437   8.511 -1.2990  1.1098  0.8706
 6645SOL     OW31393   0.468   2.751   4.438 -0.7727  0.8665 -0.0768
 6645SOL    HW131394   0.497   2.824   4.494  1.4254  0.5426 -0.7644
 6645SOL    HW231395   0.436   2.784   4.354 -2.1193  0.1934  0.1769
 6646SOL     OW31396   2.695   1.006   2.489  0.0759 -0.7626  0.4157
 6646SOL    HW131397   2.652   1.091   2.485  1.6317 -0.0191 -0.4028
 6646SOL    HW231398   2.766   1.018   2.552 -1.0160 -3.1252  2.0899
 6647SOL     OW31399   1.536   2.557  14.882  0.5783  0.1756 -0.1712
 6647SOL    HW131400   1.488   2.483  14.844  2.0331 -0.6653 -0.3544
 6647SOL    HW231401   1.551   2.545  14.976 -0.6246 -1.4192 -0.1945
 6648SOL     OW31402   2.915   2.602   9.947 -0.0585 -0.2117 -0.1098
 6648SOL    HW131403   2.976   2.535   9.915  0.5978  0.6641 -0.6785
 6648SOL    HW231404   2.845   2.589   9.883  1.8372 -1.9312 -1.8442
 6649SOL     OW31405   2.874   1.026   8.354  0.4107 -0.4010  0.4795
 6649SOL    HW131406   2.897   1.014   8.446 -0.2112 -0.3785  0.6416
 6649SOL    HW231407   2.815   0.951   8.356 -0.6530  0.4711  1.8290
 6650SOL     OW31408   0.636   3.711   0.016  0.0232  0.0307 -0.4765
 6650SOL    HW131409   0.544   3.697   0.040  0.4908 -1.2685  0.6065
 6650SOL    HW231410   0.638   3.658  17.638 -0.2647  0.3820 -0.7170
 6651SOL     OW31411   3.409   2.236  16.517 -0.6355  0.3436  0.0040
 6651SOL    HW131412   3.321   2.227  16.555 -1.1987 -2.0914 -1.8720
 6651SOL    HW231413   3.458   2.173  16.570  2.3414  1.7682 -1.0599
 6652SOL     OW31414   3.596   3.594   3.038  0.1413 -0.4662 -0.2970
 6652SOL    HW131415   3.523   3.545   3.001 -0.5998  0.5909 -0.2398
 6652SOL    HW231416   3.616   3.637   2.955  2.2922  0.1013  0.4970
 6653SOL     OW31417   1.101   1.321   5.883  0.1178 -0.1879 -0.0430
 6653SOL    HW131418   1.060   1.389   5.829 -0.7387 -0.5994  0.0818
 6653SOL    HW231419   1.192   1.329   5.855 -0.0785  0.1173 -0.6093
 6654SOL     OW31420   0.057   1.942   4.265  0.0709 -0.1530 -0.1902
 6654SOL    HW131421   0.152   1.952   4.273  0.1324  0.2246 -1.4458
 6654SOL    HW231422   0.038   1.909   4.178  0.2991 -0.2064 -0.2197
 6655SOL     OW31423   2.291   2.911  15.241  0.5449  0.1369 -0.7022
 6655SOL    HW131424   2.298   3.007  15.248 -2.2587  0.3236 -0.4131
 6655SOL    HW231425   2.198   2.911  15.264  0.4202 -0.0579 -1.2071
 6656SOL     OW31426   4.683   0.877   8.380  0.2424  0.0490  0.6389
 6656SOL    HW131427   4.621   0.902   8.312 -1.1134 -0.2789  1.7483
 6656SOL    HW231428   4.637   0.850   8.460 -1.1693 -1.3603 -0.6416
 6657SOL     OW31429   3.810   0.561  14.009  0.0301  0.4268 -0.5290
 6657SOL    HW131430   3.729   0.606  14.033  0.5239  1.4559 -0.7789
 6657SOL    HW231431   3.775   0.481  13.970 -0.8499 -0.1956  1.5418
 6658SOL     OW31432   4.288   2.995   4.598 -0.4960  0.5535 -0.6116
 6658SOL    HW131433   4.333   2.932   4.654 -0.7422 -0.0449 -1.0715
 6658SOL    HW231434   4.226   2.939   4.551 -1.3859  0.0548  1.1645
 6659SOL     OW31435   1.942   0.960  15.299 -0.2840 -0.0403 -0.0813
 6659SOL    HW131436   1.959   0.866  15.308  1.4277  0.2547 -0.2278
 6659SOL    HW231437   1.914   0.999  15.381  0.3096 -0.4056  0.2990
 6660SOL     OW31438   2.389   0.748  12.727 -0.2694 -0.6399  0.1548
 6660SOL    HW131439   2.347   0.783  12.648 -2.9115 -1.5021  1.1898
 6660SOL    HW231440   2.314   0.734  12.785  0.2306 -2.0913  0.4251
 6661SOL     OW31441   2.049   1.486  15.037  0.2061  0.0417 -0.6720
 6661SOL    HW131442   2.007   1.570  15.022  0.4191  0.3694  0.5882
 6661SOL    HW231443   2.101   1.496  15.116 -0.8100  2.4670 -0.3237
 6662SOL     OW31444   1.959   1.543   2.563 -0.1063  0.0707  0.5588
 6662SOL    HW131445   1.936   1.519   2.653 -0.0059  0.5926  0.7260
 6662SOL    HW231446   2.033   1.486   2.543  1.1129  1.1420  1.9854
 6663SOL     OW31447   3.705   4.579   4.756 -0.1762 -0.0796  0.1940
 6663SOL    HW131448   3.794   4.593   4.786 -0.0224 -1.0298  0.1718
 6663SOL    HW231449   3.731   4.545   4.670 -2.6134 -0.9089 -0.2310
 6664SOL     OW31450   1.494   3.044   2.048  0.5310 -0.4115 -0.5829
 6664SOL    HW131451   1.401   3.024   2.063  0.4096 -0.5187 -1.4723
 6664SOL    HW231452   1.520   2.957   2.018 -1.4901 -1.2838  0.1434
 6665SOL     OW31453   0.283   1.365   3.920 -0.3948  0.6965 -0.1268
 6665SOL    HW131454   0.334   1.384   3.841  0.3918  1.1158  0.4907
 6665SOL    HW231455   0.227   1.443   3.915 -1.8409 -0.3405 -0.3760
 6666SOL     OW31456   1.999   0.472   1.563 -0.3670  0.4953 -0.2793
 6666SOL    HW131457   2.010   0.377   1.564  2.1327  0.7927  0.9496
 6666SOL    HW231458   2.089   0.504   1.567 -0.9407  1.8743  1.4633
 6667SOL     OW31459   3.262   4.449  12.922  0.1374 -0.0311  0.6537
 6667SOL    HW131460   3.221   4.455  13.009  1.3830  2.4656  1.0753
 6667SOL    HW231461   3.353   4.456  12.952 -0.4474  2.4072  1.8145
 6668SOL     OW31462   1.719   3.806   1.882 -0.6015 -0.0141  0.6747
 6668SOL    HW131463   1.635   3.760   1.885 -0.8148  0.3435  0.1123
 6668SOL    HW231464   1.707   3.882   1.939  0.3250  0.9556 -0.4323
 6669SOL     OW31465   3.544   4.111   6.316 -0.0717 -0.9678 -0.3226
 6669SOL    HW131466   3.511   4.139   6.402  1.5711 -1.5531  0.4991
 6669SOL    HW231467   3.467   4.067   6.281 -1.0523  1.0419 -0.6362
 6670SOL     OW31468   2.420   3.995   5.845 -0.0194  0.1921  0.5034
 6670SOL    HW131469   2.425   4.062   5.777  2.2066  0.6402  1.1092
 6670SOL    HW231470   2.513   3.992   5.867 -0.0349  0.7073  0.6384
 6671SOL     OW31471   3.879   4.668   5.496 -0.4778 -0.1448 -0.2258
 6671SOL    HW131472   3.884   4.612   5.419  2.1921 -0.4744  0.1861
 6671SOL    HW231473   3.892   4.602   5.564  0.5162 -2.0470 -2.2464
 6672SOL     OW31474   0.040   0.058   5.321  0.5451 -0.3916 -0.0131
 6672SOL    HW131475   4.718   0.105   5.390  1.6361  1.7605 -0.7438
 6672SOL    HW231476   0.121   0.108   5.320  0.9538 -1.0554 -0.4721
 6673SOL     OW31477   4.556   0.310   4.068  0.3092  0.3190  0.5704
 6673SOL    HW131478   4.638   0.355   4.085 -0.4354  2.6333 -2.1419
 6673SOL    HW231479   4.521   0.313   4.157 -2.1813  1.3603 -0.4370
 6674SOL     OW31480   2.608   2.503   2.115  0.2047 -0.0437 -0.4045
 6674SOL    HW131481   2.629   2.585   2.070  0.7855 -0.5783 -1.1006
 6674SOL    HW231482   2.558   2.466   2.043 -0.0503 -0.8354  0.1753
 6675SOL     OW31483   0.040   1.206   4.435  0.4654  0.2150 -0.2639
 6675SOL    HW131484   0.030   1.156   4.354  1.7103  0.4929 -0.5774
 6675SOL    HW231485   4.681   1.252   4.441  0.8159  0.7753  0.2418
 6676SOL     OW31486   3.424   4.523  12.597 -0.3098  0.2397  0.1430
 6676SOL    HW131487   3.405   4.489  12.684 -0.3935 -0.8405 -0.2944
 6676SOL    HW231488   3.509   4.480  12.585 -0.4725  0.1579 -0.6910
 6677SOL     OW31489   1.777   0.155   4.656 -0.3970  0.0867 -0.3932
 6677SOL    HW131490   1.770   0.250   4.660  2.7089  0.2893  0.6993
 6677SOL    HW231491   1.759   0.142   4.563 -2.1309 -0.7434  0.0737
 6678SOL     OW31492   4.506   0.275   8.596  0.3374 -0.7657  0.3653
 6678SOL    HW131493   4.421   0.294   8.636  0.3692 -0.2627  0.1880
 6678SOL    HW231494   4.561   0.314   8.664  0.9820 -2.1617  0.6379
 6679SOL     OW31495   0.173   0.681   5.573  0.5825 -0.1177  0.3049
 6679SOL    HW131496   0.241   0.730   5.527 -0.4557  1.4170  0.4064
 6679SOL    HW231497   0.092   0.702   5.526  0.7714  1.4641  0.7141
 6680SOL     OW31498   0.058   3.204   7.350  0.0891 -0.1018  0.4073
 6680SOL    HW131499   0.082   3.116   7.323 -2.2376 -0.2268 -1.2635
 6680SOL    HW231500   4.687   3.204   7.352  0.0814 -0.2266  0.0777
 6681SOL     OW31501   0.730   3.545   6.695  0.8589  0.7706  0.6475
 6681SOL    HW131502   0.659   3.571   6.636  0.5314  2.3895  1.7481
 6681SOL    HW231503   0.784   3.507   6.626 -0.8363  0.6844 -0.6253
 6682SOL     OW31504   2.598   4.648   5.586  0.3335 -0.1654  0.2165
 6682SOL    HW131505   2.512   4.688   5.603  0.0203 -0.6307 -0.2830
 6682SOL    HW231506   2.574   4.566   5.629  3.5089  0.3612  2.9493
 6683SOL     OW31507   2.315   4.085   8.360 -0.6342  0.9436 -0.2805
 6683SOL    HW131508   2.266   4.089   8.443 -1.8614  1.2952 -1.0170
 6683SOL    HW231509   2.376   4.154   8.387  1.9324 -1.7261  0.7634
 6684SOL     OW31510   3.787   0.671   0.120  0.5561  0.3871 -0.2726
 6684SOL    HW131511   3.806   0.704   0.207  2.1882 -0.3332 -0.3489
 6684SOL    HW231512   3.721   0.605   0.138  0.7537  0.5107  0.8895
 6685SOL     OW31513   4.038   2.254   2.173  0.1320  0.2188  0.2816
 6685SOL    HW131514   4.088   2.321   2.126 -0.1602  0.7647  0.7462
 6685SOL    HW231515   3.964   2.238   2.115  2.2635 -3.2184 -1.4672
 6686SOL     OW31516   1.934   2.072   4.575  0.1054 -0.1468  0.0442
 6686SOL    HW131517   1.860   2.017   4.550 -0.4986  0.7516 -0.1141
 6686SOL    HW231518   1.935   2.142   4.509 -1.5432 -1.1446 -1.0288
 6687SOL     OW31519   0.247   2.954   6.773  0.8199 -0.7608 -0.4483
 6687SOL    HW131520   0.193   2.888   6.817 -0.1390 -0.1697 -0.7203
 6687SOL    HW231521   0.204   3.035   6.802 -0.5059 -1.1374 -1.3669
 6688SOL     OW31522   3.117   0.229  15.956 -0.1232 -0.2678 -0.2337
 6688SOL    HW131523   3.117   0.299  15.890 -1.4482 -0.4194 -0.3933
 6688SOL    HW231524   3.166   0.283  16.019 -1.0457  0.1320  0.1367
 6689SOL     OW31525   1.102   2.128   2.173 -0.0298  0.7223 -0.3250
 6689SOL    HW131526   1.012   2.096   2.175  0.0434  0.6127  1.2902
 6689SOL    HW231527   1.126   2.141   2.265  1.4847  1.4792 -0.8240
 6690SOL     OW31528   2.292   4.401   6.425 -0.2600 -0.2454 -0.1213
 6690SOL    HW131529   2.277   4.460   6.499  1.6623 -1.0253  0.8872
 6690SOL    HW231530   2.235   4.332   6.459 -0.2863 -0.0130  0.3115
 6691SOL     OW31531   0.220   0.004   5.919  0.3396 -0.3829  0.4311
 6691SOL    HW131532   0.232   0.093   5.954  2.1720 -0.1871 -0.6792
 6691SOL    HW231533   0.260   4.684   5.993  0.0868  1.0991  1.4788
 6692SOL     OW31534   3.492   3.521  12.213  0.0112  0.0790  0.8793
 6692SOL    HW131535   3.546   3.510  12.135 -1.1911 -0.3105  0.1069
 6692SOL    HW231536   3.413   3.475  12.185 -0.1336  0.6059  0.4275
 6693SOL     OW31537   0.579   2.230   4.486 -0.2634 -0.0896 -0.3609
 6693SOL    HW131538   0.622   2.148   4.459 -1.5413 -1.3025  1.2435
 6693SOL    HW231539   0.585   2.273   4.401 -0.5513 -1.1274 -0.9105
 6694SOL     OW31540   3.955   4.704   0.461 -0.0558  0.4317  0.3125
 6694SOL    HW131541   3.882   4.644   0.476  0.3725 -0.6241 -1.8025
 6694SOL    HW231542   3.907   0.057   0.432 -0.4458  0.0883  0.0444
 6695SOL     OW31543   1.637   0.123   5.991  1.1395  0.0108  0.1896
 6695SOL    HW131544   1.730   0.144   6.001  0.9557  1.4743 -1.2504
 6695SOL    HW231545   1.638   0.027   5.998  0.7192 -0.0578 -0.7854
 6696SOL     OW31546   1.503   3.876   5.005 -0.2338  0.7916 -0.9448
 6696SOL    HW131547   1.539   3.881   5.093 -3.3395  1.4363  0.2814
 6696SOL    HW231548   1.458   3.792   5.006  1.1173  0.0679 -1.8591
 6697SOL     OW31549   3.419   0.834  14.808 -0.2447  0.3449 -0.0155
 6697SOL    HW131550   3.336   0.881  14.803  0.6138  2.3464  3.6932
 6697SOL    HW231551   3.462   0.911  14.847  0.9351 -0.0474 -0.5449
 6698SOL     OW31552   3.792   2.481   3.974  0.3251  0.2101 -0.3105
 6698SOL    HW131553   3.813   2.446   4.060  0.4992 -0.5056 -0.6486
 6698SOL    HW231554   3.751   2.563   4.003  1.4647 -0.1017  2.1428
 6699SOL     OW31555   1.620   2.056   3.562  0.2478 -0.5747  0.5586
 6699SOL    HW131556   1.706   2.047   3.522  0.1595  0.3417  0.1603
 6699SOL    HW231557   1.565   2.061   3.483  1.2620 -1.3955 -0.2042
 6700SOL     OW31558   2.907   3.473  17.325 -0.1459  0.1773  0.6682
 6700SOL    HW131559   2.938   3.456  17.236 -3.2838  2.4279 -0.8245
 6700SOL    HW231560   2.865   3.559  17.321 -2.1710 -0.8685 -0.5738
 6701SOL     OW31561   2.701   2.401   6.869  0.0241  0.3457 -0.4569
 6701SOL    HW131562   2.725   2.315   6.835 -2.8150 -0.3658 -0.6052
 6701SOL    HW231563   2.789   2.429   6.897  1.0575 -2.0152 -1.3602
 6702SOL     OW31564   2.702   1.884   0.646  0.3210  0.4499 -0.1893
 6702SOL    HW131565   2.787   1.909   0.610  1.0981  3.4657  3.8448
 6702SOL    HW231566   2.663   1.843   0.568 -1.0961 -2.5835  2.1148
 6703SOL     OW31567   0.586   3.825  10.479 -0.2343 -0.5747 -0.3729
 6703SOL    HW131568   0.611   3.915  10.502 -0.5033 -0.4481 -0.5701
 6703SOL    HW231569   0.500   3.814  10.519 -0.2925 -0.0160 -0.3351
 6704SOL     OW31570   1.999   0.787   9.818  0.6886 -0.0702  0.3065
 6704SOL    HW131571   2.074   0.744   9.859  0.9242 -0.6644 -0.7440
 6704SOL    HW231572   2.043   0.842   9.752 -0.8596  1.2427  0.3624
 6705SOL     OW31573   3.199   1.877  16.996 -0.0118 -0.0373 -0.0644
 6705SOL    HW131574   3.207   1.956  16.942  1.0039 -0.4943 -0.5907
 6705SOL    HW231575   3.137   1.816  16.957 -1.3248  1.9799 -1.1065
 6706SOL     OW31576   3.121   0.319  13.549 -0.3836  0.1828 -0.4156
 6706SOL    HW131577   3.117   0.379  13.624  1.3305 -1.1253  0.7504
 6706SOL    HW231578   3.209   0.282  13.553 -0.1661  0.7321 -0.0192
 6707SOL     OW31579   1.088   4.318  11.599 -0.7048  0.0660  0.2852
 6707SOL    HW131580   1.046   4.398  11.568 -1.5116  0.0201  1.2565
 6707SOL    HW231581   1.123   4.273  11.522 -0.8929 -0.0883  0.2907
 6708SOL     OW31582   3.054   3.921   4.186  0.1144 -0.2653  0.0084
 6708SOL    HW131583   2.996   3.997   4.188 -1.0096 -1.1689  1.7521
 6708SOL    HW231584   3.109   3.937   4.263 -0.3755 -1.1453  0.5439
 6709SOL     OW31585   3.036   2.680   9.159 -0.2102 -1.1250 -0.0370
 6709SOL    HW131586   3.124   2.676   9.197 -0.0628  2.5437 -0.0241
 6709SOL    HW231587   2.989   2.739   9.216  0.1494  0.4050 -1.3414
 6710SOL     OW31588   2.266   4.589   7.277  0.1633  0.2964 -0.1635
 6710SOL    HW131589   2.217   4.659   7.234  0.8707  1.1391  0.3988
 6710SOL    HW231590   2.237   4.594   7.368  1.1842 -4.2084  0.3756
 6711SOL     OW31591   3.184   3.699   8.528  0.0699  0.1672  0.3326
 6711SOL    HW131592   3.219   3.697   8.617 -2.2902 -0.3381  1.2602
 6711SOL    HW231593   3.098   3.659   8.545  0.1143 -0.2158 -0.3460
 6712SOL     OW31594   3.437   0.308   8.868 -0.3336  0.2997 -0.1905
 6712SOL    HW131595   3.392   0.366   8.807  0.0963 -0.0536 -0.8378
 6712SOL    HW231596   3.430   0.225   8.821  3.0900 -0.2880  0.3441
 6713SOL     OW31597   3.145   3.863  14.600 -0.3726 -0.1898  0.3496
 6713SOL    HW131598   3.180   3.815  14.524  0.4987  2.1991 -0.7606
 6713SOL    HW231599   3.131   3.787  14.657 -0.9334 -0.3514 -0.0021
 6714SOL     OW31600   0.098   0.485   7.786 -0.1249 -0.1698  0.2020
 6714SOL    HW131601   0.082   0.477   7.880 -1.0988  0.6686  0.1155
 6714SOL    HW231602   0.017   0.512   7.742 -0.2645  0.7684  1.0256
 6715SOL     OW31603   0.723   0.581   9.438 -0.6760 -0.1690  0.2470
 6715SOL    HW131604   0.714   0.667   9.397 -1.0235  0.0973  0.8789
 6715SOL    HW231605   0.635   0.566   9.473 -0.2682 -1.6068  0.6825
 6716SOL     OW31606   2.587   0.604   8.838 -0.3978 -0.3499  0.0514
 6716SOL    HW131607   2.514   0.666   8.830  1.0544  1.4225  0.6182
 6716SOL    HW231608   2.551   0.538   8.898 -3.3394 -0.4544 -1.8019
 6717SOL     OW31609   1.972   3.776   9.513  0.5240 -0.6819  0.0936
 6717SOL    HW131610   1.912   3.746   9.445 -0.2613  0.4204  0.3040
 6717SOL    HW231611   2.030   3.834   9.464 -0.7344  1.1117  0.6861
 6718SOL     OW31612   3.168   2.043   9.314 -0.3536 -0.3872 -0.2305
 6718SOL    HW131613   3.158   2.044   9.219 -0.7190 -0.8128 -0.1952
 6718SOL    HW231614   3.263   2.054   9.315 -0.4175  0.3605 -1.4759
 6719SOL     OW31615   2.421   2.422   6.830 -0.2150 -0.7204 -0.0523
 6719SOL    HW131616   2.378   2.468   6.902 -0.3957 -0.5386 -0.2804
 6719SOL    HW231617   2.508   2.410   6.867  0.0591  0.0163 -0.4754
 6720SOL     OW31618   2.392   0.857  11.153  0.1565 -0.9100  0.3066
 6720SOL    HW131619   2.340   0.933  11.178 -1.4679 -1.4697 -1.4145
 6720SOL    HW231620   2.360   0.851  11.063 -0.6240 -0.0541  0.5309
 6721SOL     OW31621   3.634   4.284   4.014 -0.2489  0.4341 -0.0918
 6721SOL    HW131622   3.610   4.223   3.944  1.3857 -0.2815 -0.0218
 6721SOL    HW231623   3.719   4.323   3.996 -0.5312  0.8684 -0.4834
 6722SOL     OW31624   0.058   0.922   7.456  0.7848 -0.5732 -0.1143
 6722SOL    HW131625   4.709   0.861   7.451  0.6432 -0.4112 -0.0070
 6722SOL    HW231626   0.113   0.865   7.510 -1.7291 -1.6706  1.3041
 6723SOL     OW31627   2.517   0.013  15.210  0.0191 -0.2519 -0.0845
 6723SOL    HW131628   2.445   4.724  15.148  0.7414 -3.0979 -0.2689
 6723SOL    HW231629   2.499   0.103  15.239  1.0849 -0.1693  0.3140
 6724SOL     OW31630   3.998   3.859  15.056  0.3092 -0.5779 -0.8941
 6724SOL    HW131631   4.028   3.950  15.055  1.3342 -0.9115  0.0636
 6724SOL    HW231632   4.027   3.816  14.976  0.9483 -0.3531 -0.7825
 6725SOL     OW31633   1.373   2.947   3.641 -0.4589 -0.7566 -0.1631
 6725SOL    HW131634   1.282   2.945   3.671 -0.0490  2.5171  1.3032
 6725SOL    HW231635   1.404   2.877   3.698 -1.1533 -0.7069  0.2793
 6726SOL     OW31636   1.165   0.548   0.057  0.1078  0.2804 -0.1709
 6726SOL    HW131637   1.104   0.475   0.045 -1.0245  1.4099 -1.3447
 6726SOL    HW231638   1.113   0.622   0.027 -0.1871  0.7496  1.4921
 6727SOL     OW31639   0.455   0.634   3.162 -0.7227  0.2392 -0.0293
 6727SOL    HW131640   0.378   0.597   3.118 -1.4175 -0.2995  1.6132
 6727SOL    HW231641   0.477   0.566   3.226  0.5037  1.2628  0.6403
 6728SOL     OW31642   1.238   3.310   3.994 -0.0487  0.2173 -0.0477
 6728SOL    HW131643   1.180   3.306   3.918 -2.0282  1.7082  1.3845
 6728SOL    HW231644   1.242   3.406   4.003 -0.9556 -0.1065  3.6815
 6729SOL     OW31645   3.971   2.434   6.208 -0.0089  0.2558  0.2507
 6729SOL    HW131646   3.888   2.462   6.247 -0.3292 -1.7995  1.0074
 6729SOL    HW231647   4.007   2.518   6.178  0.5138 -0.3367 -0.7490
 6730SOL     OW31648   2.696   1.077  14.545 -0.1151  0.5674 -0.1562
 6730SOL    HW131649   2.662   0.992  14.573 -0.8385  0.0463 -2.6472
 6730SOL    HW231650   2.630   1.137  14.581  0.7072  1.5398 -0.2724
 6731SOL     OW31651   0.463   2.036   2.166 -0.6493  0.1151  0.5522
 6731SOL    HW131652   0.514   2.020   2.087 -1.6926  3.7879 -0.8804
 6731SOL    HW231653   0.476   1.958   2.220 -3.3188 -0.3755  0.5053
 6732SOL     OW31654   2.476   4.710  11.339 -0.1338 -0.3670  0.1735
 6732SOL    HW131655   2.551   4.658  11.369  0.8504  1.2513  0.5095
 6732SOL    HW231656   2.509   0.038  11.266  0.1964  1.1920  1.4470
 6733SOL     OW31657   3.628   4.511   0.165 -0.8484  0.3608  0.4113
 6733SOL    HW131658   3.693   4.500   0.096 -0.3244 -0.5041  1.0421
 6733SOL    HW231659   3.550   4.538   0.117  0.5637 -0.4486 -2.3238
 6734SOL     OW31660   2.814   0.788   2.381 -0.1446 -0.4837 -0.1231
 6734SOL    HW131661   2.753   0.764   2.311 -0.0932  0.5854 -0.5450
 6734SOL    HW231662   2.764   0.861   2.419  1.4113 -0.7502  2.4159
 6735SOL     OW31663   1.283   3.124  14.984  0.1619  0.0177 -0.3616
 6735SOL    HW131664   1.313   3.214  14.975  0.5364  0.0180  0.9872
 6735SOL    HW231665   1.361   3.080  14.951 -0.7990 -2.8222  1.0845
 6736SOL     OW31666   4.611   2.284  15.445  0.0598  0.0502  0.9689
 6736SOL    HW131667   4.590   2.341  15.372  0.7520 -1.2960 -0.2790
 6736SOL    HW231668   4.692   2.242  15.416  0.3172  1.4261 -0.2785
 6737SOL     OW31669   4.294   1.315   3.917 -0.4337 -0.2634  0.0458
 6737SOL    HW131670   4.360   1.247   3.929  0.3987  0.9084  2.0682
 6737SOL    HW231671   4.281   1.319   3.822  1.2396 -0.1999 -0.1856
 6738SOL     OW31672   1.354   2.208   4.487 -0.7449 -0.0178  0.1247
 6738SOL    HW131673   1.280   2.165   4.444  0.2748 -1.1095 -0.5137
 6738SOL    HW231674   1.422   2.142   4.478  0.2116  0.7366  1.7507
 6739SOL     OW31675   0.665   4.090   3.962 -0.3732 -0.8474 -0.1620
 6739SOL    HW131676   0.745   4.054   4.001  1.7278  0.1974 -3.4969
 6739SOL    HW231677   0.595   4.055   4.016 -1.5456  0.0630 -1.0954
 6740SOL     OW31678   2.576   2.092   5.587 -0.0191 -0.5903 -0.3236
 6740SOL    HW131679   2.660   2.103   5.631  0.5081 -0.0088 -1.4654
 6740SOL    HW231680   2.545   2.183   5.583  1.1846 -0.1585  0.1661
 6741SOL     OW31681   3.981   2.094  10.888 -0.6428  0.6517  0.0190
 6741SOL    HW131682   4.015   2.022  10.940  0.0613  0.4802 -0.6743
 6741SOL    HW231683   3.889   2.077  10.907 -1.1241  0.2824 -2.6013
 6742SOL     OW31684   3.860   4.656   3.099 -0.8160 -0.3250 -0.5144
 6742SOL    HW131685   3.823   4.655   3.187 -0.1607  3.0256 -0.2181
 6742SOL    HW231686   3.832   0.018   3.070 -0.5161 -0.8791 -2.4634
 6743SOL     OW31687   2.974   1.178   7.404  0.4630  0.5183 -0.2843
 6743SOL    HW131688   2.953   1.241   7.473  0.5764 -0.5785  0.7704
 6743SOL    HW231689   2.994   1.099   7.456  0.0127  1.1981  0.9191
 6744SOL     OW31690   1.816   4.244   9.644  0.1089  0.2224 -0.0664
 6744SOL    HW131691   1.744   4.306   9.633 -0.4650 -0.6848 -1.3664
 6744SOL    HW231692   1.800   4.187   9.568  1.1526 -0.3927  0.1709
 6745SOL     OW31693   4.111   1.174   3.449 -0.1431 -0.3789  0.1060
 6745SOL    HW131694   4.118   1.219   3.533  0.8123 -0.0826 -0.1285
 6745SOL    HW231695   4.068   1.094   3.480 -0.6701 -0.7284 -1.5027
 6746SOL     OW31696   0.053   3.150   8.425  0.6810 -0.1939  0.1683
 6746SOL    HW131697   4.696   3.102   8.416 -0.2030  1.3906 -0.2078
 6746SOL    HW231698   0.024   3.236   8.455  1.8036 -0.0463  0.8304
 6747SOL     OW31699   4.320   2.307   3.458  0.2397  0.3816  0.1508
 6747SOL    HW131700   4.389   2.323   3.394 -0.9631  1.5415 -0.8659
 6747SOL    HW231701   4.250   2.265   3.408  0.6393 -0.3798  0.2444
 6748SOL     OW31702   0.086   4.322   4.111 -0.0028 -0.2314  0.4795
 6748SOL    HW131703   0.107   4.239   4.068  0.0488 -0.2345  0.5104
 6748SOL    HW231704   0.140   4.392   4.075  0.2376  0.0375  1.3648
 6749SOL     OW31705   4.160   0.869   1.116  0.1525  0.2336  0.1003
 6749SOL    HW131706   4.223   0.916   1.171  1.5747 -1.0787 -0.4100
 6749SOL    HW231707   4.205   0.860   1.032 -2.2539  0.7856 -1.2451
 6750SOL     OW31708   0.988   0.243   3.095 -0.3408 -0.2994 -0.2547
 6750SOL    HW131709   1.033   0.243   3.179 -1.8417  0.3611  0.5450
 6750SOL    HW231710   0.947   0.329   3.104  0.3056  0.0323 -0.5112
 6751SOL     OW31711   4.452   2.148   2.649 -0.5445  0.4348 -0.5595
 6751SOL    HW131712   4.492   2.082   2.592  0.4451  1.1375 -0.6742
 6751SOL    HW231713   4.523   2.182   2.704 -1.8743 -2.6617  3.0219
 6752SOL     OW31714   2.702   0.962   6.893 -0.0922  0.4173 -0.2662
 6752SOL    HW131715   2.676   0.938   6.982 -0.9733  0.4629 -0.5097
 6752SOL    HW231716   2.774   1.024   6.904 -2.7294  3.3732  0.6633
 6753SOL     OW31717   1.386   0.992   5.626 -0.4704 -0.4920  0.2135
 6753SOL    HW131718   1.445   1.050   5.673  0.9232 -1.9743  0.3138
 6753SOL    HW231719   1.308   1.015   5.677 -1.1598 -1.7478 -0.2626
 6754SOL     OW31720   2.128   1.854   0.853 -0.3396  0.6178 -0.2980
 6754SOL    HW131721   2.182   1.870   0.930  0.5562 -1.7370 -0.4403
 6754SOL    HW231722   2.055   1.817   0.903  0.1811 -0.9155 -0.6704
 6755SOL     OW31723   0.642   4.570   7.356 -0.1750  0.3503 -0.6258
 6755SOL    HW131724   0.589   4.551   7.433  0.9180 -0.5814 -0.0886
 6755SOL    HW231725   0.574   4.594   7.293 -0.0474 -1.5268 -1.4965
 6756SOL     OW31726   2.949   1.817   4.279  0.2915  0.0072  0.3073
 6756SOL    HW131727   2.860   1.841   4.253  1.7065  3.9783 -0.8872
 6756SOL    HW231728   2.954   1.727   4.247  2.5177  0.9194 -1.9912
 6757SOL     OW31729   3.713   1.403  12.122  0.2147  0.3630 -0.3846
 6757SOL    HW131730   3.638   1.462  12.129 -0.3831 -0.7765  2.9809
 6757SOL    HW231731   3.676   1.316  12.139 -0.5919  0.2404 -2.8529
 6758SOL     OW31732   3.631   1.102  11.999  0.4241  0.3595  0.4612
 6758SOL    HW131733   3.558   1.151  12.037  0.5409  1.0963 -0.2602
 6758SOL    HW231734   3.580   1.071  11.924  0.8438 -1.5868  0.9781
 6759SOL     OW31735   1.781   0.971  16.857 -0.7971 -0.1772  0.0617
 6759SOL    HW131736   1.855   0.934  16.810 -0.6983 -0.6329  0.5807
 6759SOL    HW231737   1.831   1.035  16.908 -0.1004 -1.1156  0.5493
 6760SOL     OW31738   2.792   3.843   9.532  0.1497  0.5863 -0.2931
 6760SOL    HW131739   2.883   3.841   9.562 -0.2282  1.5406  0.9283
 6760SOL    HW231740   2.802   3.903   9.458 -0.0105  1.2153  0.1928
 6761SOL     OW31741   1.882   1.278   2.894 -0.0425 -0.1846 -0.1811
 6761SOL    HW131742   1.972   1.252   2.876 -1.1382 -4.6215  0.8410
 6761SOL    HW231743   1.838   1.193   2.895  1.7295 -1.1095 -0.5366
 6762SOL     OW31744   1.699   2.143  15.129  0.7280  0.3433  0.0571
 6762SOL    HW131745   1.655   2.174  15.050 -0.9090 -1.0756  0.4210
 6762SOL    HW231746   1.748   2.218  15.164  1.5687  0.6525 -1.8058
 6763SOL     OW31747   1.595   1.981  17.373 -0.1512 -0.0522  0.0494
 6763SOL    HW131748   1.532   2.016  17.309  0.4782  0.3460 -0.3533
 6763SOL    HW231749   1.558   1.898  17.400 -0.8857  0.5541  0.9140
 6764SOL     OW31750   3.244   2.110  17.666 -0.6905 -0.2580  0.2927
 6764SOL    HW131751   3.204   2.023  17.661  0.0876 -0.6518  0.9994
 6764SOL    HW231752   3.308   2.103  17.595 -1.3616 -1.8197 -0.1704
 6765SOL     OW31753   1.763   3.730   6.230  0.4960  0.1778  0.7079
 6765SOL    HW131754   1.852   3.701   6.249  0.9042  0.1764 -1.2515
 6765SOL    HW231755   1.741   3.690   6.146 -0.1218 -1.6559  1.7405
 6766SOL     OW31756   2.755   1.076   6.352 -0.4341  0.4900  0.1892
 6766SOL    HW131757   2.767   1.077   6.447 -0.6183  0.0631  0.2158
 6766SOL    HW231758   2.827   1.126   6.313 -1.9989  1.7854 -1.0859
 6767SOL     OW31759   4.436   0.263  14.383 -0.3095 -0.4774  0.5467
 6767SOL    HW131760   4.472   0.283  14.469 -3.2664  0.2827  1.6065
 6767SOL    HW231761   4.438   0.345  14.333 -2.4767  0.4739  2.0198
 6768SOL     OW31762   4.668   1.027  14.959 -0.2000 -0.1434  0.6728
 6768SOL    HW131763   0.004   1.093  14.993 -0.1112  0.3684 -0.4843
 6768SOL    HW231764   4.608   1.011  15.032 -0.2932 -0.3500  0.5499
 6769SOL     OW31765   0.944   0.555  13.624 -0.3095  0.4022  0.3912
 6769SOL    HW131766   0.892   0.536  13.546  2.5846  1.5684 -1.8089
 6769SOL    HW231767   0.929   0.475  13.674 -3.8499  1.1092  0.4824
 6770SOL     OW31768   1.961   1.118   1.431  0.2953 -0.7310  0.2479
 6770SOL    HW131769   1.878   1.160   1.452 -0.3782 -1.8653 -0.1197
 6770SOL    HW231770   2.022   1.174   1.478  1.0028 -1.5158  0.2724
 6771SOL     OW31771   4.379   2.043  12.170 -1.0416 -0.0106  0.3190
 6771SOL    HW131772   4.303   1.989  12.149 -0.1454 -1.3800  0.5882
 6771SOL    HW231773   4.441   1.988  12.217 -0.0449 -1.5117 -2.7003
 6772SOL     OW31774   0.269   4.479  11.195 -0.0815 -0.2273 -0.1049
 6772SOL    HW131775   0.252   4.393  11.158  1.4519 -0.3388 -0.5385
 6772SOL    HW231776   0.210   4.470  11.270  0.3351  1.7859  0.4793
 6773SOL     OW31777   0.888   4.188  16.248  0.6328 -0.1801 -0.1986
 6773SOL    HW131778   0.827   4.148  16.187 -0.2088  2.1652 -0.8732
 6773SOL    HW231779   0.916   4.114  16.302  1.6677  0.0756 -0.3871
 6774SOL     OW31780   4.308   2.440   0.771  0.0651 -0.4473 -0.3318
 6774SOL    HW131781   4.224   2.419   0.730  0.1190 -1.0682 -0.1282
 6774SOL    HW231782   4.371   2.397   0.713  0.9408  0.2485  0.1065
 6775SOL     OW31783   3.858   4.131   7.728  0.1963  0.2010 -0.5844
 6775SOL    HW131784   3.921   4.082   7.676 -0.3316  0.6717 -1.6549
 6775SOL    HW231785   3.795   4.060   7.735  2.0743 -1.4480 -0.4519
 6776SOL     OW31786   0.314   2.067   8.023 -0.2931  0.0522  0.5852
 6776SOL    HW131787   0.343   1.987   7.979  1.1687  1.1896 -0.4721
 6776SOL    HW231788   0.382   2.063   8.090  0.9967  1.1878 -0.6912
 6777SOL     OW31789   2.533   4.089   3.086 -0.2985 -0.0238  0.2272
 6777SOL    HW131790   2.614   4.045   3.110 -1.8379 -2.3736  1.0612
 6777SOL    HW231791   2.571   4.160   3.034 -0.3792  0.4473  0.8047
 6778SOL     OW31792   3.804   3.948  17.117  0.5914  0.3154  0.5899
 6778SOL    HW131793   3.846   3.934  17.202 -2.8883  0.9259  2.4163
 6778SOL    HW231794   3.723   3.980  17.158  0.6503  1.8390 -0.4562
 6779SOL     OW31795   4.088   3.153  12.813  0.2485 -0.0398  0.0386
 6779SOL    HW131796   4.028   3.079  12.807 -2.7364  2.3128  0.5376
 6779SOL    HW231797   4.069   3.212  12.740  1.9556  0.9758  0.4094
 6780SOL     OW31798   0.671   4.206   9.762  0.4581 -0.4031 -0.0230
 6780SOL    HW131799   0.647   4.145   9.692  0.7444  0.7696 -1.1624
 6780SOL    HW231800   0.692   4.289   9.718  1.6239 -0.6238  0.1034
 6781SOL     OW31801   0.117   4.283   5.422  0.1064 -0.4226 -0.0570
 6781SOL    HW131802   0.157   4.354   5.372 -3.0751 -0.1844 -2.2218
 6781SOL    HW231803   0.183   4.214   5.426  1.0483  0.3225 -2.8586
 6782SOL     OW31804   1.816   2.365  15.240  0.2322 -0.8446  0.0908
 6782SOL    HW131805   1.781   2.453  15.223  0.1514 -0.8084  0.4503
 6782SOL    HW231806   1.880   2.377  15.310  0.3188 -0.4930 -0.0446
 6783SOL     OW31807   0.185   0.139  12.872  0.0014 -0.5168  0.4214
 6783SOL    HW131808   0.145   0.212  12.919 -2.9947 -0.8832 -1.5081
 6783SOL    HW231809   0.219   0.091  12.947  0.0420  0.7059  1.1862
 6784SOL     OW31810   4.273   2.694   6.569 -0.2490  0.0509 -0.7455
 6784SOL    HW131811   4.268   2.790   6.568  1.9009  0.1618  0.2847
 6784SOL    HW231812   4.340   2.689   6.500  0.2110 -0.5200 -0.2555
 6785SOL     OW31813   1.348   2.900   6.287 -0.1316 -0.1839 -0.4084
 6785SOL    HW131814   1.308   2.853   6.360  1.1566  1.0870  1.1012
 6785SOL    HW231815   1.440   2.886   6.308 -0.7994  0.8264  3.2170
 6786SOL     OW31816   4.109   4.606   3.397  0.3977 -0.6281  0.3985
 6786SOL    HW131817   4.133   4.612   3.305  4.2569 -1.8920  1.3177
 6786SOL    HW231818   4.032   4.549   3.393 -1.0123  1.3299 -0.1973
 6787SOL     OW31819   4.669   4.370  13.626 -0.3129  0.1725 -0.2115
 6787SOL    HW131820   4.618   4.343  13.702  0.4637  1.4942  0.7976
 6787SOL    HW231821   0.024   4.388  13.677 -0.5677  1.6753 -0.3440
 6788SOL     OW31822   1.603   0.569   9.710 -0.4068  0.0787  0.1742
 6788SOL    HW131823   1.639   0.509   9.645  0.9229  0.9081  0.1286
 6788SOL    HW231824   1.588   0.639   9.647 -1.6207  0.1470  0.5349
 6789SOL     OW31825   1.697   2.839   2.522 -0.5717 -0.3018 -0.6464
 6789SOL    HW131826   1.616   2.820   2.477  0.6024 -0.5571 -2.6352
 6789SOL    HW231827   1.733   2.895   2.453 -1.6925  0.8673 -0.2943
 6790SOL     OW31828   0.725   2.105  11.705 -0.0881  0.1454  0.2891
 6790SOL    HW131829   0.667   2.045  11.751  0.1389 -2.0515 -2.2842
 6790SOL    HW231830   0.728   2.189  11.751  3.8749 -1.3020  2.7491
 6791SOL     OW31831   4.256   2.044   8.839 -0.2193 -0.0674  0.5466
 6791SOL    HW131832   4.212   1.969   8.880 -0.4540 -0.9539 -1.3446
 6791SOL    HW231833   4.217   2.114   8.892 -1.6209 -0.2971 -0.1704
 6792SOL     OW31834   0.654   3.669   5.293 -0.2745 -0.3872 -0.2758
 6792SOL    HW131835   0.573   3.713   5.321  0.3226  0.9800 -0.6969
 6792SOL    HW231836   0.614   3.641   5.211 -0.0705 -0.0771 -0.4830
 6793SOL     OW31837   3.227   3.180   1.126  0.7700  0.3293  0.0858
 6793SOL    HW131838   3.283   3.196   1.050 -0.7768  2.4800 -0.5858
 6793SOL    HW231839   3.280   3.109   1.163 -1.1041  0.0748  2.3140
 6794SOL     OW31840   3.750   0.889   7.852 -0.0451 -0.4483 -0.1620
 6794SOL    HW131841   3.660   0.895   7.886  0.5604  0.7773  1.2547
 6794SOL    HW231842   3.739   0.906   7.759  1.2120 -2.4535 -0.6887
 6795SOL     OW31843   3.660   0.033   2.826 -0.3280 -0.1252  0.4650
 6795SOL    HW131844   3.686   0.067   2.740  0.7214  0.0152  0.8458
 6795SOL    HW231845   3.691   4.669   2.812  0.1390  0.3852 -1.7440
 6796SOL     OW31846   1.580   4.652   5.137  0.2512  0.6239  0.0646
 6796SOL    HW131847   1.573   4.563   5.101  2.0214  0.2277  0.6676
 6796SOL    HW231848   1.590   4.706   5.059  2.5272 -1.4987 -1.0981
 6797SOL     OW31849   1.036   1.175   2.341 -0.0913 -0.0594 -0.1329
 6797SOL    HW131850   0.941   1.180   2.355 -0.3224 -4.4060 -0.1079
 6797SOL    HW231851   1.035   1.125   2.259  2.8693 -0.5161  0.1155
 6798SOL     OW31852   3.565   3.338   3.438 -0.0097 -0.6397 -0.0765
 6798SOL    HW131853   3.613   3.257   3.454  0.3924 -0.4797 -0.4466
 6798SOL    HW231854   3.624   3.393   3.386 -0.1361  0.6928  1.1914
 6799SOL     OW31855   2.888   3.850   7.402  0.4801 -0.0688  0.1779
 6799SOL    HW131856   2.823   3.800   7.450  0.5745  0.7352  1.1410
 6799SOL    HW231857   2.925   3.916   7.460  1.2626  0.4104 -0.8496
 6800SOL     OW31858   2.391   2.568   6.009  0.0129  0.5098 -0.5256
 6800SOL    HW131859   2.318   2.581   5.948  0.3253 -3.4867 -1.7421
 6800SOL    HW231860   2.376   2.640   6.071 -0.8821 -1.2196  1.2778
 6801SOL     OW31861   2.838   2.929  13.421 -0.0149  0.3534  0.0195
 6801SOL    HW131862   2.806   2.877  13.494  0.9022 -0.4984 -0.1852
 6801SOL    HW231863   2.815   2.870  13.349  0.4825 -0.6740  0.7067
 6802SOL     OW31864   1.008   2.563   6.120  0.2513  0.2060  0.1671
 6802SOL    HW131865   1.080   2.593   6.175  1.3459  1.7715 -2.1407
 6802SOL    HW231866   0.951   2.504   6.171 -0.2800  1.4014  0.9495
 6803SOL     OW31867   2.172   3.925   1.349 -0.1906  0.5750 -0.7980
 6803SOL    HW131868   2.182   3.906   1.442  1.4814 -1.6060 -1.4113
 6803SOL    HW231869   2.215   4.010   1.343  1.3117 -0.0034  1.3943
 6804SOL     OW31870   4.169   1.443   7.180 -0.3236  0.2604 -0.0597
 6804SOL    HW131871   4.222   1.371   7.144 -1.7402  0.2858 -2.1263
 6804SOL    HW231872   4.162   1.415   7.272  2.7000 -2.1731 -0.5366
 6805SOL     OW31873   4.406   1.014   3.118  0.0280 -0.1680  0.4511
 6805SOL    HW131874   4.394   0.953   3.191  0.9197  1.3060  1.8135
 6805SOL    HW231875   4.500   1.002   3.113 -0.0185 -0.0134 -0.9967
 6806SOL     OW31876   3.982   0.393   3.710  0.1358  0.5477  0.2024
 6806SOL    HW131877   4.069   0.395   3.669  0.2876 -0.6131  0.4551
 6806SOL    HW231878   4.004   0.450   3.784 -0.0400  0.3261  0.4218
 6807SOL     OW31879   0.110   0.319  14.185 -0.6601  0.3884  0.6880
 6807SOL    HW131880   0.063   0.392  14.226 -1.3216  0.3092  0.0883
 6807SOL    HW231881   0.119   0.263  14.262  0.6184  1.1757  1.1077
 6808SOL     OW31882   0.399   1.140   6.645 -0.3140  0.0937  0.0899
 6808SOL    HW131883   0.357   1.137   6.731  1.3867 -1.4449  0.8655
 6808SOL    HW231884   0.374   1.051   6.621  0.9090 -0.2836  0.1935
 6809SOL     OW31885   4.276   1.266   4.877 -0.0249  0.4963 -0.1108
 6809SOL    HW131886   4.318   1.335   4.927  1.0137  0.8270 -1.4268
 6809SOL    HW231887   4.330   1.192   4.904 -2.3383 -1.1812 -0.0168
 6810SOL     OW31888   3.143   0.969   8.781  0.5604  0.1410 -0.1797
 6810SOL    HW131889   3.213   0.905   8.769  0.2725 -0.0735 -0.7165
 6810SOL    HW231890   3.194   1.044   8.811  0.9505 -0.2708  0.1798
 6811SOL     OW31891   3.413   0.047   2.970 -0.4645  0.1788  0.4301
 6811SOL    HW131892   3.497   0.074   2.932 -0.4227  0.2463  0.5733
 6811SOL    HW231893   3.389   4.719   2.894  0.0033 -0.4199  0.7043
 6812SOL     OW31894   3.313   4.245   1.508  0.1434  0.1591 -0.2605
 6812SOL    HW131895   3.332   4.317   1.568  0.9593 -0.1109 -0.1993
 6812SOL    HW231896   3.382   4.246   1.442  0.9549  1.1331  0.6059
 6813SOL     OW31897   0.201   1.261   0.988 -0.2004 -0.3190 -0.3400
 6813SOL    HW131898   0.248   1.233   1.067  0.6235  1.3472 -0.2450
 6813SOL    HW231899   0.268   1.317   0.948 -3.0331  2.1869 -1.6594
 6814SOL     OW31900   0.981   1.507   4.019  0.1263 -0.2997 -0.2949
 6814SOL    HW131901   0.930   1.582   4.051  0.8676 -0.0212  0.2619
 6814SOL    HW231902   1.005   1.543   3.933  0.1008  0.7822  0.1447
 6815SOL     OW31903   2.521   0.012  10.766  0.0158 -0.4989  0.2527
 6815SOL    HW131904   2.574   4.676  10.818 -0.3050  0.4049  1.6468
 6815SOL    HW231905   2.514   0.080  10.834  0.5823 -0.3834  0.1951
 6816SOL     OW31906   1.184   1.516   2.467 -0.2653 -0.3506  0.5562
 6816SOL    HW131907   1.217   1.472   2.389 -1.7906 -1.9978  0.8661
 6816SOL    HW231908   1.200   1.448   2.532  0.6282 -2.8660 -2.3091
 6817SOL     OW31909   2.209   0.728   4.300  0.3755 -0.2970  0.4226
 6817SOL    HW131910   2.133   0.758   4.250 -0.3901 -0.2486  1.5928
 6817SOL    HW231911   2.274   0.715   4.231  2.9278 -0.9944  2.9650
 6818SOL     OW31912   2.329   0.055  10.584 -0.8215  0.3395  0.3892
 6818SOL    HW131913   2.330   0.150  10.601  1.0616  0.7086 -1.6795
 6818SOL    HW231914   2.407   0.031  10.634  1.3173  0.9026 -2.6266
 6819SOL     OW31915   3.173   3.906  13.182  0.4578  0.2107 -0.0924
 6819SOL    HW131916   3.238   3.972  13.208  0.2318  0.4073 -0.0254
 6819SOL    HW231917   3.189   3.843  13.252  0.4541 -1.7596 -1.8802
 6820SOL     OW31918   1.927   3.483   5.363  0.3722 -0.2897 -0.1271
 6820SOL    HW131919   1.967   3.454   5.281  0.8691 -0.0671  0.0325
 6820SOL    HW231920   1.835   3.469   5.343 -0.1224  0.6379  1.4686
 6821SOL     OW31921   3.516   3.198   4.294 -0.2470  0.3325  0.0700
 6821SOL    HW131922   3.581   3.252   4.248 -0.6607  0.5555 -0.2561
 6821SOL    HW231923   3.557   3.118   4.260  0.9980  1.0121 -0.0129
 6822SOL     OW31924   2.327   0.322   9.563 -0.8382  0.0834  0.4635
 6822SOL    HW131925   2.283   0.333   9.478  1.2754  2.2511 -0.3310
 6822SOL    HW231926   2.256   0.324   9.627  0.7465  0.6865  2.2207
 6823SOL     OW31927   2.543   1.299   7.217 -0.0137  0.0003 -0.1979
 6823SOL    HW131928   2.630   1.296   7.176  0.5915  1.9336  0.9582
 6823SOL    HW231929   2.527   1.393   7.211  1.7466  0.5010  3.1228
 6824SOL     OW31930   4.017   3.081   4.237  0.1213 -0.2494  0.1095
 6824SOL    HW131931   4.008   3.105   4.145 -0.3080  1.1542  0.5187
 6824SOL    HW231932   4.103   3.040   4.234 -0.2483 -0.9640 -0.5240
 6825SOL     OW31933   1.720   1.343   4.533  0.5052 -0.3514 -0.1644
 6825SOL    HW131934   1.649   1.392   4.576  1.3204  0.7318 -0.0525
 6825SOL    HW231935   1.669   1.270   4.498 -0.5392  0.4361 -0.2778
 6826SOL     OW31936   3.534   0.876   2.178 -0.5520 -0.2557  0.1354
 6826SOL    HW131937   3.590   0.839   2.245 -0.2715 -0.4418 -0.2058
 6826SOL    HW231938   3.511   0.955   2.227 -0.9833  0.6203 -1.4809
 6827SOL     OW31939   2.571   3.257   1.736  0.2846 -0.2996  0.1040
 6827SOL    HW131940   2.659   3.290   1.717 -0.1490  1.6064  1.3585
 6827SOL    HW231941   2.520   3.336   1.754 -0.0984 -0.1297 -1.7207
 6828SOL     OW31942   0.848   2.090   7.033 -0.1040 -0.8630 -0.8265
 6828SOL    HW131943   0.812   2.178   7.018 -1.9261 -1.2878  1.0402
 6828SOL    HW231944   0.921   2.111   7.091  0.6432 -2.6996 -1.0927
 6829SOL     OW31945   3.039   2.877  13.152  0.4722  0.7695  0.1893
 6829SOL    HW131946   3.038   2.849  13.244  1.2364 -1.7643 -0.5873
 6829SOL    HW231947   2.955   2.922  13.142  0.9455  1.6343  0.0501
 6830SOL     OW31948   3.005   2.535   0.044 -0.0214  0.8091 -0.3883
 6830SOL    HW131949   3.034   2.470  17.681 -0.1645 -0.4851  0.8577
 6830SOL    HW231950   2.955   2.580  17.677 -0.5202  0.2295 -0.4097
 6831SOL     OW31951   2.494   2.687   4.222 -0.1733 -0.0500 -0.6464
 6831SOL    HW131952   2.414   2.660   4.268  0.2493 -0.6535 -0.2585
 6831SOL    HW231953   2.459   2.701   4.134 -2.2595 -0.7765  0.0519
 6832SOL     OW31954   2.669   2.653   3.641  0.0401 -0.5540 -0.3358
 6832SOL    HW131955   2.593   2.626   3.589 -1.3848  1.9417  0.4870
 6832SOL    HW231956   2.744   2.633   3.585 -1.4945  1.6054 -3.1168
 6833SOL     OW31957   2.459   3.680   0.211 -0.5895  0.2313  0.2174
 6833SOL    HW131958   2.380   3.732   0.192  0.4672  1.7705  0.0458
 6833SOL    HW231959   2.427   3.626   0.283 -0.2456 -1.5575 -0.9673
 6834SOL     OW31960   0.431   2.194  12.010  0.3458  0.1694  0.3854
 6834SOL    HW131961   0.515   2.213  12.051  0.9345 -0.5717 -0.4870
 6834SOL    HW231962   0.464   2.140  11.938  1.3007  0.5380  0.5463
 6835SOL     OW31963   0.583   4.257   6.426  0.3042  0.5809 -0.5120
 6835SOL    HW131964   0.513   4.215   6.477  1.2312  0.6182  0.7790
 6835SOL    HW231965   0.635   4.177   6.424  2.1541  1.7887 -0.2886
 6836SOL     OW31966   4.041   2.419  16.561  0.0394 -0.5461 -0.8032
 6836SOL    HW131967   4.129   2.446  16.537  1.9243 -2.5992  3.7128
 6836SOL    HW231968   4.009   2.371  16.485 -1.7471  0.7404 -0.8698
 6837SOL     OW31969   2.795   2.938  10.737  0.5276  0.2285 -0.5795
 6837SOL    HW131970   2.850   2.947  10.815  0.0837 -0.3462 -0.1972
 6837SOL    HW231971   2.774   2.845  10.740  1.8477 -0.0209  1.0144
 6838SOL     OW31972   0.466   3.924   4.052 -0.0692 -0.3597 -1.0075
 6838SOL    HW131973   0.515   3.854   4.095 -0.5025  1.3509  2.2306
 6838SOL    HW231974   0.414   3.877   3.987 -0.8574  2.2424 -2.2888
 6839SOL     OW31975   1.076   4.341   4.518  0.0343 -0.5928 -0.0478
 6839SOL    HW131976   1.020   4.363   4.443 -0.7651  0.3295  0.8120
 6839SOL    HW231977   1.130   4.267   4.493  0.8910 -0.0422  0.1893
 6840SOL     OW31978   2.276   0.674   5.234 -0.0110  0.1078  0.3544
 6840SOL    HW131979   2.364   0.649   5.205 -0.2383  1.7833 -1.8007
 6840SOL    HW231980   2.247   0.606   5.294 -0.7137  0.7485  0.7453
 6841SOL     OW31981   2.951   2.954  10.942  0.0390 -0.1834 -0.3018
 6841SOL    HW131982   3.014   3.026  10.954 -0.3816  0.0394  0.5474
 6841SOL    HW231983   2.997   2.881  10.984 -0.1722 -1.3195 -2.0489
 6842SOL     OW31984   4.463   3.671   3.523  0.2604  0.1276  0.1721
 6842SOL    HW131985   4.459   3.578   3.497 -0.2446  0.8175 -2.2600
 6842SOL    HW231986   4.557   3.686   3.532  0.1120 -0.2073  2.1697
 6843SOL     OW31987   3.181   0.342  17.500  0.1428 -0.2938  0.5328
 6843SOL    HW131988   3.185   0.262  17.446 -2.1958 -0.9537  1.3449
 6843SOL    HW231989   3.089   0.337  17.524  0.3805 -1.2896  1.2259
 6844SOL     OW31990   1.841   0.069   1.394  0.6443  0.0857  0.1125
 6844SOL    HW131991   1.803   4.721   1.346  1.9160  0.3355 -1.3067
 6844SOL    HW231992   1.912   0.093   1.334 -0.1018  1.6498 -0.1517
 6845SOL     OW31993   2.498   3.017   3.758 -0.3562  0.0480 -0.0270
 6845SOL    HW131994   2.549   3.093   3.729 -1.3874  0.7371 -0.0260
 6845SOL    HW231995   2.418   3.063   3.784 -0.1590  1.4512 -1.8727
 6846SOL     OW31996   1.527   3.242   5.167 -0.5574 -0.3764  0.1364
 6846SOL    HW131997   1.518   3.178   5.097 -1.9167  1.0731 -1.0021
 6846SOL    HW231998   1.590   3.193   5.220  0.0846  0.0387 -0.2441
 6847SOL     OW31999   1.415   1.621   2.115  0.1971  0.5211  0.0900
 6847SOL    HW132000   1.387   1.711   2.098 -2.2782 -0.0433  1.1161
 6847SOL    HW232001   1.328   1.581   2.115  0.1941  0.5462 -1.2306
 6848SOL     OW32002   4.554   4.223  13.836 -0.6553  0.1405  0.2347
 6848SOL    HW132003   4.611   4.169  13.891  0.3621 -2.3342 -3.2634
 6848SOL    HW232004   4.494   4.251  13.905  0.0196  0.6617  0.6036
 6849SOL     OW32005   4.663   1.649   8.033  0.3512  0.1540  0.2235
 6849SOL    HW132006   0.006   1.706   8.068  0.9651 -0.5648  0.1973
 6849SOL    HW232007   4.697   1.632   7.945 -0.7229 -0.5047 -0.0671
 6850SOL     OW32008   2.318   3.134  16.359 -0.7662 -0.0635 -0.8903
 6850SOL    HW132009   2.287   3.201  16.420 -0.8069 -0.0651 -0.9092
 6850SOL    HW232010   2.382   3.084  16.409 -1.5159  0.3115  0.4554
 6851SOL     OW32011   3.871   2.961   3.672  0.6743 -0.1010 -0.3922
 6851SOL    HW132012   3.966   2.972   3.666  0.4911  0.5222 -2.1223
 6851SOL    HW232013   3.856   2.869   3.650 -0.0360 -0.1119  0.1131
 6852SOL     OW32014   3.038   1.350   8.560 -0.0544 -0.6811  0.9535
 6852SOL    HW132015   3.037   1.314   8.471 -0.3154 -0.1350  0.7359
 6852SOL    HW232016   2.945   1.333   8.572 -0.2699 -0.3348 -0.2322
 6853SOL     OW32017   0.252   2.336  13.439  0.3267  0.7601 -0.2222
 6853SOL    HW132018   0.328   2.378  13.398 -1.1558  1.0653 -2.6917
 6853SOL    HW232019   0.292   2.305  13.520 -0.4710 -1.7626 -0.7895
 6854SOL     OW32020   2.395   0.884   8.088  0.0039  0.8089  0.0983
 6854SOL    HW132021   2.344   0.962   8.110 -0.5969  0.8561 -1.5188
 6854SOL    HW232022   2.454   0.861   8.160  1.3562  1.4395 -0.8151
 6855SOL     OW32023   2.873   2.369   0.942 -0.1487  0.0642  0.3265
 6855SOL    HW132024   2.874   2.457   0.904  0.5923  0.6078  1.6115
 6855SOL    HW232025   2.786   2.337   0.918  0.4617 -0.2544 -1.4941
 6856SOL     OW32026   1.091   1.386  16.519  0.0228  0.4538  0.2364
 6856SOL    HW132027   1.095   1.476  16.489 -0.7076  1.6824  3.7762
 6856SOL    HW232028   1.096   1.396  16.614  1.2346 -0.6318  0.2904
 6857SOL     OW32029   2.999   2.569   8.391 -0.6471  0.2515  0.1285
 6857SOL    HW132030   2.971   2.660   8.400 -2.1894 -0.2732  0.6402
 6857SOL    HW232031   2.974   2.541   8.479  0.4735  1.1772  0.7309
 6858SOL     OW32032   0.269   0.763   3.414 -0.8398  0.3230  0.1931
 6858SOL    HW132033   0.247   0.685   3.363  1.8508 -0.8525  0.8687
 6858SOL    HW232034   0.364   0.769   3.423 -0.9166 -1.5863  2.3071
 6859SOL     OW32035   3.409   3.632  11.458 -0.3264  0.3093 -0.7605
 6859SOL    HW132036   3.331   3.683  11.437 -0.6646  0.5640  1.1167
 6859SOL    HW232037   3.401   3.560  11.395  1.1586  1.9812 -2.8537
 6860SOL     OW32038   2.797   1.405  14.096 -0.4036  0.4791  0.2137
 6860SOL    HW132039   2.798   1.497  14.124 -0.4179  0.2877  0.8458
 6860SOL    HW232040   2.892   1.396  14.093 -0.4159 -0.3269  1.8922
 6861SOL     OW32041   4.566   3.853   6.796  0.2454  0.1734 -0.4693
 6861SOL    HW132042   4.617   3.780   6.832 -0.7840  0.3419  1.3109
 6861SOL    HW232043   4.638   3.907   6.763  1.0381 -1.1425 -0.9079
 6862SOL     OW32044   1.932   1.503  13.326 -0.2097  0.6762  0.2051
 6862SOL    HW132045   1.986   1.522  13.249 -0.1721 -0.2021  0.0175
 6862SOL    HW232046   1.964   1.569  13.388 -1.1574 -0.0996  1.5044
 6863SOL     OW32047   2.655   1.404  16.722 -0.2223 -0.7266  0.4471
 6863SOL    HW132048   2.703   1.432  16.800  1.6306 -0.5737 -0.7456
 6863SOL    HW232049   2.569   1.445  16.726 -0.8085 -1.5913 -2.5910
 6864SOL     OW32050   3.696   2.568   8.591 -0.8399  0.0263  0.0255
 6864SOL    HW132051   3.754   2.640   8.614  0.2984 -0.3797 -1.6083
 6864SOL    HW232052   3.672   2.595   8.502 -2.9577  1.4102  1.0173
 6865SOL     OW32053   3.855   4.384   4.609  0.3464 -0.7956  0.2666
 6865SOL    HW132054   3.908   4.425   4.541 -0.1001 -0.9783 -0.1945
 6865SOL    HW232055   3.904   4.417   4.684  0.6700 -0.5061 -0.0775
 6866SOL     OW32056   1.702   2.117  12.983 -0.0465  0.1974 -0.6265
 6866SOL    HW132057   1.776   2.165  13.019 -0.7001 -2.4274  4.1522
 6866SOL    HW232058   1.672   2.177  12.914  0.0705  0.1213 -0.7449
 6867SOL     OW32059   4.091   4.297   7.626  0.3108 -0.3963  0.1503
 6867SOL    HW132060   4.012   4.318   7.676  0.2705  0.0351 -0.0923
 6867SOL    HW232061   4.132   4.383   7.628 -0.5770  0.0107  1.0014
 6868SOL     OW32062   0.257   2.255   0.064  0.1679  0.0163  0.0091
 6868SOL    HW132063   0.237   2.312   0.139 -0.0545  0.3214 -0.2823
 6868SOL    HW232064   0.242   2.319  17.695  1.4896  0.9044  0.5342
 6869SOL     OW32065   4.634   0.342  16.480 -0.3684  0.1804  0.4476
 6869SOL    HW132066   4.724   0.312  16.472  0.0458  1.0277  2.0568
 6869SOL    HW232067   4.585   0.261  16.496 -0.2502  0.0540  0.1689
 6870SOL     OW32068   1.699   0.559   9.949 -0.0107 -0.0441  0.0416
 6870SOL    HW132069   1.655   0.544   9.865 -1.6461  0.1255  0.8565
 6870SOL    HW232070   1.645   0.630   9.985  0.7462  0.2628  0.5610
 6871SOL     OW32071   2.932   4.185  16.232 -0.0159  0.1182  0.2662
 6871SOL    HW132072   2.912   4.154  16.320  0.2289 -1.2151 -0.1422
 6871SOL    HW232073   3.012   4.236  16.249 -0.0642 -0.5317  2.4668
 6872SOL     OW32074   4.086   1.256  12.978 -0.2217 -0.7294 -0.3198
 6872SOL    HW132075   4.137   1.277  13.057 -0.7843 -0.1115 -0.1170
 6872SOL    HW232076   4.046   1.342  12.965  2.8800  1.1763  2.6029
 6873SOL     OW32077   2.568   0.351   1.893  0.5805 -0.0316  0.1693
 6873SOL    HW132078   2.635   0.291   1.859  1.1423  0.7447 -0.0867
 6873SOL    HW232079   2.622   0.428   1.911  2.3425 -0.8728 -1.5073
 6874SOL     OW32080   1.958   2.134   6.219 -0.4124  0.5800 -0.0021
 6874SOL    HW132081   1.943   2.165   6.129 -2.2188  0.5260  0.2861
 6874SOL    HW232082   1.898   2.191   6.267 -1.1995  0.5665 -0.9613
 6875SOL     OW32083   0.258   3.777  17.302 -0.4334 -0.5842  0.7495
 6875SOL    HW132084   0.225   3.689  17.322  1.1317 -1.4410 -0.4058
 6875SOL    HW232085   0.240   3.817  17.386  0.9398 -1.3046  1.3735
 6876SOL     OW32086   1.631   2.871  16.195 -0.0364  0.3293  0.6520
 6876SOL    HW132087   1.643   2.791  16.144  0.4088 -0.0453  1.3469
 6876SOL    HW232088   1.616   2.838  16.284 -0.1742 -1.9162 -0.1902
 6877SOL     OW32089   3.779   1.487   4.010 -0.3772  0.0211 -0.3249
 6877SOL    HW132090   3.702   1.435   3.987 -1.7118  0.4284  3.3362
 6877SOL    HW232091   3.853   1.426   4.002  0.6722  1.1431  0.9181
 6878SOL     OW32092   3.546   1.402   9.768 -0.7237 -0.2255  0.7561
 6878SOL    HW132093   3.510   1.491   9.765 -1.9608 -0.7490 -0.1530
 6878SOL    HW232094   3.464   1.362   9.798 -0.5104 -2.1661 -1.2321
 6879SOL     OW32095   2.372   3.571   5.537 -1.0749  0.2026 -0.1495
 6879SOL    HW132096   2.437   3.572   5.467  0.2799 -1.0296  1.0646
 6879SOL    HW232097   2.378   3.664   5.558  0.0263  0.7925 -3.0886
 6880SOL     OW32098   0.266   2.659  10.373 -0.5564  0.3841  0.0145
 6880SOL    HW132099   0.296   2.578  10.414 -0.9002  1.8651  3.2321
 6880SOL    HW232100   0.261   2.625  10.284  0.6547 -0.8802  0.4346
 6881SOL     OW32101   3.141   1.724   6.647  0.3758  0.2125 -0.1800
 6881SOL    HW132102   3.117   1.750   6.736  1.3066  0.1570  0.0849
 6881SOL    HW232103   3.079   1.652   6.633  0.1364  0.5142 -0.6882
 6882SOL     OW32104   2.840   2.710   4.464 -0.7683 -0.2117  0.3898
 6882SOL    HW132105   2.930   2.731   4.435 -2.0096  2.4344 -1.5694
 6882SOL    HW232106   2.860   2.617   4.474 -0.3120 -0.0215  1.2562
 6883SOL     OW32107   1.936   1.986   2.722  0.2675  0.2036 -0.5347
 6883SOL    HW132108   1.872   2.039   2.673  0.2078  1.0849  0.4953
 6883SOL    HW232109   1.973   1.927   2.657  3.0881  1.0042  0.3795
 6884SOL     OW32110   2.625   4.059   1.847  0.3328 -1.0016  0.4947
 6884SOL    HW132111   2.682   4.128   1.881  1.3118 -0.9897 -1.1682
 6884SOL    HW232112   2.614   4.002   1.924 -0.2235  0.5198  1.5301
 6885SOL     OW32113   1.729   0.486  13.573 -0.0222 -0.5891 -0.0778
 6885SOL    HW132114   1.659   0.551  13.584  0.1744 -0.4971  0.6344
 6885SOL    HW232115   1.739   0.479  13.478  0.9529 -2.0543  0.1390
 6886SOL     OW32116   0.230   2.139   4.791  0.4446  0.5291 -0.0873
 6886SOL    HW132117   0.315   2.129   4.748  1.2050  1.3424  1.2389
 6886SOL    HW232118   0.180   2.165   4.713 -1.1976 -1.1680  0.3964
 6887SOL     OW32119   1.903   1.876   8.440 -0.3532  0.0426  0.1952
 6887SOL    HW132120   1.895   1.840   8.528  0.3779 -0.7246 -0.0519
 6887SOL    HW232121   1.964   1.946   8.464 -0.3806 -0.1689  0.8713
 6888SOL     OW32122   3.290   4.144   3.822 -0.1402  0.3710  0.3312
 6888SOL    HW132123   3.319   4.214   3.763 -1.0578 -1.6355 -2.5215
 6888SOL    HW232124   3.225   4.101   3.766  1.4985 -2.5979  0.6782
 6889SOL     OW32125   1.028   2.986   2.878 -0.1301 -0.7053 -0.2488
 6889SOL    HW132126   1.023   2.891   2.891  0.4354 -1.0134 -2.2194
 6889SOL    HW232127   1.097   3.006   2.941  1.2889 -0.3622 -1.8954
 6890SOL     OW32128   3.715   1.494   4.572 -0.3712 -0.2324 -0.3181
 6890SOL    HW132129   3.658   1.558   4.530 -0.7389  0.1882  0.8191
 6890SOL    HW232130   3.686   1.511   4.661  2.4129  1.2968  0.2821
 6891SOL     OW32131   1.564   2.261   6.992 -0.2161  0.1583 -0.4593
 6891SOL    HW132132   1.550   2.354   6.976  1.5011  1.1692  3.8633
 6891SOL    HW232133   1.589   2.229   6.906 -0.0863  1.8866 -1.0693
 6892SOL     OW32134   2.736   1.152   3.102  0.1679 -0.0467 -0.0168
 6892SOL    HW132135   2.815   1.126   3.053  0.0346 -0.3122 -0.0917
 6892SOL    HW232136   2.753   1.245   3.119 -2.5592  0.7358 -1.5929
 6893SOL     OW32137   0.599   0.743  14.823 -0.1150  0.3651  0.0967
 6893SOL    HW132138   0.595   0.830  14.783 -0.5352  0.5640  0.5725
 6893SOL    HW232139   0.514   0.702  14.808  0.3798 -0.1722 -1.3051
 6894SOL     OW32140   0.075   0.324   2.410  0.1716 -0.4780  0.4442
 6894SOL    HW132141   0.013   0.374   2.463 -0.5409 -0.4966 -0.3608
 6894SOL    HW232142   0.143   0.390   2.406 -0.7801  0.4114 -1.0604
 6895SOL     OW32143   4.710   0.022   0.467 -0.4880 -0.0003  0.2440
 6895SOL    HW132144   0.060   0.057   0.516 -0.7421 -0.7755  1.1854
 6895SOL    HW232145   0.004   0.023   0.373  0.2544  1.0278  0.4053
 6896SOL     OW32146   1.418   3.997   7.897 -0.3159  0.2475 -0.5329
 6896SOL    HW132147   1.442   3.995   7.804  1.6382  1.4880 -0.0524
 6896SOL    HW232148   1.496   3.956   7.934 -0.8138 -2.3129 -2.3091
 6897SOL     OW32149   3.091   2.072   9.043 -0.1980 -0.8581 -0.3076
 6897SOL    HW132150   3.043   2.129   8.983  2.2336  0.6762 -0.8112
 6897SOL    HW232151   3.059   1.985   9.024  0.0687 -0.9687 -0.2593
 6898SOL     OW32152   3.399   0.857   8.947 -0.0651  0.4910 -0.1141
 6898SOL    HW132153   3.411   0.951   8.941 -0.0303  0.5946  1.7022
 6898SOL    HW232154   3.482   0.827   8.910  0.4193  2.4698 -0.6050
 6899SOL     OW32155   0.039   2.750   2.421 -0.1560 -0.0344  0.4072
 6899SOL    HW132156   4.696   2.810   2.451 -0.8844 -0.5255 -0.2768
 6899SOL    HW232157   0.029   2.777   2.329  1.0282  3.2213  1.2214
 6900SOL     OW32158   3.824   1.640   4.251  0.0748  0.8258 -0.1172
 6900SOL    HW132159   3.828   1.566   4.312  2.6651 -0.0306 -1.3401
 6900SOL    HW232160   3.787   1.596   4.175  0.5701 -0.7939  0.5794
 6901SOL     OW32161   2.589   4.003  12.161 -0.6046  0.2664 -0.0072
 6901SOL    HW132162   2.567   4.061  12.088 -1.2356 -2.1250 -1.7147
 6901SOL    HW232163   2.645   3.937  12.120  0.5010  2.0148 -1.3121
 6902SOL     OW32164   2.017   0.971  11.714  0.1368 -0.5235 -0.4576
 6902SOL    HW132165   1.977   0.989  11.629 -2.1399 -0.3287  0.6467
 6902SOL    HW232166   2.002   0.877  11.720  0.9212 -0.6955 -1.2809
 6903SOL     OW32167   3.755   3.278   5.863  0.6607 -0.4919  0.6274
 6903SOL    HW132168   3.733   3.355   5.916 -0.1496 -1.3644  1.5412
 6903SOL    HW232169   3.790   3.218   5.929  1.7077 -2.0258 -1.3047
 6904SOL     OW32170   3.404   3.941   2.780 -0.0298 -0.2305 -0.1117
 6904SOL    HW132171   3.332   3.962   2.722  2.0661  0.8977 -2.3097
 6904SOL    HW232172   3.368   3.914   2.865  3.1444 -2.3706  0.5754
 6905SOL     OW32173   4.494   0.789   9.295 -0.5981  0.1017 -0.1899
 6905SOL    HW132174   4.548   0.824   9.224 -1.8767  1.4706 -0.4993
 6905SOL    HW232175   4.498   0.863   9.356 -5.4081 -1.0535  1.5194
 6906SOL     OW32176   2.626   0.387  13.812  0.2235  0.1532 -0.0184
 6906SOL    HW132177   2.661   0.298  13.801 -1.0346 -0.3231 -0.1930
 6906SOL    HW232178   2.703   0.435  13.783  0.3203 -0.4571 -0.7945
 6907SOL     OW32179   3.140   0.413   2.385 -0.0338 -0.1485 -0.1002
 6907SOL    HW132180   3.117   0.505   2.382  0.5701  0.0716  2.1457
 6907SOL    HW232181   3.077   0.388   2.453  0.4493  1.3424  0.8964
 6908SOL     OW32182   1.989   2.661   8.848  0.2620  0.3745  0.3294
 6908SOL    HW132183   2.029   2.693   8.929  2.5391  1.8810 -1.4236
 6908SOL    HW232184   2.056   2.593   8.833  0.3241  0.8706 -1.5913
 6909SOL     OW32185   2.799   4.484   1.658 -0.0914  0.0231  0.1404
 6909SOL    HW132186   2.847   4.537   1.594  2.3991 -1.8133  0.4957
 6909SOL    HW232187   2.852   4.405   1.669 -0.0154 -0.0164 -0.4944
 6910SOL     OW32188   3.759   2.798  15.385 -0.3008  0.0628  0.5258
 6910SOL    HW132189   3.759   2.834  15.474  2.1196  1.8149 -0.1567
 6910SOL    HW232190   3.844   2.754  15.391  0.9542  2.1248 -2.0049
 6911SOL     OW32191   0.819   1.306   3.889 -0.1285  0.2922 -0.2408
 6911SOL    HW132192   0.773   1.370   3.834 -0.6832 -1.2444 -1.5520
 6911SOL    HW232193   0.905   1.341   3.915  0.7462  0.5112 -3.3858
 6912SOL     OW32194   4.428   0.984   7.617  0.3345 -0.5127 -0.5262
 6912SOL    HW132195   4.401   1.055   7.559 -0.8601 -0.1728  0.4618
 6912SOL    HW232196   4.346   0.953   7.654 -0.3790 -0.7125 -2.2743
 6913SOL     OW32197   4.132   2.802   4.447 -0.9028 -0.2059  0.4161
 6913SOL    HW132198   4.153   2.795   4.353 -0.9639  0.3398  0.3581
 6913SOL    HW232199   4.165   2.716   4.474  1.3938  1.0945  1.7992
 6914SOL     OW32200   3.203   3.482   6.475 -0.0820 -0.1586 -0.3871
 6914SOL    HW132201   3.282   3.502   6.424 -0.6489  0.8987 -0.8673
 6914SOL    HW232202   3.141   3.499   6.404 -0.6766 -0.9339 -0.0491
 6915SOL     OW32203   2.532   3.542   3.659  0.1134 -0.4595 -0.1775
 6915SOL    HW132204   2.580   3.602   3.600  0.9869  0.4514  1.4580
 6915SOL    HW232205   2.459   3.599   3.683  0.4544  0.1288 -0.5239
 6916SOL     OW32206   0.876   2.564   5.455  0.1317 -0.4359 -0.5064
 6916SOL    HW132207   0.829   2.561   5.539  0.7277 -1.0893 -0.1981
 6916SOL    HW232208   0.820   2.517   5.393  0.8062 -1.6255 -0.1954
 6917SOL     OW32209   2.841   1.134   8.936 -0.5901  0.6682 -0.0462
 6917SOL    HW132210   2.815   1.053   8.890 -3.0994  1.1181  0.5699
 6917SOL    HW232211   2.775   1.197   8.906 -3.3149 -1.0289  2.4250
 6918SOL     OW32212   4.534   4.651   6.742  0.6979 -0.0916 -0.0377
 6918SOL    HW132213   4.536   0.016   6.775 -0.1637 -0.1368  0.1252
 6918SOL    HW232214   4.573   4.599   6.812 -1.2177  0.2394  1.2581
 6919SOL     OW32215   0.718   1.151   5.552  0.0398  0.3542 -0.1258
 6919SOL    HW132216   0.769   1.169   5.631  1.7297 -0.8783 -0.9301
 6919SOL    HW232217   0.772   1.165   5.474 -0.9422  1.8474 -0.5348
 6920SOL     OW32218   1.629   3.598  14.593 -0.1673  0.2141 -0.0758
 6920SOL    HW132219   1.711   3.625  14.553 -0.7885  0.4753 -1.1758
 6920SOL    HW232220   1.598   3.676  14.640 -1.8472 -0.4212 -0.1210
 6921SOL     OW32221   4.611   0.266   7.132 -0.2910  0.0119  0.3392
 6921SOL    HW132222   4.671   0.314   7.190  0.9766 -0.8594 -0.2479
 6921SOL    HW232223   4.561   0.340   7.098  0.5320  0.5256  0.2340
 6922SOL     OW32224   1.093   1.223  15.477  0.3564  0.6145 -0.0874
 6922SOL    HW132225   1.094   1.232  15.381  1.2720  3.9046  0.2294
 6922SOL    HW232226   1.049   1.298  15.515 -1.1005 -0.2369 -0.1016
 6923SOL     OW32227   4.400   2.195   3.126 -0.6082  0.2672  0.1289
 6923SOL    HW132228   4.349   2.241   3.059 -2.7359 -1.4170  0.5827
 6923SOL    HW232229   4.471   2.258   3.140  0.3225 -1.1841  1.9513
 6924SOL     OW32230   3.619   1.765  15.977 -0.6496 -0.2284  0.2660
 6924SOL    HW132231   3.544   1.783  16.034 -0.3990  1.8026 -0.0567
 6924SOL    HW232232   3.691   1.780  16.038 -0.7169 -0.0852  0.3083
 6925SOL     OW32233   0.377   0.373   8.717 -0.3547 -0.1369 -0.1178
 6925SOL    HW132234   0.428   0.450   8.740 -0.1354 -0.7561  1.4557
 6925SOL    HW232235   0.443   0.305   8.704 -1.8955 -1.6650  0.0650
 6926SOL     OW32236   0.291   4.225   8.851  0.5709  0.5384  0.1481
 6926SOL    HW132237   0.216   4.226   8.790  0.2232 -4.2504  0.4661
 6926SOL    HW232238   0.252   4.256   8.933  2.1046 -1.1088  1.5127
 6927SOL     OW32239   4.369   0.959  11.666  0.4314  0.6141 -0.3460
 6927SOL    HW132240   4.275   0.976  11.666  0.4588  0.7722 -1.1498
 6927SOL    HW232241   4.382   0.884  11.725 -1.3932  1.1474  0.7257
 6928SOL     OW32242   3.887   3.023  11.381 -0.1080  0.1988 -0.1115
 6928SOL    HW132243   3.917   2.961  11.448 -0.6013 -0.0405 -0.1183
 6928SOL    HW232244   3.840   3.083  11.438  2.5847 -0.3765  2.7310
 6929SOL     OW32245   3.815   4.700   2.583  0.3389  0.4986 -0.2198
 6929SOL    HW132246   3.827   4.605   2.587 -1.4763  0.2346 -1.6325
 6929SOL    HW232247   3.768   4.712   2.501 -1.1778  0.0183  0.5902
 6930SOL     OW32248   4.348   4.007  12.767  0.2982 -0.8852 -0.4022
 6930SOL    HW132249   4.274   3.987  12.710  0.0956 -0.6353 -0.2277
 6930SOL    HW232250   4.376   3.919  12.789  0.8145 -0.7332 -0.4539
 6931SOL     OW32251   1.229   3.210   5.731  0.4120 -0.6579  0.3067
 6931SOL    HW132252   1.167   3.184   5.662 -0.0919  0.6309  0.2657
 6931SOL    HW232253   1.217   3.142   5.797  0.3971 -2.6654 -1.7737
 6932SOL     OW32254   2.567   2.145   8.404  0.1274  0.1163 -0.1299
 6932SOL    HW132255   2.634   2.108   8.461  0.5802  0.1015 -0.6670
 6932SOL    HW232256   2.612   2.156   8.320 -0.4655 -0.9573 -0.5986
 6933SOL     OW32257   3.680   3.505  13.810 -0.3362 -0.3847 -0.3820
 6933SOL    HW132258   3.612   3.438  13.809 -0.0671 -0.6688  1.3616
 6933SOL    HW232259   3.751   3.459  13.855 -1.1967 -0.5151  0.8164
 6934SOL     OW32260   0.375   0.214  16.904  0.5789  0.7401  0.1677
 6934SOL    HW132261   0.343   0.303  16.918  1.2530  0.8253  1.2250
 6934SOL    HW232262   0.319   0.176  16.972 -0.4377  1.5345 -0.2424
 6935SOL     OW32263   0.847   4.230  16.637 -0.7119 -0.1113  0.0361
 6935SOL    HW132264   0.860   4.161  16.571 -2.0291 -0.5479  0.2328
 6935SOL    HW232265   0.755   4.223  16.664 -0.9755  0.2689 -0.7480
 6936SOL     OW32266   1.069   0.423   4.794 -0.5068  0.2774 -0.0040
 6936SOL    HW132267   1.050   0.340   4.838 -2.5017  0.8363  0.2047
 6936SOL    HW232268   1.120   0.394   4.719  0.6565 -1.3804  1.4216
 6937SOL     OW32269   1.290   0.720  10.403  0.1154  0.6437 -0.5072
 6937SOL    HW132270   1.377   0.758  10.391  0.3203  0.3491  0.0216
 6937SOL    HW232271   1.240   0.790  10.445  0.6450  0.6695  0.0804
 6938SOL     OW32272   3.310   1.391  13.471 -0.1196  0.2102  0.2540
 6938SOL    HW132273   3.403   1.391  13.446 -0.2038  1.7842 -0.0234
 6938SOL    HW232274   3.309   1.467  13.529  0.4150 -0.0411  0.5999
 6939SOL     OW32275   3.186   4.306  10.191  0.0953 -0.5149 -0.2635
 6939SOL    HW132276   3.154   4.383  10.238  0.0829 -1.2616  0.9545
 6939SOL    HW232277   3.278   4.305  10.216 -0.3668  2.0140  1.5019
 6940SOL     OW32278   1.892   4.301   8.327  0.0385  0.1019  0.4102
 6940SOL    HW132279   1.805   4.340   8.322 -0.5964 -1.2239  1.0944
 6940SOL    HW232280   1.940   4.349   8.259 -4.0819  0.9663 -1.8305
 6941SOL     OW32281   2.776   3.616  12.747 -0.7220 -0.1431  0.2866
 6941SOL    HW132282   2.783   3.669  12.827 -0.2584  0.8949 -0.4378
 6941SOL    HW232283   2.736   3.677  12.685  1.4330 -0.4027 -1.3460
 6942SOL     OW32284   0.783   3.392   3.889 -0.1492  0.8104 -0.2579
 6942SOL    HW132285   0.705   3.441   3.915 -0.7851 -0.1656 -0.3213
 6942SOL    HW232286   0.752   3.302   3.895  0.7158  0.6273  1.2048
 6943SOL     OW32287   3.513   0.822   4.114  0.4184 -0.2606  0.7345
 6943SOL    HW132288   3.550   0.803   4.028 -2.4815 -1.1647 -0.3190
 6943SOL    HW232289   3.467   0.745   4.147 -0.5922  0.1265  0.2207
 6944SOL     OW32290   4.506   3.896   3.877 -0.5820  0.1110 -0.1175
 6944SOL    HW132291   4.497   3.816   3.928 -0.2210  0.5184  0.5874
 6944SOL    HW232292   4.561   3.870   3.803  1.2245  3.0104  0.2333
 6945SOL     OW32293   4.060   0.182   5.236  0.0915  0.0254  0.1364
 6945SOL    HW132294   3.988   0.201   5.177 -0.0394  2.2813  1.0105
 6945SOL    HW232295   4.027   0.222   5.317  2.1517 -2.3876  2.1814
 6946SOL     OW32296   4.401   2.258   6.111 -0.3878 -0.0912  0.5508
 6946SOL    HW132297   4.451   2.263   6.193 -0.6322 -2.8062  0.8572
 6946SOL    HW232298   4.465   2.248   6.041  0.1588  1.5491  0.8184
 6947SOL     OW32299   4.227   1.243  17.624 -0.1848 -0.6508 -0.2307
 6947SOL    HW132300   4.319   1.266  17.636 -0.9014  2.4630 -0.7908
 6947SOL    HW232301   4.233   1.156  17.583  0.6829 -0.1268 -1.2181
 6948SOL     OW32302   0.457   0.945  13.013  0.0789  0.1804 -0.0461
 6948SOL    HW132303   0.519   1.007  12.975  2.4617 -1.5312  1.0642
 6948SOL    HW232304   0.476   0.978  13.101 -0.2855 -1.7840  0.7876
 6949SOL     OW32305   1.613   0.452   4.160  0.5629  0.3075  0.0827
 6949SOL    HW132306   1.579   0.510   4.227  0.1826  1.1170 -0.8142
 6949SOL    HW232307   1.533   0.432   4.111 -0.0369  1.6658  0.5257
 6950SOL     OW32308   0.535   1.746   4.472 -0.2865 -0.2040 -0.4392
 6950SOL    HW132309   0.606   1.701   4.425 -0.5057 -0.0442 -0.9318
 6950SOL    HW232310   0.473   1.673   4.472  1.2800 -1.5365  0.4699
 6951SOL     OW32311   3.942   2.145   3.571 -0.4911  0.2170  0.1773
 6951SOL    HW132312   3.996   2.174   3.498  0.0773 -0.8902  0.1733
 6951SOL    HW232313   3.854   2.172   3.544  0.1601  1.1327 -1.0226
 6952SOL     OW32314   3.172   0.660   8.075 -0.2884 -0.2667 -0.0473
 6952SOL    HW132315   3.176   0.568   8.101  2.9594  0.3688  1.7445
 6952SOL    HW232316   3.156   0.654   7.981 -0.7904 -1.1247  0.0958
 6953SOL     OW32317   4.138   4.630   2.530  0.0575  0.0570 -0.2502
 6953SOL    HW132318   4.160   4.686   2.455  1.4807  1.8718  1.5364
 6953SOL    HW232319   4.053   4.602   2.496 -0.8966  3.1701 -0.3632
 6954SOL     OW32320   3.898   2.564   6.975  0.4981  0.3512 -0.6088
 6954SOL    HW132321   3.918   2.486   6.924 -0.4722 -0.4511  0.2332
 6954SOL    HW232322   3.824   2.538   7.031  1.3621  1.0292  0.8513
 6955SOL     OW32323   2.384   0.124   2.276 -0.2253 -0.1874  0.0439
 6955SOL    HW132324   2.422   0.079   2.201 -0.5665  0.9396 -0.7954
 6955SOL    HW232325   2.301   0.078   2.284  0.5654 -1.4230  1.2458
 6956SOL     OW32326   3.517   2.554   3.246 -0.5609  0.3420 -0.0294
 6956SOL    HW132327   3.565   2.611   3.307  2.1185  0.9876 -2.7484
 6956SOL    HW232328   3.592   2.523   3.196 -1.4713  0.4556 -1.4535
 6957SOL     OW32329   2.662   2.774   7.899  0.2194  0.0828  0.0794
 6957SOL    HW132330   2.585   2.753   7.951  1.1947 -0.6831  1.2077
 6957SOL    HW232331   2.622   2.788   7.813 -0.7560  1.3581  0.7438
 6958SOL     OW32332   1.467   0.740  13.335  0.4174  0.1885 -0.4295
 6958SOL    HW132333   1.373   0.755  13.345  0.3571 -0.9820  0.8017
 6958SOL    HW232334   1.469   0.667  13.273 -1.1014  0.3530 -0.6704
 6959SOL     OW32335   1.763   3.172   3.173  0.0306  0.0954  0.5359
 6959SOL    HW132336   1.759   3.144   3.265  2.1818 -1.9183  0.0252
 6959SOL    HW232337   1.735   3.263   3.181 -0.0653  0.1812 -0.7541
 6960SOL     OW32338   2.187   0.789   5.991 -0.3674 -0.1566 -0.3736
 6960SOL    HW132339   2.116   0.852   5.991 -0.0814  0.1646 -0.3941
 6960SOL    HW232340   2.240   0.821   6.064  0.0352 -1.5654 -0.0452
 6961SOL     OW32341   0.888   2.047  16.024 -0.1035 -0.2563  0.2014
 6961SOL    HW132342   0.825   1.984  16.058 -0.7344  1.0525  1.4797
 6961SOL    HW232343   0.955   1.995  15.980 -0.2969 -0.1229 -0.2534
 6962SOL     OW32344   2.046   3.767  16.651  0.6512 -0.7221  0.3688
 6962SOL    HW132345   1.981   3.718  16.700  1.4975  0.0576  2.2449
 6962SOL    HW232346   2.047   3.718  16.568  2.6733  1.5742 -0.9663
 6963SOL     OW32347   3.559   3.407  17.040 -1.1677  0.1172  0.1224
 6963SOL    HW132348   3.555   3.314  17.063  0.7996  0.4090  1.6497
 6963SOL    HW232349   3.641   3.434  17.081 -1.0719  1.8964 -1.2540
 6964SOL     OW32350   4.639   2.967   3.086  0.3403 -0.3454  0.8425
 6964SOL    HW132351   4.710   3.031   3.095  0.7289 -0.4916 -1.3176
 6964SOL    HW232352   4.681   2.902   3.030 -1.9756 -1.4377  0.3600
 6965SOL     OW32353   3.853   4.022  13.333  0.1580 -0.1895 -0.4688
 6965SOL    HW132354   3.841   4.110  13.298  4.3359  0.5372 -0.0641
 6965SOL    HW232355   3.922   3.991  13.274 -1.8468 -2.0469 -1.8124
 6966SOL     OW32356   1.300   2.119  12.902  0.4222  0.2875 -0.0702
 6966SOL    HW132357   1.356   2.196  12.907  1.0223 -0.1411 -0.1255
 6966SOL    HW232358   1.346   2.073  12.973 -1.0800  0.4339  0.9802
 6967SOL     OW32359   3.035   4.648   1.998  0.0485 -0.3076 -0.1476
 6967SOL    HW132360   3.022   0.017   1.988 -2.0448 -0.5862 -0.0467
 6967SOL    HW232361   3.126   4.643   2.029 -0.3260 -1.9846  0.6963
 6968SOL     OW32362   0.359   3.342   2.703  0.8736 -0.2215 -0.3175
 6968SOL    HW132363   0.333   3.271   2.762 -0.2132  0.1584 -0.3453
 6968SOL    HW232364   0.455   3.343   2.709  0.8008  1.2317  0.5424
 6969SOL     OW32365   0.681   3.951   6.916  0.1620 -0.2059 -0.7497
 6969SOL    HW132366   0.696   3.928   7.008 -0.5755  0.1835 -0.5300
 6969SOL    HW232367   0.643   3.868   6.888 -1.9373 -0.0011  1.4609
 6970SOL     OW32368   1.281   0.798   7.085  0.4338  0.2198 -0.4066
 6970SOL    HW132369   1.232   0.785   7.003 -0.6166  0.2108  0.2139
 6970SOL    HW232370   1.355   0.851   7.058  0.6862  0.1019  0.0630
 6971SOL     OW32371   0.151   3.609   8.518 -0.3520  1.0789  0.5864
 6971SOL    HW132372   0.234   3.564   8.502 -1.3137 -0.1440 -0.9575
 6971SOL    HW232373   0.088   3.539   8.500  0.1553  0.5078  1.0538
 6972SOL     OW32374   2.262   0.545   1.608  0.4041 -0.4421 -0.0263
 6972SOL    HW132375   2.275   0.609   1.678  0.8374 -0.2482 -0.2907
 6972SOL    HW232376   2.317   0.472   1.636  2.1029  0.5283 -0.8481
 6973SOL     OW32377   2.260   2.651   5.673 -0.0836  0.3088 -0.1494
 6973SOL    HW132378   2.211   2.614   5.747  1.5514 -0.8754  0.3439
 6973SOL    HW232379   2.182   2.686   5.630 -0.9120  0.6562  1.6218
 6974SOL     OW32380   1.818   3.560   1.512 -0.2104  0.3705  0.3224
 6974SOL    HW132381   1.755   3.558   1.584  0.1095  3.5878  0.6809
 6974SOL    HW232382   1.882   3.500   1.551  1.2948  0.1476 -2.5312
 6975SOL     OW32383   1.082   2.935  13.965  0.3198  0.0033 -0.4121
 6975SOL    HW132384   1.002   2.976  13.997 -0.3154 -0.7718 -1.0152
 6975SOL    HW232385   1.106   2.863  14.024 -1.1655 -1.0083 -1.0583
 6976SOL     OW32386   4.180   3.954  13.470  0.6305 -0.3495 -0.0917
 6976SOL    HW132387   4.234   3.883  13.436  0.8625  0.4634 -1.4092
 6976SOL    HW232388   4.216   4.021  13.412 -0.8962  1.6686  1.2836
 6977SOL     OW32389   3.889   0.500   2.977  0.0007 -0.2084 -0.0819
 6977SOL    HW132390   3.906   0.543   2.893  1.4119 -0.5874  0.0012
 6977SOL    HW232391   3.850   0.565   3.035 -0.2255  0.4885 -1.0226
 6978SOL     OW32392   1.051   2.226   6.538 -0.6407 -0.5950  0.0452
 6978SOL    HW132393   1.038   2.144   6.586  0.6544 -0.9576 -0.2140
 6978SOL    HW232394   0.966   2.270   6.540 -0.1002  0.5736 -2.8022
 6979SOL     OW32395   2.699   1.505   6.194 -0.5604  0.0861 -0.6742
 6979SOL    HW132396   2.647   1.426   6.177  1.3742 -1.3790  0.1873
 6979SOL    HW232397   2.642   1.576   6.167 -0.9502  0.5012  1.2635
 6980SOL     OW32398   1.902   2.087  12.129 -0.0067  0.5480  0.3507
 6980SOL    HW132399   1.862   2.112  12.212  0.2588  1.6724  0.1391
 6980SOL    HW232400   1.920   1.994  12.143 -1.8898  0.2211  0.5616
 6981SOL     OW32401   3.663   4.201   5.018 -0.5020 -0.4321  0.2613
 6981SOL    HW132402   3.615   4.184   5.098 -0.3502  1.3922  0.7455
 6981SOL    HW232403   3.614   4.277   4.985  0.2606 -0.4749 -1.0137
 6982SOL     OW32404   0.629   4.407  16.830  0.1347 -0.4964  0.0265
 6982SOL    HW132405   0.694   4.474  16.810  2.0983 -1.9605  1.5068
 6982SOL    HW232406   0.657   4.374  16.915  0.0996  0.8149  0.5408
 6983SOL     OW32407   3.830   2.801   2.741 -0.1150 -0.5514  0.5636
 6983SOL    HW132408   3.779   2.878   2.763  1.0791  0.4132 -0.0769
 6983SOL    HW232409   3.789   2.777   2.658  1.0957  0.4972 -0.3294
 6984SOL     OW32410   3.240   1.880   4.163 -1.1263  0.6084 -0.0525
 6984SOL    HW132411   3.206   1.804   4.116 -0.7761  0.4264 -0.0111
 6984SOL    HW232412   3.217   1.872   4.256 -1.1071 -1.0311 -0.1852
 6985SOL     OW32413   1.743   1.715   2.642  0.4617 -0.0272  0.4909
 6985SOL    HW132414   1.787   1.658   2.578 -0.4470 -0.6839  0.4429
 6985SOL    HW232415   1.785   1.682   2.721 -0.8740  0.8052  1.5398
 6986SOL     OW32416   0.604   1.831  16.711  0.2642 -0.1623  0.2585
 6986SOL    HW132417   0.553   1.752  16.725  0.0538  0.1049  1.0279
 6986SOL    HW232418   0.653   1.827  16.794 -1.2483 -0.3253  1.1323
 6987SOL     OW32419   3.781   2.103  15.129 -0.6180  0.6145 -0.5687
 6987SOL    HW132420   3.777   2.011  15.154  1.6807  1.2283  1.9796
 6987SOL    HW232421   3.745   2.088  15.041 -2.3746  0.2086  0.2140
 6988SOL     OW32422   3.246   0.908   8.170  0.5758  0.2583  0.5094
 6988SOL    HW132423   3.230   0.823   8.130 -1.6328 -0.7823  3.6013
 6988SOL    HW232424   3.160   0.948   8.162 -0.1285 -1.4883 -0.5841
 6989SOL     OW32425   2.736   0.684   9.918  0.0739  0.0339  0.1897
 6989SOL    HW132426   2.675   0.673   9.990 -1.6726 -1.7873 -1.5615
 6989SOL    HW232427   2.821   0.707   9.956  0.6508 -1.9409  0.0915
 6990SOL     OW32428   0.801   3.089   9.022  0.2834  0.2786  0.3096
 6990SOL    HW132429   0.794   3.175   8.980  0.1441 -0.9098 -2.0474
 6990SOL    HW232430   0.807   3.132   9.108 -0.2622  0.0157  0.4802
 6991SOL     OW32431   3.086   2.713   6.766 -0.0958  0.2488 -0.7088
 6991SOL    HW132432   3.024   2.787   6.764  0.3263  0.6204 -0.1935
 6991SOL    HW232433   3.066   2.657   6.691 -4.4084 -0.8670  1.2876
 6992SOL     OW32434   2.450   0.769   8.414 -0.0391  0.1079  0.0679
 6992SOL    HW132435   2.413   0.703   8.472 -0.9463  1.3608  0.8984
 6992SOL    HW232436   2.535   0.781   8.458 -0.3437  1.6521  0.2234
 6993SOL     OW32437   1.213   1.691  13.656  0.0328  0.1031  0.2942
 6993SOL    HW132438   1.174   1.685  13.568  1.2809  1.2844 -0.3247
 6993SOL    HW232439   1.249   1.779  13.659  0.5611 -0.0947 -0.3689
 6994SOL     OW32440   0.806   2.958   5.316  0.6836  0.3105  0.5107
 6994SOL    HW132441   0.739   3.025   5.332 -1.4360 -1.6822 -0.0021
 6994SOL    HW232442   0.809   2.931   5.408  0.5146 -0.8434  0.1802
 6995SOL     OW32443   2.335   1.633  16.932  0.0061  0.0415 -0.1199
 6995SOL    HW132444   2.251   1.587  16.929 -1.9814  3.8476 -2.1898
 6995SOL    HW232445   2.309   1.723  16.949  2.3263  0.5567  0.7288
 6996SOL     OW32446   3.826   0.830   4.958  0.0559 -0.6758 -0.2345
 6996SOL    HW132447   3.876   0.872   5.029 -1.1152  1.6369 -0.7697
 6996SOL    HW232448   3.773   0.904   4.928 -0.1748  0.4566  2.9056
 6997SOL     OW32449   3.324   3.334   5.718 -0.4167  0.3766  0.0428
 6997SOL    HW132450   3.366   3.416   5.692 -1.8208  0.9981 -0.2438
 6997SOL    HW232451   3.300   3.346   5.810 -0.3789  1.5209 -0.0978
 6998SOL     OW32452   4.182   0.863   7.720  0.2728 -0.3017  0.6040
 6998SOL    HW132453   4.119   0.917   7.672  0.7472 -1.5253 -1.4000
 6998SOL    HW232454   4.174   0.897   7.810  1.6291 -0.1746  0.6781
 6999SOL     OW32455   2.386   2.915   1.149 -0.6529 -0.2181 -0.3874
 6999SOL    HW132456   2.350   2.982   1.091 -0.9066  0.6054  0.7449
 6999SOL    HW232457   2.366   2.847   1.084 -0.7217 -1.1934  0.6500
 7000SOL     OW32458   3.668   3.527   6.344 -0.6292 -0.4860  0.2005
 7000SOL    HW132459   3.642   3.608   6.388 -1.3243  0.0002 -1.1117
 7000SOL    HW232460   3.583   3.494   6.315 -1.5181  1.4607  0.5895
 7001SOL     OW32461   1.959   2.374   2.261  0.0642 -0.1376  0.1021
 7001SOL    HW132462   1.989   2.340   2.346  0.8676 -2.3641 -1.0738
 7001SOL    HW232463   1.985   2.466   2.256 -1.1394  0.0827 -1.8001
 7002SOL     OW32464   2.217   1.506  15.276 -0.2314  0.0371  0.1507
 7002SOL    HW132465   2.269   1.544  15.346 -0.9225 -2.0772  1.8140
 7002SOL    HW232466   2.280   1.509  15.204 -0.9029 -2.2978 -0.5575
 7003SOL     OW32467   2.297   1.890  13.331 -0.2504  0.4502 -0.2913
 7003SOL    HW132468   2.280   1.970  13.382  0.5654  0.5622 -0.2034
 7003SOL    HW232469   2.374   1.918  13.281  1.2048 -1.5788  0.8093
 7004SOL     OW32470   3.638   4.536   7.676  0.3309  0.0568 -0.4272
 7004SOL    HW132471   3.574   4.468   7.655 -0.0647  0.0616  0.7575
 7004SOL    HW232472   3.577   4.609   7.689 -0.1245 -0.6621  1.4419
 7005SOL     OW32473   4.391   3.424   3.392  0.1809  0.1814 -0.7169
 7005SOL    HW132474   4.443   3.344   3.402 -1.3617 -0.8347 -0.9460
 7005SOL    HW232475   4.424   3.466   3.313  1.5631 -1.8251 -1.2028
 7006SOL     OW32476   3.029   0.504   3.511 -0.0698  0.1248 -0.7512
 7006SOL    HW132477   3.095   0.467   3.452  1.1172  0.5686  0.2970
 7006SOL    HW232478   3.028   0.439   3.581  0.3867  2.6228  1.5365
 7007SOL     OW32479   2.219   2.922   6.707  0.4745 -0.6429 -0.2149
 7007SOL    HW132480   2.244   2.867   6.781  1.4329  0.2580  0.1408
 7007SOL    HW232481   2.309   2.956   6.706  0.0479  0.5435  1.5097
 7008SOL     OW32482   1.671   0.367   9.557  0.2091  0.2420  0.1135
 7008SOL    HW132483   1.732   0.354   9.485 -0.9304 -2.8541 -0.2830
 7008SOL    HW232484   1.592   0.335   9.513  0.0326 -0.3747  0.8743
 7009SOL     OW32485   4.258   1.907   7.590  0.3489 -0.2845 -0.0576
 7009SOL    HW132486   4.272   1.999   7.568  0.5526  0.2857  2.4667
 7009SOL    HW232487   4.344   1.874   7.618 -0.9246 -3.8224 -0.3277
 7010SOL     OW32488   0.653   2.455   6.988  0.2731  0.1638  0.1019
 7010SOL    HW132489   0.653   2.532   7.046 -0.1689 -2.4469  3.5830
 7010SOL    HW232490   0.581   2.407   7.028 -0.2746  0.4095 -0.5914
 7011SOL     OW32491   2.167   3.365   8.595 -0.1854  0.0779  0.4465
 7011SOL    HW132492   2.204   3.309   8.527 -1.0076  0.1015 -0.0189
 7011SOL    HW232493   2.243   3.417   8.621 -0.1642 -0.4066  1.3618
 7012SOL     OW32494   0.398   2.106  17.610 -0.1384 -0.4013 -0.1714
 7012SOL    HW132495   0.437   2.190  17.588 -2.1997  0.7173  0.3879
 7012SOL    HW232496   0.340   2.142  17.678  0.3921  2.8858 -1.4748
 7013SOL     OW32497   3.959   3.516   5.911  0.6730  0.1886 -0.0614
 7013SOL    HW132498   3.919   3.578   5.850  1.2022 -0.7093 -1.3433
 7013SOL    HW232499   4.050   3.516   5.879 -0.4658 -1.9501 -3.3116
 7014SOL     OW32500   0.618   4.360   1.904  0.2586  0.3934  0.4205
 7014SOL    HW132501   0.660   4.303   1.838  1.0989  1.9509 -0.3920
 7014SOL    HW232502   0.525   4.346   1.886  0.8087 -0.3794 -1.8748
 7015SOL     OW32503   1.728   2.041   2.902 -0.2357  0.3470 -0.4607
 7015SOL    HW132504   1.806   2.029   2.849 -1.6198  1.7278 -2.7672
 7015SOL    HW232505   1.766   2.011   2.985 -2.3317  1.1387  0.8019
 7016SOL     OW32506   3.246   3.404  12.142 -0.0245 -0.0946 -0.0776
 7016SOL    HW132507   3.196   3.404  12.060  1.6558 -0.3933 -1.0826
 7016SOL    HW232508   3.169   3.392  12.199  1.8854  1.0842  2.7266
 7017SOL     OW32509   1.662   4.427   8.291  0.3289 -0.4478  0.1286
 7017SOL    HW132510   1.678   4.509   8.337  0.4605 -1.5023  1.9577
 7017SOL    HW232511   1.572   4.435   8.258 -0.0777 -2.8379  0.6211
 7018SOL     OW32512   2.008   2.828   1.110  0.0048 -0.2734  0.2114
 7018SOL    HW132513   2.053   2.873   1.039 -1.6414  2.4139  0.8658
 7018SOL    HW232514   1.959   2.760   1.065  2.1882 -1.8501  0.2461
 7019SOL     OW32515   2.357   3.253   0.803  0.6859  0.1353  0.6862
 7019SOL    HW132516   2.336   3.345   0.787  2.1043  0.8365  2.9224
 7019SOL    HW232517   2.289   3.213   0.750 -1.4780  2.5171  1.6531
 7020SOL     OW32518   1.641   2.823  14.829 -0.1906  0.3277 -0.1814
 7020SOL    HW132519   1.735   2.829  14.810 -0.3769 -1.3864 -1.5873
 7020SOL    HW232520   1.621   2.732  14.804 -1.1791  0.4873  0.0281
 7021SOL     OW32521   4.429   4.643   7.846 -0.0414  0.3748 -0.1385
 7021SOL    HW132522   4.525   4.640   7.850 -0.1426 -0.2425  1.6401
 7021SOL    HW232523   4.416   4.665   7.754  2.0528 -0.9805 -0.7687
 7022SOL     OW32524   1.498   1.095   5.391  0.0932  0.3837  0.0103
 7022SOL    HW132525   1.453   1.045   5.459  0.1517  0.3247  0.0060
 7022SOL    HW232526   1.582   1.114   5.434  0.1508 -0.2676  0.1870
 7023SOL     OW32527   0.125   3.147   3.187 -0.1940 -0.1897  0.4372
 7023SOL    HW132528   0.211   3.166   3.226  0.0352 -0.9179  0.2838
 7023SOL    HW232529   0.071   3.131   3.264  0.5512  0.7059  1.1608
 7024SOL     OW32530   2.441   3.106  15.018  0.4507  0.2303 -0.3145
 7024SOL    HW132531   2.430   3.019  14.979 -2.7435 -0.3000  1.7744
 7024SOL    HW232532   2.351   3.126  15.043  0.0158 -1.5300 -0.4478
 7025SOL     OW32533   1.000   0.753   9.028 -0.4900  0.4278  0.5690
 7025SOL    HW132534   0.926   0.792   9.075 -0.2461 -0.3228  1.5658
 7025SOL    HW232535   1.035   0.685   9.086  1.4754 -0.4865 -1.7081
 7026SOL     OW32536   3.406   3.960  14.677 -0.2058  0.0143 -0.1108
 7026SOL    HW132537   3.412   3.875  14.634  0.4582 -0.4056  0.8218
 7026SOL    HW232538   3.310   3.965  14.674 -0.2695 -0.5498  1.1156
 7027SOL     OW32539   0.728   2.164   9.032  0.0063  0.2398  0.1049
 7027SOL    HW132540   0.807   2.112   9.042  0.2438  0.6056  0.1163
 7027SOL    HW232541   0.683   2.126   8.956  0.8183  0.8904 -0.6966
 7028SOL     OW32542   4.542   0.703   4.817  0.0564  0.5009 -1.0548
 7028SOL    HW132543   4.635   0.692   4.836  0.5134  1.9815 -2.4245
 7028SOL    HW232544   4.534   0.798   4.821 -1.3920  0.3733 -0.6496
 7029SOL     OW32545   1.235   4.287   2.152  0.3644  0.7352  0.3723
 7029SOL    HW132546   1.240   4.282   2.057  1.9308  0.0047  0.4960
 7029SOL    HW232547   1.329   4.289   2.173  0.5788 -1.2939 -0.4320
 7030SOL     OW32548   1.292   3.060  14.073 -0.3935 -0.7892 -0.3768
 7030SOL    HW132549   1.231   3.022  14.011 -1.3166 -0.5424  0.3745
 7030SOL    HW232550   1.277   3.154  14.069  0.0074 -0.8174 -2.3044
 7031SOL     OW32551   2.316   3.569  12.073  0.3482 -0.0859  0.6074
 7031SOL    HW132552   2.352   3.571  11.984  1.8538  1.4935  1.2651
 7031SOL    HW232553   2.317   3.664  12.079 -2.3015  0.1366 -2.5502
 7032SOL     OW32554   2.412   0.459  12.103 -0.4628 -0.2051  0.2515
 7032SOL    HW132555   2.440   0.550  12.104 -0.1107 -0.2623 -2.8641
 7032SOL    HW232556   2.371   0.451  12.016  2.2483 -1.1721 -0.9576
 7033SOL     OW32557   2.371   1.499   9.478  0.0449 -0.5645  0.4162
 7033SOL    HW132558   2.442   1.532   9.423  1.2848  0.3448  2.5544
 7033SOL    HW232559   2.358   1.576   9.533  4.5461 -0.3488  1.1817
 7034SOL     OW32560   1.652   0.914   6.695  0.8873  0.0180  0.2208
 7034SOL    HW132561   1.670   0.832   6.742  0.5936 -0.2060 -0.0550
 7034SOL    HW232562   1.579   0.884   6.641  2.2391  0.4873 -1.8805
 7035SOL     OW32563   1.638   3.646  10.223 -0.1231 -0.6573 -0.3667
 7035SOL    HW132564   1.717   3.686  10.259  0.3474 -1.0880 -0.9221
 7035SOL    HW232565   1.574   3.717  10.224 -0.9232 -1.3768 -0.0514
 7036SOL     OW32566   1.629   4.398   8.653 -0.3173  0.2633 -0.0048
 7036SOL    HW132567   1.666   4.465   8.709  1.2188  0.3605 -1.1279
 7036SOL    HW232568   1.573   4.448   8.593  2.4110  0.6321 -2.2978
 7037SOL     OW32569   0.924   4.451  11.926 -0.2158  0.1535  0.1495
 7037SOL    HW132570   0.861   4.445  11.854 -0.3236  1.1158  0.1743
 7037SOL    HW232571   0.894   4.385  11.989 -2.9457  1.0116 -0.2340
 7038SOL     OW32572   1.293   0.503   7.035 -0.6566 -0.3096 -0.2104
 7038SOL    HW132573   1.342   0.499   7.117  1.7124  0.4011 -1.5879
 7038SOL    HW232574   1.363   0.518   6.971  0.7955  0.2474  1.4907
 7039SOL     OW32575   0.297   1.422   6.893  0.2047  0.4075  0.3699
 7039SOL    HW132576   0.251   1.358   6.838  1.2261  0.4491 -0.5461
 7039SOL    HW232577   0.240   1.426   6.969 -1.0429  0.0846 -0.5558
 7040SOL     OW32578   3.804   0.621   5.962 -0.1989 -0.2367  0.6063
 7040SOL    HW132579   3.721   0.619   5.914  0.4141  1.4558 -0.5309
 7040SOL    HW232580   3.852   0.581   5.890  0.4395 -0.6239  1.2601
 7041SOL     OW32581   3.474   2.267   7.778  0.0186 -0.5799 -0.3640
 7041SOL    HW132582   3.553   2.214   7.785 -0.9923 -1.9318  1.2030
 7041SOL    HW232583   3.512   2.349   7.809  2.4914 -2.3117  1.1756
 7042SOL     OW32584   3.083   2.877  17.005  0.0167  0.7314 -0.0470
 7042SOL    HW132585   3.033   2.950  17.041 -0.4949  0.4192 -0.1285
 7042SOL    HW232586   3.142   2.920  16.942  0.1529  0.4644 -0.1006
 7043SOL     OW32587   1.233   0.441   1.677  0.1280 -0.2300 -0.1963
 7043SOL    HW132588   1.216   0.478   1.591  0.3214  0.2401 -0.0292
 7043SOL    HW232589   1.291   0.506   1.717 -0.8730 -0.4995  1.6978
 7044SOL     OW32590   3.890   3.125   0.528  0.1626  0.8875 -0.1502
 7044SOL    HW132591   3.842   3.052   0.489  1.4044 -0.3322  0.6180
 7044SOL    HW232592   3.844   3.125   0.612 -1.0300  0.1062 -0.8007
 7045SOL     OW32593   2.920   0.974   3.956 -0.1526  0.4582 -0.2326
 7045SOL    HW132594   2.865   0.927   4.019 -0.0408 -0.9439 -1.1769
 7045SOL    HW232595   3.003   0.928   3.970 -0.2036  1.0423  1.9108
 7046SOL     OW32596   4.160   4.184   4.450  0.1505  0.2710 -0.2545
 7046SOL    HW132597   4.114   4.190   4.366 -1.4970 -1.4796  0.5232
 7046SOL    HW232598   4.208   4.102   4.442 -1.5389 -0.9867  2.1808
 7047SOL     OW32599   0.852   1.265  10.395 -0.1450 -0.2839 -0.1157
 7047SOL    HW132600   0.908   1.306  10.460 -0.7226 -1.0486  0.8626
 7047SOL    HW232601   0.852   1.176  10.428 -0.9067  0.0026  0.6791
 7048SOL     OW32602   3.312   4.324   2.961  0.2639  0.5179 -0.0217
 7048SOL    HW132603   3.325   4.310   3.055 -1.7734 -0.3536  0.1316
 7048SOL    HW232604   3.396   4.369   2.947  1.6658 -2.1328 -0.1980
 7049SOL     OW32605   4.466   0.251   7.496  0.4956  0.1845 -0.2978
 7049SOL    HW132606   4.425   0.317   7.441  0.2611 -1.0942 -1.6416
 7049SOL    HW232607   4.540   0.300   7.534  0.9466 -2.1746  1.8772
 7050SOL     OW32608   3.663   3.314  14.899  0.5353 -0.2599 -0.1940
 7050SOL    HW132609   3.686   3.310  14.806 -0.0634 -2.3768 -0.2392
 7050SOL    HW232610   3.663   3.220  14.915 -0.6536 -0.3305 -0.5991
 7051SOL     OW32611   0.995   0.306  11.397 -0.0198 -0.0555 -0.3199
 7051SOL    HW132612   1.045   0.309  11.315  1.5504 -2.0577  0.5711
 7051SOL    HW232613   1.056   0.330  11.467 -0.9840  2.9156 -0.4753
 7052SOL     OW32614   3.988   0.792   8.168 -0.3417 -0.2574  0.0489
 7052SOL    HW132615   4.012   0.743   8.090 -0.2013 -0.2920  0.1150
 7052SOL    HW232616   3.909   0.744   8.191  0.0148 -1.0913 -0.4861
 7053SOL     OW32617   1.608   2.848   3.241  0.1245 -0.1775 -0.4630
 7053SOL    HW132618   1.550   2.916   3.275 -0.6599 -0.8651 -0.4242
 7053SOL    HW232619   1.562   2.817   3.163  0.0093 -0.5483 -0.2460
 7054SOL     OW32620   4.708   0.685   3.946  0.0469 -0.1356  0.3957
 7054SOL    HW132621   4.648   0.657   3.877  0.1890  0.1637  0.1549
 7054SOL    HW232622   0.048   0.718   3.884  2.1727 -0.9257  2.1754
 7055SOL     OW32623   4.028   3.332   8.460  0.1284  1.0910  0.2638
 7055SOL    HW132624   4.016   3.338   8.555 -0.4365 -1.0383  0.3394
 7055SOL    HW232625   4.123   3.330   8.457  0.1183 -0.9604  0.8418
 7056SOL     OW32626   4.505   0.480  12.953  0.5066  0.0837  0.3853
 7056SOL    HW132627   4.464   0.467  12.867 -1.4647  0.7521  1.2322
 7056SOL    HW232628   4.433   0.452  13.010  0.1405 -2.9562 -1.5808
 7057SOL     OW32629   0.982   0.404  12.770 -0.0210  0.3850 -0.7438
 7057SOL    HW132630   1.033   0.323  12.770 -1.6373 -0.6493 -0.3406
 7057SOL    HW232631   0.914   0.387  12.704 -0.7891  1.3160 -0.1803
 7058SOL     OW32632   0.780   2.650   6.295  0.3915 -0.0860 -0.0145
 7058SOL    HW132633   0.792   2.714   6.225  0.2639 -0.8722 -0.7540
 7058SOL    HW232634   0.778   2.563   6.255 -1.4488  0.4913 -1.2039
 7059SOL     OW32635   0.263   2.258   3.213 -0.5666 -0.6114  0.2153
 7059SOL    HW132636   0.267   2.181   3.270 -1.6303 -1.3448 -0.7206
 7059SOL    HW232637   0.276   2.331   3.274 -0.4834  0.7984 -1.5112
 7060SOL     OW32638   0.468   2.359  12.626  0.2807  0.7855 -0.7580
 7060SOL    HW132639   0.512   2.395  12.703 -0.1429 -0.8705  0.2603
 7060SOL    HW232640   0.418   2.286  12.663 -0.0996  1.3647 -0.1295
 7061SOL     OW32641   2.222   2.859   4.756  0.3656  0.0758  0.3489
 7061SOL    HW132642   2.150   2.897   4.705 -0.0666 -0.1506  0.7978
 7061SOL    HW232643   2.264   2.937   4.791 -0.9990  1.2656 -0.6594
 7062SOL     OW32644   2.650   0.650  10.813  0.1456  0.2514  0.1665
 7062SOL    HW132645   2.697   0.585  10.866 -1.4283 -1.3658 -0.4261
 7062SOL    HW232646   2.649   0.727  10.869 -0.6769 -0.2294  0.8083
 7063SOL     OW32647   2.055   2.225  12.953 -0.0738 -0.4155 -0.4927
 7063SOL    HW132648   2.007   2.203  13.033  0.2774  0.9475  0.0821
 7063SOL    HW232649   2.055   2.320  12.954  0.4191 -0.4555  2.0285
 7064SOL     OW32650   4.668   3.573   6.382  0.4463 -1.1855  0.4810
 7064SOL    HW132651   4.596   3.520   6.348 -1.8483  0.3757  2.8998
 7064SOL    HW232652   4.628   3.636   6.442 -1.2675 -1.2389 -0.6242
 7065SOL     OW32653   1.988   2.816  15.001  0.6253 -0.3042 -0.8316
 7065SOL    HW132654   1.935   2.745  15.037 -1.3157  0.9993 -1.0654
 7065SOL    HW232655   2.066   2.785  15.046 -0.5775 -0.7429  0.9670
 7066SOL     OW32656   2.418   4.372  10.514  0.1145 -0.2688 -0.3195
 7066SOL    HW132657   2.389   4.302  10.574 -0.2423 -0.2031 -0.4151
 7066SOL    HW232658   2.488   4.413  10.565 -1.7815  1.4842  0.8454
 7067SOL     OW32659   4.345   4.318   3.496 -0.8656  0.2427  0.9937
 7067SOL    HW132660   4.305   4.351   3.577  0.2130  2.7441  0.4958
 7067SOL    HW232661   4.305   4.231   3.496 -0.4867  0.0995 -2.2726
 7068SOL     OW32662   1.981   4.707   4.033 -0.1991  0.2426 -0.4184
 7068SOL    HW132663   2.062   4.724   3.985  0.4747 -1.2645  0.1931
 7068SOL    HW232664   1.914   4.722   3.966 -0.7813  0.0951  0.1257
 7069SOL     OW32665   2.420   2.024   5.793 -0.9007  0.3605 -0.1350
 7069SOL    HW132666   2.464   2.091   5.845 -1.0146 -1.1261  1.8452
 7069SOL    HW232667   2.454   2.046   5.706 -1.1961  0.8808 -0.1188
 7070SOL     OW32668   4.249   0.275   2.607  0.7682 -0.4699  0.1198
 7070SOL    HW132669   4.294   0.194   2.582  0.5253 -1.2854  2.3567
 7070SOL    HW232670   4.324   0.320   2.646 -1.1309  1.7679  1.1741
 7071SOL     OW32671   0.048   0.323   5.743  0.0749 -0.6187  0.7994
 7071SOL    HW132672   0.077   0.276   5.665 -2.2040  0.3076 -0.5949
 7071SOL    HW232673   0.048   0.265   5.819  1.2377 -0.3606  0.9980
 7072SOL     OW32674   2.836   0.584   8.619  0.1818 -0.2408  0.7811
 7072SOL    HW132675   2.920   0.539   8.626  0.6756  0.6647  0.6246
 7072SOL    HW232676   2.778   0.537   8.679  1.7472  1.2563  3.4502
 7073SOL     OW32677   3.590   4.630   5.912  0.0313 -0.3728 -0.2340
 7073SOL    HW132678   3.591   4.719   5.877 -0.4792  0.9492  3.0999
 7073SOL    HW232679   3.560   4.588   5.831  0.2469 -1.7087  0.3949
 7074SOL     OW32680   0.984   0.242   0.643 -0.3865  0.0208  0.4662
 7074SOL    HW132681   0.991   0.337   0.641 -2.2910  0.1460 -0.0585
 7074SOL    HW232682   0.980   0.224   0.549  0.2068  0.5509  0.3423
 7075SOL     OW32683   2.608   0.085  11.106  0.0517 -0.1649  0.2962
 7075SOL    HW132684   2.668   0.160  11.105  2.1978 -1.8602  2.0969
 7075SOL    HW232685   2.525   0.126  11.129 -0.4276 -1.0713  0.1701
 7076SOL     OW32686   2.496   0.455   4.018 -0.1145 -0.6922  0.0367
 7076SOL    HW132687   2.447   0.537   4.010 -0.3730 -1.1073 -2.5860
 7076SOL    HW232688   2.518   0.429   3.929 -1.1000  1.6116 -0.8819
 7077SOL     OW32689   3.596   1.607   7.812 -0.0285  0.2141 -0.1398
 7077SOL    HW132690   3.644   1.525   7.811  0.5956  0.5579  1.1643
 7077SOL    HW232691   3.539   1.578   7.884 -1.0549  2.6883  0.0625
 7078SOL     OW32692   1.599   4.584   2.273  0.2717  0.6469  0.9371
 7078SOL    HW132693   1.570   4.669   2.241 -3.5888 -1.1761 -0.3468
 7078SOL    HW232694   1.563   4.520   2.211  0.4161  1.0429  0.4505
 7079SOL     OW32695   4.149   2.593   4.012 -0.0556 -0.0094 -0.3920
 7079SOL    HW132696   4.144   2.520   4.074  1.0788  1.0099  0.9039
 7079SOL    HW232697   4.106   2.557   3.935 -1.7356  0.3898  0.3502
 7080SOL     OW32698   1.391   2.608   2.182  0.5282 -0.7313 -0.2228
 7080SOL    HW132699   1.321   2.569   2.130  0.1218  0.5081 -0.6305
 7080SOL    HW232700   1.458   2.550   2.148 -0.9382 -1.7675 -1.3592
 7081SOL     OW32701   0.838   1.503  13.978 -0.2067 -0.1456  0.0172
 7081SOL    HW132702   0.917   1.532  13.932 -0.7761 -2.1435 -2.2142
 7081SOL    HW232703   0.772   1.552  13.929 -0.5436 -0.5384  0.0833
 7082SOL     OW32704   1.220   3.293   7.973  0.3156 -0.4524  0.1340
 7082SOL    HW132705   1.295   3.352   7.982 -0.3174  0.3424  0.3102
 7082SOL    HW232706   1.146   3.338   8.015  1.0492 -0.2396  1.1982
 7083SOL     OW32707   1.328   3.416   5.090 -0.0323  0.3606 -0.1512
 7083SOL    HW132708   1.415   3.412   5.129 -0.3320 -0.0185  0.4870
 7083SOL    HW232709   1.312   3.322   5.084  2.9466 -0.2260  1.0677
 7084SOL     OW32710   2.604   4.280   1.569  0.0180 -0.8684 -0.5685
 7084SOL    HW132711   2.665   4.218   1.530  0.4249 -0.4167 -0.6496
 7084SOL    HW232712   2.662   4.314   1.637 -1.0553  1.2577 -0.6952
 7085SOL     OW32713   3.137   4.554   2.719  0.1508 -0.1800 -0.5726
 7085SOL    HW132714   3.086   4.536   2.640  0.1551 -1.0314 -0.3807
 7085SOL    HW232715   3.118   4.648   2.724 -1.8364 -0.6222  0.1168
 7086SOL     OW32716   1.468   0.371   8.771  0.2539  0.7373 -0.1956
 7086SOL    HW132717   1.455   0.465   8.784 -1.3340  0.2016  2.1889
 7086SOL    HW232718   1.424   0.366   8.686 -2.2506  0.3858  1.1116
 7087SOL     OW32719   0.736   3.170   9.282  0.0627  0.5197 -0.6051
 7087SOL    HW132720   0.692   3.255   9.285  0.0171  0.4251  1.3756
 7087SOL    HW232721   0.704   3.125   9.360  0.0538  0.6208 -0.5507
 7088SOL     OW32722   3.722   1.865  14.186 -0.4344  0.4270  0.1009
 7088SOL    HW132723   3.713   1.876  14.281 -0.4736  1.7272 -0.0527
 7088SOL    HW232724   3.818   1.868  14.193 -0.2924 -0.6065 -1.7621
 7089SOL     OW32725   3.446   0.196   3.436 -0.0271 -0.1937 -0.4958
 7089SOL    HW132726   3.488   0.148   3.364  2.5509 -1.8021  2.0871
 7089SOL    HW232727   3.508   0.268   3.446  0.3914 -0.6902  0.4813
 7090SOL     OW32728   1.189   4.441   6.925 -0.1964  0.3749 -0.3414
 7090SOL    HW132729   1.123   4.382   6.961  1.6141 -1.7669 -0.5163
 7090SOL    HW232730   1.237   4.375   6.874  0.1489  1.1100 -0.9575
 7091SOL     OW32731   2.383   0.239   6.492 -0.5562  0.3494 -0.6226
 7091SOL    HW132732   2.344   0.152   6.501 -4.0982  1.9235 -0.6775
 7091SOL    HW232733   2.315   0.281   6.439 -1.0542  1.6207  1.0073
 7092SOL     OW32734   1.399   2.038   0.459  0.0297  0.1897  0.3429
 7092SOL    HW132735   1.350   2.067   0.536 -1.7807 -0.0519 -0.7036
 7092SOL    HW232736   1.389   1.944   0.467 -1.3532  0.4262  1.3610
 7093SOL     OW32737   1.964   1.620   8.030 -0.5896 -1.0660 -0.2226
 7093SOL    HW132738   2.002   1.697   7.989 -1.1076  0.6923  2.5785
 7093SOL    HW232739   1.982   1.652   8.119 -1.8399 -0.6886 -0.1022
 7094SOL     OW32740   1.797   1.916   7.696  0.1841 -0.2303  0.0264
 7094SOL    HW132741   1.702   1.914   7.700  0.2152 -1.2739  0.1786
 7094SOL    HW232742   1.804   1.939   7.789 -1.1378  2.8887 -0.6147
 7095SOL     OW32743   1.386   1.197   8.366 -0.0475  0.9008 -0.3481
 7095SOL    HW132744   1.294   1.208   8.388 -0.5043 -2.8988 -0.2427
 7095SOL    HW232745   1.377   1.103   8.382 -0.7153  0.6291 -2.3099
 7096SOL     OW32746   1.803   4.189   5.822 -0.5567  0.2503 -0.0805
 7096SOL    HW132747   1.715   4.191   5.859  0.5281 -1.0579  2.5515
 7096SOL    HW232748   1.806   4.112   5.764  2.0428  0.9428 -0.8502
 7097SOL     OW32749   3.611   0.884   8.327  0.2415  0.0742 -0.2077
 7097SOL    HW132750   3.539   0.947   8.324 -0.1147 -0.4319 -2.3834
 7097SOL    HW232751   3.668   0.922   8.394  0.9514  1.4512 -1.5916
 7098SOL     OW32752   4.340   0.805  12.234 -0.2654  0.2355  0.8082
 7098SOL    HW132753   4.313   0.735  12.295 -0.3065  0.5629  1.1653
 7098SOL    HW232754   4.392   0.860  12.293  1.5279  1.1382 -1.6468
 7099SOL     OW32755   4.279   4.233   5.620 -0.3516 -0.2579  0.0533
 7099SOL    HW132756   4.292   4.237   5.715 -0.5897 -0.9114  0.1110
 7099SOL    HW232757   4.353   4.182   5.586  1.4466  0.0144  3.5309
 7100SOL     OW32758   2.445   1.285   2.254 -0.0078  0.4292 -0.2365
 7100SOL    HW132759   2.517   1.270   2.316 -0.1239  2.0862  0.3014
 7100SOL    HW232760   2.375   1.303   2.317  0.6470 -2.9363  1.4878
 7101SOL     OW32761   4.184   1.245   8.034  0.2490  0.5363 -0.3591
 7101SOL    HW132762   4.253   1.298   7.994  1.4682 -1.0568 -0.3828
 7101SOL    HW232763   4.138   1.300   8.097 -1.3589  0.5926 -1.6041
 7102SOL     OW32764   0.915   2.469   3.788  0.4508 -0.1812 -0.8595
 7102SOL    HW132765   0.965   2.549   3.770 -2.8032  1.5622 -2.1557
 7102SOL    HW232766   0.917   2.420   3.705 -1.0038 -1.8044  0.0656
 7103SOL     OW32767   0.446   3.216   8.180  0.1762 -0.1879 -0.1570
 7103SOL    HW132768   0.367   3.162   8.179 -0.3145  0.5126  1.6306
 7103SOL    HW232769   0.454   3.247   8.270  1.2201 -1.6515  0.2669
 7104SOL     OW32770   4.428   2.123   8.623 -0.1851  0.2618 -0.2406
 7104SOL    HW132771   4.433   2.067   8.546 -0.8942  0.3988 -0.3911
 7104SOL    HW232772   4.385   2.071   8.691  0.0551 -0.4888 -0.6652
 7105SOL     OW32773   4.252   1.795   3.993 -0.5982  0.0686  0.1933
 7105SOL    HW132774   4.319   1.794   4.062 -0.2652  1.4564 -0.1067
 7105SOL    HW232775   4.302   1.760   3.920  0.6688  4.9156 -1.2621
 7106SOL     OW32776   2.786   0.062   9.795  0.2066 -0.5469 -0.2681
 7106SOL    HW132777   2.693   0.038   9.785 -0.3480  0.5994  2.2354
 7106SOL    HW232778   2.786   0.157   9.780  1.5765 -0.2428  1.7168
 7107SOL     OW32779   4.050   1.494   7.644  0.2118 -0.2070 -0.3163
 7107SOL    HW132780   4.090   1.564   7.591  0.0623  0.8374  0.9528
 7107SOL    HW232781   4.088   1.522   7.727 -2.4535 -0.1836  0.9077
 7108SOL     OW32782   1.711   0.032  14.016 -0.2031 -0.1167  0.2165
 7108SOL    HW132783   1.730   0.012  13.924  0.9834  1.2899  0.1673
 7108SOL    HW232784   1.779   0.098  14.029  0.5154 -0.4837 -1.6159
 7109SOL     OW32785   2.800   1.253   5.973 -0.3414  0.0733 -0.5330
 7109SOL    HW132786   2.730   1.188   5.965 -1.2434  1.1427 -1.2301
 7109SOL    HW232787   2.851   1.207   6.040  2.1075  1.1676 -1.6540
 7110SOL     OW32788   4.116   0.129   7.536  0.3345 -0.2668  0.2773
 7110SOL    HW132789   4.035   0.081   7.553  0.6488 -0.7848  0.3206
 7110SOL    HW232790   4.109   0.199   7.601  2.2833 -1.2411  1.5367
 7111SOL     OW32791   2.534   0.243  10.094  0.2874 -0.0207 -0.2430
 7111SOL    HW132792   2.509   0.320  10.043 -1.8589  0.6099  1.7515
 7111SOL    HW232793   2.459   0.184  10.082  1.8309 -1.3606 -3.3711
 7112SOL     OW32794   3.753   1.064   8.623 -0.2520  0.5391  0.1602
 7112SOL    HW132795   3.660   1.047   8.612 -0.3095  0.0854  1.3703
 7112SOL    HW232796   3.755   1.159   8.634 -0.3408  0.5553  0.0425
 7113SOL     OW32797   0.801   1.542   5.658  0.2440  0.2357  0.0666
 7113SOL    HW132798   0.842   1.617   5.614  0.1200  1.4315  1.9871
 7113SOL    HW232799   0.873   1.523   5.718  0.5925 -2.2632 -1.1553
 7114SOL     OW32800   3.368   2.925   5.642  0.0859  0.0901 -0.7346
 7114SOL    HW132801   3.462   2.906   5.637 -0.5312 -2.7636 -1.6389
 7114SOL    HW232802   3.354   2.980   5.565 -2.1029  0.1085 -0.3153
 7115SOL     OW32803   2.154   1.060  14.681  0.8225 -0.0534  0.0742
 7115SOL    HW132804   2.142   1.053  14.776  1.5419  2.1484  0.3432
 7115SOL    HW232805   2.072   1.103  14.657  3.2380  3.2427 -2.2732
 7116SOL     OW32806   0.601   0.494  14.511 -0.3989 -0.3687  0.0268
 7116SOL    HW132807   0.510   0.508  14.483 -0.5086  1.6124  1.3383
 7116SOL    HW232808   0.580   0.442  14.589  0.8715  0.9281  1.2195
 7117SOL     OW32809   1.160   0.318   4.328  0.1125  0.0859 -0.5546
 7117SOL    HW132810   1.206   0.234   4.334 -1.3823 -0.8365 -1.8134
 7117SOL    HW232811   1.228   0.378   4.358  0.7770 -1.5359  1.1721
 7118SOL     OW32812   4.310   4.454   4.596  0.3861  0.0104 -0.3567
 7118SOL    HW132813   4.372   4.476   4.665 -0.0784  1.4558 -0.3896
 7118SOL    HW232814   4.357   4.478   4.516 -1.1525 -0.4454 -1.4007
 7119SOL     OW32815   2.204   2.981  11.346 -0.1911  0.7293 -0.8435
 7119SOL    HW132816   2.162   2.908  11.301  1.2708  0.5887 -2.0075
 7119SOL    HW232817   2.128   3.033  11.372 -0.0216  0.1202  0.8324
 7120SOL     OW32818   1.663   1.642   7.913 -0.4483 -0.0225  0.7336
 7120SOL    HW132819   1.730   1.601   7.967 -0.3585 -0.5210  0.2437
 7120SOL    HW232820   1.612   1.678   7.986  1.4459 -3.1718  3.5950
 7121SOL     OW32821   4.098   3.735   3.655 -0.1455  0.1457 -0.6910
 7121SOL    HW132822   4.124   3.807   3.713  0.7399 -0.6028 -0.1633
 7121SOL    HW232823   4.003   3.748   3.656 -0.3944 -1.5691 -1.2316
 7122SOL     OW32824   2.793   3.579   9.892  0.9518 -0.0507  0.9442
 7122SOL    HW132825   2.864   3.559   9.830  0.4382  2.1605 -0.3267
 7122SOL    HW232826   2.821   3.522   9.964 -0.2822 -1.8841 -0.0250
 7123SOL     OW32827   4.671   1.311   2.746 -0.0999 -0.1230 -0.3655
 7123SOL    HW132828   4.627   1.246   2.692 -0.9419  1.2339 -1.3154
 7123SOL    HW232829   4.633   1.282   2.829  0.2061  1.0630  0.1867
 7124SOL     OW32830   2.854   3.159   6.296  0.0066  0.7781  0.2557
 7124SOL    HW132831   2.903   3.078   6.308 -1.1560 -0.1877 -1.4469
 7124SOL    HW232832   2.776   3.119   6.335 -0.7181  3.6753  1.7619
 7125SOL     OW32833   4.066   3.112  13.178 -0.5531  0.2298  0.3519
 7125SOL    HW132834   4.085   3.021  13.201  1.6588  0.3917 -0.7568
 7125SOL    HW232835   4.041   3.104  13.086 -1.0688 -1.7554  0.6669
 7126SOL     OW32836   3.763   2.104   7.463  0.1994  1.1079  0.8913
 7126SOL    HW132837   3.768   2.196   7.487 -2.9364  1.8716 -1.3745
 7126SOL    HW232838   3.826   2.059   7.519  2.3802  2.2343 -0.6478
 7127SOL     OW32839   1.648   4.502  14.126 -0.5763 -0.4345 -0.4989
 7127SOL    HW132840   1.694   4.515  14.209  0.6175  0.3324 -1.2884
 7127SOL    HW232841   1.663   4.577  14.069 -1.3634 -0.5773 -0.8847
 7128SOL     OW32842   1.081   1.897   5.102 -0.7956 -0.3796  0.3315
 7128SOL    HW132843   1.063   1.921   5.193 -4.1789  0.6651 -0.6210
 7128SOL    HW232844   1.080   1.981   5.055 -1.4322 -1.0204 -0.7990
 7129SOL     OW32845   3.646   2.370   3.748 -0.4991 -0.2081  0.1921
 7129SOL    HW132846   3.567   2.424   3.754 -0.5573 -0.1134 -1.5389
 7129SOL    HW232847   3.690   2.394   3.830  2.7697  1.0390 -1.9319
 7130SOL     OW32848   4.240   4.117  17.660  0.8560  0.1973  0.5250
 7130SOL    HW132849   4.316   4.098  17.605 -0.1773  1.7674 -1.4554
 7130SOL    HW232850   4.260   4.050   0.024 -0.4930 -0.2907  0.4614
 7131SOL     OW32851   3.019   2.057   4.362  0.1996  0.2417  0.3777
 7131SOL    HW132852   3.069   2.023   4.437  0.6741 -0.4051 -0.2263
 7131SOL    HW232853   2.998   1.975   4.316 -0.1143  0.6912 -0.2782
 7132SOL     OW32854   0.059   0.214  15.518  0.2716 -0.0791  0.0314
 7132SOL    HW132855   0.146   0.253  15.504  0.1442  0.5298  0.9522
 7132SOL    HW232856   0.024   0.281  15.576  0.0092 -0.8475  0.7615
 7133SOL     OW32857   2.147   3.205   1.877 -0.3466 -0.1617  0.4685
 7133SOL    HW132858   2.197   3.282   1.848  2.0234 -2.4978 -1.6000
 7133SOL    HW232859   2.209   3.147   1.834  0.1394  2.1638 -2.0457
 7134SOL     OW32860   4.380   0.508  10.783 -0.1844 -0.4447 -0.4559
 7134SOL    HW132861   4.417   0.431  10.826 -2.5387 -0.5559  1.3333
 7134SOL    HW232862   4.460   0.556  10.761  0.0341  0.0479  1.4060
 7135SOL     OW32863   1.312   2.027   5.368 -0.4348  0.3778  0.0539
 7135SOL    HW132864   1.250   2.100   5.360  1.1790  1.8159  0.7193
 7135SOL    HW232865   1.397   2.063   5.342  0.1307 -0.4951  0.7125
 7136SOL     OW32866   2.049   3.306   9.139 -0.0948 -0.3128 -0.3943
 7136SOL    HW132867   2.005   3.376   9.090  0.4346 -0.0361 -0.4655
 7136SOL    HW232868   1.993   3.284   9.214 -1.1251 -1.0010 -1.3462
 7137SOL     OW32869   3.050   4.051  11.786 -0.4988 -0.4047  0.0420
 7137SOL    HW132870   3.097   4.083  11.863  1.0710 -0.6946 -0.7917
 7137SOL    HW232871   3.056   3.957  11.801 -2.0475 -0.0666  2.7337
 7138SOL     OW32872   1.129   1.883  11.660 -0.5173 -0.1445  0.1600
 7138SOL    HW132873   1.183   1.819  11.613 -2.8211 -0.3610 -2.1882
 7138SOL    HW232874   1.193   1.952  11.677 -1.9969  1.2049  0.2535
 7139SOL     OW32875   0.556   3.801   2.836 -0.2354 -0.4076  0.2345
 7139SOL    HW132876   0.607   3.737   2.787 -0.8406 -0.2327 -0.6266
 7139SOL    HW232877   0.537   3.876   2.780  0.0264  0.1133  0.8416
 7140SOL     OW32878   3.209   1.582   1.016  0.4200  0.3453  0.0421
 7140SOL    HW132879   3.221   1.581   0.921  1.1286 -0.3373  0.1466
 7140SOL    HW232880   3.291   1.617   1.049  0.2944  1.3532 -0.7302
 7141SOL     OW32881   1.903   1.777   3.679 -0.0595  0.0687  0.2346
 7141SOL    HW132882   1.940   1.688   3.672  1.4730  0.8354 -1.3979
 7141SOL    HW232883   1.956   1.819   3.612 -1.0321 -0.1185 -0.6588
 7142SOL     OW32884   2.298   3.426  16.955 -0.6051  0.0007 -0.1893
 7142SOL    HW132885   2.361   3.372  16.907 -1.9858 -0.9723 -0.9246
 7142SOL    HW232886   2.313   3.510  16.912 -0.1525  0.7820  1.5337
 7143SOL     OW32887   2.016   1.364  17.116  0.1714 -0.4513  0.0344
 7143SOL    HW132888   1.977   1.353  17.203 -2.9181  1.4453 -1.0972
 7143SOL    HW232889   1.949   1.315  17.069  0.4369 -0.6233 -0.1562
 7144SOL     OW32890   3.407   3.251  14.377 -0.5472 -0.1873  0.2221
 7144SOL    HW132891   3.435   3.342  14.385 -0.9745 -0.0704  0.3853
 7144SOL    HW232892   3.388   3.245  14.284  0.6854 -2.7040  0.1269
 7145SOL     OW32893   3.525   4.403   4.884  0.1417 -0.3531  1.0633
 7145SOL    HW132894   3.524   4.331   4.821 -0.0287  0.8453 -0.3083
 7145SOL    HW232895   3.584   4.467   4.844  0.2132  0.0622  1.8357
 7146SOL     OW32896   4.278   1.205   7.069  0.3860 -0.4702 -0.1336
 7146SOL    HW132897   4.346   1.137   7.067  0.8547 -0.1253  4.5624
 7146SOL    HW232898   4.260   1.226   6.977  1.5207 -0.6547 -0.4078
 7147SOL     OW32899   2.932   2.904   3.320 -0.1061  0.3541  0.3571
 7147SOL    HW132900   2.894   2.988   3.345 -0.9160  0.5955 -1.7225
 7147SOL    HW232901   2.913   2.906   3.226 -3.7422  1.1303  1.1346
 7148SOL     OW32902   0.114   0.611   3.208 -0.4748  0.4156  0.6118
 7148SOL    HW132903   0.063   0.691   3.215 -0.3402  0.2806  3.1342
 7148SOL    HW232904   0.052   0.550   3.166  1.1214 -0.4872 -0.4479
 7149SOL     OW32905   2.787   0.322   3.605  0.0745  0.0557  0.3985
 7149SOL    HW132906   2.832   0.269   3.540 -1.4440 -0.6674 -0.0500
 7149SOL    HW232907   2.704   0.342   3.561 -0.3254  2.0877  2.0632
 7150SOL     OW32908   1.253   1.844   0.999  0.1384  0.0285  0.2100
 7150SOL    HW132909   1.311   1.889   0.937  2.0869 -0.2356  1.8284
 7150SOL    HW232910   1.171   1.892   0.987  1.0161  1.7746  1.2896
 7151SOL     OW32911   2.992   3.898  16.456 -0.0651 -0.3484 -0.1819
 7151SOL    HW132912   2.904   3.895  16.418  0.3055  0.4046 -1.1331
 7151SOL    HW232913   3.016   3.806  16.452  3.4075  0.4520  2.3845
 7152SOL     OW32914   0.364   0.462   6.012  0.5875  0.3078 -0.2688
 7152SOL    HW132915   0.329   0.500   5.931  0.0344 -1.8583 -1.0413
 7152SOL    HW232916   0.458   0.482   6.009  0.1279  2.2288 -1.8635
 7153SOL     OW32917   1.809   0.485   6.692 -0.2156  0.3474  0.1103
 7153SOL    HW132918   1.861   0.440   6.759 -0.0221  0.6866  0.1881
 7153SOL    HW232919   1.878   0.529   6.642  0.6287 -0.6082  0.4330
 7154SOL     OW32920   3.204   3.075   6.686 -0.1749  0.3402  0.8767
 7154SOL    HW132921   3.214   3.097   6.779  0.1906 -2.3475  1.4741
 7154SOL    HW232922   3.235   2.984   6.690  2.3143  1.0881 -1.6686
 7155SOL     OW32923   3.177   1.922   8.007 -0.3521 -0.6223 -0.6018
 7155SOL    HW132924   3.150   1.888   8.092  3.3111  1.1983  1.2853
 7155SOL    HW232925   3.260   1.968   8.023  0.4700 -1.6845 -1.8290
 7156SOL     OW32926   1.711   0.044   9.528 -0.0669  0.4159 -0.3161
 7156SOL    HW132927   1.798   0.025   9.563  0.0113 -0.4450 -0.9678
 7156SOL    HW232928   1.662   0.007   9.601 -0.6851  0.0773 -0.8917
 7157SOL     OW32929   0.032   0.036   0.202  0.0318  0.0289 -0.2862
 7157SOL    HW132930   0.034   0.100   0.130  2.0237 -0.3436 -0.5870
 7157SOL    HW232931   0.027   4.684   0.145  1.4489  1.1315 -1.9329
 7158SOL     OW32932   4.130   0.728   4.866  0.0222  0.4747 -0.6547
 7158SOL    HW132933   4.134   0.821   4.885 -0.1540 -0.0943  2.1284
 7158SOL    HW232934   4.044   0.701   4.899  1.1174 -1.3158  0.7982
 7159SOL     OW32935   2.857   4.272   1.332 -1.1594 -0.2755  0.1051
 7159SOL    HW132936   2.916   4.216   1.383 -1.5534 -0.5500  0.2607
 7159SOL    HW232937   2.778   4.220   1.323 -0.6345 -0.8725 -1.0346
 7160SOL     OW32938   1.989   1.787   1.949  0.2432  0.3821 -0.0767
 7160SOL    HW132939   2.022   1.745   1.871 -1.1010 -2.2416  0.7585
 7160SOL    HW232940   2.071   1.829   1.974 -0.1023  1.1441 -0.2186
 7161SOL     OW32941   0.144   2.301   4.551 -0.1513  0.0990  0.0978
 7161SOL    HW132942   0.218   2.316   4.491 -1.9716 -0.6192 -2.3187
 7161SOL    HW232943   0.080   2.297   4.480 -0.4991  0.3673  0.4018
 7162SOL     OW32944   3.026   2.074  11.473  0.5405 -0.4824  0.1486
 7162SOL    HW132945   2.977   2.056  11.553 -1.8458 -0.4869 -1.3154
 7162SOL    HW232946   3.079   1.995  11.458  1.3191  0.0525  0.0723
 7163SOL     OW32947   4.257   3.789   4.028  0.1144 -0.4026  0.2245
 7163SOL    HW132948   4.206   3.770   4.107  0.2650  0.7365  0.5892
 7163SOL    HW232949   4.260   3.707   3.977 -1.8299  0.3682 -1.1260
 7164SOL     OW32950   4.061   1.784   8.633 -0.1192  0.4249 -0.5801
 7164SOL    HW132951   3.975   1.768   8.671  0.9784  1.1981  2.2280
 7164SOL    HW232952   4.120   1.758   8.704 -2.2764  0.7124  1.2939
 7165SOL     OW32953   2.225   4.448   5.809  0.0283 -0.5007 -0.4081
 7165SOL    HW132954   2.141   4.472   5.847  0.6520 -2.4790  2.2125
 7165SOL    HW232955   2.225   4.506   5.732  0.4798  0.0665  0.0165
 7166SOL     OW32956   4.577   4.485   2.514  0.0427  0.4201 -0.3448
 7166SOL    HW132957   4.630   4.556   2.476 -1.6445  1.7873 -0.1460
 7166SOL    HW232958   4.651   4.428   2.536 -1.9217 -1.5415  1.1661
 7167SOL     OW32959   4.164   3.471   4.815 -0.1782  0.3826  0.2306
 7167SOL    HW132960   4.162   3.429   4.901 -2.2824  1.3476  0.6473
 7167SOL    HW232961   4.145   3.393   4.762  0.8693  2.5363 -3.3549
 7168SOL     OW32962   4.172   0.354   3.152  0.0147 -0.7087 -0.0500
 7168SOL    HW132963   4.166   0.314   3.065  0.9781  0.4212 -0.6248
 7168SOL    HW232964   4.083   0.333   3.181  0.0569  0.8037  1.1837
 7169SOL     OW32965   1.968   0.908  13.646 -0.5972 -0.0240  0.5313
 7169SOL    HW132966   1.876   0.934  13.647 -0.6291 -0.1420  0.7755
 7169SOL    HW232967   1.958   0.812  13.649 -0.1295 -0.1410 -1.6926
 7170SOL     OW32968   2.502   2.544   1.227 -0.4915  0.1011  0.1829
 7170SOL    HW132969   2.559   2.607   1.183 -1.5046  1.2808  0.5814
 7170SOL    HW232970   2.509   2.567   1.319  0.8694  0.5462 -0.0323
 7171SOL     OW32971   2.672   3.787  16.841 -0.3404 -0.3089  0.0515
 7171SOL    HW132972   2.708   3.707  16.803  0.8719  0.6795 -0.8634
 7171SOL    HW232973   2.736   3.797  16.912 -0.1301  0.9527 -0.3145
 7172SOL     OW32974   2.519   1.856   3.970  0.0426  0.5625  0.2122
 7172SOL    HW132975   2.479   1.943   3.974  0.7190  0.8085  1.6851
 7172SOL    HW232976   2.439   1.803   3.977  0.6345 -0.1898  1.2537
 7173SOL     OW32977   0.123   2.437  15.544  0.4521  0.3134 -0.4104
 7173SOL    HW132978   0.034   2.406  15.562  0.9861 -0.6630  0.5628
 7173SOL    HW232979   0.160   2.352  15.518 -1.3330 -0.9723  1.2420
 7174SOL     OW32980   1.356   2.833   9.881 -0.0236  0.5870  0.1346
 7174SOL    HW132981   1.311   2.749   9.873 -1.2570  1.4896 -2.3323
 7174SOL    HW232982   1.333   2.871   9.796  0.6264  2.8816  1.0081
 7175SOL     OW32983   0.425   2.424   3.750  0.5668  0.2927 -0.9308
 7175SOL    HW132984   0.498   2.458   3.803 -0.8986  0.5569  0.9309
 7175SOL    HW232985   0.427   2.480   3.673 -3.2912  0.5211 -0.8570
 7176SOL     OW32986   3.985   3.669  16.511 -0.1434 -0.3128 -0.4985
 7176SOL    HW132987   4.079   3.679  16.523 -0.1403  0.7657 -1.4851
 7176SOL    HW232988   3.980   3.573  16.504  0.2889 -0.1662 -2.5579
 7177SOL     OW32989   3.625   0.181   7.168  0.4369  0.0576 -0.3385
 7177SOL    HW132990   3.556   0.220   7.222  1.0399  1.3887 -0.5127
 7177SOL    HW232991   3.666   0.265   7.147  1.2828 -0.9806 -2.7985
 7178SOL     OW32992   2.450   1.055   6.285 -0.2665  0.0653  0.2003
 7178SOL    HW132993   2.436   1.148   6.264  1.7089 -0.2673 -2.6459
 7178SOL    HW232994   2.544   1.056   6.299 -0.3976  1.5878  1.0142
 7179SOL     OW32995   0.278   1.484   5.391  0.1933 -0.1651  0.2996
 7179SOL    HW132996   0.322   1.513   5.471  1.7240 -2.8494  0.4145
 7179SOL    HW232997   0.250   1.397   5.417 -0.9150  0.7145  2.0181
 7180SOL     OW32998   2.547   4.589  16.304 -0.1266 -0.7258  0.4961
 7180SOL    HW132999   2.467   4.563  16.258  0.4710  0.8781 -1.4258
 7180SOL    HW233000   2.613   4.584  16.235  0.1867  1.4990  0.6194
 7181SOL     OW33001   0.126   1.332   6.652 -0.6042 -0.0048  0.2228
 7181SOL    HW133002   0.138   1.400   6.585 -1.3216  0.5887  0.7090
 7181SOL    HW233003   0.204   1.279   6.634 -1.1436 -0.0839 -1.9619
 7182SOL     OW33004   0.349   2.512   1.266 -0.1154  0.8854 -0.6847
 7182SOL    HW133005   0.326   2.591   1.316 -0.0313 -0.8012  1.9669
 7182SOL    HW233006   0.341   2.449   1.337 -1.1656  1.9355  0.1335
 7183SOL     OW33007   3.186   1.372  12.429 -0.1664  0.4443 -0.0617
 7183SOL    HW133008   3.169   1.282  12.399 -3.1403  0.6460  0.9762
 7183SOL    HW233009   3.258   1.389  12.368 -0.3078  1.8532  0.1820
 7184SOL     OW33010   3.796   0.382  10.374 -0.1723  0.2671 -0.2553
 7184SOL    HW133011   3.873   0.338  10.409 -0.4814  0.5185  0.7705
 7184SOL    HW233012   3.743   0.386  10.454  1.6527 -0.2169  0.9767
 7185SOL     OW33013   1.878   0.033   7.057  0.0912 -0.1943 -0.6434
 7185SOL    HW133014   1.850   0.031   6.966 -2.0491 -0.5468  0.0210
 7185SOL    HW233015   1.830   4.686   7.098  0.1453 -1.1152 -2.2054
 7186SOL     OW33016   3.843   0.316  14.430 -0.0861  0.2998  0.1339
 7186SOL    HW133017   3.760   0.341  14.471 -0.5067 -0.6181 -0.1538
 7186SOL    HW233018   3.822   0.323  14.337 -1.4701 -0.2140  0.4035
 7187SOL     OW33019   3.621   4.221   9.895 -0.2138  0.2500  0.0770
 7187SOL    HW133020   3.586   4.191   9.979  1.0908 -0.1671  0.4647
 7187SOL    HW233021   3.618   4.316   9.904  0.4749  0.1259  1.6681
 7188SOL     OW33022   4.166   3.007   3.728  0.4053  0.0018  0.2814
 7188SOL    HW133023   4.183   2.914   3.743 -0.2865 -0.0985  0.4353
 7188SOL    HW233024   4.147   3.043   3.815 -1.6007 -0.0210 -0.1421
 7189SOL     OW33025   4.280   3.670  11.755 -0.4590  0.0796 -0.5135
 7189SOL    HW133026   4.351   3.668  11.819 -0.0067  2.9379 -0.9161
 7189SOL    HW233027   4.211   3.683  11.821  0.1324  0.0248  0.1085
 7190SOL     OW33028   1.459   3.706   3.235  0.0566  0.4538  1.1925
 7190SOL    HW133029   1.431   3.711   3.326 -1.8192 -0.8237  0.6921
 7190SOL    HW233030   1.375   3.734   3.197  0.5934 -1.7700 -1.5962
 7191SOL     OW33031   1.515   1.866   1.978  0.7086 -1.1213  0.2884
 7191SOL    HW133032   1.498   1.808   1.904 -1.9793 -0.5404  0.4691
 7191SOL    HW233033   1.600   1.834   2.009  1.1196  0.7752  1.1274
 7192SOL     OW33034   3.080   2.267   4.571  0.0516 -0.2980 -0.2180
 7192SOL    HW133035   3.120   2.242   4.488  5.3657 -0.4981  2.3862
 7192SOL    HW233036   3.155   2.317   4.604  0.3565 -0.5518 -0.5184
 7193SOL     OW33037   3.430   4.182   8.000 -0.1508  0.4657  0.2089
 7193SOL    HW133038   3.517   4.202   8.036  0.3314 -0.0840 -0.6253
 7193SOL    HW233039   3.383   4.265   7.995 -2.8044 -1.1413 -1.2010
 7194SOL     OW33040   0.262   3.419   4.982  0.3287 -0.0313  0.0440
 7194SOL    HW133041   0.243   3.436   4.889  0.0997  3.5793  0.7362
 7194SOL    HW233042   0.175   3.383   5.002 -0.2074  0.8317 -0.7105
 7195SOL     OW33043   1.077   4.338   3.513  0.2012  0.2696  0.6153
 7195SOL    HW133044   1.079   4.392   3.434  1.9406  0.7862  1.0233
 7195SOL    HW233045   1.161   4.364   3.549 -0.3205  2.2495  0.4190
 7196SOL     OW33046   0.638   2.375  11.797 -0.2993 -0.1187 -0.7080
 7196SOL    HW133047   0.680   2.373  11.883  1.5265  1.2538 -1.5673
 7196SOL    HW233048   0.614   2.468  11.791 -0.1834  0.0404  1.2266
 7197SOL     OW33049   0.170   3.914   7.379 -0.2046 -0.2394 -0.0905
 7197SOL    HW133050   0.246   3.878   7.425 -1.4881 -0.7773  1.6161
 7197SOL    HW233051   0.119   3.941   7.456 -1.6678  0.2926 -1.2530
 7198SOL     OW33052   2.547   0.197   2.487 -0.0763  0.3356  0.0703
 7198SOL    HW133053   2.591   0.280   2.469  1.4926 -0.8054 -1.3440
 7198SOL    HW233054   2.483   0.185   2.417 -0.4465 -2.6221  0.9136
 7199SOL     OW33055   1.687   3.253   0.878  0.5406  0.3170 -0.1319
 7199SOL    HW133056   1.740   3.221   0.805  3.2272  2.9096  0.7215
 7199SOL    HW233057   1.651   3.168   0.902 -1.0104  1.1439  0.4729
 7200SOL     OW33058   0.454   4.448  13.904  0.2400  0.0249  0.3172
 7200SOL    HW133059   0.459   4.454  13.809 -1.7807 -0.5445  0.1635
 7200SOL    HW233060   0.379   4.396  13.932 -0.2263  1.7136  2.2554
 7201SOL     OW33061   1.819   4.355   2.711  0.1664 -0.2261 -0.3242
 7201SOL    HW133062   1.772   4.282   2.750 -0.2912  1.5311  2.4247
 7201SOL    HW233063   1.757   4.376   2.640  0.1695  0.1071 -0.2280
 7202SOL     OW33064   0.071   3.193   9.821 -0.2497  0.1543 -0.2309
 7202SOL    HW133065   0.103   3.224   9.736  1.8370 -0.6427  0.2483
 7202SOL    HW233066   0.061   3.274   9.871 -1.0034 -0.2814  0.3151
 7203SOL     OW33067   0.587   3.029  16.988  0.2032 -0.0748  0.1588
 7203SOL    HW133068   0.550   3.048  16.902 -0.8962  1.0827  0.8963
 7203SOL    HW233069   0.626   2.944  16.966  0.7419  0.2974 -0.3222
 7204SOL     OW33070   4.424   4.605   6.509 -0.1778 -0.2005 -0.0412
 7204SOL    HW133071   4.464   4.620   6.595 -1.1431 -0.4658  0.4515
 7204SOL    HW233072   4.387   4.692   6.492  0.5927  0.4457  1.6018
 7205SOL     OW33073   0.204   4.565   8.160 -0.2133  0.3184 -0.3170
 7205SOL    HW133074   0.191   4.659   8.146 -0.4436 -0.0643 -2.6507
 7205SOL    HW233075   0.280   4.558   8.103  0.3892 -0.6241  0.6031
 7206SOL     OW33076   1.288   3.506  16.951 -0.2626  0.0852 -0.3173
 7206SOL    HW133077   1.313   3.433  17.007 -0.3311  0.5495  0.3136
 7206SOL    HW233078   1.325   3.582  16.996  1.7046 -1.3208  0.4205
 7207SOL     OW33079   3.643   3.326   5.116  0.2426  0.1905 -0.2088
 7207SOL    HW133080   3.656   3.305   5.209  0.5067  2.3848  0.2506
 7207SOL    HW233081   3.705   3.263   5.077  0.3839  0.1708  0.0453
 7208SOL     OW33082   4.181   3.370   7.646  0.1518 -0.2677 -0.3529
 7208SOL    HW133083   4.212   3.358   7.736  1.5785 -0.4833 -0.8698
 7208SOL    HW233084   4.108   3.307   7.649 -0.9377  1.0381  0.4091
 7209SOL     OW33085   3.050   2.053   1.691 -0.2458  0.0629 -0.0670
 7209SOL    HW133086   3.017   1.964   1.681 -0.7229  0.1535  0.7080
 7209SOL    HW233087   3.132   2.040   1.739 -0.2922  0.2106  0.0539
 7210SOL     OW33088   1.312   3.053   7.949 -0.1655  0.1062  0.1374
 7210SOL    HW133089   1.265   3.132   7.977  1.6918  1.6401 -1.0249
 7210SOL    HW233090   1.367   3.025   8.021 -2.3951 -3.6480  0.3593
 7211SOL     OW33091   2.287   2.072   2.766  0.5292 -0.9306 -0.2015
 7211SOL    HW133092   2.296   2.110   2.679 -0.4130 -0.8059 -0.2462
 7211SOL    HW233093   2.322   1.984   2.750  0.0059 -0.9705 -1.1294
 7212SOL     OW33094   2.878   3.076   9.348 -0.0812  0.1376 -0.1288
 7212SOL    HW133095   2.807   3.139   9.358 -1.7518 -2.1261  2.1613
 7212SOL    HW233096   2.949   3.128   9.385 -1.8860  2.2550  0.3091
 7213SOL     OW33097   4.432   3.459   0.564  0.0169  0.1748 -0.5367
 7213SOL    HW133098   4.344   3.496   0.577  0.0773 -1.1765  3.7813
 7213SOL    HW233099   4.460   3.458   0.656 -0.0187 -2.1681 -0.5407
 7214SOL     OW33100   1.315   1.928   1.247  0.2770  0.1124  0.6316
 7214SOL    HW133101   1.312   1.905   1.154 -0.8651  0.4677  0.5796
 7214SOL    HW233102   1.409   1.922   1.262  0.2683 -1.9816 -0.0325
 7215SOL     OW33103   3.138   1.177   4.351 -0.0894  0.5301  0.2526
 7215SOL    HW133104   3.125   1.233   4.274  3.1094  1.8207  0.6273
 7215SOL    HW233105   3.145   1.251   4.412  0.7387 -0.4945  1.3955
 7216SOL     OW33106   2.374   3.333   8.085  0.7511 -0.1354  0.1095
 7216SOL    HW133107   2.415   3.247   8.090  1.4565  0.2073  0.0984
 7216SOL    HW233108   2.403   3.360   7.997  1.2243 -2.5383 -0.4724
 7217SOL     OW33109   3.867   4.511   3.443  0.1901 -0.6967 -0.4941
 7217SOL    HW133110   3.813   4.586   3.468  0.4694 -0.7052  0.1261
 7217SOL    HW233111   3.815   4.444   3.489 -0.8150  1.9110  2.1204
 7218SOL     OW33112   4.722   1.279   8.161 -0.7041  0.1118  0.1324
 7218SOL    HW133113   4.646   1.247   8.113 -0.2164 -2.6995  1.2296
 7218SOL    HW233114   0.066   1.284   8.095  2.3500  0.4636  3.3949
 7219SOL     OW33115   1.945   3.352   5.748  0.4838 -0.4756 -0.3335
 7219SOL    HW133116   1.934   3.435   5.793  1.0976 -0.2719 -0.5527
 7219SOL    HW233117   1.990   3.372   5.666 -1.2233 -3.2896 -1.9566
 7220SOL     OW33118   3.992   3.677   2.402  0.5638  0.4152 -0.4187
 7220SOL    HW133119   4.057   3.608   2.416  0.2262  0.2079  0.1032
 7220SOL    HW233120   3.953   3.681   2.489 -1.1560  0.8750 -1.2277
 7221SOL     OW33121   1.220   4.123   4.419 -0.3394 -0.1256 -0.0452
 7221SOL    HW133122   1.215   4.116   4.323 -3.0292 -3.0130  0.3313
 7221SOL    HW233123   1.314   4.131   4.436 -0.8943  0.6701  2.6386
 7222SOL     OW33124   1.224   2.007   0.694 -0.3046  0.2860 -0.1646
 7222SOL    HW133125   1.300   2.007   0.753 -0.3704 -0.7737 -0.0904
 7222SOL    HW233126   1.144   2.010   0.746 -0.5824 -1.0293 -0.5249
 7223SOL     OW33127   4.600   1.845  17.478  0.0656  0.2164 -0.2555
 7223SOL    HW133128   4.689   1.834  17.513  0.7477  1.1639 -1.6813
 7223SOL    HW233129   4.553   1.816  17.556  1.5889  0.2541  0.6873
 7224SOL     OW33130   3.835   3.393   6.146 -0.4065  0.2204 -0.1302
 7224SOL    HW133131   3.863   3.444   6.071  0.6297 -1.1074 -0.6541
 7224SOL    HW233132   3.742   3.415   6.150 -0.6240 -0.8080  0.6442
 7225SOL     OW33133   1.695   2.795   8.238 -0.2414 -0.0250 -0.1990
 7225SOL    HW133134   1.710   2.723   8.176  2.0126 -1.7001  2.2568
 7225SOL    HW233135   1.663   2.869   8.187 -0.0902  1.7197  2.2536
 7226SOL     OW33136   3.808   0.795   3.691  0.1605  0.1683  0.5941
 7226SOL    HW133137   3.746   0.754   3.751 -1.3541  0.9484 -0.4518
 7226SOL    HW233138   3.820   0.724   3.628  1.1960  0.3962  0.5259
 7227SOL     OW33139   1.877   2.175   1.123  0.2900 -0.7841  0.8269
 7227SOL    HW133140   1.909   2.086   1.110 -0.1427 -0.9690  1.0336
 7227SOL    HW233141   1.934   2.215   1.189 -1.7704 -1.1733  2.8224
 7228SOL     OW33142   1.520   2.570   1.042 -0.1380  0.5445  0.6145
 7228SOL    HW133143   1.447   2.546   1.098 -0.4611 -3.6924 -1.6283
 7228SOL    HW233144   1.556   2.482   1.035 -2.1964 -0.4662  2.8329
 7229SOL     OW33145   3.553   2.915   4.593  0.2155  0.3257 -0.0509
 7229SOL    HW133146   3.574   2.823   4.576  2.0438  0.6279  0.6201
 7229SOL    HW233147   3.499   2.943   4.519  1.8786  1.4806 -0.8240
 7230SOL     OW33148   2.594   1.200   1.341 -0.0456  0.3768 -0.6209
 7230SOL    HW133149   2.507   1.212   1.379 -0.5320  0.8200 -1.8691
 7230SOL    HW233150   2.617   1.108   1.357  1.3574  0.7419 -0.5461
 7231SOL     OW33151   0.558   1.303  11.578 -0.0522  0.2589 -0.2689
 7231SOL    HW133152   0.560   1.210  11.603 -1.3355 -0.1939 -1.8894
 7231SOL    HW233153   0.509   1.308  11.496 -1.1213  0.7671  0.4045
 7232SOL     OW33154   0.768   2.091   8.046  0.3029  0.1451 -0.0196
 7232SOL    HW133155   0.690   2.075   7.993  0.0586 -0.9271  0.6805
 7232SOL    HW233156   0.813   2.151   7.987 -1.2220  0.2548 -1.0699
 7233SOL     OW33157   0.872   4.153   1.426 -0.2720 -0.2039  0.3841
 7233SOL    HW133158   0.925   4.145   1.347  0.4529  1.3708  0.7126
 7233SOL    HW233159   0.803   4.093   1.398 -0.9732  0.4062  0.8079
 7234SOL     OW33160   2.443   0.127   9.203  0.0675  0.2716 -0.5312
 7234SOL    HW133161   2.358   0.085   9.214  0.9822 -1.0794  1.2292
 7234SOL    HW233162   2.414   0.212   9.169 -0.3816  0.1379 -0.4809
 7235SOL     OW33163   4.691   3.479   7.532  0.0847 -0.3388  0.4654
 7235SOL    HW133164   4.655   3.391   7.540  0.1774 -0.4853 -0.6807
 7235SOL    HW233165   4.637   3.519   7.463  2.0040  0.9553 -0.2853
 7236SOL     OW33166   1.812   4.153   5.385 -0.5317  0.1385  0.3145
 7236SOL    HW133167   1.806   4.121   5.475  0.1626 -0.2142  0.2354
 7236SOL    HW233168   1.874   4.091   5.347  0.0100 -0.7731  2.6652
 7237SOL     OW33169   2.333   2.426  15.576 -0.2489  0.4879 -0.3050
 7237SOL    HW133170   2.428   2.424  15.583 -0.2312 -2.1066 -1.3698
 7237SOL    HW233171   2.308   2.404  15.665 -0.5248  1.2168 -0.2035
 7238SOL     OW33172   3.224   0.594   7.116  0.6574 -0.5331  0.1396
 7238SOL    HW133173   3.270   0.519   7.153 -0.4428 -0.3138  1.9869
 7238SOL    HW233174   3.152   0.605   7.178 -0.6637  1.1818 -1.7132
 7239SOL     OW33175   3.132   3.162   5.089 -0.3497 -0.0147 -0.5750
 7239SOL    HW133176   3.063   3.182   5.026  0.5621 -0.8663 -1.8310
 7239SOL    HW233177   3.213   3.189   5.047 -1.1962  1.6755 -1.1121
 7240SOL     OW33178   2.166   1.021   7.762 -0.5572  0.7440  0.1083
 7240SOL    HW133179   2.224   1.094   7.786 -1.7438  1.6155  0.3419
 7240SOL    HW233180   2.215   0.948   7.799  0.3899  0.3317 -1.9556
 7241SOL     OW33181   4.503   3.372   4.114 -0.0839  0.2333 -0.3112
 7241SOL    HW133182   4.597   3.386   4.125 -0.1471  0.3022  0.1325
 7241SOL    HW233183   4.466   3.434   4.177 -1.0900 -1.0401  0.3720
 7242SOL     OW33184   4.425   2.186   7.899  0.1823 -0.1717 -0.1444
 7242SOL    HW133185   4.496   2.122   7.906 -1.2139 -1.7612 -0.6286
 7242SOL    HW233186   4.476   2.254   7.856  2.7355 -1.2011  1.2119
 7243SOL     OW33187   2.757   3.818   1.747  0.1233 -1.0803  0.3701
 7243SOL    HW133188   2.725   3.907   1.757  0.4229 -0.8663 -0.6493
 7243SOL    HW233189   2.705   3.774   1.815 -1.8394 -2.5986 -2.0987
 7244SOL     OW33190   3.056   2.692   8.668 -0.1226  0.1572 -0.1907
 7244SOL    HW133191   3.019   2.729   8.588 -1.0932  0.1956  0.2786
 7244SOL    HW233192   2.982   2.640   8.699  0.2514 -0.3141 -0.0807
 7245SOL     OW33193   2.399   1.208   2.847  0.1009  0.0045  0.1179
 7245SOL    HW133194   2.421   1.253   2.765 -2.3530  2.4363  0.8092
 7245SOL    HW233195   2.445   1.125   2.836  2.8734  1.7000 -1.0525
 7246SOL     OW33196   3.165   4.219   5.423  0.2894  0.1383  0.5238
 7246SOL    HW133197   3.213   4.235   5.504  1.0519  0.3843  0.0230
 7246SOL    HW233198   3.188   4.130   5.398 -0.5280  0.1357 -0.2350
 7247SOL     OW33199   0.473   2.127   3.022 -0.0913 -0.1894 -0.2641
 7247SOL    HW133200   0.516   2.212   3.010  0.0287 -0.1600  0.3281
 7247SOL    HW233201   0.381   2.148   3.007 -0.0809  0.7885  0.9517
 7248SOL     OW33202   1.849   0.105   2.466  0.0336 -0.5945  0.4169
 7248SOL    HW133203   1.897   0.025   2.488  1.7542  0.3348 -0.0591
 7248SOL    HW233204   1.802   0.082   2.385  1.4746  0.5974 -0.7521
 7249SOL     OW33205   0.343   4.631  10.609  0.3080  0.0799 -0.0741
 7249SOL    HW133206   0.411   4.578  10.567  1.6266  0.8795  1.0575
 7249SOL    HW233207   0.291   4.559  10.646  0.9487  0.4189  1.4982
 7250SOL     OW33208   4.433   0.283   2.944  0.1794 -0.1234  0.0735
 7250SOL    HW133209   4.346   0.278   2.984  0.2338 -1.2795  0.0190
 7250SOL    HW233210   4.415   0.248   2.856 -3.5303  1.4089  0.2061
 7251SOL     OW33211   0.171   1.617  13.771 -0.2869 -0.0977  0.1828
 7251SOL    HW133212   0.084   1.582  13.790 -0.0637 -0.0183  1.3682
 7251SOL    HW233213   0.196   1.643  13.859 -0.8098  0.3295  0.2093
 7252SOL     OW33214   2.925   3.488   4.914 -0.0540  0.5008  0.3200
 7252SOL    HW133215   2.872   3.487   4.994  1.2678 -0.2733  1.1753
 7252SOL    HW233216   2.937   3.394   4.899 -0.0926  0.5905 -0.2759
 7253SOL     OW33217   4.036   3.400   5.412  0.2841 -0.4350 -0.5648
 7253SOL    HW133218   4.010   3.309   5.422 -2.9491  0.6661  0.9642
 7253SOL    HW233219   4.096   3.390   5.339  0.8769 -0.3175 -0.0945
 7254SOL     OW33220   3.489   4.482   9.992 -0.2086 -0.2281 -0.4254
 7254SOL    HW133221   3.402   4.442   9.987 -0.1201 -0.3611 -0.9970
 7254SOL    HW233222   3.460   4.573   9.982  1.4712  0.3353 -0.2147
 7255SOL     OW33223   2.159   1.874   2.934  0.2464 -0.1291  0.2981
 7255SOL    HW133224   2.105   1.903   2.860  0.3802  0.8835  0.5979
 7255SOL    HW233225   2.236   1.841   2.888 -0.4015 -0.2043 -0.7393
 7256SOL     OW33226   4.543   0.994   5.866 -0.2441  0.5533  0.0190
 7256SOL    HW133227   4.595   0.939   5.807  0.2111  0.3083  0.6410
 7256SOL    HW233228   4.565   0.946   5.945 -0.8201 -1.7445 -1.2282
 7257SOL     OW33229   3.741   0.242   3.728  0.1343 -0.8090  0.2497
 7257SOL    HW133230   3.770   0.206   3.812 -0.0464  0.5294  0.8947
 7257SOL    HW233231   3.822   0.284   3.702  0.1167 -0.5272  0.6461
 7258SOL     OW33232   4.680   2.571  10.645  0.2135  0.2189 -0.8222
 7258SOL    HW133233   4.640   2.554  10.559  1.4418  1.5011 -1.6500
 7258SOL    HW233234   4.604   2.582  10.701 -0.9503 -0.7844 -2.1947
 7259SOL     OW33235   2.943   0.925  13.416  0.2348  0.3293 -0.1908
 7259SOL    HW133236   2.905   0.859  13.474  1.3598 -0.0045  0.1581
 7259SOL    HW233237   3.020   0.942  13.470  0.6345  2.1496 -1.3045
 7260SOL     OW33238   3.915   3.368   6.793 -0.3141 -0.6061 -0.2736
 7260SOL    HW133239   4.008   3.386   6.778  0.0492  0.8383  3.7242
 7260SOL    HW233240   3.876   3.383   6.707  1.0540  1.7374 -0.4675
 7261SOL     OW33241   1.682   3.949   2.494  0.4568  0.3736 -0.2972
 7261SOL    HW133242   1.605   3.899   2.522  0.2769  0.8167 -0.0061
 7261SOL    HW233243   1.729   3.888   2.437 -0.1558 -0.2708 -0.1155
 7262SOL     OW33244   3.048   3.821   6.778  0.0733  0.4707 -0.3016
 7262SOL    HW133245   2.960   3.791   6.797  0.5880 -1.6252 -1.1969
 7262SOL    HW233246   3.086   3.748   6.827 -0.3345 -0.0418 -0.7474
 7263SOL     OW33247   0.843   4.412  17.540  0.2599 -0.3308  0.4523
 7263SOL    HW133248   0.811   4.386  17.626  0.3069  1.2060  0.9402
 7263SOL    HW233249   0.933   4.415  17.574 -0.1988  1.9335  1.4730
 7264SOL     OW33250   3.535   4.570   3.194 -0.2596  0.3268  0.1323
 7264SOL    HW133251   3.566   4.660   3.192  2.3762 -0.6342 -2.1961
 7264SOL    HW233252   3.506   4.571   3.285  1.1032 -0.2061  0.5710
 7265SOL     OW33253   1.934   4.270   6.923 -0.4703  0.6561 -0.0583
 7265SOL    HW133254   1.927   4.286   7.018  0.7099  0.0975  0.1211
 7265SOL    HW233255   2.000   4.201   6.926 -3.0578 -1.8406 -0.7895
 7266SOL     OW33256   1.797   0.701   4.614  0.0402 -0.0872 -0.3776
 7266SOL    HW133257   1.875   0.755   4.628 -0.9091  0.9692  0.8136
 7266SOL    HW233258   1.739   0.748   4.674  1.5634  1.7124 -0.3290
 7267SOL     OW33259   2.048   4.301  10.459 -0.1459  0.0389 -0.1769
 7267SOL    HW133260   2.039   4.285  10.553  0.7381  1.4349  0.1476
 7267SOL    HW233261   1.976   4.257  10.414 -0.8648  0.6219  0.4151
 7268SOL     OW33262   2.524   3.238   3.232 -0.0645  0.3972  0.4284
 7268SOL    HW133263   2.474   3.245   3.313  0.4129  1.9790  0.5846
 7268SOL    HW233264   2.506   3.320   3.186 -0.2443  0.5149  0.7150
 7269SOL     OW33265   2.459   0.746   9.126  0.4448  0.0710  0.0895
 7269SOL    HW133266   2.387   0.710   9.073  1.4005 -0.9843 -0.4803
 7269SOL    HW233267   2.441   0.706   9.211  3.4580 -0.6340  0.3832
 7270SOL     OW33268   4.203   1.655   7.010 -0.9290  0.0224  0.3296
 7270SOL    HW133269   4.187   1.599   7.086  1.0343 -1.7057 -0.5271
 7270SOL    HW233270   4.221   1.733   7.062 -0.4569  1.0354 -1.3768
 7271SOL     OW33271   2.050   3.451   2.109  0.2930 -0.0219 -0.8073
 7271SOL    HW133272   2.133   3.440   2.155  0.3242 -0.4170 -0.9511
 7271SOL    HW233273   2.085   3.434   2.021 -3.9952  1.1566 -2.7402
 7272SOL     OW33274   0.883   4.062   3.293  0.1318 -0.1568  0.6796
 7272SOL    HW133275   0.836   4.143   3.274 -0.4782 -0.7859 -0.5425
 7272SOL    HW233276   0.972   4.076   3.261 -0.9005  0.4736 -1.9565
 7273SOL     OW33277   3.854   2.334  13.233 -0.1211 -0.3343  0.2947
 7273SOL    HW133278   3.763   2.355  13.253  0.1083  1.5749 -0.6643
 7273SOL    HW233279   3.874   2.414  13.184 -1.7195 -0.6488 -0.8709
 7274SOL     OW33280   1.680   2.732   8.979  0.2784 -0.3191 -0.1440
 7274SOL    HW133281   1.737   2.711   9.053  1.5525  1.0245 -0.7640
 7274SOL    HW233282   1.726   2.808   8.943  1.1688 -0.8540 -0.1161
 7275SOL     OW33283   2.269   4.290   3.719  0.1023 -0.4143  0.0169
 7275SOL    HW133284   2.344   4.237   3.746 -0.3269 -1.2435 -0.3968
 7275SOL    HW233285   2.209   4.221   3.689  2.9667 -1.9921 -2.0062
 7276SOL     OW33286   3.435   3.326  11.405  0.1738  0.3065  0.7208
 7276SOL    HW133287   3.437   3.230  11.397  1.5110  0.4130 -0.2031
 7276SOL    HW233288   3.515   3.355  11.362  0.9908 -0.3317  1.7989
 7277SOL     OW33289   4.183   2.312   8.278 -0.6407 -0.2069  0.3968
 7277SOL    HW133290   4.174   2.219   8.299  3.0604 -0.6032  0.1676
 7277SOL    HW233291   4.241   2.332   8.352 -0.5161  1.5959 -0.1937
 7278SOL     OW33292   3.670   3.032   5.071 -0.0700 -0.1511  0.1310
 7278SOL    HW133293   3.582   2.996   5.087 -0.0902  0.2189  0.8508
 7278SOL    HW233294   3.661   3.041   4.977 -3.0839  0.6667  0.4754
 7279SOL     OW33295   3.802   3.196  14.682  0.2840 -0.1241  0.9896
 7279SOL    HW133296   3.869   3.128  14.679  1.3324  0.9028  1.1594
 7279SOL    HW233297   3.727   3.138  14.668  0.1258  0.3917 -0.3424
 7280SOL     OW33298   4.122   3.067   8.041 -0.1563  0.0050 -0.0128
 7280SOL    HW133299   4.045   3.100   8.088  1.0149  0.9021  1.2780
 7280SOL    HW233300   4.142   2.991   8.095  1.6197  0.4242 -0.1102
 7281SOL     OW33301   0.439   1.347   0.461 -0.3417  0.1341 -0.2403
 7281SOL    HW133302   0.456   1.439   0.480  1.6553 -0.1901 -0.4549
 7281SOL    HW233303   0.396   1.318   0.542 -1.5860  1.6900 -0.3455
 7282SOL     OW33304   4.208   3.181   9.652 -0.5269  0.4993  0.4012
 7282SOL    HW133305   4.123   3.138   9.642 -0.9032  1.8052 -2.0832
 7282SOL    HW233306   4.255   3.168   9.570 -0.8569  1.0919  0.1137
 7283SOL     OW33307   0.273   2.626   6.942 -0.0640 -0.1752 -0.1875
 7283SOL    HW133308   0.189   2.655   6.908 -0.3231 -0.1851  0.4477
 7283SOL    HW233309   0.297   2.704   6.992  0.7996  0.1488 -1.1007
 7284SOL     OW33310   1.135   3.152   8.604 -0.2174 -0.0526  0.8622
 7284SOL    HW133311   1.230   3.158   8.615 -0.1289 -0.0536  0.1391
 7284SOL    HW233312   1.115   3.192   8.688  1.9674 -1.1813  1.9219
 7285SOL     OW33313   2.334   1.563   5.256  0.2182  0.4716 -0.2018
 7285SOL    HW133314   2.266   1.499   5.235 -0.3922  0.3275  2.1374
 7285SOL    HW233315   2.391   1.508   5.310  0.4432  2.1631  1.2959
 7286SOL     OW33316   1.414   2.474   6.882 -0.1414  0.2258  0.3859
 7286SOL    HW133317   1.361   2.509   6.953 -1.2139 -0.0222 -0.2940
 7286SOL    HW233318   1.359   2.495   6.806 -0.6029 -1.7653  0.1529
 7287SOL     OW33319   1.843   2.241   4.265 -0.7918  0.0464 -0.4475
 7287SOL    HW133320   1.870   2.288   4.187 -1.0686  3.0472  1.2735
 7287SOL    HW233321   1.848   2.148   4.242 -0.2247  0.1410 -0.7046
 7288SOL     OW33322   3.524   0.509  11.579  0.1526 -0.1750 -0.1666
 7288SOL    HW133323   3.452   0.553  11.625 -0.5897 -0.7618 -0.7505
 7288SOL    HW233324   3.483   0.439  11.528  2.1303 -1.9213  0.6711
 7289SOL     OW33325   0.801   3.548  14.600 -0.1461  0.0403  0.4675
 7289SOL    HW133326   0.895   3.567  14.598 -0.1637 -0.0560 -2.2945
 7289SOL    HW233327   0.780   3.595  14.680  1.0861  1.8323 -0.2602
 7290SOL     OW33328   1.591   1.861   5.941 -0.1388  0.1884  0.1124
 7290SOL    HW133329   1.670   1.839   5.893 -0.4438  0.2529 -0.4155
 7290SOL    HW233330   1.609   1.824   6.028  2.7523  1.3866 -0.0014
 7291SOL     OW33331   0.128   3.484   2.781  0.2880 -0.2747  0.2325
 7291SOL    HW133332   0.199   3.441   2.733  0.3084  0.6741 -0.5732
 7291SOL    HW233333   0.190   3.522   2.844  0.8857 -0.9295  0.0426
 7292SOL     OW33334   1.626   2.999   6.158 -0.5763  0.2165 -0.4754
 7292SOL    HW133335   1.668   3.071   6.205 -2.6822 -1.1339  3.5057
 7292SOL    HW233336   1.637   2.934   6.228  1.1590 -0.8607 -1.7424
 7293SOL     OW33337   3.772   3.265   7.397  0.4900  0.2083  0.0476
 7293SOL    HW133338   3.729   3.335   7.347  0.2911 -2.0639 -2.9477
 7293SOL    HW233339   3.866   3.270   7.379  0.1354  1.0414 -1.6351
 7294SOL     OW33340   0.107   3.158   1.928  0.2264  0.3533  0.0842
 7294SOL    HW133341   0.199   3.143   1.949  0.4368  1.5660  0.0539
 7294SOL    HW233342   0.113   3.254   1.929  2.0910  0.2355 -0.2668
 7295SOL     OW33343   1.366   3.652  15.981  0.2032 -0.3218 -0.6288
 7295SOL    HW133344   1.271   3.649  15.997  0.3484  1.7866  0.5563
 7295SOL    HW233345   1.398   3.716  16.045 -0.1137 -0.1926 -0.5997
 7296SOL     OW33346   1.613   2.161   6.174 -0.4327  0.7113  0.1299
 7296SOL    HW133347   1.681   2.180   6.110  2.1062 -2.0792  1.9730
 7296SOL    HW233348   1.582   2.242   6.213  0.9418 -0.1081  2.8968
 7297SOL     OW33349   4.157   2.560   5.863  0.7973  0.0263 -0.6554
 7297SOL    HW133350   4.246   2.544   5.895  1.5413  0.2177 -2.6807
 7297SOL    HW233351   4.150   2.494   5.795 -0.3718  0.3025 -0.8069
 7298SOL     OW33352   3.311   3.946   8.439  0.4616  0.3455 -0.1529
 7298SOL    HW133353   3.257   3.875   8.475  0.2287 -0.2912 -1.7475
 7298SOL    HW233354   3.322   3.917   8.348 -0.5404  0.6131 -0.3688
 7299SOL     OW33355   3.405   1.193  12.102 -0.3795  0.4344 -0.0272
 7299SOL    HW133356   3.329   1.138  12.084 -1.3645  1.7835  0.0117
 7299SOL    HW233357   3.378   1.264  12.161 -0.0717  1.7823 -1.5092
 7300SOL     OW33358   3.155   1.681  15.397  0.5607  0.2234 -0.1293
 7300SOL    HW133359   3.245   1.663  15.423  0.0442 -0.0609  1.4248
 7300SOL    HW233360   3.166   1.710  15.306 -1.0551 -1.1116 -0.7629
 7301SOL     OW33361   2.940   1.417   3.410 -0.0350 -0.5341 -0.6175
 7301SOL    HW133362   2.890   1.388   3.487  1.5970 -0.0869  0.6242
 7301SOL    HW233363   2.969   1.504   3.436 -0.4498 -0.3265 -0.8546
 7302SOL     OW33364   2.938   1.459  10.004 -0.4934 -0.1603 -0.2480
 7302SOL    HW133365   2.988   1.523   9.953 -0.2262  0.1875  0.4512
 7302SOL    HW233366   2.903   1.502  10.083  0.1440  0.6554 -0.4059
 7303SOL     OW33367   2.923   4.698   5.212  0.0602 -0.2499  0.8881
 7303SOL    HW133368   2.914   4.651   5.130 -0.4238 -0.9365  1.3363
 7303SOL    HW233369   2.871   4.645   5.272 -2.6857  0.5800 -0.7821
 7304SOL     OW33370   3.974   0.946   1.320 -0.3457 -0.7328 -0.6328
 7304SOL    HW133371   3.976   1.035   1.284 -0.0558  0.1016  1.4824
 7304SOL    HW233372   4.044   0.910   1.265  0.8694 -0.1728  0.5511
 7305SOL     OW33373   0.662   0.188   7.716 -0.5576 -0.3357 -0.2231
 7305SOL    HW133374   0.661   0.178   7.621  0.5997 -2.5587  0.0009
 7305SOL    HW233375   0.633   0.099   7.735 -2.2261  0.1236 -0.5972
 7306SOL     OW33376   1.627   4.651   8.805  0.5013 -0.2401  0.6412
 7306SOL    HW133377   1.619   4.718   8.736 -4.0150 -0.8650  0.5397
 7306SOL    HW233378   1.607   4.702   8.884  2.3105  0.0871  0.8908
 7307SOL     OW33379   1.304   2.141  10.454  0.7337  0.8020 -0.8661
 7307SOL    HW133380   1.311   2.121  10.547  1.5631  3.1615 -0.4318
 7307SOL    HW233381   1.235   2.204  10.474  1.2193  1.1961 -0.4510
 7308SOL     OW33382   1.421   1.986   8.723  0.1035 -0.2055 -0.1438
 7308SOL    HW133383   1.345   2.043   8.721 -1.5109 -2.3574  0.0467
 7308SOL    HW233384   1.476   2.030   8.658  0.6444 -0.3088  0.2356
 7309SOL     OW33385   2.359   3.233   5.123 -0.5260 -0.3984 -0.1191
 7309SOL    HW133386   2.400   3.225   5.209 -2.4597  2.0786  1.0477
 7309SOL    HW233387   2.349   3.328   5.111  0.5190 -0.4817 -1.6476
 7310SOL     OW33388   4.607   1.499   9.180  0.0577 -0.2409 -0.2386
 7310SOL    HW133389   4.551   1.501   9.102  1.1133 -1.0700 -1.0134
 7310SOL    HW233390   4.589   1.414   9.220 -2.5433  0.4096 -0.0296
 7311SOL     OW33391   4.132   0.794   3.734  0.5214  0.6149 -0.5000
 7311SOL    HW133392   4.075   0.796   3.810 -1.6209 -1.5757 -2.0579
 7311SOL    HW233393   4.068   0.799   3.663 -0.3152  1.2856  0.3165
 7312SOL     OW33394   0.154   3.233   6.613  0.1616 -0.2078  0.1432
 7312SOL    HW133395   0.090   3.212   6.681 -0.9002 -2.1653 -1.4265
 7312SOL    HW233396   0.236   3.235   6.662  0.5256  0.0875 -0.4766
 7313SOL     OW33397   0.751   4.255  10.227  0.0505  0.4821  0.0278
 7313SOL    HW133398   0.765   4.341  10.187 -0.5517  1.9311  2.9503
 7313SOL    HW233399   0.840   4.221  10.228  0.1736  0.7434 -1.6400
 7314SOL     OW33400   2.608   2.919   8.490  0.8019 -0.0361  0.7907
 7314SOL    HW133401   2.598   2.833   8.531 -0.4474 -0.8369 -1.1674
 7314SOL    HW233402   2.575   2.983   8.554 -0.8402 -0.0029 -0.0821
 7315SOL     OW33403   0.754   4.494   6.787 -0.6526  0.1169  0.2123
 7315SOL    HW133404   0.775   4.489   6.880  0.5044 -2.8384 -0.1924
 7315SOL    HW233405   0.782   4.583   6.767 -2.0691  0.1415 -1.6031
 7316SOL     OW33406   4.177   0.941  15.052  0.0014 -0.1704 -0.0236
 7316SOL    HW133407   4.121   0.867  15.030  0.0061 -0.4531  0.9169
 7316SOL    HW233408   4.194   0.913  15.142 -2.4202 -0.8684  0.2305
 7317SOL     OW33409   2.295   0.696  10.879 -0.2042  0.2871  0.0574
 7317SOL    HW133410   2.355   0.768  10.858  0.0500  0.2773  0.7383
 7317SOL    HW233411   2.326   0.636  10.812 -2.0027  2.1524 -2.4295
 7318SOL     OW33412   2.945   4.697  13.782  0.2226  0.0396  0.3210
 7318SOL    HW133413   3.004   4.674  13.711  1.5842 -2.3503  2.2607
 7318SOL    HW233414   2.996   4.676  13.860 -0.4155 -1.1594  0.4190
 7319SOL     OW33415   1.603   1.153   1.027  0.0917  0.3317  0.3332
 7319SOL    HW133416   1.667   1.087   1.001  1.0034  0.3615  2.5503
 7319SOL    HW233417   1.519   1.106   1.027 -0.1287  0.7186  0.3038
 7320SOL     OW33418   3.879   0.717   8.930 -0.1436  0.0499  0.3170
 7320SOL    HW133419   3.852   0.700   9.020  0.3727  2.9771  1.0362
 7320SOL    HW233420   3.970   0.688   8.934  0.4348  1.3818 -3.1240
 7321SOL     OW33421   2.817   2.287   9.617 -0.3017 -0.1224  0.0080
 7321SOL    HW133422   2.861   2.288   9.532 -2.8616 -0.0652 -1.3355
 7321SOL    HW233423   2.875   2.342   9.669  1.4691 -0.4199 -1.6750
 7322SOL     OW33424   0.489   2.077   5.270  0.3991  0.3299  0.9220
 7322SOL    HW133425   0.574   2.075   5.227 -0.7497  0.0666 -1.3838
 7322SOL    HW233426   0.475   1.983   5.274  0.1584  0.3420  0.3872
 7323SOL     OW33427   0.911   2.647   7.628  0.0809 -0.0579 -0.0869
 7323SOL    HW133428   0.834   2.692   7.663  2.1069  2.0592  1.6480
 7323SOL    HW233429   0.868   2.580   7.574  1.0333 -0.9275  0.2387
 7324SOL     OW33430   4.028   2.886  16.893 -0.0696 -0.1024  0.3056
 7324SOL    HW133431   4.039   2.914  16.983  0.2291  2.4213 -0.5012
 7324SOL    HW233432   4.110   2.921  16.859  0.4175 -0.6361  0.9526
 7325SOL     OW33433   0.262   2.155   5.974 -0.1228  0.3451  0.0282
 7325SOL    HW133434   0.304   2.166   5.889  0.4198  2.1936  0.5278
 7325SOL    HW233435   0.295   2.229   6.025  3.0597 -0.5779 -0.7089
 7326SOL     OW33436   2.818   1.402   3.165  0.4749  0.2096  0.1308
 7326SOL    HW133437   2.907   1.431   3.143 -0.3507  1.8505 -1.0519
 7326SOL    HW233438   2.841   1.401   3.258 -0.8973 -1.0101  0.4456
 7327SOL     OW33439   1.270   1.981   3.150  0.6917 -0.0505 -0.2938
 7327SOL    HW133440   1.246   2.068   3.116 -0.0287 -0.2884 -0.3861
 7327SOL    HW233441   1.263   1.924   3.073  0.5962  1.4593 -1.4260
 7328SOL     OW33442   0.866   1.951   9.139  0.5388 -0.8811 -0.1914
 7328SOL    HW133443   0.817   1.872   9.159  0.4803 -0.1166  2.6253
 7328SOL    HW233444   0.911   1.932   9.057 -0.1138 -1.9786 -0.2848
 7329SOL     OW33445   1.410   1.310   5.210 -0.7435 -0.6154 -0.0929
 7329SOL    HW133446   1.417   1.228   5.259  0.7407 -0.3005  0.2056
 7329SOL    HW233447   1.413   1.372   5.283  0.6540  1.5969 -2.0242
 7330SOL     OW33448   4.556   3.678  14.350 -0.2162 -0.3047  0.0044
 7330SOL    HW133449   4.596   3.606  14.400  1.5499  1.7239  1.4988
 7330SOL    HW233450   4.539   3.647  14.261  0.8966  1.1585 -0.7118
 7331SOL     OW33451   2.739   2.589   4.178  0.0900  0.2031 -0.3129
 7331SOL    HW133452   2.657   2.605   4.224 -0.4585  1.9541 -1.9305
 7331SOL    HW233453   2.782   2.533   4.243 -0.4997 -0.0048 -0.1007
 7332SOL     OW33454   0.892   0.399   6.203  0.4413  0.5885  0.6204
 7332SOL    HW133455   0.939   0.450   6.269  1.7504 -0.7978  0.7624
 7332SOL    HW233456   0.936   0.314   6.213 -0.6016  0.0073  0.2407
 7333SOL     OW33457   1.157   3.598   5.504  0.0276 -0.1533  0.3760
 7333SOL    HW133458   1.127   3.571   5.417 -0.6343 -0.6452  0.7609
 7333SOL    HW233459   1.088   3.659   5.529 -0.3425  0.1047 -1.2421
 7334SOL     OW33460   2.588   4.286   9.963  0.3064 -0.1296  0.2375
 7334SOL    HW133461   2.571   4.306  10.055  0.9173  1.2211  0.0551
 7334SOL    HW233462   2.659   4.222   9.965  2.4072  2.1697 -2.4505
 7335SOL     OW33463   1.359   0.053   3.075 -0.1667  0.2948  0.3488
 7335SOL    HW133464   1.447   0.091   3.073 -0.0104 -0.1462 -1.1397
 7335SOL    HW233465   1.367   4.722   3.153 -1.1483 -2.7235 -1.7336
 7336SOL     OW33466   1.850   2.418   4.740  0.6926 -0.4940  0.8253
 7336SOL    HW133467   1.819   2.376   4.660  0.2887  2.6074 -0.6554
 7336SOL    HW233468   1.943   2.401   4.750  1.2494  1.1704 -1.3575
 7337SOL     OW33469   1.630   0.186   3.264  0.6571 -0.1025 -0.6861
 7337SOL    HW133470   1.548   0.232   3.280  0.8845  0.1259 -0.1947
 7337SOL    HW233471   1.617   0.131   3.186 -1.3347 -2.4205  1.2594
 7338SOL     OW33472   0.547   1.820   9.676  0.2347 -0.3751  0.2468
 7338SOL    HW133473   0.452   1.826   9.671  0.2521  0.9701  1.8785
 7338SOL    HW233474   0.574   1.890   9.616 -1.3124  0.0282  0.0158
 7339SOL     OW33475   3.115   2.474   1.907  0.1113 -0.5322 -0.2542
 7339SOL    HW133476   3.177   2.428   1.851  0.4826 -0.6506  0.2558
 7339SOL    HW233477   3.085   2.549   1.856  3.4688 -0.8946 -2.7017
 7340SOL     OW33478   1.653   4.285   9.154  0.6619  0.1303 -0.1992
 7340SOL    HW133479   1.640   4.244   9.068  0.1323 -0.1339  0.0059
 7340SOL    HW233480   1.717   4.220   9.182  1.8106  1.8777  1.2251
 7341SOL     OW33481   3.395   2.021  13.200 -0.0441 -0.4462  0.4145
 7341SOL    HW133482   3.309   2.004  13.161  0.0109 -1.3777  0.7098
 7341SOL    HW233483   3.399   1.945  13.257  3.9446 -0.8539 -0.4025
 7342SOL     OW33484   2.991   2.149   0.477  0.1197 -0.6129  0.2910
 7342SOL    HW133485   3.026   2.169   0.390  1.2641  0.5237  1.0101
 7342SOL    HW233486   2.901   2.182   0.469  0.5010 -0.0992 -2.0462
 7343SOL     OW33487   2.533   1.509  17.093  0.0552  0.3030  0.0310
 7343SOL    HW133488   2.481   1.541  17.019  0.2917  2.9321  1.0197
 7343SOL    HW233489   2.619   1.547  17.077 -0.3880  1.7215  0.9836
 7344SOL     OW33490   3.074   1.888   1.150 -0.0128  0.1709 -0.2890
 7344SOL    HW133491   3.070   1.976   1.113  1.5300  0.0057 -0.8657
 7344SOL    HW233492   3.056   1.843   1.067  0.3623 -0.7379  0.1256
 7345SOL     OW33493   3.477   0.172  13.067  0.1151  0.4155  0.4418
 7345SOL    HW133494   3.473   0.144  12.976  1.7920  2.3265 -0.2250
 7345SOL    HW233495   3.560   0.139  13.102  1.3144  2.4914 -0.4174
 7346SOL     OW33496   2.106   2.069   6.722 -0.3370  0.2148  0.0751
 7346SOL    HW133497   2.156   2.149   6.707  1.2250 -0.9207 -0.8034
 7346SOL    HW233498   2.039   2.096   6.660  1.2840  0.3070 -1.6476
 7347SOL     OW33499   2.832   4.181  17.623  0.1829 -0.2996  0.1622
 7347SOL    HW133500   2.872   4.113  17.569 -0.2409  0.0402 -0.5842
 7347SOL    HW233501   2.808   4.249  17.559 -1.6807 -0.5559  0.5847
 7348SOL     OW33502   0.910   0.504   8.238 -0.7005 -0.1134 -0.0776
 7348SOL    HW133503   0.984   0.564   8.247 -1.3314  0.8938 -1.6888
 7348SOL    HW233504   0.904   0.471   8.328 -2.0601 -0.5277 -0.3106
 7349SOL     OW33505   1.524   0.748  10.107  0.2928  0.1718 -0.2829
 7349SOL    HW133506   1.505   0.832  10.149 -0.7005  0.1431 -0.6903
 7349SOL    HW233507   1.494   0.773  10.020  2.1097  3.8764  0.1547
 7350SOL     OW33508   4.093   4.716   2.024  0.7175 -0.0973  0.4214
 7350SOL    HW133509   4.101   4.721   1.929 -1.4186  0.4750  0.2749
 7350SOL    HW233510   4.005   0.025   2.039  1.0900  1.8935 -1.7553
 7351SOL     OW33511   0.852   4.629   3.862  0.9424 -0.5511  0.2929
 7351SOL    HW133512   0.919   4.578   3.816  0.9104 -0.0389 -0.3265
 7351SOL    HW233513   0.875   4.626   3.955  0.6695  0.4846  0.3951
 7352SOL     OW33514   0.214   0.587  15.202 -0.2793 -0.4691 -0.5355
 7352SOL    HW133515   0.190   0.652  15.136 -0.8022  0.3240  0.4324
 7352SOL    HW233516   0.160   0.516  15.168 -1.7169  0.1780  0.4309
 7353SOL     OW33517   0.710   0.997   2.727  0.5970  0.2227  0.2232
 7353SOL    HW133518   0.733   1.038   2.811  0.7686  0.1400  0.2167
 7353SOL    HW233519   0.669   0.917   2.760 -1.0486  0.9133 -0.1476
 7354SOL     OW33520   1.697   4.454  10.689  0.2924 -0.5723  0.0353
 7354SOL    HW133521   1.696   4.527  10.627 -1.2800  2.1138  3.2355
 7354SOL    HW233522   1.608   4.464  10.725 -0.0540  0.0841 -1.0100
 7355SOL     OW33523   0.429   4.075  14.195 -0.7551 -0.6010 -0.7452
 7355SOL    HW133524   0.485   4.017  14.143 -4.6320 -3.4346 -1.8611
 7355SOL    HW233525   0.479   4.150  14.225 -0.4423 -1.0365 -0.1835
 7356SOL     OW33526   0.799   0.024   8.052 -0.1354 -0.2791 -0.1577
 7356SOL    HW133527   0.756   0.101   8.090  0.6027  0.2592 -0.4053
 7356SOL    HW233528   0.826   4.699   8.128  1.8023  2.0681  0.6940
 7357SOL     OW33529   2.354   0.212   7.371 -0.0229  0.3297  0.2429
 7357SOL    HW133530   2.336   0.227   7.278 -3.5646 -0.9435  0.7429
 7357SOL    HW233531   2.269   0.191   7.408  0.0283  1.0322  0.7439
 7358SOL     OW33532   1.395   0.523  15.190 -0.3914  0.3025 -0.2270
 7358SOL    HW133533   1.426   0.613  15.196 -1.3898  0.5843  0.7050
 7358SOL    HW233534   1.307   0.543  15.158 -0.1594 -0.6905 -1.4632
 7359SOL     OW33535   3.616   4.083  14.775  1.0960  0.2685 -1.3067
 7359SOL    HW133536   3.676   4.065  14.703  1.0692  1.6776 -1.6661
 7359SOL    HW233537   3.544   4.037  14.732 -2.1073  2.7448  1.4556
 7360SOL     OW33538   1.765   0.302  10.047  0.4469 -0.1740 -0.3859
 7360SOL    HW133539   1.729   0.311  10.136 -1.0104  2.2721 -1.2231
 7360SOL    HW233540   1.756   0.393  10.018 -0.0551 -0.0331  0.2165
 7361SOL     OW33541   4.259   0.478   4.188  0.5659 -0.3717  0.9423
 7361SOL    HW133542   4.348   0.510   4.206  1.0525 -1.1011 -0.1840
 7361SOL    HW233543   4.203   0.552   4.210  0.1895 -0.8261  1.5231
 7362SOL     OW33544   4.053   2.306   1.549  0.0171 -0.1940  0.4529
 7362SOL    HW133545   4.034   2.395   1.520  0.1856 -0.0236  0.8637
 7362SOL    HW233546   4.046   2.253   1.470  1.0421  0.0019  0.2320
 7363SOL     OW33547   2.661   1.596   4.009  0.5209 -0.4760  0.5461
 7363SOL    HW133548   2.655   1.691   4.015  0.9390 -0.3444 -0.9984
 7363SOL    HW233549   2.616   1.565   3.931  1.1803 -2.2564  0.8710
 7364SOL     OW33550   1.491   1.125   5.829 -0.3700 -0.2344 -0.5460
 7364SOL    HW133551   1.558   1.142   5.895 -0.9443 -0.6484  0.1303
 7364SOL    HW233552   1.443   1.051   5.865 -2.2368  2.4857  2.5218
 7365SOL     OW33553   4.185   3.953   6.202  0.2854  0.0482 -0.2959
 7365SOL    HW133554   4.146   4.040   6.205  0.8248  0.2084  2.8281
 7365SOL    HW233555   4.189   3.948   6.107 -0.7168  2.2174 -0.4389
 7366SOL     OW33556   0.847   3.385  14.877 -0.0526 -0.0928 -0.2859
 7366SOL    HW133557   0.886   3.375  14.790  1.5199  2.2127  0.1586
 7366SOL    HW233558   0.827   3.479  14.876 -0.8759 -0.2783 -1.6619
 7367SOL     OW33559   3.576   1.513   3.264 -0.0518  0.2895 -0.3257
 7367SOL    HW133560   3.630   1.443   3.300 -1.0137 -2.0340 -3.4131
 7367SOL    HW233561   3.639   1.550   3.202 -0.2963  1.0311 -0.1302
 7368SOL     OW33562   2.938   3.664   1.624 -0.3216  0.0544  0.4023
 7368SOL    HW133563   2.872   3.706   1.679  0.2090  2.0045 -0.4544
 7368SOL    HW233564   3.006   3.731   1.632  2.0207 -2.0778 -2.0124
 7369SOL     OW33565   0.017   4.329  15.979 -0.0182 -0.4428  0.5988
 7369SOL    HW133566   0.045   4.386  15.908 -0.9457 -0.8610 -0.0970
 7369SOL    HW233567   4.721   4.246  15.935  1.7527  0.9778 -2.8801
 7370SOL     OW33568   4.399   2.376  15.590 -0.2490  0.1629 -1.0103
 7370SOL    HW133569   4.439   2.360  15.676 -0.2750  3.2302 -0.4155
 7370SOL    HW233570   4.479   2.352  15.543  0.3436 -0.9053  0.5194
 7371SOL     OW33571   4.359   1.212  12.184 -0.4761 -0.0974  0.3200
 7371SOL    HW133572   4.364   1.239  12.275 -3.0502 -3.5671  1.5036
 7371SOL    HW233573   4.439   1.251  12.150 -0.4372 -0.4182  0.0319
 7372SOL     OW33574   3.209   2.908   3.223  0.5468 -0.4374 -0.2661
 7372SOL    HW133575   3.264   2.964   3.278 -0.7065  0.2650  0.2870
 7372SOL    HW233576   3.130   2.907   3.278  1.7526 -1.4648  1.4520
 7373SOL     OW33577   1.850   2.398   6.849  0.4653 -0.2548 -0.7767
 7373SOL    HW133578   1.834   2.386   6.943  1.8304 -0.5596 -0.5928
 7373SOL    HW233579   1.942   2.423   6.847  0.1037  1.0610 -1.1152
 7374SOL     OW33580   1.875   3.541   3.443  0.0557  0.1295  0.6052
 7374SOL    HW133581   1.952   3.581   3.482  0.8684 -1.5578  0.7520
 7374SOL    HW233582   1.822   3.621   3.441  0.0547  0.1786  2.4750
 7375SOL     OW33583   2.523   0.474   9.692 -0.5379  0.1862  0.8465
 7375SOL    HW133584   2.519   0.557   9.643  0.7602 -1.3567 -1.8635
 7375SOL    HW233585   2.454   0.423   9.649  1.6496 -0.6280 -1.7001
 7376SOL     OW33586   1.662   2.869   0.639  0.0976 -0.3946  0.3192
 7376SOL    HW133587   1.628   2.823   0.716 -0.5203  0.4806  0.5794
 7376SOL    HW233588   1.586   2.872   0.581 -0.0021  1.6805  0.5451
 7377SOL     OW33589   0.682   1.963   2.006  0.4116 -0.0149  0.0733
 7377SOL    HW133590   0.770   1.968   1.969  0.1354  1.1526 -0.4462
 7377SOL    HW233591   0.694   1.938   2.098 -1.6522 -0.2190  0.2866
 7378SOL     OW33592   3.986   3.385   2.467  0.4324 -0.3902  0.0314
 7378SOL    HW133593   3.993   3.335   2.548 -0.8132  1.2327  1.1366
 7378SOL    HW233594   4.074   3.374   2.431  0.2210 -2.3418  0.0896
 7379SOL     OW33595   4.114   2.621   1.475 -0.0125  0.1575 -0.1258
 7379SOL    HW133596   4.118   2.692   1.410 -0.8474  1.0019  0.7372
 7379SOL    HW233597   4.075   2.560   1.412 -1.1593  1.3581 -0.5812
 7380SOL     OW33598   4.649   1.698   4.377  0.1856  0.2252 -0.0971
 7380SOL    HW133599   4.561   1.665   4.398 -0.2789  1.8185  0.4378
 7380SOL    HW233600   4.659   1.770   4.439  0.0347 -0.7255  1.0220
 7381SOL     OW33601   2.195   0.533   5.465  0.2859 -0.0791  0.0552
 7381SOL    HW133602   2.250   0.522   5.542  2.8005  0.7170 -1.6514
 7381SOL    HW233603   2.125   0.594   5.490  1.9906  1.3545  1.3210
 7382SOL     OW33604   4.086   0.718  12.139 -0.2706 -0.1790 -0.1545
 7382SOL    HW133605   4.051   0.800  12.102 -0.2999  0.3972  1.1601
 7382SOL    HW233606   4.171   0.745  12.172  0.8276 -1.0739 -2.2369
 7383SOL     OW33607   3.000   2.948   1.327  0.4823 -0.4725  0.0188
 7383SOL    HW133608   2.941   2.919   1.397  0.9082  0.4770  0.7743
 7383SOL    HW233609   3.088   2.936   1.363  0.4117 -0.6694  0.1243
 7384SOL     OW33610   4.075   3.957  14.601  0.0992  0.4514 -0.2305
 7384SOL    HW133611   4.063   3.910  14.518  0.7353 -2.3821  1.3108
 7384SOL    HW233612   4.166   3.934  14.617 -0.4092 -1.5975 -0.3410
 7385SOL     OW33613   3.830   4.385   6.440 -0.1548 -0.1575  0.2954
 7385SOL    HW133614   3.889   4.332   6.494 -1.1627 -0.0576  1.4933
 7385SOL    HW233615   3.791   4.439   6.509 -1.5964  1.1096 -1.4873
 7386SOL     OW33616   3.988   3.044   9.620  0.0615 -0.0129  0.9926
 7386SOL    HW133617   3.945   2.993   9.552  1.3229  0.6436 -0.2967
 7386SOL    HW233618   3.909   3.060   9.671 -0.1870  1.3134  0.2060
 7387SOL     OW33619   3.534   3.127   6.676 -0.6135 -0.7227  0.0977
 7387SOL    HW133620   3.482   3.205   6.660 -0.4556 -0.7759 -0.6764
 7387SOL    HW233621   3.579   3.146   6.758  1.9460 -0.3764 -1.3786
 7388SOL     OW33622   3.164   0.475   2.734 -0.1400 -0.7410 -0.4857
 7388SOL    HW133623   3.157   0.559   2.688  0.7553 -0.3316  0.1268
 7388SOL    HW233624   3.257   0.456   2.723  0.2872  1.6749 -1.0705
 7389SOL     OW33625   0.652   1.141   3.443  0.4459 -0.3145 -0.2681
 7389SOL    HW133626   0.665   1.221   3.494  2.6122 -1.7383  1.3937
 7389SOL    HW233627   0.730   1.093   3.470  0.6728 -1.2670 -2.6065
 7390SOL     OW33628   2.380   1.794   5.946 -0.3250  0.3384 -0.3361
 7390SOL    HW133629   2.365   1.866   5.885  2.0084  2.4552  1.5992
 7390SOL    HW233630   2.390   1.724   5.881 -0.5590  1.9920 -2.1686
 7391SOL     OW33631   2.447   0.046   9.532  0.2396  0.5581  0.5342
 7391SOL    HW133632   2.492   0.048   9.616  0.0406  3.5896  0.5658
 7391SOL    HW233633   2.391   0.124   9.528 -1.0526 -0.2055  3.6827
 7392SOL     OW33634   1.619   4.365  10.013 -0.2618 -0.1017  0.2104
 7392SOL    HW133635   1.639   4.378  10.106  0.9778 -0.5683  0.0154
 7392SOL    HW233636   1.674   4.422   9.961 -0.6457 -0.2052 -0.3003
 7393SOL     OW33637   1.205   2.631   6.327  0.0105  0.0088 -0.2364
 7393SOL    HW133638   1.299   2.620   6.312 -0.0019 -0.8461  0.3143
 7393SOL    HW233639   1.193   2.570   6.399 -1.9476 -0.0801 -0.6180
 7394SOL     OW33640   0.818   1.753   7.285  0.1203  0.3763  0.2365
 7394SOL    HW133641   0.738   1.747   7.233  0.6313 -2.3620 -0.2235
 7394SOL    HW233642   0.891   1.753   7.222 -1.8218 -1.0992 -1.9987
 7395SOL     OW33643   2.853   3.354   0.544 -0.4552 -0.3500 -0.3169
 7395SOL    HW133644   2.812   3.441   0.542 -1.4015 -0.8254 -1.2737
 7395SOL    HW233645   2.801   3.307   0.479  0.8670 -0.2038 -1.4743
 7396SOL     OW33646   3.722   3.051   0.047  0.3072  0.2660  0.0627
 7396SOL    HW133647   3.809   3.014   0.063  0.1406  0.5331  1.6322
 7396SOL    HW233648   3.709   3.101   0.128  3.1288  1.2567 -0.1049
 7397SOL     OW33649   1.342   0.910   3.665  0.2053 -0.0190  0.0213
 7397SOL    HW133650   1.301   0.949   3.742  0.5865 -1.8304  1.1570
 7397SOL    HW233651   1.432   0.926   3.693 -1.2112  1.0461  3.8769
 7398SOL     OW33652   1.943   3.130  13.736  0.2725  0.2971  0.2952
 7398SOL    HW133653   1.959   3.143  13.830  0.5645  1.1961  0.1231
 7398SOL    HW233654   2.029   3.158  13.705 -0.8108 -0.0991 -3.0590
 7399SOL     OW33655   3.143   4.011   7.985  0.2745  0.2283 -0.1329
 7399SOL    HW133656   3.097   4.094   7.975  2.3595  1.2540 -1.5461
 7399SOL    HW233657   3.116   3.961   7.908 -0.9256  0.3698  0.2066
 7400SOL     OW33658   2.966   3.804   8.771  0.4448  0.5932  0.4263
 7400SOL    HW133659   3.057   3.774   8.774  0.8296  1.7349  0.2016
 7400SOL    HW233660   2.961   3.873   8.837 -0.9192  0.1167  0.8355
 7401SOL     OW33661   2.584   1.684   6.991 -0.0319  0.4050  0.5012
 7401SOL    HW133662   2.538   1.637   7.061  0.2078 -2.3347 -1.1682
 7401SOL    HW233663   2.553   1.625   6.922  1.1925 -0.0921  0.3707
 7402SOL     OW33664   0.926   0.713  14.940  0.1984  0.2424  0.4848
 7402SOL    HW133665   0.948   0.756  14.857 -0.6319  0.4567  0.3827
 7402SOL    HW233666   0.834   0.692  14.933  0.0013  0.6051  1.8831
 7403SOL     OW33667   0.963   3.509   9.098 -0.1385  0.4155 -0.0685
 7403SOL    HW133668   1.047   3.510   9.051  0.0973 -0.2447  0.3328
 7403SOL    HW233669   0.933   3.599   9.091  2.4854  1.1435 -2.0421
 7404SOL     OW33670   4.475   3.551   6.043  0.2680 -0.1332 -0.1552
 7404SOL    HW133671   4.449   3.507   6.124 -1.9090  0.7859 -0.3740
 7404SOL    HW233672   4.494   3.642   6.065  1.8828 -0.5703  0.3172
 7405SOL     OW33673   2.419   2.847  12.192 -0.9354  1.2331  0.0426
 7405SOL    HW133674   2.435   2.811  12.279  0.9992  0.1033 -0.7776
 7405SOL    HW233675   2.505   2.840  12.151 -0.9201  0.0626  0.2733
 7406SOL     OW33676   4.122   2.222   9.041  0.1538 -0.4005  0.1536
 7406SOL    HW133677   4.027   2.217   9.030  0.1734  0.7934 -0.6256
 7406SOL    HW233678   4.120   2.173   9.123  0.0610 -1.7988 -0.6844
 7407SOL     OW33679   3.831   4.277  11.352  0.5556  0.1420  0.5053
 7407SOL    HW133680   3.793   4.361  11.325  0.2034 -0.2068 -0.0813
 7407SOL    HW233681   3.915   4.307  11.387  1.2850  0.5623 -1.6187
 7408SOL     OW33682   1.022   4.424   7.455 -0.2816  0.8570 -0.1527
 7408SOL    HW133683   1.030   4.334   7.485  0.7019  1.3275  1.0149
 7408SOL    HW233684   1.036   4.461   7.542 -2.8279 -0.2235  0.6970
 7409SOL     OW33685   4.483   2.759   1.341 -0.7774  0.0869 -0.1062
 7409SOL    HW133686   4.550   2.731   1.403  0.5901  2.8714 -0.3074
 7409SOL    HW233687   4.478   2.848   1.377 -1.0380  0.3564 -0.8027
 7410SOL     OW33688   4.036   2.368  10.956  0.0194  0.4361  0.2471
 7410SOL    HW133689   3.958   2.418  10.930 -1.8940 -1.9244  1.3977
 7410SOL    HW233690   4.003   2.278  10.958  2.5637 -0.4379  1.9973
 7411SOL     OW33691   3.149   0.836   1.125 -0.0583  0.5413  0.8732
 7411SOL    HW133692   3.161   0.928   1.148  0.3129  0.4895  0.9014
 7411SOL    HW233693   3.106   0.796   1.200 -1.7899 -0.5244 -0.6767
 7412SOL     OW33694   4.018   3.303   7.310 -0.7876 -0.4252  0.4238
 7412SOL    HW133695   4.009   3.286   7.216 -1.9086 -0.8419  0.6111
 7412SOL    HW233696   4.113   3.304   7.321 -0.1812  0.6380 -4.9061
 7413SOL     OW33697   0.724   0.481  17.683 -0.4317  0.3623 -0.0794
 7413SOL    HW133698   0.810   0.451   0.012 -0.3683  0.5709 -0.0546
 7413SOL    HW233699   0.716   0.557   0.038  0.3589  0.1195  0.3666
 7414SOL     OW33700   1.383   0.770   6.376  0.3621  0.5095 -0.1427
 7414SOL    HW133701   1.366   0.807   6.290 -1.5545 -1.5642 -0.6689
 7414SOL    HW233702   1.321   0.697   6.384  0.6213  0.3888  0.7672
 7415SOL     OW33703   0.518   2.644   9.504 -0.0021 -0.2446  0.2117
 7415SOL    HW133704   0.431   2.605   9.491 -0.6497  1.3506 -0.1440
 7415SOL    HW233705   0.549   2.595   9.581  1.1767  2.4134  1.4045
 7416SOL     OW33706   1.830   4.400  13.920  0.2125  0.3776 -0.4690
 7416SOL    HW133707   1.801   4.404  14.011 -1.0956 -0.3258 -0.8601
 7416SOL    HW233708   1.785   4.470  13.873 -2.5760  0.1817  1.9221
 7417SOL     OW33709   0.164   3.660   7.544 -0.0226 -0.2476  0.9234
 7417SOL    HW133710   0.111   3.583   7.521 -1.8560  0.8809  1.3665
 7417SOL    HW233711   0.105   3.719   7.590 -1.1316 -0.1797 -0.5709
 7418SOL     OW33712   2.860   4.277   2.727 -0.5997 -0.0958 -0.5858
 7418SOL    HW133713   2.865   4.182   2.739  2.7082  0.3127  1.2937
 7418SOL    HW233714   2.865   4.307   2.818  0.3501  0.0939 -0.7017
 7419SOL     OW33715   0.542   1.845   8.050  0.1031 -0.9627  0.1319
 7419SOL    HW133716   0.545   1.751   8.033 -0.1126 -1.0191  0.4234
 7419SOL    HW233717   0.620   1.871   8.000  0.8754  0.7328  2.2123
 7420SOL     OW33718   1.238   2.109   7.659 -0.0446 -0.1033 -0.6893
 7420SOL    HW133719   1.229   2.144   7.748  2.0603  0.4108 -0.6795
 7420SOL    HW233720   1.186   2.029   7.665  1.0142 -0.6747  0.7561
 7421SOL     OW33721   1.497   1.090   4.653 -0.0640 -0.2284 -0.0075
 7421SOL    HW133722   1.518   1.173   4.695  2.3290 -0.8395 -0.0243
 7421SOL    HW233723   1.406   1.084   4.682  0.6357 -3.1305  1.6410
 7422SOL     OW33724   2.483   4.323   8.427  0.1967  0.1390  0.3533
 7422SOL    HW133725   2.416   4.388   8.411  0.5723 -0.1038 -2.1300
 7422SOL    HW233726   2.510   4.352   8.515  0.5746 -1.7391  0.8735
 7423SOL     OW33727   0.247   4.380   6.283 -0.1118 -0.1385 -0.2766
 7423SOL    HW133728   0.267   4.378   6.377  2.5453  0.7683 -0.8255
 7423SOL    HW233729   0.301   4.312   6.243  1.8621  2.3180 -1.7568
 7424SOL     OW33730   3.005   2.510   4.357  0.0461  0.4328 -0.0110
 7424SOL    HW133731   3.036   2.420   4.362 -0.1718  0.2409 -2.0718
 7424SOL    HW233732   3.025   2.532   4.265  2.2080  0.7775  0.5463
 7425SOL     OW33733   1.628   3.106   4.926 -0.4190 -0.0917  0.3780
 7425SOL    HW133734   1.613   3.014   4.901  1.5053 -0.3929  0.3910
 7425SOL    HW233735   1.640   3.147   4.841 -0.7827 -0.8259 -0.0325
 7426SOL     OW33736   2.087   2.393  17.123  0.2388 -0.6975 -0.3745
 7426SOL    HW133737   2.123   2.436  17.046 -1.2701  0.1530 -0.5945
 7426SOL    HW233738   2.067   2.467  17.180  1.3943 -0.1090 -0.7371
 7427SOL     OW33739   1.207   0.568   2.112 -0.3417 -0.7100  0.1570
 7427SOL    HW133740   1.160   0.624   2.049  0.5252  0.6319  0.6958
 7427SOL    HW233741   1.167   0.608   2.189 -1.2486 -1.5714  0.1349
 7428SOL     OW33742   1.099   2.752  14.166 -0.4035  0.3227  0.4564
 7428SOL    HW133743   1.034   2.688  14.138 -1.3968  1.7284 -0.4278
 7428SOL    HW233744   1.176   2.696  14.153 -2.4865 -2.5613  0.6201
 7429SOL     OW33745   0.785   1.692   9.040  0.7525  0.3050  0.5243
 7429SOL    HW133746   0.744   1.611   9.010 -0.6983  0.8417  1.0303
 7429SOL    HW233747   0.814   1.722   8.954  1.6911  0.6161  0.9513
 7430SOL     OW33748   0.264   4.240  10.161 -0.0482 -0.1835  0.9388
 7430SOL    HW133749   0.227   4.178  10.224  0.8768 -0.0973  1.5792
 7430SOL    HW233750   0.284   4.187  10.084 -1.9108 -0.5082  0.6786
 7431SOL     OW33751   2.184   3.691  12.315  1.1932  0.2068 -0.8003
 7431SOL    HW133752   2.127   3.669  12.241  0.7040  0.1103 -0.3974
 7431SOL    HW233753   2.268   3.707  12.273  1.1726  1.5130 -0.3256
 7432SOL     OW33754   1.099   0.898   6.291 -0.5263 -0.2614 -0.2392
 7432SOL    HW133755   1.156   0.975   6.290 -0.2258 -0.4844 -0.2106
 7432SOL    HW233756   1.114   0.867   6.202 -0.7032  2.5970 -1.2691
 7433SOL     OW33757   4.283   3.572   3.862  0.4121  0.2766 -0.2250
 7433SOL    HW133758   4.356   3.511   3.852 -1.0297 -1.4240 -0.5049
 7433SOL    HW233759   4.271   3.594   3.770  0.2909 -0.9441 -0.4990
 7434SOL     OW33760   2.229   1.296   7.807 -0.1675  0.4650  0.1868
 7434SOL    HW133761   2.309   1.347   7.814 -0.7363  1.4685 -0.6476
 7434SOL    HW233762   2.191   1.330   7.726 -0.2622 -0.7376 -0.2765
 7435SOL     OW33763   3.633   1.514   8.919  0.0951  0.4423 -0.4459
 7435SOL    HW133764   3.655   1.460   8.843 -2.2046  0.7480 -1.3315
 7435SOL    HW233765   3.641   1.446   8.985 -1.0946 -1.4689 -2.2485
 7436SOL     OW33766   4.391   3.494   7.961  0.1876  0.2614 -0.2234
 7436SOL    HW133767   4.464   3.555   7.950  1.9790 -1.7559  0.3714
 7436SOL    HW233768   4.433   3.415   7.995 -1.1772  0.2283  1.4051
 7437SOL     OW33769   1.888   4.235   4.873 -0.1592 -0.9467  0.2543
 7437SOL    HW133770   1.951   4.247   4.944 -1.3235  0.2360  1.0924
 7437SOL    HW233771   1.866   4.326   4.855  2.1489 -0.8191 -1.8233
 7438SOL     OW33772   1.666   0.765   2.824 -0.7526  0.1966  0.3278
 7438SOL    HW133773   1.727   0.691   2.825  0.6385  1.3249 -1.1985
 7438SOL    HW233774   1.631   0.767   2.735 -1.0025 -0.3136  0.4134
 7439SOL     OW33775   3.508   1.327   2.621 -0.1304 -0.2904 -0.2386
 7439SOL    HW133776   3.551   1.331   2.706 -1.4578  2.7419  0.2916
 7439SOL    HW233777   3.584   1.323   2.564  0.0163 -0.3850 -0.0370
 7440SOL     OW33778   4.262   0.470   4.502 -0.4453  0.2562  0.5749
 7440SOL    HW133779   4.284   0.495   4.591  3.0251  0.1652 -0.2541
 7440SOL    HW233780   4.281   0.550   4.453  3.0392 -1.2425 -0.5319
 7441SOL     OW33781   3.680   4.408   5.500 -0.3235 -0.6303 -0.6662
 7441SOL    HW133782   3.669   4.466   5.425  0.5040  1.7270  1.0070
 7441SOL    HW233783   3.775   4.418   5.510 -0.6599  0.7556  1.2212
 7442SOL     OW33784   0.823   4.525   2.632  0.3068 -0.1349  0.2422
 7442SOL    HW133785   0.752   4.549   2.691 -0.8007  0.1700 -1.2034
 7442SOL    HW233786   0.861   4.611   2.614  0.6361 -0.3142  0.0864
 7443SOL     OW33787   4.545   1.351   6.694 -0.8115 -0.1570 -0.5884
 7443SOL    HW133788   4.637   1.357   6.719 -0.4233 -2.8226 -1.3814
 7443SOL    HW233789   4.504   1.410   6.757  2.0690 -1.7854  2.7976
 7444SOL     OW33790   3.958   3.486   8.264 -0.0773  0.9764 -0.3653
 7444SOL    HW133791   3.920   3.556   8.317  2.4480 -0.0117  2.7108
 7444SOL    HW233792   3.977   3.421   8.331  1.1554  1.5396 -0.1794
 7445SOL     OW33793   2.632   2.004   4.644  0.5307  0.5537 -0.0715
 7445SOL    HW133794   2.690   2.045   4.580  1.6243  3.7735  2.9047
 7445SOL    HW233795   2.597   2.079   4.693  1.5617  0.6394  0.5602
 7446SOL     OW33796   1.862   1.748  17.037  0.0622  0.7695 -0.3436
 7446SOL    HW133797   1.841   1.837  17.008 -1.2997  2.1069  4.8505
 7446SOL    HW233798   1.775   1.708  17.032 -0.0257  0.9671 -0.3774
 7447SOL     OW33799   2.892   2.406   6.013 -0.2347 -0.7441  0.5129
 7447SOL    HW133800   2.867   2.379   6.101 -0.7922 -0.2869  0.5022
 7447SOL    HW233801   2.810   2.419   5.965  0.3848 -0.6111 -0.5164
 7448SOL     OW33802   3.435   3.895  10.220 -0.1344  0.2283  0.0553
 7448SOL    HW133803   3.453   3.932  10.306  1.1122  0.8004 -0.4459
 7448SOL    HW233804   3.492   3.941  10.157  0.9498  0.5865  1.2974
 7449SOL     OW33805   3.739   2.298   4.963 -0.4006 -0.6069  0.3517
 7449SOL    HW133806   3.766   2.216   5.004  0.7342  0.2355  1.2773
 7449SOL    HW233807   3.789   2.291   4.882  2.2848 -0.3320  1.9972
 7450SOL     OW33808   3.054   3.734   2.512 -0.5981 -0.0904 -0.2840
 7450SOL    HW133809   3.061   3.640   2.493 -0.1508 -0.3358  1.0985
 7450SOL    HW233810   3.146   3.761   2.505 -0.1967 -1.0097  1.5012
 7451SOL     OW33811   3.103   3.989   5.680 -0.3129  0.1699  0.1104
 7451SOL    HW133812   3.067   3.904   5.702 -1.4683  0.3768 -0.9570
 7451SOL    HW233813   3.122   3.978   5.586  0.8997  0.6717  0.2939
 7452SOL     OW33814   2.411   1.086   3.791  0.1804 -0.5477 -0.1634
 7452SOL    HW133815   2.506   1.088   3.801  0.1105 -0.1874  0.4626
 7452SOL    HW233816   2.398   1.000   3.751  0.5156  0.3287 -2.1567
 7453SOL     OW33817   3.332   2.675   9.537  0.3541 -0.3654  0.4123
 7453SOL    HW133818   3.249   2.637   9.566  0.1732  0.4479  0.9726
 7453SOL    HW233819   3.304   2.763   9.510 -2.1455 -2.1072 -2.5979
 7454SOL     OW33820   2.214   3.818   5.826 -0.2068 -0.4053 -0.0530
 7454SOL    HW133821   2.291   3.875   5.821  0.4808 -1.5896 -2.5513
 7454SOL    HW233822   2.251   3.730   5.822  0.1028 -0.2832  0.1512
 7455SOL     OW33823   2.484   1.256  12.844  0.1916  0.7881 -0.1738
 7455SOL    HW133824   2.440   1.325  12.892 -1.1807  0.9191 -1.6175
 7455SOL    HW233825   2.551   1.236  12.909  0.3187 -1.4101 -0.9731
 7456SOL     OW33826   4.620   4.222   6.883  0.3460 -0.2733  0.0399
 7456SOL    HW133827   4.701   4.229   6.934 -0.0119  0.4932  0.4932
 7456SOL    HW233828   4.645   4.159   6.814  0.9958  0.0125  0.0143
 7457SOL     OW33829   0.292   2.877   6.529  0.1597 -0.5411  0.0905
 7457SOL    HW133830   0.322   2.811   6.591  1.7496 -1.8392 -2.0303
 7457SOL    HW233831   0.296   2.956   6.583 -0.8784  0.2085 -0.9223
 7458SOL     OW33832   4.457   3.924  15.907  0.4134 -0.0846 -0.3570
 7458SOL    HW133833   4.509   3.996  15.872  2.0091  0.8127  3.8135
 7458SOL    HW233834   4.520   3.891  15.971 -1.1309 -1.0211  0.6668
 7459SOL     OW33835   1.586   3.960   3.171  0.5601 -0.0422  0.0746
 7459SOL    HW133836   1.561   3.869   3.156  1.8959 -0.5072  0.6663
 7459SOL    HW233837   1.630   3.974   3.087  0.3713 -0.6436 -0.1242
 7460SOL     OW33838   0.870   2.313   3.561  0.6906 -0.5436  0.0379
 7460SOL    HW133839   0.868   2.338   3.469 -1.5985  0.0335  0.2534
 7460SOL    HW233840   0.956   2.271   3.559  0.8134 -0.4270  2.0580
 7461SOL     OW33841   2.115   2.473   7.276  0.4282  0.3316 -0.2161
 7461SOL    HW133842   2.174   2.462   7.350  0.6043 -1.7713 -0.6910
 7461SOL    HW233843   2.170   2.436   7.208  3.0192  0.2207  1.9253
 7462SOL     OW33844   1.579   1.044   1.654 -0.2938 -0.0300  0.0000
 7462SOL    HW133845   1.660   1.093   1.665 -0.3384  0.0086  0.1469
 7462SOL    HW233846   1.539   1.096   1.584  0.2420  0.0671 -0.2334
 7463SOL     OW33847   4.666   3.230   4.501  0.1856 -0.1858  0.5297
 7463SOL    HW133848   4.662   3.321   4.530 -0.5275  1.2357 -4.0034
 7463SOL    HW233849   4.574   3.208   4.515  0.1360 -0.8085 -0.8177
 7464SOL     OW33850   2.471   3.330   6.827 -0.3531  0.2825  0.2117
 7464SOL    HW133851   2.388   3.328   6.780  0.8010  0.1559 -1.8574
 7464SOL    HW233852   2.513   3.413   6.806  0.9931 -0.4368  0.0222
 7465SOL     OW33853   1.836   1.126   1.682  0.4356 -0.2780  0.0472
 7465SOL    HW133854   1.787   1.106   1.762 -0.5295 -1.0537 -0.7315
 7465SOL    HW233855   1.860   1.218   1.694 -1.2209  0.4258 -2.0348
 7466SOL     OW33856   3.482   2.599   4.166  0.0776 -0.1102 -0.5379
 7466SOL    HW133857   3.473   2.513   4.205 -1.5546  1.4479  2.5270
 7466SOL    HW233858   3.565   2.629   4.203  0.5984 -1.1248 -0.8992
 7467SOL     OW33859   1.812   3.449  10.108 -0.2925 -0.1307 -0.3108
 7467SOL    HW133860   1.882   3.427  10.170  1.4253 -3.9095 -3.5201
 7467SOL    HW233861   1.757   3.500  10.167  0.2399 -0.0469  0.1194
 7468SOL     OW33862   1.918   2.465  10.646 -0.3049 -0.4111 -0.4063
 7468SOL    HW133863   1.910   2.534  10.580  0.2370  1.3228  1.3490
 7468SOL    HW233864   1.950   2.532  10.707 -2.6933 -0.2863  0.7064
 7469SOL     OW33865   3.144   1.608   8.071  0.3908 -0.3057 -1.0529
 7469SOL    HW133866   3.059   1.647   8.091  0.8936  0.4743 -0.4054
 7469SOL    HW233867   3.125   1.514   8.073 -2.0871  0.1876 -1.0457
 7470SOL     OW33868   4.258   2.758   3.799 -0.1767  0.0922  0.2451
 7470SOL    HW133869   4.261   2.688   3.734 -2.8246  0.8662 -0.7389
 7470SOL    HW233870   4.235   2.725   3.886  1.5847  1.0436  1.0526
 7471SOL     OW33871   4.015   2.747   7.730  0.3563 -0.7837 -0.2035
 7471SOL    HW133872   4.050   2.826   7.689  2.3795 -1.5269  0.1002
 7471SOL    HW233873   3.922   2.760   7.714 -0.3415 -2.6254  2.3688
 7472SOL     OW33874   4.478   0.855   7.366  0.6638 -0.6555 -0.1152
 7472SOL    HW133875   4.474   0.900   7.450 -0.0940  1.9053 -1.5274
 7472SOL    HW233876   4.406   0.892   7.315  0.5914  0.9708  1.1547
 7473SOL     OW33877   0.448   4.672   3.002 -0.1476 -0.2486 -0.1878
 7473SOL    HW133878   0.470   0.039   3.015  1.0324 -0.3083 -1.9516
 7473SOL    HW233879   0.367   4.679   2.951  0.2365  1.0906 -0.6029
 7474SOL     OW33880   1.416   2.770   8.863  0.4454 -0.0511 -0.7152
 7474SOL    HW133881   1.494   2.757   8.917 -0.2056 -0.4117  0.1429
 7474SOL    HW233882   1.451   2.741   8.779  0.4346  1.5482 -1.2877
 7475SOL     OW33883   0.135   2.969   7.275  0.1111  0.0245  0.1400
 7475SOL    HW133884   0.169   2.949   7.362 -0.5523 -1.5027  0.0410
 7475SOL    HW233885   0.078   2.892   7.269 -0.8700  0.7997 -0.6427
 7476SOL     OW33886   2.297   4.683  12.581  0.6678  0.0524  0.3390
 7476SOL    HW133887   2.225   4.692  12.517  1.0619  0.7305 -0.0125
 7476SOL    HW233888   2.327   4.593  12.574  2.8119  0.6159  2.4545
 7477SOL     OW33889   3.437   2.982   3.845 -0.7647  0.1640  0.3288
 7477SOL    HW133890   3.435   3.024   3.760 -0.4643  0.6331  0.5541
 7477SOL    HW233891   3.499   3.035   3.894 -0.3556 -0.4175  0.4398
 7478SOL     OW33892   1.489   0.534   7.227  0.5710 -0.6179 -0.0566
 7478SOL    HW133893   1.583   0.546   7.241  0.1141  3.3508 -0.4798
 7478SOL    HW233894   1.455   0.623   7.221  0.4332 -0.7519 -1.3181
 7479SOL     OW33895   2.340   2.116   8.241  0.1694  0.7286 -0.1939
 7479SOL    HW133896   2.324   2.208   8.219 -1.2754  0.2044 -1.3359
 7479SOL    HW233897   2.392   2.115   8.322  0.2888 -1.7536 -0.2924
 7480SOL     OW33898   0.180   3.299  12.071 -0.1743  0.2877 -0.2666
 7480SOL    HW133899   0.245   3.305  12.001 -1.0135  2.2006 -0.8937
 7480SOL    HW233900   0.099   3.287  12.021 -1.0862  1.6727  0.8861
 7481SOL     OW33901   0.912   1.215  13.650 -0.6425 -0.6372 -0.1857
 7481SOL    HW133902   0.927   1.155  13.723 -1.8123 -0.2291  0.3992
 7481SOL    HW233903   0.995   1.259  13.634  0.0818 -2.0200 -0.1666
 7482SOL     OW33904   0.230   3.236   7.684 -0.0090 -0.0706 -0.0302
 7482SOL    HW133905   0.278   3.194   7.755 -1.7595 -0.1253  1.1249
 7482SOL    HW233906   0.138   3.241   7.710 -0.3965 -2.5026 -0.8885
 7483SOL     OW33907   2.226   2.803   2.913 -0.0208 -0.1676  0.0109
 7483SOL    HW133908   2.274   2.734   2.959  2.5506  0.3602 -1.8815
 7483SOL    HW233909   2.288   2.874   2.895 -1.1576  0.7412 -0.3204
 7484SOL     OW33910   1.260   1.816   8.888 -0.6390 -0.2138 -0.1381
 7484SOL    HW133911   1.327   1.857   8.833 -1.9233  0.4631 -1.1928
 7484SOL    HW233912   1.294   1.730   8.912 -1.0028 -0.6609 -1.2086
 7485SOL     OW33913   3.872   4.074  12.729 -0.0368 -0.4421 -0.0376
 7485SOL    HW133914   3.966   4.060  12.712  0.1194 -0.4117  0.8010
 7485SOL    HW233915   3.830   3.993  12.702 -0.3104 -0.7522  1.3571
 7486SOL     OW33916   2.004   3.058   5.309 -0.1583 -0.4913  0.2211
 7486SOL    HW133917   1.962   3.047   5.395 -0.5226  0.2611  0.1470
 7486SOL    HW233918   2.053   2.976   5.302 -3.2336 -2.0869 -2.6168
 7487SOL     OW33919   4.053   0.601   9.196  0.5487  0.1545 -0.6615
 7487SOL    HW133920   4.010   0.583   9.279  1.5998  0.9243  0.0462
 7487SOL    HW233921   4.007   0.542   9.136 -0.1607  1.2647 -1.2223
 7488SOL     OW33922   4.150   4.652   5.166 -0.4289 -0.6045 -0.1466
 7488SOL    HW133923   4.166   4.588   5.236 -3.0939 -1.4408 -0.2958
 7488SOL    HW233924   4.152   0.013   5.208  1.2856 -0.7462  0.0741
 7489SOL     OW33925   1.002   1.678   7.458  0.2720  0.4993  0.1720
 7489SOL    HW133926   1.050   1.644   7.383 -3.1123  1.8735 -2.6398
 7489SOL    HW233927   0.915   1.691   7.421  0.4655  0.6565 -0.2236
 7490SOL     OW33928   4.583   0.748   5.196 -0.0458  0.5786 -0.5693
 7490SOL    HW133929   4.490   0.730   5.186  0.1232 -0.6494  0.0876
 7490SOL    HW233930   4.626   0.710   5.119 -0.5620 -3.7291  1.2765
 7491SOL     OW33931   4.387   0.925   4.253 -0.4452  0.5036  0.1573
 7491SOL    HW133932   4.345   0.935   4.168 -1.7244 -1.3922  0.5599
 7491SOL    HW233933   4.478   0.912   4.226 -0.3913  0.9305  0.1407
 7492SOL     OW33934   3.198   4.276   2.716 -0.4200  0.5797 -0.1145
 7492SOL    HW133935   3.156   4.359   2.739  0.2427  0.9182 -0.1316
 7492SOL    HW233936   3.264   4.264   2.784 -0.2586 -1.2085 -0.5925
 7493SOL     OW33937   4.141   3.696   8.118  0.0346 -0.5344  0.0174
 7493SOL    HW133938   4.093   3.613   8.121 -1.0092  0.0426 -0.6296
 7493SOL    HW233939   4.227   3.667   8.088  0.5870 -0.0904  1.1889
 7494SOL     OW33940   0.177   0.468   6.548 -0.0059  0.1231  0.6061
 7494SOL    HW133941   0.100   0.412   6.559 -0.2404 -0.0999 -2.1691
 7494SOL    HW233942   0.196   0.510   6.632 -1.3471  1.5455  0.2138
 7495SOL     OW33943   1.215   4.120   9.473  0.3065  0.3249 -0.5142
 7495SOL    HW133944   1.262   4.197   9.504  0.0169 -0.1392  1.0895
 7495SOL    HW233945   1.149   4.109   9.542  2.0475 -2.5015  0.7337
 7496SOL     OW33946   1.647   2.802   1.093 -0.0011 -0.0149 -0.4078
 7496SOL    HW133947   1.622   2.802   1.185  1.1658  1.7589 -0.0771
 7496SOL    HW233948   1.606   2.718   1.071  1.4802 -1.0718  0.8681
 7497SOL     OW33949   1.935   0.170   8.225  0.0373  0.3577 -0.0679
 7497SOL    HW133950   1.906   0.185   8.135  1.6551 -0.3942 -0.7253
 7497SOL    HW233951   2.019   0.216   8.222 -0.6983  1.6358 -0.6526
 7498SOL     OW33952   1.618   1.884   8.380 -0.3997  0.4849  0.2339
 7498SOL    HW133953   1.602   1.931   8.461 -3.3676  1.3231 -0.8306
 7498SOL    HW233954   1.712   1.897   8.371 -0.5872  1.7016  0.0700
 7499SOL     OW33955   4.334   2.751   0.264  0.3895  0.6457  0.7753
 7499SOL    HW133956   4.346   2.722   0.174  2.1526  3.3066  0.1942
 7499SOL    HW233957   4.253   2.798   0.243 -0.9052 -1.7727  0.2193
 7500SOL     OW33958   1.275   2.914   0.762 -0.4373 -0.5992  0.2304
 7500SOL    HW133959   1.355   2.899   0.712  0.1466  2.3972  0.2772
 7500SOL    HW233960   1.266   2.823   0.791 -2.2292 -0.7398 -0.7515
 7501SOL     OW33961   2.848   4.359   0.150 -0.8374  0.3742  0.5872
 7501SOL    HW133962   2.806   4.293   0.095 -0.1731 -0.9078  1.6363
 7501SOL    HW233963   2.770   4.387   0.198 -1.4891 -1.0324  0.3298
 7502SOL     OW33964   1.224   2.010   4.273 -0.7032  0.3417 -0.3419
 7502SOL    HW133965   1.240   2.026   4.180  1.6484 -1.6202 -0.2696
 7502SOL    HW233966   1.282   1.934   4.277 -1.6340 -0.3852 -0.7747
 7503SOL     OW33967   0.537   4.615   7.605  0.2255 -0.1748  0.4456
 7503SOL    HW133968   0.599   4.594   7.675  0.4909  0.7461  0.4836
 7503SOL    HW233969   0.456   4.626   7.654 -0.8863  2.3923 -1.9516
 7504SOL     OW33970   2.008   1.230   5.824 -0.0984 -0.2076 -0.1215
 7504SOL    HW133971   1.996   1.292   5.896  0.4039 -0.1748 -0.0706
 7504SOL    HW233972   2.077   1.277   5.779 -0.7738 -0.2653 -1.2120
 7505SOL     OW33973   2.619   4.049  12.735  0.0179  0.4221 -0.1127
 7505SOL    HW133974   2.568   4.070  12.657  1.5415 -0.3442 -1.3164
 7505SOL    HW233975   2.650   3.962  12.710  1.3406  1.1029 -0.8667
 7506SOL     OW33976   3.578   1.867  11.062  0.4841 -0.1126  0.0029
 7506SOL    HW133977   3.627   1.810  11.121  2.1321  1.0656 -0.2275
 7506SOL    HW233978   3.518   1.801  11.029  0.2537 -1.0572  2.2998
 7507SOL     OW33979   3.316   0.646   9.608 -0.1679 -0.7392  0.0624
 7507SOL    HW133980   3.346   0.679   9.693 -1.3897 -1.6656  0.8541
 7507SOL    HW233981   3.385   0.684   9.552 -2.5210 -1.1106 -3.0810
 7508SOL     OW33982   1.885   3.594   4.959 -0.0436  0.0869 -0.4338
 7508SOL    HW133983   1.901   3.503   4.935  1.4516  0.2115  0.0880
 7508SOL    HW233984   1.835   3.623   4.883 -0.1580  0.4073 -0.2348
 7509SOL     OW33985   0.506   2.022   4.976 -0.4368  0.3090  0.0012
 7509SOL    HW133986   0.582   2.049   4.925  1.2342  1.1665  2.9767
 7509SOL    HW233987   0.522   1.928   4.983  1.6028  0.7003  0.4254
 7510SOL     OW33988   0.490   3.615   7.235 -0.0745 -0.4879 -0.1938
 7510SOL    HW133989   0.453   3.622   7.147  0.3992  2.5053 -0.1701
 7510SOL    HW233990   0.429   3.547   7.263 -0.8460 -0.2589 -1.3306
 7511SOL     OW33991   0.426   0.912  17.166 -0.1160 -0.5754 -0.5420
 7511SOL    HW133992   0.432   0.830  17.214 -0.9513  0.1853  0.8489
 7511SOL    HW233993   0.345   0.956  17.192  0.3408 -0.1952  0.2295
 7512SOL     OW33994   3.413   3.375  14.668  0.0645 -0.6100  0.1887
 7512SOL    HW133995   3.497   3.383  14.623  0.9261  0.2417  1.9388
 7512SOL    HW233996   3.393   3.281  14.661  0.0235 -0.2762 -3.8512
 7513SOL     OW33997   1.348   0.233   8.358  0.0802 -0.1976  0.9443
 7513SOL    HW133998   1.350   0.262   8.267  0.4355 -1.8779  0.4049
 7513SOL    HW233999   1.398   0.151   8.354 -2.2691 -1.6448  1.0867
 7514SOL     OW34000   2.655   1.189   5.427 -0.4353  0.2249 -0.7094
 7514SOL    HW134001   2.645   1.103   5.467  0.0253  0.5025  0.0072
 7514SOL    HW234002   2.654   1.158   5.337 -2.3535 -1.9473  0.0332
 7515SOL     OW34003   3.456   1.213  14.452  0.4630  0.1842 -0.6119
 7515SOL    HW134004   3.534   1.163  14.476  0.4677  0.4187 -0.1422
 7515SOL    HW234005   3.415   1.158  14.385  1.1682  2.3179 -2.8010
 7516SOL     OW34006   1.410   4.688   1.615  0.3992 -0.8195  0.1603
 7516SOL    HW134007   1.392   0.049   1.654  1.1403 -0.7947  0.4500
 7516SOL    HW234008   1.328   4.678   1.568  0.2516 -1.0898  0.4801
 7517SOL     OW34009   3.586   1.911   9.771 -0.1382 -0.1990 -0.2234
 7517SOL    HW134010   3.592   1.839   9.708  0.9736 -0.7610  0.5266
 7517SOL    HW234011   3.642   1.883   9.843  0.3274 -0.7381 -0.7868
 7518SOL     OW34012   3.693   4.085  10.488 -0.3066 -0.1963 -0.1020
 7518SOL    HW134013   3.722   4.041  10.567 -0.4601  0.1016  0.1209
 7518SOL    HW234014   3.602   4.055  10.483 -0.3924  0.0073  0.2602
 7519SOL     OW34015   4.051   4.123  12.429 -0.0202 -0.2374  0.1126
 7519SOL    HW134016   4.062   4.216  12.445 -2.1573  0.0537 -0.1196
 7519SOL    HW234017   3.991   4.110  12.355  0.6906 -0.5313 -0.4251
 7520SOL     OW34018   1.560   4.557   9.768 -0.7217 -0.0739  1.0181
 7520SOL    HW134019   1.622   4.613   9.815  2.0777 -1.5282 -0.9170
 7520SOL    HW234020   1.495   4.620   9.738  2.1420  1.7960 -1.1840
 7521SOL     OW34021   3.960   0.104  10.642 -0.4312 -0.6239 -0.3538
 7521SOL    HW134022   3.926   0.032  10.589  3.1128 -1.0267 -2.1290
 7521SOL    HW234023   3.885   0.102  10.701 -1.0274  1.6754 -1.0513
 7522SOL     OW34024   3.452   2.926   5.197  0.2979 -0.1297  0.3517
 7522SOL    HW134025   3.375   2.946   5.251 -0.6935 -1.9369 -0.4059
 7522SOL    HW234026   3.473   2.844   5.240  1.7746 -0.9586 -1.9392
 7523SOL     OW34027   0.460   1.059   3.246 -0.0255  0.3291 -0.2139
 7523SOL    HW134028   0.444   1.123   3.176 -0.4031 -0.4948 -0.8834
 7523SOL    HW234029   0.496   1.109   3.319 -2.5143  1.0081  0.5247
 7524SOL     OW34030   0.590   0.827   9.918  0.2129 -0.0754  0.1731
 7524SOL    HW134031   0.610   0.829   9.825 -1.5588  1.9910 -0.1617
 7524SOL    HW234032   0.526   0.897   9.923  1.3349  0.9347  0.3947
 7525SOL     OW34033   1.839   3.815   5.918 -0.5737 -0.0297 -0.1003
 7525SOL    HW134034   1.764   3.802   5.976 -0.2517 -0.2989  0.2560
 7525SOL    HW234035   1.811   3.893   5.870  1.7796 -1.8776 -4.5297
 7526SOL     OW34036   2.726   0.849   6.168 -0.3387  0.8964  0.8272
 7526SOL    HW134037   2.670   0.911   6.122  0.3258 -1.8701 -3.7029
 7526SOL    HW234038   2.760   0.906   6.237  0.9063  1.7912 -0.5157
 7527SOL     OW34039   3.684   4.403   8.803 -0.6798  0.3331  0.3154
 7527SOL    HW134040   3.708   4.485   8.760  2.7767 -0.4110  0.8284
 7527SOL    HW234041   3.640   4.365   8.727  0.6255 -0.6194  0.0330
 7528SOL     OW34042   4.129   0.453  10.680  0.3794  0.4819 -0.4784
 7528SOL    HW134043   4.217   0.467  10.714  0.9969 -1.9787 -1.1097
 7528SOL    HW234044   4.078   0.417  10.753  1.1569 -0.3856 -0.3759
 7529SOL     OW34045   2.710   4.297   7.703 -0.4062 -0.3658  0.4796
 7529SOL    HW134046   2.717   4.212   7.659 -0.0619  0.0215 -0.2090
 7529SOL    HW234047   2.779   4.289   7.769 -1.8039 -1.2166  1.8398
 7530SOL     OW34048   2.848   0.854   5.319 -0.8192 -0.0690  0.0457
 7530SOL    HW134049   2.887   0.858   5.406 -1.4304 -0.7809  0.3531
 7530SOL    HW234050   2.893   0.927   5.278  0.0605 -2.1621 -2.7606
 7531SOL     OW34051   1.398   3.422   5.459 -0.2900  0.0483  0.0490
 7531SOL    HW134052   1.353   3.363   5.398  0.3331  0.3150 -0.6705
 7531SOL    HW234053   1.320   3.468   5.488  1.0034  0.8467  2.2302
 7532SOL     OW34054   0.954   4.469  16.570 -0.2675 -0.3800 -0.0853
 7532SOL    HW134055   0.925   4.517  16.648 -1.3456 -1.2266  0.0426
 7532SOL    HW234056   0.924   4.384  16.603 -0.5821  0.7073  2.3999
 7533SOL     OW34057   1.857   1.052   6.238  0.3285  0.4214 -0.3546
 7533SOL    HW134058   1.922   1.085   6.299 -0.8210  1.9970  0.0177
 7533SOL    HW234059   1.913   1.039   6.161 -0.2488  0.8468 -0.8468
 7534SOL     OW34060   2.464   2.840   9.494 -0.0221  0.1195  0.1234
 7534SOL    HW134061   2.403   2.912   9.512 -0.4530 -0.6252  1.7143
 7534SOL    HW234062   2.427   2.774   9.553 -1.7730  1.2313  0.2585
 7535SOL     OW34063   1.415   2.747  11.947 -0.0625 -0.0942  0.1787
 7535SOL    HW134064   1.485   2.812  11.940  0.4766 -0.5100  1.7291
 7535SOL    HW234065   1.462   2.675  11.905 -1.0905 -0.9965  0.5779
 7536SOL     OW34066   3.630   3.292  16.270 -0.3583  0.0813  0.0071
 7536SOL    HW134067   3.578   3.304  16.190  1.2713 -1.3444 -1.2615
 7536SOL    HW234068   3.713   3.283  16.223 -0.3710 -0.0374  0.0058
 7537SOL     OW34069   1.559   4.252  13.765  0.0446 -0.1710 -0.1765
 7537SOL    HW134070   1.623   4.221  13.829 -0.8338 -0.6814  0.4408
 7537SOL    HW234071   1.540   4.338  13.802 -1.6213 -0.7475  0.2650
 7538SOL     OW34072   1.046   3.867   2.802 -0.0709 -0.1319  0.2675
 7538SOL    HW134073   0.986   3.941   2.811 -0.5008 -0.4241 -0.1916
 7538SOL    HW234074   1.052   3.863   2.707 -1.5500 -2.3403  0.2421
 7539SOL     OW34075   4.211   3.978   8.623 -0.0334 -0.0586 -0.6809
 7539SOL    HW134076   4.136   4.019   8.666 -0.2604 -0.6389 -0.5185
 7539SOL    HW234077   4.166   3.944   8.546  0.9348  1.2382 -1.8040
 7540SOL     OW34078   3.014   0.493   9.225  0.1478  0.1309  0.0303
 7540SOL    HW134079   2.998   0.574   9.175 -0.7623  1.0828  1.8738
 7540SOL    HW234080   3.017   0.528   9.314 -0.3915 -0.3539  0.2400
 7541SOL     OW34081   2.682   1.696  13.262  0.1199  0.0486  0.3482
 7541SOL    HW134082   2.743   1.622  13.271  1.0075  0.6142 -1.1191
 7541SOL    HW234083   2.642   1.700  13.349 -0.1117  1.3546  0.1827
 7542SOL     OW34084   4.209   0.462   6.880 -0.6198  0.5861  0.0271
 7542SOL    HW134085   4.165   0.528   6.933  0.4555  1.0163  0.3843
 7542SOL    HW234086   4.233   0.510   6.800 -0.8066  0.1840 -0.2721
 7543SOL     OW34087   1.535   1.300   5.623 -0.1266 -0.1097 -0.0229
 7543SOL    HW134088   1.628   1.277   5.626 -0.2235 -0.8990 -2.6939
 7543SOL    HW234089   1.508   1.250   5.700  1.0279 -0.5402  0.1067
 7544SOL     OW34090   4.274   0.265   4.006  0.2374  0.1579  0.3938
 7544SOL    HW134091   4.221   0.322   4.061  1.7830  1.1546  0.8654
 7544SOL    HW234092   4.360   0.307   4.015  1.1745 -1.4493 -1.0028
 7545SOL     OW34093   0.436   4.055   6.824 -0.0884  0.0138 -0.3532
 7545SOL    HW134094   0.388   4.043   6.906  0.5032 -3.0246 -0.4499
 7545SOL    HW234095   0.526   4.028   6.842  0.9869  4.3375  0.5933
 7546SOL     OW34096   0.819   4.090   6.668 -0.6282 -0.0341  0.2395
 7546SOL    HW134097   0.754   4.048   6.613 -0.3352 -0.8174  0.4965
 7546SOL    HW234098   0.781   4.084   6.755  0.6585  0.2866  0.8364
 7547SOL     OW34099   2.991   2.793   4.986  0.2712  0.3159  0.5841
 7547SOL    HW134100   2.982   2.709   5.031  0.7217 -0.2243 -0.3357
 7547SOL    HW234101   3.086   2.807   4.986  0.2787  0.2953  1.3073
 7548SOL     OW34102   1.641   4.439   3.148  0.7383  0.0104  0.4981
 7548SOL    HW134103   1.714   4.450   3.086 -0.3532 -0.0672 -0.8036
 7548SOL    HW234104   1.597   4.376   3.092 -0.4196 -0.5505  2.0507
 7549SOL     OW34105   0.375   4.366  13.388  0.5156  0.0092  0.0295
 7549SOL    HW134106   0.358   4.388  13.297  1.7098  4.5061  0.8596
 7549SOL    HW234107   0.469   4.365  13.373  0.5602 -0.2828  0.3172
 7550SOL     OW34108   0.736   0.637  15.201 -0.4968  0.0198 -0.1120
 7550SOL    HW134109   0.747   0.557  15.150  0.0977  0.0110  0.0369
 7550SOL    HW234110   0.642   0.630  15.218 -0.4699 -1.0004 -0.3829
 7551SOL     OW34111   3.718   2.916   0.444 -0.0638  0.1374  0.4326
 7551SOL    HW134112   3.745   2.868   0.365 -0.6870  1.7313 -0.7360
 7551SOL    HW234113   3.647   2.975   0.421 -0.3450 -0.4034 -0.0858
 7552SOL     OW34114   0.117   3.745   4.602  0.3505 -0.4535  0.2550
 7552SOL    HW134115   0.056   3.796   4.548  2.5713 -0.0506 -1.8973
 7552SOL    HW234116   0.195   3.800   4.601 -0.3060  0.4726 -1.8820
 7553SOL     OW34117   1.615   3.341   2.442  0.1189 -0.1804  0.5170
 7553SOL    HW134118   1.579   3.252   2.446  0.4310 -0.2917  0.9697
 7553SOL    HW234119   1.587   3.365   2.531 -2.0645  3.0945 -1.0854
 7554SOL     OW34120   3.972   2.706   3.040 -0.2826  0.3700 -0.7438
 7554SOL    HW134121   3.943   2.632   2.987 -0.3345 -0.7844  0.8713
 7554SOL    HW234122   4.063   2.717   3.012  1.1763 -0.2441  3.6233
 7555SOL     OW34123   2.392   2.248   1.402  0.1496 -0.1058  0.0013
 7555SOL    HW134124   2.421   2.266   1.313 -2.6423 -1.8560 -1.2648
 7555SOL    HW234125   2.299   2.247   1.378  0.5587 -0.2299 -1.5468
 7556SOL     OW34126   2.153   3.237   2.329 -0.5055  0.9379  0.1107
 7556SOL    HW134127   2.212   3.312   2.344  0.0107  0.2567  1.5125
 7556SOL    HW234128   2.124   3.218   2.418 -2.9722  2.3270 -0.4127
 7557SOL     OW34129   2.721   4.216  12.276 -0.5158 -0.0599  0.7494
 7557SOL    HW134130   2.800   4.189  12.230 -0.9890 -1.4590  0.7493
 7557SOL    HW234131   2.671   4.142  12.241  0.4425 -0.4591  0.2472
 7558SOL     OW34132   3.577   1.373   7.985 -0.4554 -0.5575  0.3050
 7558SOL    HW134133   3.485   1.349   7.980 -1.2264  2.2431  0.7976
 7558SOL    HW234134   3.615   1.329   8.061  0.9580  1.3781  0.7326
 7559SOL     OW34135   1.184   2.677   0.863 -0.6555 -0.1170 -0.9400
 7559SOL    HW134136   1.169   2.586   0.836  0.0156 -0.7298  0.7543
 7559SOL    HW234137   1.140   2.679   0.948  0.7495 -2.0785 -0.1664
 7560SOL     OW34138   2.663   0.341   8.072  0.5656 -0.1351  0.0039
 7560SOL    HW134139   2.626   0.254   8.086  1.5563 -0.2722  1.8115
 7560SOL    HW234140   2.691   0.375   8.157 -0.0346  0.0991  0.1058
 7561SOL     OW34141   3.961   3.020   4.814  0.3444  0.2120  0.3254
 7561SOL    HW134142   3.934   3.090   4.754 -0.5505  0.4463  1.0083
 7561SOL    HW234143   3.933   2.952   4.753  0.3682 -0.3683  0.9694
 7562SOL     OW34144   4.563   2.255   8.993 -0.3058 -0.3338 -0.2646
 7562SOL    HW134145   4.472   2.269   8.966 -0.7159 -0.9589  0.7833
 7562SOL    HW234146   4.608   2.291   8.917 -1.0449  3.8536  1.2689
 7563SOL     OW34147   1.749   1.873  15.009 -0.1598 -0.3779 -0.4599
 7563SOL    HW134148   1.679   1.831  15.058 -0.2643  1.1469  0.6989
 7563SOL    HW234149   1.734   1.963  15.038 -2.6658 -0.7437 -0.6318
 7564SOL     OW34150   1.296   4.187   9.989 -0.1444 -0.3145  0.5188
 7564SOL    HW134151   1.284   4.159  10.080 -1.4985  0.4152  0.5599
 7564SOL    HW234152   1.379   4.144   9.970 -0.0993 -0.4641  1.0355
 7565SOL     OW34153   3.668   4.063   4.366 -0.6836 -0.3187 -0.0749
 7565SOL    HW134154   3.627   4.140   4.327  0.0428  0.1692  0.1096
 7565SOL    HW234155   3.585   4.018   4.378 -2.3199  2.1704 -2.1661
 7566SOL     OW34156   1.114   2.315   9.263  0.1332  0.0219 -0.0790
 7566SOL    HW134157   1.171   2.271   9.200  0.3785  1.1009 -0.6098
 7566SOL    HW234158   1.054   2.248   9.295  0.3618 -0.8052 -1.3672
 7567SOL     OW34159   2.629   2.990  14.663  0.5199 -0.0813  0.1294
 7567SOL    HW134160   2.543   2.953  14.680  0.0139  2.3655  2.8258
 7567SOL    HW234161   2.665   2.922  14.606  0.3246 -0.4581  0.4581
 7568SOL     OW34162   4.690   2.863  10.784  0.5192  0.7575 -0.0752
 7568SOL    HW134163   0.004   2.826  10.863 -0.0513  1.3527  0.4845
 7568SOL    HW234164   0.042   2.850  10.729 -0.7874  1.2916 -2.0338
 7569SOL     OW34165   4.080   0.606  16.948 -0.1584  1.0095  0.0936
 7569SOL    HW134166   4.157   0.652  16.914 -0.1258  2.2496  1.8576
 7569SOL    HW234167   4.082   0.535  16.883  2.8152  0.4475  0.7648
 7570SOL     OW34168   3.604   3.476  11.956  0.0841 -0.1021 -0.0055
 7570SOL    HW134169   3.698   3.494  11.954 -0.0457  0.3962 -1.4741
 7570SOL    HW234170   3.584   3.474  11.862  0.5745 -1.3234 -0.0788
 7571SOL     OW34171   0.788   2.040   4.398 -0.3996  0.2592  0.0354
 7571SOL    HW134172   0.880   2.048   4.421 -0.2961  0.6275 -0.5286
 7571SOL    HW234173   0.777   1.946   4.417 -0.0029  0.0785 -0.6527
 7572SOL     OW34174   3.537   2.054   4.741  0.2439 -0.1011  0.3379
 7572SOL    HW134175   3.612   1.996   4.755 -0.5898 -1.1935  0.2617
 7572SOL    HW234176   3.502   2.077   4.828  1.5663 -1.1665  1.1386
 7573SOL     OW34177   0.372   0.154   3.558 -0.1482  0.1029  0.3421
 7573SOL    HW134178   0.294   0.182   3.510 -0.4554 -1.0165  0.1880
 7573SOL    HW234179   0.410   0.119   3.477  3.6711  2.0740  1.3006
 7574SOL     OW34180   3.854   4.035   5.266 -0.5573 -0.0136 -0.0506
 7574SOL    HW134181   3.780   3.976   5.278 -0.0926 -0.7105 -0.5983
 7574SOL    HW234182   3.890   4.017   5.180  0.9984  0.5406  0.4740
 7575SOL     OW34183   3.467   0.775   4.675 -0.1128 -0.0275 -0.2864
 7575SOL    HW134184   3.505   0.830   4.607  2.5427 -0.7557  0.5927
 7575SOL    HW234185   3.546   0.739   4.715  0.6510 -0.5241 -2.2340
 7576SOL     OW34186   3.398   3.220  15.335  0.0246 -0.7779  0.1633
 7576SOL    HW134187   3.367   3.246  15.422 -1.9043  2.7837 -1.6002
 7576SOL    HW234188   3.374   3.302  15.292 -1.8480 -0.6822  1.4126
 7577SOL     OW34189   1.136   2.736   4.474  0.2910  0.5564  0.1898
 7577SOL    HW134190   1.181   2.732   4.389 -0.8769 -1.2624 -0.3364
 7577SOL    HW234191   1.185   2.804   4.520  0.3348  0.6655 -0.0162
 7578SOL     OW34192   4.366   0.854   2.842  0.0307 -0.1987 -0.0851
 7578SOL    HW134193   4.455   0.833   2.870 -0.1873 -0.1191  0.6529
 7578SOL    HW234194   4.341   0.796   2.770 -0.3150  0.9829 -0.9184
 7579SOL     OW34195   1.958   3.321   1.529  0.1229 -0.1143  0.2240
 7579SOL    HW134196   2.035   3.291   1.481 -0.0628  3.3451 -2.1997
 7579SOL    HW234197   1.897   3.335   1.457  0.5322 -4.6633 -1.0012
 7580SOL     OW34198   2.835   4.611  10.770 -0.1512 -0.0258  0.2829
 7580SOL    HW134199   2.869   4.700  10.776 -2.6372  1.0489 -1.3678
 7580SOL    HW234200   2.773   4.609  10.843  0.2316  0.8311  0.6236
 7581SOL     OW34201   2.749   2.834   5.333  0.6517 -0.5183  0.5008
 7581SOL    HW134202   2.745   2.812   5.240 -1.8840  1.5977  0.1138
 7581SOL    HW234203   2.766   2.748   5.372  0.3467 -0.0038  1.7629
 7582SOL     OW34204   3.170   0.476  17.174  0.3054 -0.2313 -0.7102
 7582SOL    HW134205   3.080   0.498  17.195  0.5533 -0.5157  0.6699
 7582SOL    HW234206   3.182   0.392  17.219 -0.9160 -0.4360 -0.7764
 7583SOL     OW34207   3.541   1.670   9.616  0.2405  0.3400  0.9868
 7583SOL    HW134208   3.507   1.701   9.532  2.7194 -0.8085 -0.4318
 7583SOL    HW234209   3.460   1.635   9.655 -0.9508  1.6843 -0.2775
 7584SOL     OW34210   4.620   1.305   9.524  0.1858 -0.4319  0.0681
 7584SOL    HW134211   4.663   1.223   9.548  0.3816  0.0084  1.2635
 7584SOL    HW234212   4.541   1.299   9.579  1.2075 -1.2964  1.4433
 7585SOL     OW34213   1.709   3.056  10.963  0.1616  0.1841 -0.0694
 7585SOL    HW134214   1.763   2.977  10.966 -1.3217 -0.9176 -2.0549
 7585SOL    HW234215   1.715   3.083  10.871 -2.3601  1.2817  0.0864
 7586SOL     OW34216   4.617   1.042  16.126  0.3309  0.3804 -0.1462
 7586SOL    HW134217   4.602   0.966  16.182  1.6551  0.0202 -0.2802
 7586SOL    HW234218   4.707   1.019  16.107 -0.2799 -0.0272 -2.5274
 7587SOL     OW34219   3.555   3.120   1.917 -0.4027  0.0887  0.1783
 7587SOL    HW134220   3.576   3.028   1.900  0.5046  0.6683 -1.7052
 7587SOL    HW234221   3.573   3.154   1.830  2.6534  0.9467  1.1370
 7588SOL     OW34222   0.670   1.850  15.794 -0.1718  0.1010 -0.4495
 7588SOL    HW134223   0.761   1.881  15.796 -1.1425  2.7687  1.9241
 7588SOL    HW234224   0.673   1.825  15.702 -0.5777 -0.8087 -0.2093
 7589SOL     OW34225   1.446   2.298   3.996 -0.5307 -0.0176 -0.0204
 7589SOL    HW134226   1.430   2.296   3.901 -2.6316 -0.9571  0.3416
 7589SOL    HW234227   1.503   2.224   4.013 -3.7818 -2.4807  0.0724
 7590SOL     OW34228   0.578   1.988  11.943 -0.4048  0.5798 -0.2337
 7590SOL    HW134229   0.523   1.909  11.942  1.3951 -0.6914  0.7785
 7590SOL    HW234230   0.663   1.961  11.977 -0.7029 -3.2902 -2.5669
 7591SOL     OW34231   2.992   0.334   7.963  0.5152 -1.0113  0.5380
 7591SOL    HW134232   2.907   0.358   8.000 -0.2208 -2.0674 -0.4440
 7591SOL    HW234233   2.991   0.379   7.879 -0.3952 -0.0744  1.0615
 7592SOL     OW34234   3.814   0.239   3.042 -0.0790 -0.1338 -0.3689
 7592SOL    HW134235   3.811   0.216   2.949 -3.0296  2.4636 -0.9034
 7592SOL    HW234236   3.840   0.331   3.038  0.9641 -0.4312 -0.5537
 7593SOL     OW34237   0.930   2.382  15.201 -0.0977 -0.3563 -0.6795
 7593SOL    HW134238   0.864   2.318  15.174 -1.0888  0.1703  0.5082
 7593SOL    HW234239   1.011   2.330  15.206 -0.0045 -0.0236  1.5382
 7594SOL     OW34240   2.973   1.016   3.430 -0.3028 -0.0565  0.0061
 7594SOL    HW134241   2.894   1.067   3.447  1.3428  1.9723  1.5691
 7594SOL    HW234242   3.007   1.068   3.357  2.6284  1.9181  2.8112
 7595SOL     OW34243   2.890   1.673   8.178 -0.0660 -0.6147 -0.4957
 7595SOL    HW134244   2.837   1.745   8.144 -0.5988 -0.2492  1.0774
 7595SOL    HW234245   2.866   1.682   8.271 -0.6993  2.1731 -0.9171
 7596SOL     OW34246   3.639   0.246   8.565 -0.4862  0.8976  0.1254
 7596SOL    HW134247   3.673   0.170   8.519  2.0495  0.4252  2.7075
 7596SOL    HW234248   3.558   0.214   8.603  0.0139 -0.7762 -0.2286
 7597SOL     OW34249   3.162   1.245   3.310  0.2390  0.5389  0.3197
 7597SOL    HW134250   3.093   1.297   3.349 -1.3279 -1.4629  0.2433
 7597SOL    HW234251   3.180   1.288   3.227  0.3473 -0.4764 -0.1904
 7598SOL     OW34252   0.230   1.757   6.582 -0.1673  0.3632 -0.1692
 7598SOL    HW134253   0.274   1.779   6.664 -1.2346  1.9275 -0.0197
 7598SOL    HW234254   0.284   1.805   6.519  0.3436  1.0537  0.8098
 7599SOL     OW34255   2.607   0.714   2.947  0.3064  0.7010  0.8705
 7599SOL    HW134256   2.686   0.681   2.905 -0.2758 -1.1674  1.2179
 7599SOL    HW234257   2.638   0.735   3.035  0.4438  1.0847  0.7272
 7600SOL     OW34258   4.375   3.687  12.737  0.5903  0.3975 -0.0636
 7600SOL    HW134259   4.334   3.603  12.753 -0.9838  0.6828 -2.5760
 7600SOL    HW234260   4.467   3.672  12.760  0.0233 -1.1375  1.2158
 7601SOL     OW34261   3.798   3.510   8.039  0.2725  0.0608  0.2040
 7601SOL    HW134262   3.862   3.501   8.109 -1.7154 -1.9467  1.7457
 7601SOL    HW234263   3.723   3.455   8.062  0.5259 -0.7011 -0.7683
 7602SOL     OW34264   3.748   2.656   4.230 -0.2477 -0.1394 -0.1660
 7602SOL    HW134265   3.801   2.724   4.188 -0.8594  1.2225  1.2810
 7602SOL    HW234266   3.812   2.587   4.247 -0.0885  0.1784  0.5129
 7603SOL     OW34267   0.883   1.496   2.407  0.4102 -0.5132 -0.0864
 7603SOL    HW134268   0.914   1.566   2.349 -0.6223  1.3852  1.6588
 7603SOL    HW234269   0.963   1.445   2.420  0.2126 -0.4320  1.3844
 7604SOL     OW34270   0.072   4.236   7.951 -0.2483 -0.1346  0.3528
 7604SOL    HW134271   0.052   4.320   7.910  2.3261 -1.9276 -4.5617
 7604SOL    HW234272   4.720   4.187   7.922 -0.9690  1.1212  0.1270
 7605SOL     OW34273   4.703   2.275  10.466  0.3775 -0.2267  0.3625
 7605SOL    HW134274   4.612   2.301  10.464  0.5903  0.5033  0.1974
 7605SOL    HW234275   0.019   2.348  10.419 -1.2377  0.5887  0.2362
 7606SOL     OW34276   3.579   1.332  12.421  0.2907  0.9543  0.8747
 7606SOL    HW134277   3.583   1.247  12.464  0.8756  0.9895  0.8882
 7606SOL    HW234278   3.500   1.323  12.368  0.0915 -0.6322  1.4304
 7607SOL     OW34279   3.289   4.401   1.251 -0.5454  0.4523  0.3677
 7607SOL    HW134280   3.197   4.411   1.226 -1.0762 -1.6573  1.5038
 7607SOL    HW234281   3.293   4.306   1.260  0.6556  0.1921 -2.7283
 7608SOL     OW34282   4.245   2.299   1.743  0.3835 -0.7453 -0.8235
 7608SOL    HW134283   4.237   2.394   1.747 -0.5866 -0.7676 -2.1264
 7608SOL    HW234284   4.175   2.281   1.680 -0.6232 -0.7387  0.2991
 7609SOL     OW34285   2.900   3.913   3.321 -0.7392  0.0699  0.4083
 7609SOL    HW134286   2.848   3.869   3.254 -1.3470  0.8586  0.3641
 7609SOL    HW234287   2.850   3.993   3.337 -2.5808 -1.6149  3.1299
 7610SOL     OW34288   4.650   0.038   5.674 -0.1019 -0.1581  0.3631
 7610SOL    HW134289   0.013   0.046   5.638 -0.4363 -1.0523 -0.6302
 7610SOL    HW234290   4.602   0.096   5.616  0.0031 -0.3967  0.0376
 7611SOL     OW34291   0.794   4.435  16.307 -0.1661 -0.2354 -0.1674
 7611SOL    HW134292   0.827   4.346  16.302 -1.6248 -0.8822  1.7646
 7611SOL    HW234293   0.876   4.483  16.292 -0.8791  0.5996 -1.3655
 7612SOL     OW34294   4.676   1.154   4.197 -0.0383  0.2373  0.2788
 7612SOL    HW134295   4.674   1.059   4.189 -0.1456  0.0415  2.5882
 7612SOL    HW234296   4.709   1.177   4.110 -0.4715  1.0137  0.3244
 7613SOL     OW34297   1.239   0.838   7.601 -0.8657 -0.6821 -0.2093
 7613SOL    HW134298   1.262   0.850   7.509 -1.1422 -1.2571 -0.3531
 7613SOL    HW234299   1.209   0.926   7.624  2.6171 -0.2418  2.7048
 7614SOL     OW34300   0.638   3.220   4.748  0.0599 -0.3674 -0.3648
 7614SOL    HW134301   0.733   3.221   4.737  0.0241 -1.4972 -0.8362
 7614SOL    HW234302   0.633   3.154   4.818  0.3022 -0.6458 -0.6088
 7615SOL     OW34303   0.499   3.758  11.535  0.7005 -0.3916  0.3140
 7615SOL    HW134304   0.561   3.708  11.481  0.2975 -1.2035  0.5944
 7615SOL    HW234305   0.457   3.803  11.462  0.5923  2.3722  2.0902
 7616SOL     OW34306   0.575   2.074   6.408  0.0877 -0.3774  0.4344
 7616SOL    HW134307   0.651   2.032   6.367  1.7612  1.9052  1.2005
 7616SOL    HW234308   0.507   2.089   6.343 -0.6849 -0.2304  1.2738
 7617SOL     OW34309   1.546   0.946   9.121 -0.1149 -0.1871  0.5022
 7617SOL    HW134310   1.506   0.985   9.199 -0.3069  1.6890 -0.5214
 7617SOL    HW234311   1.605   1.020   9.108 -0.6833  0.1731 -0.0431
 7618SOL     OW34312   3.831   1.772   7.747 -0.4503  0.8044  0.4752
 7618SOL    HW134313   3.803   1.844   7.691 -0.4781 -0.8347 -1.6166
 7618SOL    HW234314   3.751   1.727   7.774  0.4637 -2.1441 -1.7634
 7619SOL     OW34315   4.565   2.116   4.059 -0.6288  0.0332 -0.7061
 7619SOL    HW134316   4.502   2.060   4.104 -2.7804  0.8893 -2.6488
 7619SOL    HW234317   4.604   2.052   3.999  2.0565  0.4842  0.5844
 7620SOL     OW34318   3.182   3.399   5.952 -0.2421  0.1107  0.3142
 7620SOL    HW134319   3.087   3.396   5.947 -0.5126  3.2933  3.6114
 7620SOL    HW234320   3.198   3.340   6.026 -1.1317 -0.0532  0.3686
 7621SOL     OW34321   0.656   3.224   7.408 -0.4645  0.0633 -0.1347
 7621SOL    HW134322   0.575   3.174   7.423 -1.5131  2.3013  1.6977
 7621SOL    HW234323   0.637   3.300   7.463  1.1113  0.7899 -0.6243
 7622SOL     OW34324   4.671   2.374   8.357  0.0277  0.1283 -0.1117
 7622SOL    HW134325   4.724   2.299   8.331  0.2329 -0.3205  1.6521
 7622SOL    HW234326   0.012   2.444   8.367 -0.0978  0.4258 -1.2550
 7623SOL     OW34327   1.509   1.313   8.046 -0.0817 -0.5417 -0.6042
 7623SOL    HW134328   1.557   1.243   8.002  2.1399 -0.3439  1.4840
 7623SOL    HW234329   1.575   1.345   8.108  0.3871 -3.1627  0.2463
 7624SOL     OW34330   1.182   3.778   3.335  0.5048  0.3376 -0.3004
 7624SOL    HW134331   1.117   3.756   3.401  0.1760 -0.2104 -0.8041
 7624SOL    HW234332   1.141   3.742   3.256 -2.7558 -0.0442  1.5802
 7625SOL     OW34333   4.678   3.345  17.404 -0.2979  0.2616 -0.0220
 7625SOL    HW134334   4.674   3.251  17.384  1.7926  0.1807 -0.1149
 7625SOL    HW234335   4.598   3.375  17.363 -0.3944 -0.7604 -0.5808
 7626SOL     OW34336   2.062   0.249  13.284 -0.2464 -0.1724 -0.3762
 7626SOL    HW134337   2.014   0.326  13.316  2.3830  0.7276  1.3491
 7626SOL    HW234338   2.046   0.251  13.190 -0.6645  0.8615 -0.2932
 7627SOL     OW34339   1.839   3.174   7.556  0.4974  0.7501  0.1724
 7627SOL    HW134340   1.921   3.219   7.536 -0.5067  2.1723 -0.7491
 7627SOL    HW234341   1.839   3.094   7.504 -0.6282  0.9146 -0.0732
 7628SOL     OW34342   4.029   1.774   2.276 -0.2016  0.2589 -0.1404
 7628SOL    HW134343   4.068   1.692   2.307  2.4101  2.1577  1.5725
 7628SOL    HW234344   4.061   1.794   2.188  2.5501 -1.3216  0.4812
 7629SOL     OW34345   1.443   2.821   3.005 -0.6681  0.0338  0.3908
 7629SOL    HW134346   1.444   2.734   2.965 -2.0919  1.1161 -1.9800
 7629SOL    HW234347   1.505   2.867   2.948 -0.1996 -2.4155 -1.0515
 7630SOL     OW34348   3.613   3.699   4.815 -0.5695 -0.3294  0.4569
 7630SOL    HW134349   3.640   3.779   4.860 -0.6929  0.5818 -1.0498
 7630SOL    HW234350   3.638   3.717   4.724 -1.0672 -0.3713  0.3145
 7631SOL     OW34351   1.011   0.432  17.327 -0.0900  0.8724 -0.9417
 7631SOL    HW134352   1.027   0.353  17.379 -0.0591  0.8195 -1.0321
 7631SOL    HW234353   0.940   0.406  17.268  1.3375 -1.1280 -1.7621
 7632SOL     OW34354   0.210   3.786   2.063 -0.2558  0.2675  0.5962
 7632SOL    HW134355   0.228   3.706   2.013 -0.5406  0.2061  0.5939
 7632SOL    HW234356   0.272   3.840   2.014  0.0984 -1.6194 -1.0327
 7633SOL     OW34357   0.512   3.098  16.731 -0.0889 -0.5507  0.2297
 7633SOL    HW134358   0.531   3.169  16.670  0.6352 -2.9017 -2.2649
 7633SOL    HW234359   0.436   3.057  16.689  0.7315 -0.2306 -1.5718
 7634SOL     OW34360   2.661   0.251   8.505 -0.0913  0.2544 -0.3339
 7634SOL    HW134361   2.712   0.170   8.511  0.5429  0.6874  0.0668
 7634SOL    HW234362   2.677   0.281   8.594 -2.5812  0.0290  0.1894
 7635SOL     OW34363   4.142   0.727   3.062 -0.1237 -0.4536 -0.0985
 7635SOL    HW134364   4.124   0.800   3.002 -0.2600  0.4048  0.9804
 7635SOL    HW234365   4.063   0.735   3.116 -0.4315 -0.5349 -0.5342
 7636SOL     OW34366   4.197   1.722  14.708  0.3251  0.8112 -0.4016
 7636SOL    HW134367   4.119   1.754  14.753 -0.4783 -0.8934 -0.5924
 7636SOL    HW234368   4.172   1.722  14.615  1.3822 -3.1200 -0.6718
 7637SOL     OW34369   3.130   2.701   2.578  0.3073  0.3136  0.7874
 7637SOL    HW134370   3.169   2.668   2.659  0.8398 -0.2606  0.2975
 7637SOL    HW234371   3.161   2.634   2.518 -1.1153  0.2723  0.1084
 7638SOL     OW34372   3.450   2.143  14.757  0.2848  0.0973  0.1212
 7638SOL    HW134373   3.355   2.133  14.753  0.1271  0.5936  3.0048
 7638SOL    HW234374   3.467   2.159  14.664  0.8818 -0.2272  0.1725
 7639SOL     OW34375   3.104   2.296   3.095  0.1776 -0.2023  0.4839
 7639SOL    HW134376   3.174   2.308   3.159  1.4163  0.2495 -0.9745
 7639SOL    HW234377   3.033   2.353   3.124 -0.7795 -1.9261  1.5374
 7640SOL     OW34378   3.715   1.592  14.005 -0.2624 -0.4976 -0.7110
 7640SOL    HW134379   3.709   1.675  14.052 -0.8552 -0.9928  0.0847
 7640SOL    HW234380   3.714   1.524  14.071 -0.4016  1.0694  0.9002
 7641SOL     OW34381   2.264   1.444   2.765  0.3346 -0.2224 -0.2468
 7641SOL    HW134382   2.175   1.450   2.800  1.1047  0.4526  1.5709
 7641SOL    HW234383   2.311   1.464   2.846  3.6497  0.3674 -2.3177
 7642SOL     OW34384   2.889   4.230   1.662 -0.4606 -0.0701 -0.2242
 7642SOL    HW134385   2.930   4.224   1.749 -0.7955 -2.6213 -0.2347
 7642SOL    HW234386   2.949   4.174   1.612  1.6916  0.6523  1.5350
 7643SOL     OW34387   0.540   0.772   2.473 -0.2107 -0.1542 -0.1214
 7643SOL    HW134388   0.615   0.714   2.459 -1.5594 -1.8545 -0.3565
 7643SOL    HW234389   0.519   0.792   2.382  0.4143  0.4320 -0.1382
 7644SOL     OW34390   2.093   3.819   8.592  0.0326 -0.9312  0.2968
 7644SOL    HW134391   2.176   3.843   8.633  0.3262  0.8675 -1.3428
 7644SOL    HW234392   2.053   3.906   8.580  0.5868 -0.9347 -1.5835
 7645SOL     OW34393   2.424   0.011   5.233 -0.3817  0.5526 -0.1526
 7645SOL    HW134394   2.492   0.022   5.300  1.3496 -0.0871 -1.8068
 7645SOL    HW234395   2.370   4.670   5.277  0.7022 -1.3890 -1.7254
 7646SOL     OW34396   2.290   4.192   2.082 -0.1600 -0.1718 -0.1425
 7646SOL    HW134397   2.200   4.165   2.062 -0.6256  1.7614 -0.6265
 7646SOL    HW234398   2.286   4.284   2.058 -2.1630  0.2130  1.6725
 7647SOL     OW34399   1.425   1.227   6.508 -0.4168 -0.3227 -0.3738
 7647SOL    HW134400   1.492   1.165   6.479 -0.9686  0.2100 -2.7564
 7647SOL    HW234401   1.449   1.306   6.460  0.0575  0.1729  0.6845
 7648SOL     OW34402   2.760   0.360   9.822 -0.0222 -0.0829 -0.1241
 7648SOL    HW134403   2.788   0.450   9.810  2.1662 -0.7166  0.3067
 7648SOL    HW234404   2.672   0.369   9.786  0.5550  2.5563 -0.8380
 7649SOL     OW34405   4.390   0.323  11.513 -0.0086  0.1051  0.3057
 7649SOL    HW134406   4.474   0.340  11.471 -1.2350  0.5372 -1.9773
 7649SOL    HW234407   4.335   0.380  11.459  1.5914  2.1339  0.8633
 7650SOL     OW34408   0.379   3.714   9.873 -0.4570 -0.1123 -0.3337
 7650SOL    HW134409   0.381   3.619   9.863  0.3875  0.0008 -1.2227
 7650SOL    HW234410   0.343   3.733   9.787 -2.0305  1.8879  0.7721
 7651SOL     OW34411   0.533   2.411  16.327  0.4667  0.0979  0.4029
 7651SOL    HW134412   0.530   2.344  16.258 -0.5315  2.6699 -2.0399
 7651SOL    HW234413   0.450   2.390  16.370  0.3630  1.0247  0.6546
 7652SOL     OW34414   3.877   2.637  15.879  0.6817 -0.1743  0.1914
 7652SOL    HW134415   3.821   2.698  15.926  0.6247 -0.4344  0.4567
 7652SOL    HW234416   3.964   2.655  15.914  0.8295 -1.3715  0.4538
 7653SOL     OW34417   3.591   0.572   5.841  0.7074  0.0941 -0.7725
 7653SOL    HW134418   3.520   0.509   5.850  0.6587  0.1087 -1.0815
 7653SOL    HW234419   3.629   0.538   5.760  3.6732  2.7910 -0.5430
 7654SOL     OW34420   0.828   0.667   5.279 -0.2567  0.4208 -0.0801
 7654SOL    HW134421   0.893   0.599   5.267 -2.4673 -1.5411 -0.8957
 7654SOL    HW234422   0.878   0.722   5.339 -1.2883  0.2423  0.9392
 7655SOL     OW34423   1.868   0.582   2.802  0.5917  0.3018 -0.1607
 7655SOL    HW134424   1.934   0.536   2.855  1.1484 -0.9524 -1.9286
 7655SOL    HW234425   1.890   0.536   2.721 -1.6516 -2.9013  1.0356
 7656SOL     OW34426   1.464   0.106   2.170 -0.1558 -0.6657  0.2757
 7656SOL    HW134427   1.397   0.042   2.147  0.2401 -0.1317 -2.3484
 7656SOL    HW234428   1.489   0.148   2.087 -0.7253  1.0592  0.9675
 7657SOL     OW34429   1.205   1.093   3.480 -0.3919  0.1813  0.8300
 7657SOL    HW134430   1.225   1.063   3.391 -1.7888 -2.9707  1.5974
 7657SOL    HW234431   1.284   1.085   3.533 -0.7123 -2.5118  0.8661
 7658SOL     OW34432   2.676   3.636   7.067 -0.5311 -0.4524 -0.0238
 7658SOL    HW134433   2.706   3.715   7.022 -2.2515 -0.0416 -0.4566
 7658SOL    HW234434   2.719   3.562   7.025 -0.4006 -0.2502 -0.2412
 7659SOL     OW34435   4.024   2.504   3.788  0.2463  0.4532  0.0262
 7659SOL    HW134436   3.991   2.568   3.725 -1.4154  1.8021  2.2894
 7659SOL    HW234437   3.942   2.485   3.833 -0.7483 -0.4379 -2.1547
 7660SOL     OW34438   3.838   0.166   6.105  0.8031  0.3008 -0.5080
 7660SOL    HW134439   3.883   0.194   6.185 -0.0029 -0.9708  0.3773
 7660SOL    HW234440   3.791   0.086   6.126  0.3098  0.3255 -1.5397
 7661SOL     OW34441   2.655   4.541   7.374 -0.1152 -0.6333 -0.2800
 7661SOL    HW134442   2.622   4.620   7.330  1.6129 -0.6420 -1.5965
 7661SOL    HW234443   2.742   4.571   7.402  0.3295 -3.3581  1.2085
 7662SOL     OW34444   2.430   0.427  10.330 -0.1151 -0.4151 -0.1389
 7662SOL    HW134445   2.336   0.418  10.310 -0.2015 -1.5783  0.7908
 7662SOL    HW234446   2.454   0.335  10.338 -1.9344 -0.6327  3.0105
 7663SOL     OW34447   2.245   0.184   5.568  0.0059  0.0426 -0.3611
 7663SOL    HW134448   2.305   0.251   5.535  2.7452 -1.6904  1.0910
 7663SOL    HW234449   2.256   0.201   5.662 -2.1235 -2.2407  0.3216
 7664SOL     OW34450   0.703   1.415   2.828 -0.9551  0.1606  0.4292
 7664SOL    HW134451   0.645   1.362   2.774 -1.4594 -0.0967  1.2238
 7664SOL    HW234452   0.721   1.480   2.759  1.1111  0.2944  1.0833
 7665SOL     OW34453   2.982   0.067   7.206 -0.5009 -0.0214  0.2832
 7665SOL    HW134454   3.030   0.150   7.213 -0.3072 -0.2341  1.5976
 7665SOL    HW234455   2.913   0.087   7.143  0.4175  0.0517 -0.6822
 7666SOL     OW34456   0.358   1.506   8.970 -0.0742 -0.0125  0.4818
 7666SOL    HW134457   0.270   1.494   9.006 -0.5469  0.1798 -0.5841
 7666SOL    HW234458   0.384   1.577   9.028  2.0612  0.1537 -0.6738
 7667SOL     OW34459   2.565   0.274   0.701 -0.0908 -0.0886  0.3135
 7667SOL    HW134460   2.540   0.344   0.761  3.9398  0.2819  1.5474
 7667SOL    HW234461   2.657   0.273   0.728 -0.2372 -1.4279  0.7553
 7668SOL     OW34462   0.698   3.881   6.004 -0.1738 -0.0681  0.0258
 7668SOL    HW134463   0.772   3.846   5.956 -0.6370 -0.4211 -0.4234
 7668SOL    HW234464   0.710   3.968   5.964 -1.6527  0.7188  1.2986
 7669SOL     OW34465   3.268   1.948   7.575  0.2308 -0.9050  0.1293
 7669SOL    HW134466   3.356   1.930   7.608  0.3281 -2.5212 -1.0200
 7669SOL    HW234467   3.281   1.956   7.480  0.1920  0.5823  0.2365
 7670SOL     OW34468   3.897   1.078   4.422  0.1528  0.0746  0.4767
 7670SOL    HW134469   3.872   1.016   4.491 -1.1871  0.1172  0.0236
 7670SOL    HW234470   3.960   1.129   4.474 -0.0196  0.8788 -0.1084
 7671SOL     OW34471   0.127   3.485  13.511  0.5791 -0.0551 -0.0138
 7671SOL    HW134472   0.058   3.547  13.535 -0.2386 -1.1261  0.4119
 7671SOL    HW234473   0.198   3.546  13.493  1.8935 -0.6125  3.1887
 7672SOL     OW34474   1.501   2.527  13.650  0.0219  0.0419 -0.6739
 7672SOL    HW134475   1.441   2.602  13.645  2.2716  1.8710 -0.1214
 7672SOL    HW234476   1.588   2.563  13.632 -0.9238  3.1312  0.9651
 7673SOL     OW34477   1.763   4.380   1.025  0.0647 -0.1127  0.1624
 7673SOL    HW134478   1.675   4.358   0.997 -0.3636  1.3603  0.3452
 7673SOL    HW234479   1.810   4.299   1.005 -1.3437 -1.0264  0.6119
 7674SOL     OW34480   2.588   3.596   6.751  0.1893 -0.3090  0.1768
 7674SOL    HW134481   2.604   3.690   6.745  1.2175 -0.3993  1.4295
 7674SOL    HW234482   2.515   3.590   6.689 -0.5189  3.5960  0.6576
 7675SOL     OW34483   1.655   0.293   9.254 -0.4178 -0.0368  0.2439
 7675SOL    HW134484   1.583   0.232   9.269  1.0087 -1.3360  1.8345
 7675SOL    HW234485   1.648   0.325   9.164 -2.1952 -0.4055  0.2670
 7676SOL     OW34486   3.232   0.586   8.343  0.1483  0.7642 -0.4714
 7676SOL    HW134487   3.239   0.530   8.266 -2.2963  1.9600 -1.5722
 7676SOL    HW234488   3.302   0.647   8.318  0.4611  0.3637 -0.5703
 7677SOL     OW34489   0.708   0.115   3.955 -0.1469 -0.4869  0.2061
 7677SOL    HW134490   0.752   0.046   3.905  0.7700  1.5035 -1.7593
 7677SOL    HW234491   0.662   0.161   3.885  0.0181  0.0870  0.4819
 7678SOL     OW34492   4.127   2.947  14.041 -0.1678  0.5615 -0.4407
 7678SOL    HW134493   4.202   2.887  14.035  0.8780  1.6675  1.4812
 7678SOL    HW234494   4.065   2.889  14.085  0.5169  1.0934  1.2396
 7679SOL     OW34495   4.505   0.417   3.819 -0.3964 -0.2243 -0.3087
 7679SOL    HW134496   4.496   0.390   3.910 -0.6033  0.4035 -0.1456
 7679SOL    HW234497   4.450   0.495   3.813 -1.2499 -0.6890  1.5096
 7680SOL     OW34498   1.715   2.368   0.941  0.6914 -0.9509  0.3279
 7680SOL    HW134499   1.747   2.298   0.997  1.4467 -1.7895 -1.1503
 7680SOL    HW234500   1.769   2.370   0.862 -0.1409  0.7895 -0.1988
 7681SOL     OW34501   4.508   1.693  15.881  0.7224 -0.0532  0.6559
 7681SOL    HW134502   4.457   1.614  15.862 -1.1670  1.5307 -0.8621
 7681SOL    HW234503   4.595   1.673  15.844 -1.1920 -2.4237 -2.6059
 7682SOL     OW34504   2.743   0.546   1.876  0.6502  0.3791 -0.8365
 7682SOL    HW134505   2.811   0.572   1.814  2.7321 -1.8822  0.5391
 7682SOL    HW234506   2.715   0.629   1.914  0.4500  0.4923 -1.2253
 7683SOL     OW34507   3.041   4.381  17.613 -0.1258 -0.1347 -0.0840
 7683SOL    HW134508   3.079   4.296  17.592 -0.9528 -0.7271  0.7919
 7683SOL    HW234509   3.003   4.370  17.701 -0.4498  0.3133 -0.1691
 7684SOL     OW34510   3.344   3.237  17.337  0.3053 -0.6056 -0.6051
 7684SOL    HW134511   3.434   3.248  17.304  0.8494 -0.0519  1.0834
 7684SOL    HW234512   3.329   3.144  17.324 -2.1474 -0.2402 -0.4525
 7685SOL     OW34513   4.307   4.126   5.198 -0.2066  0.3363  0.3715
 7685SOL    HW134514   4.327   4.057   5.135  1.6420  0.3851  0.9018
 7685SOL    HW234515   4.310   4.210   5.152  1.5632 -1.4338 -2.6893
 7686SOL     OW34516   3.101   4.023   4.850  0.3652  0.5290  0.2309
 7686SOL    HW134517   3.145   3.938   4.852 -0.5573  0.0666  0.9803
 7686SOL    HW234518   3.110   4.045   4.757 -1.5337  0.2423 -0.0188
 7687SOL     OW34519   3.174   1.781  16.041  0.3334  0.1465 -0.2175
 7687SOL    HW134520   3.203   1.824  15.960  1.3007  0.3102  0.2142
 7687SOL    HW234521   3.262   1.761  16.073  0.2949  0.4068  0.0507
 7688SOL     OW34522   0.320   1.279   0.244  0.4756 -0.9922  0.1095
 7688SOL    HW134523   0.365   1.319   0.318 -0.5207 -1.1513  0.8158
 7688SOL    HW234524   0.233   1.317   0.262  1.2233  1.4542 -1.3695
 7689SOL     OW34525   3.057   2.490   2.244 -0.1717 -0.0862  0.4450
 7689SOL    HW134526   3.127   2.538   2.199  0.7784  0.0578  2.0871
 7689SOL    HW234527   3.098   2.418   2.292 -0.8230 -0.2770  0.7123
 7690SOL     OW34528   3.986   4.375  14.638  0.4386 -0.5964  0.4092
 7690SOL    HW134529   4.058   4.388  14.575  1.0155 -3.1129  0.5655
 7690SOL    HW234530   3.904   4.387  14.590 -0.2797 -5.0262  0.5659
 7691SOL     OW34531   4.560   4.411   3.711 -0.1092 -0.3274  0.1910
 7691SOL    HW134532   4.585   4.426   3.619  0.5251  0.1136  0.4364
 7691SOL    HW234533   4.473   4.374   3.697 -0.2887 -0.3591  1.4776
 7692SOL     OW34534   2.606   0.379  10.542  0.6202 -0.4898  0.4605
 7692SOL    HW134535   2.661   0.456  10.553  1.4173 -0.7535 -1.6323
 7692SOL    HW234536   2.540   0.415  10.482  1.5122  2.0906  1.0540
 7693SOL     OW34537   4.693   2.641  14.838 -0.8103 -0.4876 -0.1055
 7693SOL    HW134538   0.053   2.656  14.798  0.4656  0.9547  3.0738
 7693SOL    HW234539   4.683   2.713  14.901  0.4431  0.8986 -1.4995
 7694SOL     OW34540   4.030   1.285  16.221  0.4113 -0.3610  0.5458
 7694SOL    HW134541   4.007   1.283  16.128  0.0229 -3.1632  0.7071
 7694SOL    HW234542   4.123   1.263  16.213  0.5071  0.2244 -0.0114
 7695SOL     OW34543   0.653   1.995   3.563 -0.2432 -0.5432  0.0950
 7695SOL    HW134544   0.586   2.045   3.515 -0.2348  0.3490  1.0092
 7695SOL    HW234545   0.659   2.054   3.638  0.1366  0.3238 -0.6191
 7696SOL     OW34546   3.724   1.389   0.791  0.5538  0.3995  0.7495
 7696SOL    HW134547   3.760   1.423   0.709 -1.5702 -1.4811 -0.9344
 7696SOL    HW234548   3.684   1.467   0.829 -0.6867 -0.4084  1.0901
 7697SOL     OW34549   2.969   4.039   4.550  0.2161 -0.7694 -0.2974
 7697SOL    HW134550   2.949   4.132   4.559  1.2531 -0.5133 -0.7074
 7697SOL    HW234551   2.889   3.996   4.519 -1.3294  1.7068  0.2188
 7698SOL     OW34552   1.048   1.789   7.116  0.4719  0.5691 -0.3239
 7698SOL    HW134553   1.076   1.698   7.124  0.2426  0.3527 -1.9725
 7698SOL    HW234554   1.037   1.803   7.022 -0.5665 -0.2211 -0.3230
 7699SOL     OW34555   3.509   3.648   9.976 -0.0563  0.4213  0.6718
 7699SOL    HW134556   3.574   3.708  10.012 -0.4854  1.6825 -0.6665
 7699SOL    HW234557   3.546   3.560   9.970  1.0397  0.7763  2.3236
 7700SOL     OW34558   4.468   4.030   0.374  0.1161  0.3020 -0.2928
 7700SOL    HW134559   4.503   4.108   0.418  1.5565 -1.6214  2.0159
 7700SOL    HW234560   4.539   4.019   0.311 -1.9934 -0.0431 -2.6401
 7701SOL     OW34561   3.266   4.229   4.937  0.0674  0.2397 -0.0716
 7701SOL    HW134562   3.199   4.165   4.911 -1.5994  1.8988  0.1383
 7701SOL    HW234563   3.268   4.287   4.860  2.7893 -1.2136 -1.0839
 7702SOL     OW34564   4.337   2.965   2.779  0.2218 -0.7158  0.0584
 7702SOL    HW134565   4.246   2.994   2.791  0.7334  1.1602 -0.5129
 7702SOL    HW234566   4.363   3.009   2.860 -0.9996 -0.3774  0.2794
 7703SOL     OW34567   0.239   2.336   8.131 -0.4890  0.2896 -0.5202
 7703SOL    HW134568   0.260   2.343   8.038 -1.5527 -0.7048 -0.8337
 7703SOL    HW234569   0.223   2.242   8.131 -0.0158  0.1992 -1.7021
 7704SOL     OW34570   0.363   3.431   5.426 -0.0226  0.4484 -0.1264
 7704SOL    HW134571   0.269   3.441   5.413  0.0797  0.4410 -0.8765
 7704SOL    HW234572   0.393   3.520   5.410  0.9292  0.1440 -0.0903
 7705SOL     OW34573   2.637   1.255   7.720  0.3210 -0.1590  0.0797
 7705SOL    HW134574   2.591   1.230   7.639  0.6614  0.4119 -0.2941
 7705SOL    HW234575   2.567   1.294   7.773  1.4072  1.0855  0.5896
 7706SOL     OW34576   0.125   4.239   2.151  0.2807 -0.6799  0.2529
 7706SOL    HW134577   0.130   4.311   2.088 -1.6157 -1.8019 -1.1650
 7706SOL    HW234578   0.031   4.221   2.160  0.1891 -0.6491 -0.6479
 7707SOL     OW34579   1.910   2.975   7.378 -0.0869 -0.3105 -0.3172
 7707SOL    HW134580   1.936   2.886   7.354 -2.7564 -1.0663 -0.3714
 7707SOL    HW234581   1.817   2.972   7.358 -0.4033  0.0322  1.0559
 7708SOL     OW34582   0.273   0.984  13.563  0.0515  0.4708 -0.2871
 7708SOL    HW134583   0.201   0.940  13.608  0.1247  0.9515  0.2908
 7708SOL    HW234584   0.234   1.058  13.517 -1.0149  0.2612  0.3018
 7709SOL     OW34585   0.862   3.099   3.064 -0.1621  0.1187  0.2323
 7709SOL    HW134586   0.910   3.059   2.992 -0.4781  1.0090 -0.4701
 7709SOL    HW234587   0.802   3.157   3.018  0.0286  1.0806  1.1834
 7710SOL     OW34588   3.094   4.129   7.369 -0.3053 -0.5752  0.2538
 7710SOL    HW134589   3.015   4.093   7.410 -0.2530  0.4577  1.2721
 7710SOL    HW234590   3.065   4.143   7.279  1.8484 -0.9837 -0.4994
 7711SOL     OW34591   2.933   2.088   1.006 -0.0055  0.5357 -0.3473
 7711SOL    HW134592   2.862   2.027   1.026  0.7998 -0.3320 -0.1495
 7711SOL    HW234593   2.876   2.165   1.005 -1.6535 -0.6590  0.7103
 7712SOL     OW34594   0.076   1.278  11.544 -0.5734 -0.1940  0.3157
 7712SOL    HW134595   0.063   1.227  11.624  1.1390  1.3112  1.5571
 7712SOL    HW234596   4.722   1.251  11.497  0.1280 -1.1358 -0.3108
 7713SOL     OW34597   4.153   1.941   3.551  0.3570  0.0447 -0.2484
 7713SOL    HW134598   4.103   1.915   3.473  0.6387  0.1600 -0.4688
 7713SOL    HW234599   4.077   1.957   3.607 -0.3318 -0.1155 -1.1336
 7714SOL     OW34600   3.607   1.111   5.580 -0.0177 -0.2234 -0.8795
 7714SOL    HW134601   3.643   1.110   5.491 -1.7054  0.1084 -1.5797
 7714SOL    HW234602   3.558   1.029   5.567 -2.1405  0.9069  0.0058
 7715SOL     OW34603   2.492   4.393  10.226 -0.4679  0.3686  0.2678
 7715SOL    HW134604   2.472   4.484  10.244  0.2458  1.1224 -2.6023
 7715SOL    HW234605   2.478   4.352  10.311 -0.8178  0.7203  0.3744
 7716SOL     OW34606   1.013   3.350   9.694  0.3185  1.0956  0.5518
 7716SOL    HW134607   1.013   3.435   9.649 -0.0324  0.4499 -0.6530
 7716SOL    HW234608   1.096   3.317   9.661 -0.1065  1.5006 -0.9254
 7717SOL     OW34609   3.831   3.872  10.349  0.0800 -0.1199 -0.0965
 7717SOL    HW134610   3.807   3.953  10.395  0.5295 -0.9637  1.6136
 7717SOL    HW234611   3.846   3.804  10.414 -0.8737  0.6459  0.9321
 7718SOL     OW34612   2.293   0.555   8.971  0.3050 -0.0124 -0.5605
 7718SOL    HW134613   2.310   0.602   8.889  0.7043 -1.2971 -1.2073
 7718SOL    HW234614   2.199   0.541   8.974  0.0268  1.8013 -0.5105
 7719SOL     OW34615   3.653   2.718  15.107 -0.1610  0.2596 -0.1055
 7719SOL    HW134616   3.731   2.674  15.074 -0.0924 -1.1718  1.9404
 7719SOL    HW234617   3.596   2.722  15.030 -0.4270 -2.4043 -0.0179
 7720SOL     OW34618   0.959   2.011   5.348 -0.2729 -0.3528  0.6961
 7720SOL    HW134619   1.007   2.078   5.397 -1.5220  0.3038  1.0206
 7720SOL    HW234620   0.920   2.059   5.274 -0.1003  1.5526  1.8338
 7721SOL     OW34621   0.402   3.880   2.536  0.2547 -0.2421  0.0514
 7721SOL    HW134622   0.363   3.797   2.509  0.4936 -0.8804  1.6792
 7721SOL    HW234623   0.354   3.942   2.480  1.4017  0.9173  0.3377
 7722SOL     OW34624   2.124   1.646   4.847 -0.1335 -0.2930 -0.0262
 7722SOL    HW134625   2.146   1.647   4.754 -0.5902  2.5470 -0.1017
 7722SOL    HW234626   2.172   1.569   4.877 -1.4347 -0.8555  0.6231
 7723SOL     OW34627   1.683   4.231   8.018 -0.0464  0.6865  0.4759
 7723SOL    HW134628   1.738   4.264   7.948  0.0029  0.8999  0.6173
 7723SOL    HW234629   1.690   4.295   8.088  2.1389 -1.4653  2.2302
 7724SOL     OW34630   4.368   3.639   2.699  0.0332 -0.0051  0.0646
 7724SOL    HW134631   4.357   3.554   2.657  1.6539  1.1936 -2.7904
 7724SOL    HW234632   4.274   3.643   2.717  0.4756  1.7612  2.0885
 7725SOL     OW34633   4.437   0.462   7.031  0.1596  0.2114  0.3377
 7725SOL    HW134634   4.470   0.546   6.998  0.6554 -0.0325  0.2208
 7725SOL    HW234635   4.372   0.447   6.962  1.5402 -2.1638 -0.4249
 7726SOL     OW34636   0.227   4.106  12.717 -0.1686 -0.6580 -0.3465
 7726SOL    HW134637   0.201   4.062  12.637 -0.8012  0.3659 -0.7022
 7726SOL    HW234638   0.147   4.118  12.768 -1.4773  0.1492 -2.6194
 7727SOL     OW34639   2.367   1.071   9.817 -0.4526 -0.1520  0.3650
 7727SOL    HW134640   2.283   1.049   9.857 -0.4258 -0.7697  0.0803
 7727SOL    HW234641   2.345   1.109   9.732 -2.4195 -0.6721  0.6475
 7728SOL     OW34642   1.588   4.362   5.076  0.2351 -0.1056  0.5967
 7728SOL    HW134643   1.559   4.294   5.015  0.4328  1.8367 -1.6865
 7728SOL    HW234644   1.540   4.346   5.157 -0.9529 -2.5031 -0.5854
 7729SOL     OW34645   3.853   0.617   7.840  0.2045  0.2737 -0.3346
 7729SOL    HW134646   3.795   0.573   7.901 -0.4024  1.1144 -0.2958
 7729SOL    HW234647   3.809   0.700   7.819 -0.4536 -0.1632 -0.6566
 7730SOL     OW34648   0.627   0.698   8.569  0.0232  0.1996 -0.2718
 7730SOL    HW134649   0.718   0.702   8.542  0.5061 -0.4208  1.2384
 7730SOL    HW234650   0.642   0.672   8.660  2.3370  0.4313 -0.6004
 7731SOL     OW34651   4.069   1.816   3.139 -0.1796  0.3984  0.5730
 7731SOL    HW134652   4.090   1.831   3.046  2.2277 -0.6766  0.9544
 7731SOL    HW234653   4.129   1.746   3.164  0.5366  1.0804  0.7792
 7732SOL     OW34654   3.333   3.216   0.878 -0.1207  0.2342 -0.4663
 7732SOL    HW134655   3.297   3.298   0.844  1.1810  0.7179 -0.6730
 7732SOL    HW234656   3.332   3.155   0.804  2.4130 -0.3058 -0.0420
 7733SOL     OW34657   3.926   4.671   7.535 -0.4513  0.4020  0.0222
 7733SOL    HW134658   3.856   4.621   7.578  0.6676  0.2538  1.7006
 7733SOL    HW234659   3.878   0.025   7.511  0.9197  1.4479  0.7046
 7734SOL     OW34660   2.982   3.846   2.811  0.1456  0.2273 -0.4631
 7734SOL    HW134661   3.036   3.815   2.739 -2.4198 -0.8527 -1.8942
 7734SOL    HW234662   2.894   3.846   2.773 -0.4303 -1.1408  0.8628
 7735SOL     OW34663   0.309   0.681  14.912  0.2960 -0.2880 -0.2119
 7735SOL    HW134664   0.305   0.693  14.817 -0.4649 -2.3121 -0.4273
 7735SOL    HW234665   0.279   0.591  14.921 -1.3022  0.2127 -0.4599
 7736SOL     OW34666   3.127   2.019  16.457  0.0123 -0.2023  0.1912
 7736SOL    HW134667   3.121   1.944  16.398 -1.8084  1.5280 -1.8193
 7736SOL    HW234668   3.102   1.975  16.538 -0.4019  1.1943  0.8173
 7737SOL     OW34669   0.045   3.882   5.688 -0.6281 -0.0375  0.0225
 7737SOL    HW134670   4.691   3.873   5.635 -1.1294  0.9748  0.5937
 7737SOL    HW234671   0.020   3.960   5.738 -0.0091  0.0587  0.1907
 7738SOL     OW34672   2.917   2.155   7.350 -0.2861 -0.1711 -0.3306
 7738SOL    HW134673   2.855   2.122   7.285  0.4593  1.3299 -1.8053
 7738SOL    HW234674   2.994   2.186   7.304 -0.4533 -0.2794 -0.6812
 7739SOL     OW34675   3.083   1.474   5.278  0.0277  0.0151 -0.0509
 7739SOL    HW134676   3.079   1.391   5.326  2.1268 -0.0592 -0.0290
 7739SOL    HW234677   3.149   1.448   5.214 -0.1238 -0.1244 -0.1513
 7740SOL     OW34678   2.987   0.756   4.237 -0.7244 -0.5985  0.1734
 7740SOL    HW134679   3.047   0.685   4.215 -0.8341 -0.2248 -1.2993
 7740SOL    HW234680   2.905   0.718   4.205 -0.7824  1.6167 -2.3057
 7741SOL     OW34681   0.762   0.842   3.201 -0.2400  0.1097  0.5225
 7741SOL    HW134682   0.799   0.887   3.125  0.9368 -0.0329  1.0091
 7741SOL    HW234683   0.837   0.784   3.219  0.0792 -0.2114 -1.9402
 7742SOL     OW34684   2.398   3.455   3.049 -0.2420 -0.6065  0.6803
 7742SOL    HW134685   2.310   3.424   3.070 -1.1445  0.1409 -1.9926
 7742SOL    HW234686   2.392   3.550   3.042 -3.4729 -0.8796 -0.2904
 7743SOL     OW34687   1.038   4.567  16.315  0.1558 -0.5295 -0.5113
 7743SOL    HW134688   1.036   4.532  16.405 -1.3673  1.6531  0.3133
 7743SOL    HW234689   1.090   4.645  16.333  2.6344 -2.8305  2.4001
 7744SOL     OW34690   4.386   3.516   8.478 -0.2037  0.0499  0.0147
 7744SOL    HW134691   4.360   3.602   8.512  2.6002  0.8945  0.0268
 7744SOL    HW234692   4.364   3.453   8.546  2.7331 -1.7612 -0.7206
 7745SOL     OW34693   1.289   1.776   6.167 -0.5253  0.2585 -0.1530
 7745SOL    HW134694   1.307   1.697   6.218  0.8943  0.2317 -0.7081
 7745SOL    HW234695   1.375   1.792   6.130 -1.6669  1.6864 -2.1908
 7746SOL     OW34696   3.128   2.296  16.513 -0.4765  0.1593 -0.0529
 7746SOL    HW134697   3.118   2.203  16.492  0.9590  0.3132 -1.4026
 7746SOL    HW234698   3.040   2.318  16.543 -0.7934  0.6952 -1.3619
 7747SOL     OW34699   0.099   1.932   3.633  0.2716  0.0932 -0.1313
 7747SOL    HW134700   0.089   1.856   3.575 -1.1834 -1.0845  1.6798
 7747SOL    HW234701   0.120   1.897   3.719  1.1115 -1.3685 -0.9462
 7748SOL     OW34702   3.359   0.210   9.213  0.5200 -0.3574  0.2284
 7748SOL    HW134703   3.369   0.117   9.234 -0.8120 -0.9806 -1.8801
 7748SOL    HW234704   3.266   0.213   9.189  1.0313  1.4600 -1.5650
 7749SOL     OW34705   3.747   0.465   4.254 -0.6807  0.4580 -0.3311
 7749SOL    HW134706   3.746   0.542   4.310 -0.5719 -0.5905  1.1236
 7749SOL    HW234707   3.662   0.431   4.282  0.0828 -1.3207 -0.1880
 7750SOL     OW34708   2.254   0.973   8.805  0.4485  0.5999 -0.1895
 7750SOL    HW134709   2.346   0.999   8.805  0.5364  0.2835  1.7301
 7750SOL    HW234710   2.216   1.056   8.834  0.5237  0.3348  0.6637
 7751SOL     OW34711   1.529   2.637   0.268 -0.0324  0.0592  0.4303
 7751SOL    HW134712   1.538   2.718   0.319 -2.6692  0.7026 -0.1309
 7751SOL    HW234713   1.519   2.573   0.339  0.5961  0.5158  0.9339
 7752SOL     OW34714   3.432   0.422   2.723 -0.1312 -0.6253 -0.0319
 7752SOL    HW134715   3.405   0.330   2.720  1.7071 -1.1835  1.0168
 7752SOL    HW234716   3.521   0.415   2.691  0.3573  1.2452  0.8983
 7753SOL     OW34717   4.697   1.175   6.411 -0.0450 -0.3065 -0.2372
 7753SOL    HW134718   4.657   1.094   6.381  1.5045 -0.9720 -0.5076
 7753SOL    HW234719   4.677   1.186   6.504  1.0865 -1.1797  0.1111
 7754SOL     OW34720   0.530   3.674   5.923  0.2844  0.2359  0.4597
 7754SOL    HW134721   0.524   3.765   5.952 -2.1965  0.0401  0.5869
 7754SOL    HW234722   0.514   3.666   5.829 -1.5148  0.9186  0.7163
 7755SOL     OW34723   1.872   2.574   1.088  0.3292  0.0739 -0.1218
 7755SOL    HW134724   1.824   2.578   1.170  1.1670  0.8606  0.3228
 7755SOL    HW234725   1.801   2.546   1.030 -0.3750 -0.6836  1.1299
 7756SOL     OW34726   0.176   0.995  17.270  0.1592 -0.0148  0.1262
 7756SOL    HW134727   0.125   1.073  17.293  2.6336  1.7717 -0.4798
 7756SOL    HW234728   0.102   0.938  17.252 -1.0138  0.8364  2.1733
 7757SOL     OW34729   1.649   3.211   9.296 -0.1232  0.5714  0.6597
 7757SOL    HW134730   1.581   3.269   9.331  0.3730  0.8459  1.1602
 7757SOL    HW234731   1.726   3.264   9.316  0.0949  0.2586  0.6534
 7758SOL     OW34732   3.014   1.773   6.309  0.4043  0.6586  0.0992
 7758SOL    HW134733   2.948   1.807   6.248 -0.4435 -0.9511  0.1316
 7758SOL    HW234734   3.094   1.821   6.287  0.3696 -0.0930 -1.6438
 7759SOL     OW34735   1.706   1.332   8.610 -0.2500 -0.4277  0.3057
 7759SOL    HW134736   1.611   1.333   8.612 -0.2414  1.0131  0.0092
 7759SOL    HW234737   1.721   1.324   8.515 -0.0323  0.2628  0.2778
 7760SOL     OW34738   1.322   3.231  13.539 -0.8353 -0.1926  0.0194
 7760SOL    HW134739   1.351   3.318  13.569 -1.8667  0.8588 -2.0393
 7760SOL    HW234740   1.317   3.198  13.629 -2.6165  1.3800  0.4990
 7761SOL     OW34741   2.388   2.784   5.462  0.8800  0.0810 -0.3112
 7761SOL    HW134742   2.362   2.725   5.533  2.0965 -2.1960 -1.7944
 7761SOL    HW234743   2.311   2.841   5.458 -0.1241 -1.2829 -0.3519
 7762SOL     OW34744   3.232   4.626   3.586  0.1169  0.2595  0.0429
 7762SOL    HW134745   3.153   4.586   3.549  2.5110 -2.0657 -2.6074
 7762SOL    HW234746   3.226   4.721   3.576  0.0499  0.3986  1.4625
 7763SOL     OW34747   0.768   1.006   8.910  0.4337 -0.4357 -0.5673
 7763SOL    HW134748   0.751   0.955   8.989  1.0258 -1.0507 -0.8368
 7763SOL    HW234749   0.788   0.940   8.843  2.2240 -0.1899 -0.2805
 7764SOL     OW34750   0.694   3.050  16.300 -0.1052  0.2314  0.2036
 7764SOL    HW134751   0.619   2.993  16.282 -0.1751 -0.6239  3.2054
 7764SOL    HW234752   0.704   3.022  16.391 -0.1371  2.3230  0.8667
 7765SOL     OW34753   3.366   1.346   4.421 -0.3871  0.2275 -0.2850
 7765SOL    HW134754   3.355   1.412   4.490  1.9219 -0.4069  0.6932
 7765SOL    HW234755   3.380   1.406   4.349 -0.0182  1.2519  0.6396
 7766SOL     OW34756   2.438   0.263   8.802  0.0570  0.2843 -0.0333
 7766SOL    HW134757   2.395   0.328   8.858  0.4603  1.0254 -0.5859
 7766SOL    HW234758   2.405   0.185   8.848  1.1909  0.2337  0.7135
 7767SOL     OW34759   4.688   2.887   8.842  0.4045 -0.2119 -0.2056
 7767SOL    HW134760   0.002   2.814   8.891 -1.2029 -1.1106 -0.2440
 7767SOL    HW234761   4.628   2.845   8.780  0.1342  0.9946 -0.7448
 7768SOL     OW34762   0.722   1.633   8.328 -0.3108  0.2678  0.5839
 7768SOL    HW134763   0.783   1.583   8.383 -0.2091  1.1741  1.2944
 7768SOL    HW234764   0.750   1.607   8.240 -0.0075  0.6336  0.5722
 7769SOL     OW34765   4.697   2.816   4.951  0.8650 -0.6397 -0.1092
 7769SOL    HW134766   4.662   2.831   4.864 -0.1414 -2.7267 -0.0696
 7769SOL    HW234767   4.627   2.843   5.010  2.2449 -0.2481  1.3384
 7770SOL     OW34768   0.907   3.170   6.525  0.1667 -0.3262 -0.0001
 7770SOL    HW134769   0.899   3.172   6.620  0.1906 -0.8299  0.0133
 7770SOL    HW234770   0.904   3.264   6.507 -0.2060  0.0474  2.1077
 7771SOL     OW34771   4.348   0.230  16.861  0.1647 -0.0622  0.5653
 7771SOL    HW134772   4.361   0.324  16.851  0.8766 -0.3006 -0.7036
 7771SOL    HW234773   4.256   0.235  16.889  0.3782 -1.4884  1.5072
 7772SOL     OW34774   1.225   2.995   2.087 -0.5290  0.1793 -1.1992
 7772SOL    HW134775   1.209   2.937   2.161 -0.5150  1.1880 -0.3952
 7772SOL    HW234776   1.135   3.012   2.059 -0.6356 -0.9953 -1.5679
 7773SOL     OW34777   3.403   4.621   7.206  0.8718 -0.5498  0.5565
 7773SOL    HW134778   3.480   4.566   7.189  1.0031 -0.2274  0.1134
 7773SOL    HW234779   3.336   4.552   7.206  1.1234 -0.7963  0.3977
 7774SOL     OW34780   4.140   1.804   5.655  0.0312 -0.9153 -0.6894
 7774SOL    HW134781   4.203   1.858   5.702  1.2967 -0.3129 -3.0793
 7774SOL    HW234782   4.200   1.730   5.650  1.0913 -0.0961 -0.1058
 7775SOL     OW34783   3.723   0.786  10.401  0.1192  0.2715  0.6202
 7775SOL    HW134784   3.765   0.728  10.338  1.2025  0.3786  1.2485
 7775SOL    HW234785   3.802   0.834  10.428  0.3130  1.2663 -1.7423
 7776SOL     OW34786   4.376   3.715   5.412  0.0145 -0.2449  0.3394
 7776SOL    HW134787   4.329   3.709   5.329  0.3661 -0.1723  0.1355
 7776SOL    HW234788   4.306   3.677   5.467  2.0893 -0.0565  3.1124
 7777SOL     OW34789   3.454   3.937   7.277  0.1087  0.4608  0.2285
 7777SOL    HW134790   3.487   3.930   7.366 -0.4753 -0.5201  0.3741
 7777SOL    HW234791   3.413   3.851   7.265  1.6826 -0.5950  2.4658
 7778SOL     OW34792   2.920   4.610   7.395  0.4003  0.0050  0.5340
 7778SOL    HW134793   2.951   4.688   7.349 -0.8187  1.6540  2.4749
 7778SOL    HW234794   2.945   4.545   7.330 -0.7150  1.0164 -0.9095
 7779SOL     OW34795   4.609   4.662   3.771  0.5669 -0.2312 -0.5570
 7779SOL    HW134796   4.611   4.573   3.736 -3.6758 -0.0184 -1.4015
 7779SOL    HW234797   4.618   4.646   3.865  1.2160  1.3369 -0.3582
 7780SOL     OW34798   3.278   2.791   6.546 -0.1268 -0.0894  0.1888
 7780SOL    HW134799   3.251   2.769   6.457 -0.3898  0.5522  0.1099
 7780SOL    HW234800   3.210   2.751   6.600 -0.5188 -0.6244 -0.7119
 7781SOL     OW34801   1.158   1.736   6.662  0.6456  0.1875 -0.3064
 7781SOL    HW134802   1.226   1.670   6.678  0.6604  0.1349 -0.5859
 7781SOL    HW234803   1.194   1.775   6.582 -1.4058  0.3832 -1.1372
 7782SOL     OW34804   0.133   1.852   3.075 -0.4782 -0.1419 -0.0037
 7782SOL    HW134805   0.068   1.915   3.043 -1.3832 -0.8592  0.4062
 7782SOL    HW234806   0.188   1.838   2.998  0.2297 -0.7831  0.6156
 7783SOL     OW34807   1.100   0.028   7.543  0.0757 -0.7274 -0.0935
 7783SOL    HW134808   1.040   4.719   7.476  1.3491 -1.7906 -0.6751
 7783SOL    HW234809   1.046   0.027   7.622 -2.5453 -2.2323 -1.8973
 7784SOL     OW34810   1.513   2.440   4.423  0.4435  0.7138  0.0580
 7784SOL    HW134811   1.476   2.454   4.336  1.6053  2.7547 -0.0936
 7784SOL    HW234812   1.455   2.367   4.444 -1.3246  2.3234  0.7522
 7785SOL     OW34813   1.830   2.825   0.886  0.2385  0.0667  0.0917
 7785SOL    HW134814   1.840   2.912   0.846 -0.0790 -0.6944 -1.6720
 7785SOL    HW234815   1.780   2.846   0.964  1.2872  1.1207  0.4806
 7786SOL     OW34816   3.721   1.079   5.309  0.0041  0.1402 -0.5385
 7786SOL    HW134817   3.778   1.070   5.233  2.2628  0.1741  1.1625
 7786SOL    HW234818   3.693   0.987   5.309 -1.1171  0.4825 -1.5579
 7787SOL     OW34819   0.759   0.066   3.229 -0.6112  0.2033 -0.3743
 7787SOL    HW134820   0.779   0.156   3.254  1.0737 -0.2700 -0.0185
 7787SOL    HW234821   0.754   0.072   3.133  0.4691  0.5968 -0.3977
 7788SOL     OW34822   3.763   3.849   9.642 -0.3111  0.2145 -0.4489
 7788SOL    HW134823   3.823   3.798   9.696  0.7970  0.4093 -1.5043
 7788SOL    HW234824   3.830   3.877   9.581 -1.0986  0.5700 -1.1476
 7789SOL     OW34825   1.662   3.277   6.683  0.2675 -0.0056  0.1357
 7789SOL    HW134826   1.579   3.323   6.676  0.4291  0.2833  0.1218
 7789SOL    HW234827   1.639   3.191   6.649  2.1132 -0.7848  0.8304
 7790SOL     OW34828   1.870   2.761   0.514  0.0843  0.4246 -0.0657
 7790SOL    HW134829   1.815   2.796   0.584 -0.9058  0.4463 -0.8592
 7790SOL    HW234830   1.830   2.819   0.449 -0.3580  0.4889  0.2672
 7791SOL     OW34831   4.367   2.558   7.686  0.8463 -0.4246  0.0647
 7791SOL    HW134832   4.409   2.477   7.713  2.7179  1.3517  2.5400
 7791SOL    HW234833   4.276   2.532   7.689  0.2107  1.7857  0.1545
 7792SOL     OW34834   2.778   4.487   6.025 -0.4145 -0.4486 -0.4272
 7792SOL    HW134835   2.699   4.530   5.992 -0.7198 -1.3489 -0.8850
 7792SOL    HW234836   2.814   4.553   6.083 -0.3038  2.8062 -4.1926
 7793SOL     OW34837   0.299   4.580  17.078 -0.4605 -0.0919 -0.9099
 7793SOL    HW134838   0.335   4.617  16.997 -1.3997  0.5498 -1.0276
 7793SOL    HW234839   0.379   4.549  17.122  0.1204  1.5262 -0.8547
 7794SOL     OW34840   2.418   3.900   7.761  0.5008 -0.4288 -0.3066
 7794SOL    HW134841   2.413   3.832   7.828 -1.1272  1.6690  1.6890
 7794SOL    HW234842   2.372   3.856   7.690 -1.0752 -0.1813  0.5708
 7795SOL     OW34843   2.567   0.793   7.317  1.1350  0.4339 -0.3767
 7795SOL    HW134844   2.599   0.810   7.405 -1.5014  1.0577  0.4601
 7795SOL    HW234845   2.483   0.747   7.321  2.7930 -2.5581  0.1766
 7796SOL     OW34846   1.592   2.598  16.414 -0.1943 -0.3357  0.1186
 7796SOL    HW134847   1.572   2.637  16.498 -0.0631  0.1959 -0.1003
 7796SOL    HW234848   1.503   2.588  16.382 -0.6368  0.1811  1.2071
 7797SOL     OW34849   3.550   4.449   8.553 -0.0639 -0.0240 -0.1340
 7797SOL    HW134850   3.543   4.406   8.468 -1.9049 -0.2144  0.1139
 7797SOL    HW234851   3.459   4.465   8.578  0.0541 -1.4645  1.2388
 7798SOL     OW34852   4.482   2.657   5.368 -0.0956  0.3128 -0.0179
 7798SOL    HW134853   4.456   2.675   5.278  1.7353 -2.2927 -1.0586
 7798SOL    HW234854   4.502   2.564   5.373  2.5953  0.8513 -0.7063
 7799SOL     OW34855   0.209   2.277   6.565 -0.0861 -0.5579  0.0386
 7799SOL    HW134856   0.194   2.370   6.545 -0.6731 -1.2848 -2.8814
 7799SOL    HW234857   0.129   2.258   6.613  0.1696  1.1240  1.1597
 7800SOL     OW34858   2.294   2.943   3.566  0.4141  0.0497  0.1429
 7800SOL    HW134859   2.367   2.903   3.520 -0.2888 -0.8769 -0.1717
 7800SOL    HW234860   2.321   2.938   3.658  0.5574 -0.9451  0.0437
 7801SOL     OW34861   3.746   0.076   6.937 -0.2969 -0.5492  0.1108
 7801SOL    HW134862   3.690   0.099   7.011 -1.6133  0.1223 -1.1151
 7801SOL    HW234863   3.809   0.148   6.936 -2.4806  1.3730  1.5587
 7802SOL     OW34864   2.396   0.438   3.701 -0.2540  0.8177 -0.6149
 7802SOL    HW134865   2.441   0.522   3.711  1.2658  0.1771 -2.0343
 7802SOL    HW234866   2.416   0.415   3.610 -0.4134  1.9381 -0.9379
 7803SOL     OW34867   4.083   3.689   4.206 -0.6198 -0.2978  0.1083
 7803SOL    HW134868   4.062   3.783   4.207 -0.4579 -0.2988  2.6650
 7803SOL    HW234869   4.002   3.653   4.169 -0.8011 -0.2367  0.4448
 7804SOL     OW34870   0.252   2.729   0.932 -0.4174 -0.3977 -0.0236
 7804SOL    HW134871   0.210   2.686   1.006 -1.2908 -1.5693 -1.2137
 7804SOL    HW234872   0.254   2.817   0.969  0.1730  1.1722 -3.8246
 7805SOL     OW34873   0.908   2.429   6.870 -0.3652 -0.3734 -0.1308
 7805SOL    HW134874   0.891   2.391   6.784  1.1356 -0.5607 -0.3400
 7805SOL    HW234875   0.822   2.415   6.912  0.6306 -1.5005  1.5509
 7806SOL     OW34876   3.085   4.638  10.532  0.4437  0.3463 -0.2769
 7806SOL    HW134877   3.095   4.639  10.627 -1.6200  1.3927 -0.0676
 7806SOL    HW234878   3.028   4.714  10.521  0.0889  0.5534  2.9848
 7807SOL     OW34879   2.180   0.886   4.844  0.2572  0.0254 -0.0103
 7807SOL    HW134880   2.164   0.976   4.816 -0.9635 -0.2231 -0.1153
 7807SOL    HW234881   2.133   0.883   4.927  0.1944  1.9820  0.0223
 7808SOL     OW34882   4.311   2.368   4.757  0.2401  0.0884 -0.5825
 7808SOL    HW134883   4.380   2.413   4.806  1.9928 -2.3021 -0.8259
 7808SOL    HW234884   4.368   2.309   4.706 -0.9185  1.1455 -3.0665
 7809SOL     OW34885   2.630   0.106   1.478  0.3006  0.0034  0.6668
 7809SOL    HW134886   2.593   0.050   1.546  2.2539 -0.6430  1.2183
 7809SOL    HW234887   2.682   0.051   1.419  0.8919  0.3437  0.8746
 7810SOL     OW34888   3.747   4.296  17.347 -0.2813 -0.3439  0.1275
 7810SOL    HW134889   3.660   4.291  17.386 -0.6993 -0.9646 -0.8677
 7810SOL    HW234890   3.739   4.308  17.252 -1.9697 -1.3925  0.1422
 7811SOL     OW34891   0.164   2.359   3.783 -0.4402  0.0441 -0.2250
 7811SOL    HW134892   0.134   2.404   3.862 -0.2221 -1.9577  1.0003
 7811SOL    HW234893   0.257   2.377   3.774 -0.0780 -0.2982  2.6756
 7812SOL     OW34894   3.129   4.380  12.710  0.3638  0.8260  0.2472
 7812SOL    HW134895   3.175   4.393  12.793  0.1082  1.7102  0.2486
 7812SOL    HW234896   3.038   4.403  12.727  0.6533  0.1085  2.7202
 7813SOL     OW34897   1.580   0.205  10.375 -0.2906 -0.0602  0.1928
 7813SOL    HW134898   1.620   0.262  10.440 -0.4570 -1.1263  1.2197
 7813SOL    HW234899   1.531   0.266  10.319 -0.8474  0.6796  1.4837
 7814SOL     OW34900   1.745   1.990   6.342  0.1380  0.1175 -0.4086
 7814SOL    HW134901   1.690   2.055   6.298 -0.6191  1.4107  2.4031
 7814SOL    HW234902   1.830   2.032   6.334  0.4556 -0.7692 -1.5649
 7815SOL     OW34903   3.679   1.552   9.994  0.6748 -0.4784  0.5893
 7815SOL    HW134904   3.681   1.505  10.078 -2.0033  0.7203  1.3546
 7815SOL    HW234905   3.649   1.492   9.925  0.3798  0.4839 -0.1178
 7816SOL     OW34906   0.466   2.233   3.549  0.6495 -0.7421  0.1173
 7816SOL    HW134907   0.466   2.221   3.644 -2.4454  3.3611  0.6543
 7816SOL    HW234908   0.378   2.202   3.527  1.2023 -1.8550 -0.4879
 7817SOL     OW34909   1.192   2.954   5.311  0.2823  0.2045 -0.1766
 7817SOL    HW134910   1.139   2.874   5.314 -0.7043  0.8050 -1.7559
 7817SOL    HW234911   1.215   2.974   5.402  1.0335 -2.0998  0.1537
 7818SOL     OW34912   1.230   0.697  14.166 -1.0900  0.5144 -0.2996
 7818SOL    HW134913   1.168   0.768  14.149  0.2745  1.5577 -0.8868
 7818SOL    HW234914   1.168   0.624  14.167 -0.8486  0.3143  0.0639
 7819SOL     OW34915   0.816   2.146   5.137 -0.1828  0.3885  0.6987
 7819SOL    HW134916   0.818   2.234   5.101  1.5514 -0.3517 -1.0092
 7819SOL    HW234917   0.804   2.090   5.060 -0.7223 -0.0680  1.1166
 7820SOL     OW34918   3.882   1.894   5.664 -0.1404  0.2489  0.3487
 7820SOL    HW134919   3.973   1.869   5.645  0.1514 -0.4433  2.6810
 7820SOL    HW234920   3.904   1.947   5.740 -2.5402  0.5962  0.7879
 7821SOL     OW34921   2.660   4.226   2.535  0.4405 -0.5181  0.2345
 7821SOL    HW134922   2.735   4.212   2.593 -0.2241 -0.5662  1.0743
 7821SOL    HW234923   2.631   4.312   2.563  1.6408  0.0682 -0.3461
 7822SOL     OW34924   0.149   1.732  11.344 -0.2078  0.1599 -0.4022
 7822SOL    HW134925   0.191   1.689  11.269 -0.4578  0.1007 -0.5091
 7822SOL    HW234926   0.073   1.678  11.366 -0.7720  0.3680 -1.7898
 7823SOL     OW34927   2.211   2.394   7.897 -0.1311  0.8558 -0.0249
 7823SOL    HW134928   2.291   2.408   7.845 -0.6532  0.5903 -0.9049
 7823SOL    HW234929   2.149   2.409   7.826  0.2349 -1.5151 -0.8514
 7824SOL     OW34930   3.695   2.180  15.940 -0.4995  0.0294 -0.1948
 7824SOL    HW134931   3.665   2.127  15.865  2.8737 -1.1660 -0.7175
 7824SOL    HW234932   3.759   2.236  15.896 -0.5615  0.5029  0.3312
 7825SOL     OW34933   3.309   3.995   4.065  0.3399 -0.0032 -0.4714
 7825SOL    HW134934   3.306   4.028   3.974 -0.7940 -0.4439 -0.5986
 7825SOL    HW234935   3.228   3.947   4.081  0.7043  0.5406  2.9422
 7826SOL     OW34936   0.605   0.911   3.728  0.5678 -0.0602  0.2953
 7826SOL    HW134937   0.677   0.861   3.689  0.5446 -0.1035  0.3087
 7826SOL    HW234938   0.559   0.830   3.749 -0.2804  0.1095 -0.9199
 7827SOL     OW34939   2.078   4.524   6.061 -0.1141 -0.5459 -0.1082
 7827SOL    HW134940   2.079   4.614   6.092 -1.5190 -0.4821 -0.2579
 7827SOL    HW234941   2.161   4.489   6.095  0.0050 -0.4093 -0.2596
 7828SOL     OW34942   1.558   2.656   8.668 -0.8853  0.6836  0.2432
 7828SOL    HW134943   1.648   2.671   8.699 -0.0528 -0.4284 -1.6264
 7828SOL    HW234944   1.581   2.683   8.579  0.1090  1.5355  0.7523
 7829SOL     OW34945   4.306   4.223   8.448 -0.2785  0.0102  0.2031
 7829SOL    HW134946   4.247   4.167   8.397  0.9881 -1.4782  0.3598
 7829SOL    HW234947   4.267   4.213   8.535  2.1601 -1.9901  1.0768
 7830SOL     OW34948   1.236   1.425   4.983 -0.0309 -0.5997 -0.7751
 7830SOL    HW134949   1.303   1.387   5.040 -0.9919 -1.8670 -0.4804
 7830SOL    HW234950   1.212   1.497   5.042 -1.9315 -0.6106 -1.5381
 7831SOL     OW34951   1.446   2.301   0.905  0.0213 -0.5435 -0.2886
 7831SOL    HW134952   1.534   2.316   0.940 -0.0609 -0.3606 -0.1602
 7831SOL    HW234953   1.461   2.337   0.818 -0.1762 -0.6614 -0.3716
 7832SOL     OW34954   4.676   1.575   2.097 -0.0812 -0.0495  0.4617
 7832SOL    HW134955   0.032   1.611   2.135 -1.7809  2.9891  1.1909
 7832SOL    HW234956   4.708   1.580   2.007 -3.9165  0.0575 -0.8596
 7833SOL     OW34957   2.767   2.052   0.126 -0.5505  0.5288 -0.4919
 7833SOL    HW134958   2.682   2.011   0.143  0.0948  0.2115  2.0410
 7833SOL    HW234959   2.751   2.146   0.137 -4.8463 -0.2467 -0.3104
 7834SOL     OW34960   0.836   0.377   1.024  0.1641 -0.1048 -0.0719
 7834SOL    HW134961   0.752   0.422   1.026  0.6825  0.8216  1.4069
 7834SOL    HW234962   0.865   0.384   0.933 -0.8441 -0.3639 -0.4061
 7835SOL     OW34963   2.036   3.249   0.815 -0.7601 -0.3697  0.2161
 7835SOL    HW134964   2.011   3.245   0.907  1.6506  0.9343  0.9200
 7835SOL    HW234965   1.993   3.169   0.785 -0.3202 -0.8647  0.9021
 7836SOL     OW34966   0.573   4.655   2.492 -0.4705  0.7915  0.2991
 7836SOL    HW134967   0.488   4.695   2.479 -1.1437 -0.1339  1.7749
 7836SOL    HW234968   0.629   0.006   2.507  1.2194 -0.1813 -0.9877
 7837SOL     OW34969   2.493   4.410   5.738 -0.2716 -0.6116 -0.2156
 7837SOL    HW134970   2.408   4.383   5.703  0.3789  1.1221 -3.1296
 7837SOL    HW234971   2.469   4.411   5.831  0.5558  1.6412 -0.0239
 7838SOL     OW34972   1.990   3.304   5.148 -0.2235 -0.3104  0.1298
 7838SOL    HW134973   2.034   3.247   5.085  1.1296  1.5253 -0.5535
 7838SOL    HW234974   1.989   3.243   5.222  0.5544  0.7073  0.9791
 7839SOL     OW34975   3.159   4.188  17.474 -0.4170  0.2289 -0.1659
 7839SOL    HW134976   3.175   4.102  17.512  1.6614  0.4592 -0.5022
 7839SOL    HW234977   3.178   4.175  17.381  2.5449 -2.1265  0.7757
 7840SOL     OW34978   2.356   0.208  15.969 -0.2601  0.2239  0.6553
 7840SOL    HW134979   2.356   0.146  16.041 -0.7828  1.5475  1.7986
 7840SOL    HW234980   2.446   0.241  15.976  0.4230 -1.0556 -2.0608
 7841SOL     OW34981   3.063   4.114   1.475 -0.3527  0.0171  0.4102
 7841SOL    HW134982   3.084   4.025   1.447 -0.9061  0.3189 -1.0153
 7841SOL    HW234983   3.148   4.151   1.498 -0.9575  1.2475  0.6620
 7842SOL     OW34984   4.194   3.992   2.441 -0.1483  0.6924 -0.0829
 7842SOL    HW134985   4.142   3.983   2.521 -1.5396 -1.3401 -1.2204
 7842SOL    HW234986   4.138   3.946   2.379 -0.4962 -0.2801  0.9612
 7843SOL     OW34987   4.339   0.171   6.470  0.3390 -0.1139  0.2045
 7843SOL    HW134988   4.287   0.198   6.546  1.7633  1.0172  0.7842
 7843SOL    HW234989   4.278   0.201   6.402  0.5404  0.7410  0.3950
 7844SOL     OW34990   2.936   2.506   6.940 -0.0924 -0.0144  0.0964
 7844SOL    HW134991   2.988   2.527   6.862  2.3448 -0.5337  1.5969
 7844SOL    HW234992   2.993   2.442   6.980  0.6959  0.1799 -0.7034
 7845SOL     OW34993   4.573   2.324  16.282 -0.0507  0.1514 -0.2050
 7845SOL    HW134994   4.545   2.242  16.241 -1.0143  0.1826  0.4084
 7845SOL    HW234995   4.554   2.388  16.213 -0.8757  1.2227  1.0154
 7846SOL     OW34996   0.507   3.708  17.187 -0.1838  0.1819 -0.5731
 7846SOL    HW134997   0.510   3.625  17.234 -0.1095 -0.1418 -1.1579
 7846SOL    HW234998   0.431   3.759  17.216  1.1898  1.2500  1.1965
 7847SOL     OW34999   1.476   0.410   6.839 -0.0201 -0.0376 -0.1111
 7847SOL    HW135000   1.415   0.409   6.765 -0.9113 -1.5065  0.6546
 7847SOL    HW235001   1.500   0.319   6.853 -2.3196 -0.7185 -0.7071
 7848SOL     OW35002   1.446   1.326   6.045  0.0080 -0.2546  0.2380
 7848SOL    HW135003   1.494   1.406   6.027  0.3265 -0.6815 -0.8289
 7848SOL    HW235004   1.404   1.319   5.959 -3.5040  0.2421  1.9035
 7849SOL     OW35005   0.270   4.034   4.630 -0.1656 -0.1607 -0.0434
 7849SOL    HW135006   0.297   4.047   4.540  0.6794  1.6986  0.4955
 7849SOL    HW235007   0.341   3.984   4.671 -0.1630  0.5348  0.7991
 7850SOL     OW35008   4.400   0.404   5.014 -0.2622  0.0629  0.8583
 7850SOL    HW135009   4.476   0.455   5.040 -0.4331  0.3333  0.8251
 7850SOL    HW235010   4.445   0.322   4.993 -0.7107  0.5158 -1.9731
 7851SOL     OW35011   4.169   0.986   7.970  0.1561  0.4646 -0.2994
 7851SOL    HW135012   4.198   1.074   7.996  1.1924  0.2313 -0.6626
 7851SOL    HW235013   4.076   0.996   7.989 -0.8367  0.0183 -4.8346
 7852SOL     OW35014   2.631   1.302   8.905 -0.2672  0.1432  0.2220
 7852SOL    HW135015   2.558   1.363   8.905 -0.3711  0.0224 -1.1172
 7852SOL    HW235016   2.702   1.355   8.943  0.4085  0.6135 -1.6991
 7853SOL     OW35017   2.825   4.015   9.301  0.0827  0.4013 -0.0424
 7853SOL    HW135018   2.788   3.963   9.230 -0.6631  2.3597 -1.0711
 7853SOL    HW235019   2.770   4.094   9.299 -1.8743 -0.8707  3.1045
 7854SOL     OW35020   4.555   3.078   6.359  0.5282 -0.3341 -0.5357
 7854SOL    HW135021   4.520   3.003   6.312 -0.5381 -0.5911  0.6438
 7854SOL    HW235022   4.555   3.137   6.284 -1.3155 -0.7167 -0.8374
 7855SOL     OW35023   4.393   4.253   7.137  0.0162 -0.7042  0.0396
 7855SOL    HW135024   4.358   4.286   7.054 -0.1903 -0.9571  0.0254
 7855SOL    HW235025   4.363   4.315   7.204  1.9060 -0.1706  0.3674
 7856SOL     OW35026   2.171   2.128  17.078 -0.5465  0.5821 -0.0835
 7856SOL    HW135027   2.152   2.066  17.149  0.6325  1.0794  0.6678
 7856SOL    HW235028   2.138   2.212  17.109 -2.5058 -0.9562  2.0203
 7857SOL     OW35029   4.256   4.217   4.700  0.1538 -0.3804  0.6795
 7857SOL    HW135030   4.200   4.195   4.625 -0.8368  0.2629  1.2247
 7857SOL    HW235031   4.276   4.308   4.678  0.1332 -0.6308 -0.3339
 7858SOL     OW35032   3.548   3.819  14.983  0.1028  0.5418  0.3921
 7858SOL    HW135033   3.552   3.890  14.919 -0.0267 -0.1371 -0.3669
 7858SOL    HW235034   3.503   3.747  14.938 -0.8925  1.6034 -0.3199
 7859SOL     OW35035   3.857   2.153   8.819  0.1793 -0.2679  0.2608
 7859SOL    HW135036   3.766   2.174   8.842  0.8985  0.0411  2.8097
 7859SOL    HW235037   3.858   2.186   8.729  2.7523 -0.9688  0.0521
 7860SOL     OW35038   2.894   3.551   3.518 -0.1434 -0.4065  0.5711
 7860SOL    HW135039   2.860   3.468   3.486 -0.7566 -0.0480  0.2900
 7860SOL    HW235040   2.933   3.526   3.602  0.8114 -0.0318  0.2425
 7861SOL     OW35041   0.762   1.823   8.548 -0.7462  0.0002  0.1583
 7861SOL    HW135042   0.671   1.812   8.574 -1.1462  0.9376 -0.8211
 7861SOL    HW235043   0.750   1.782   8.462 -0.0372  3.6277 -1.7121
 7862SOL     OW35044   1.322   0.363   9.007 -0.3173  0.5422 -0.6087
 7862SOL    HW135045   1.382   0.347   8.934 -0.7880 -2.9585 -0.2205
 7862SOL    HW235046   1.255   0.299   8.980  1.3135 -2.4429  2.3582
 7863SOL     OW35047   3.637   4.618   1.399  0.2140  0.3121 -1.2210
 7863SOL    HW135048   3.566   4.652   1.345 -2.2425 -0.1739  1.7377
 7863SOL    HW235049   3.632   4.681   1.471 -0.2870  0.3961 -1.3316
 7864SOL     OW35050   1.475   2.700   0.799  0.6473  0.0696 -0.2634
 7864SOL    HW135051   1.401   2.643   0.779  1.1604 -0.4901 -0.5564
 7864SOL    HW235052   1.484   2.668   0.888  3.6878 -2.9079 -1.6726
 7865SOL     OW35053   1.491   3.280   1.913 -0.6256 -0.5621 -0.5032
 7865SOL    HW135054   1.410   3.299   1.960  1.5937  0.3292  2.9740
 7865SOL    HW235055   1.502   3.195   1.954  0.2397 -0.1055  0.2020
 7866SOL     OW35056   4.416   2.032   3.500 -0.7139  0.1662 -0.3772
 7866SOL    HW135057   4.329   1.993   3.511 -0.6546  0.2591  0.3851
 7866SOL    HW235058   4.401   2.126   3.509 -1.1154  0.0135  0.5228
 7867SOL     OW35059   1.912   2.578   9.412 -0.2357 -0.3738  0.4208
 7867SOL    HW135060   1.890   2.630   9.490 -0.9360  1.4061 -0.9635
 7867SOL    HW235061   2.000   2.544   9.425 -0.5221 -1.4673 -0.4836
 7868SOL     OW35062   1.885   1.000   3.126  0.2277 -0.2004  0.4252
 7868SOL    HW135063   1.813   0.974   3.183 -1.2876  1.5217 -0.7581
 7868SOL    HW235064   1.826   1.003   3.051  1.3997 -1.1503 -0.5445
 7869SOL     OW35065   1.204   2.510  14.668  0.1454  0.0260  0.2918
 7869SOL    HW135066   1.110   2.526  14.660  0.7180  3.0314 -0.5105
 7869SOL    HW235067   1.207   2.512  14.763 -0.5273  2.3174  0.2681
 7870SOL     OW35068   3.892   3.129   5.463 -0.5096  0.0525  0.2634
 7870SOL    HW135069   3.973   3.146   5.511 -1.1277  3.3918  0.1319
 7870SOL    HW235070   3.922   3.068   5.395 -0.5068  1.5202 -1.0406
 7871SOL     OW35071   0.916   1.972  11.542  0.5597  0.2631  0.1920
 7871SOL    HW135072   0.994   1.936  11.583  1.1246 -0.8136 -1.7995
 7871SOL    HW235073   0.863   2.021  11.606 -0.9442 -1.7911  0.5137
 7872SOL     OW35074   1.116   0.490  12.991  0.2957 -0.4881 -0.1897
 7872SOL    HW135075   1.069   0.446  12.920 -0.9633 -0.9294  0.9083
 7872SOL    HW235076   1.184   0.533  12.940  0.9983  0.7674  1.8219
 7873SOL     OW35077   3.104   2.740   5.362  0.5101 -0.3549 -0.1797
 7873SOL    HW135078   3.079   2.675   5.296 -1.2651 -0.9669  1.0716
 7873SOL    HW235079   3.087   2.825   5.322  0.7028  1.0149  2.6314
 7874SOL     OW35080   1.668   3.958   0.784 -0.5210  0.5472 -0.2512
 7874SOL    HW135081   1.678   3.875   0.830 -1.3752  0.8918  0.5436
 7874SOL    HW235082   1.712   3.931   0.703 -0.7317 -0.1061 -0.1519
 7875SOL     OW35083   2.206   0.038   6.464  0.2487  0.3995 -0.0962
 7875SOL    HW135084   2.126   0.034   6.517  2.1992 -0.7791  2.7419
 7875SOL    HW235085   2.260   4.690   6.494  1.2107  1.6649  1.2223
 7876SOL     OW35086   0.847   0.394   2.262  0.2147  0.3742  0.0099
 7876SOL    HW135087   0.794   0.449   2.319  1.1078  1.4702 -0.2267
 7876SOL    HW235088   0.833   0.433   2.176  0.2313  2.3741  0.9083
 7877SOL     OW35089   2.934   0.460   7.728 -0.7333  0.3780 -0.1593
 7877SOL    HW135090   2.954   0.553   7.727 -0.9434  0.4312  0.3980
 7877SOL    HW235091   2.882   0.458   7.648  0.3865 -1.9870 -0.8369
 7878SOL     OW35092   4.697   0.273   6.663  0.1837  0.2952 -0.1320
 7878SOL    HW135093   4.614   0.237   6.694  0.1931 -0.9147 -1.4774
 7878SOL    HW235094   0.033   0.241   6.729 -1.3242  0.9563  1.5637
 7879SOL     OW35095   1.053   4.147   2.294 -0.1412  0.0381 -0.2064
 7879SOL    HW135096   0.980   4.207   2.278 -1.0267 -0.1598  3.2141
 7879SOL    HW235097   1.124   4.187   2.244  0.7330 -1.3845 -0.0892
 7880SOL     OW35098   2.808   4.009  13.947  0.2046  0.7996 -0.5520
 7880SOL    HW135099   2.827   3.998  13.854  2.2534 -0.4803  0.0304
 7880SOL    HW235100   2.797   3.917  13.972 -2.2452  1.5870  1.2828
 7881SOL     OW35101   1.293   1.940  13.550 -0.0018 -0.2341  0.2060
 7881SOL    HW135102   1.361   1.958  13.485 -1.9503 -2.7652 -2.5356
 7881SOL    HW235103   1.251   2.026  13.554  2.0924  0.9568 -2.9859
 7882SOL     OW35104   1.233   4.140   1.857 -0.5120  0.1334  0.5430
 7882SOL    HW135105   1.300   4.195   1.817  1.1159 -1.3674  1.1655
 7882SOL    HW235106   1.179   4.121   1.781  0.0886 -0.6873  0.3139
 7883SOL     OW35107   2.679   4.468  10.607 -0.2511  0.4259  0.2294
 7883SOL    HW135108   2.698   4.397  10.668 -0.3615 -0.2298 -0.5119
 7883SOL    HW235109   2.740   4.523  10.657  0.7313 -0.0497 -0.4536
 7884SOL     OW35110   2.249   4.421  10.051 -0.0805 -0.2177 -0.4174
 7884SOL    HW135111   2.211   4.335  10.070  2.4812 -1.1060  0.7249
 7884SOL    HW235112   2.325   4.421  10.109 -0.4676  0.8706  0.0871
 7885SOL     OW35113   0.522   2.293   2.177  0.1476  0.0159  0.0603
 7885SOL    HW135114   0.490   2.203   2.171 -0.6925  0.3696 -0.7750
 7885SOL    HW235115   0.451   2.323   2.234 -1.4453 -0.2189 -1.8350
 7886SOL     OW35116   1.349   2.170  13.213 -0.0744  0.6418 -0.6359
 7886SOL    HW135117   1.413   2.111  13.173 -1.0386 -0.0710 -1.1246
 7886SOL    HW235118   1.399   2.246  13.242  0.1424  0.2745 -0.0502
 7887SOL     OW35119   1.056   1.600  13.858 -0.2226 -0.3295  0.4476
 7887SOL    HW135120   1.130   1.636  13.808 -0.3761  1.4163  1.4579
 7887SOL    HW235121   1.062   1.664  13.930  1.3257 -0.2516  0.2527
 7888SOL     OW35122   2.368   0.022   8.633  0.3019 -0.4552 -0.0275
 7888SOL    HW135123   2.286   0.043   8.587  2.3492 -0.2435 -3.6009
 7888SOL    HW235124   2.351   0.013   8.727  1.7558  1.5256  0.4214
 7889SOL     OW35125   1.996   1.373   9.981 -0.4773  0.2018  0.2792
 7889SOL    HW135126   1.918   1.319   9.989  1.3203 -2.5221 -0.4362
 7889SOL    HW235127   1.977   1.442  10.044  2.2393 -0.2109  1.5471
 7890SOL     OW35128   4.327   2.128   6.874 -0.7283  0.0464  0.0442
 7890SOL    HW135129   4.389   2.146   6.945 -0.9555 -1.0130  0.5077
 7890SOL    HW235130   4.392   2.120   6.805 -1.7193  1.8063 -1.1087
 7891SOL     OW35131   1.806   3.183  10.353 -0.5127 -0.2046 -0.3664
 7891SOL    HW135132   1.810   3.092  10.323  2.1963  0.5327 -2.1827
 7891SOL    HW235133   1.717   3.204  10.323 -2.1334 -2.2474  2.9518
 7892SOL     OW35134   2.479   2.943   2.036 -0.3789  0.1344 -0.4071
 7892SOL    HW135135   2.453   2.993   2.113  1.6175  2.2089 -1.0783
 7892SOL    HW235136   2.438   2.992   1.965  1.1095  0.7878 -0.8125
 7893SOL     OW35137   2.020   2.970   7.715  0.1632 -0.2746  0.3229
 7893SOL    HW135138   2.070   2.958   7.634 -0.9887  0.2974 -0.4747
 7893SOL    HW235139   1.958   2.898   7.728 -0.9595  0.9712  1.8349
 7894SOL     OW35140   4.642   0.547   6.379  0.2551  0.1116 -0.2479
 7894SOL    HW135141   4.674   0.613   6.440  2.3281 -0.4767 -0.7254
 7894SOL    HW235142   4.552   0.548   6.413 -1.7567  1.4015 -5.5165
 7895SOL     OW35143   2.076   0.612  13.024 -0.1010 -0.2572 -0.4258
 7895SOL    HW135144   2.101   0.530  12.981 -1.6743 -0.4955 -0.8620
 7895SOL    HW235145   2.129   0.611  13.104 -1.4324 -2.6747  0.4266
 7896SOL     OW35146   0.690   4.580   2.860 -0.3078 -0.0346  0.0713
 7896SOL    HW135147   0.604   4.554   2.892  0.0366  0.1009  1.0975
 7896SOL    HW235148   0.702   4.667   2.900 -0.2430 -1.0844  2.3418
 7897SOL     OW35149   4.243   2.054   8.337  0.3746 -0.1755  0.4102
 7897SOL    HW135150   4.221   2.010   8.255  1.9638  2.4786 -1.4193
 7897SOL    HW235151   4.316   2.001   8.369 -0.5491 -0.4925  1.9761
 7898SOL     OW35152   2.734   0.140   3.971  0.2682 -0.3242 -0.4718
 7898SOL    HW135153   2.776   0.055   3.982  0.5263 -0.0209  0.9350
 7898SOL    HW235154   2.655   0.111   3.925 -0.2643 -3.3003  2.3709
 7899SOL     OW35155   1.441   1.886  14.355  0.8728  0.0447  0.2750
 7899SOL    HW135156   1.451   1.830  14.278 -0.4920 -1.0743  0.9123
 7899SOL    HW235157   1.380   1.836  14.410  0.4103 -0.5002 -0.7413
 7900SOL     OW35158   3.347   1.152   8.013 -0.0023 -0.1939 -0.2924
 7900SOL    HW135159   3.295   1.202   8.076  1.5653 -1.3729  1.9271
 7900SOL    HW235160   3.313   1.190   7.932 -0.3736 -4.0440 -1.9257
 7901SOL     OW35161   4.660   1.122   5.343 -0.6126  0.0682 -0.2470
 7901SOL    HW135162   4.689   1.204   5.382 -4.1182  1.3916 -0.3760
 7901SOL    HW235163   0.017   1.077   5.326 -0.9446 -0.7946  0.4340
 7902SOL     OW35164   1.751   1.487   8.156  0.7041  0.2651 -0.0609
 7902SOL    HW135165   1.715   1.470   8.243 -2.8008  1.7374 -1.1786
 7902SOL    HW235166   1.814   1.556   8.172 -0.8824  2.1016 -1.6885
 7903SOL     OW35167   1.655   2.436   6.660 -0.3354  0.5026  0.0072
 7903SOL    HW135168   1.578   2.418   6.713  0.1432 -1.4016  0.0629
 7903SOL    HW235169   1.731   2.430   6.718 -0.6808  2.2982  0.6360
 7904SOL     OW35170   4.498   3.742   6.559  0.0912  0.5729 -0.4648
 7904SOL    HW135171   4.470   3.799   6.488 -0.1591  2.0406  0.8395
 7904SOL    HW235172   4.524   3.803   6.628 -0.1463  0.0776  0.0602
 7905SOL     OW35173   2.090   1.626   5.565  0.4543  0.4312  0.3285
 7905SOL    HW135174   2.070   1.615   5.658  0.9776 -0.4998  0.3284
 7905SOL    HW235175   2.176   1.668   5.568  0.5144  0.3164  0.2135
 7906SOL     OW35176   3.963   4.632   8.359  0.0932 -0.6414  0.6075
 7906SOL    HW135177   3.916   4.581   8.425  0.1217 -0.0932  1.0460
 7906SOL    HW235178   3.897   4.695   8.331  1.0961 -0.1385 -0.6196
 7907SOL     OW35179   4.149   4.505   6.392  0.0298  0.8201 -0.6948
 7907SOL    HW135180   4.238   4.510   6.359  0.7182  1.1968  1.2140
 7907SOL    HW235181   4.155   4.415   6.425 -0.8866  0.8393 -0.4570
 7908SOL     OW35182   2.732   2.899   3.748  0.0652  0.1274  0.5430
 7908SOL    HW135183   2.641   2.915   3.774  0.4091  1.4637  0.9256
 7908SOL    HW235184   2.720   2.809   3.718  6.0795  0.0504 -1.5423
 7909SOL     OW35185   3.425   0.904  17.124 -0.6986 -1.1044 -0.2985
 7909SOL    HW135186   3.416   0.826  17.178  0.5237 -1.1800 -0.2001
 7909SOL    HW235187   3.343   0.952  17.121  0.6268  1.1465 -1.2328
 7910SOL     OW35188   1.051   3.005   7.492 -0.2534  0.1994  0.3649
 7910SOL    HW135189   1.103   3.041   7.564  1.1384  1.5760 -1.3182
 7910SOL    HW235190   1.093   2.919   7.491 -0.1402  0.2712 -1.2205
 7911SOL     OW35191   3.163   0.859   3.971  0.1144 -0.0053 -0.1870
 7911SOL    HW135192   3.187   0.899   4.054  0.4466  0.5026 -0.5268
 7911SOL    HW235193   3.247   0.867   3.925  0.3322 -1.4378 -0.0485
 7912SOL     OW35194   2.718   2.654   7.145 -0.0171 -0.2160  0.1994
 7912SOL    HW135195   2.767   2.592   7.091 -0.2582 -1.4218  1.3652
 7912SOL    HW235196   2.764   2.733   7.116  0.7459 -1.0754 -0.9291
 7913SOL     OW35197   1.092   4.199   6.802  0.1142  0.0748  0.0991
 7913SOL    HW135198   1.128   4.187   6.715  1.3468 -1.0208  0.7633
 7913SOL    HW235199   1.000   4.214   6.778 -0.2251 -2.5489 -0.2584
 7914SOL     OW35200   1.768   0.893   5.735 -0.0442 -0.2189  0.0541
 7914SOL    HW135201   1.761   0.817   5.677 -0.2054  0.3980 -0.7332
 7914SOL    HW235202   1.723   0.860   5.813 -2.7949  2.0071 -0.5780
 7915SOL     OW35203   2.651   0.430   2.438 -0.4131  0.2510  0.7642
 7915SOL    HW135204   2.740   0.411   2.409  0.2557 -0.0695  3.0729
 7915SOL    HW235205   2.667   0.499   2.502  0.8145 -0.1828  0.9212
 7916SOL     OW35206   2.946   0.897  16.302  0.2092 -0.2740 -0.1369
 7916SOL    HW135207   2.868   0.845  16.323  0.2199  0.7484  2.4310
 7916SOL    HW235208   2.914   0.937  16.221 -0.7288 -0.5213  0.1071
 7917SOL     OW35209   3.443   2.295   0.494 -0.4511  0.6735 -0.0018
 7917SOL    HW135210   3.370   2.243   0.526 -0.0946 -0.4505 -1.0395
 7917SOL    HW235211   3.443   2.377   0.545  1.5437 -0.3935  1.7214
 7918SOL     OW35212   2.629   1.311   6.741 -0.0335  0.0316 -0.2060
 7918SOL    HW135213   2.702   1.345   6.690  1.2036  2.1013  2.9270
 7918SOL    HW235214   2.570   1.386   6.750 -0.6461 -0.2116 -2.0693
 7919SOL     OW35215   1.621   0.719  15.766  0.2695 -0.3003  0.0488
 7919SOL    HW135216   1.574   0.783  15.713  3.2161  0.7215 -1.3308
 7919SOL    HW235217   1.703   0.758  15.794  0.5338 -1.5515  1.0627
 7920SOL     OW35218   1.371   3.538  11.507  0.3486 -0.4237 -0.3767
 7920SOL    HW135219   1.397   3.586  11.586 -0.1661  0.4094 -0.7174
 7920SOL    HW235220   1.452   3.552  11.458  0.3416  3.6552  0.7336
 7921SOL     OW35221   3.107   3.883  12.040 -0.0252  0.2455 -0.3225
 7921SOL    HW135222   3.193   3.840  12.034  0.6322  1.8216 -2.1668
 7921SOL    HW235223   3.054   3.805  12.058  0.4808 -0.0479 -0.0740
 7922SOL     OW35224   1.827   0.731  17.544  0.0588 -0.1850  0.1510
 7922SOL    HW135225   1.793   0.678  17.472 -0.7563 -0.3971  0.6939
 7922SOL    HW235226   1.851   0.664  17.607  1.7333  1.4249  1.2196
 7923SOL     OW35227   4.106   4.162  13.673 -0.4604  0.2155 -0.0376
 7923SOL    HW135228   4.019   4.122  13.664 -0.3699  0.6704 -2.8379
 7923SOL    HW235229   4.160   4.087  13.696 -2.3830 -1.8203 -2.2033
 7924SOL     OW35230   1.894   1.293  12.260 -0.4302 -0.0765  0.0446
 7924SOL    HW135231   1.922   1.214  12.216 -0.0505  1.3382 -2.2327
 7924SOL    HW235232   1.858   1.348  12.190 -1.3644 -0.2688  0.3735
 7925SOL     OW35233   3.955   1.447   2.157 -0.4071  0.2956 -0.2139
 7925SOL    HW135234   3.959   1.518   2.094  2.9703 -0.5105 -0.8919
 7925SOL    HW235235   4.006   1.475   2.233  1.1343  2.8301 -2.1930
 7926SOL     OW35236   4.487   3.317  15.553 -0.0114 -0.1536 -0.3824
 7926SOL    HW135237   4.531   3.398  15.579  0.7758 -0.6726 -0.1012
 7926SOL    HW235238   4.560   3.255  15.550  0.4612  0.4897 -2.2199
 7927SOL     OW35239   3.300   2.889   7.999 -0.5389  0.0894  0.4244
 7927SOL    HW135240   3.326   2.864   8.088  1.4374  0.1033 -0.1421
 7927SOL    HW235241   3.320   2.807   7.955  0.6826  1.7477 -2.0610
 7928SOL     OW35242   2.698   4.360   8.168  0.1879 -0.4080 -0.1093
 7928SOL    HW135243   2.610   4.360   8.130  0.4562 -0.1591 -0.7362
 7928SOL    HW235244   2.687   4.278   8.217  0.9555 -0.0982  0.5747
 7929SOL     OW35245   4.513   1.393  17.591 -0.6464  0.0347  0.0927
 7929SOL    HW135246   4.523   1.298  17.588  1.2853  0.1679  2.0286
 7929SOL    HW235247   4.565   1.428  17.519 -0.1411 -0.4742  0.2100
 7930SOL     OW35248   1.007   2.794   4.144 -0.2882 -0.0367 -0.7631
 7930SOL    HW135249   1.062   2.865   4.109  0.3649 -0.2564 -0.1688
 7930SOL    HW235250   1.069   2.725   4.167  1.2931  1.1306 -1.4933
 7931SOL     OW35251   1.458   3.629   5.941 -0.0444 -0.1836  0.4340
 7931SOL    HW135252   1.418   3.621   5.855  0.0265 -0.7021  0.4471
 7931SOL    HW235253   1.410   3.559   5.986 -0.7181 -0.3741 -0.5748
 7932SOL     OW35254   1.850   2.049   3.411  0.8253 -0.0735 -0.0360
 7932SOL    HW135255   1.905   2.113   3.366  0.8922  0.7486  1.2077
 7932SOL    HW235256   1.912   1.980   3.432  0.1464 -0.6284  0.1577
 7933SOL     OW35257   4.506   0.347   6.078 -0.2353 -0.2543 -0.1444
 7933SOL    HW135258   4.489   0.436   6.048  2.1723  0.1338 -0.3629
 7933SOL    HW235259   4.588   0.351   6.127 -0.1329 -0.0664 -0.3310
 7934SOL     OW35260   0.517   1.680   2.603 -0.7212 -0.2460  0.2816
 7934SOL    HW135261   0.528   1.735   2.680 -0.6241 -1.6857  1.3094
 7934SOL    HW235262   0.451   1.728   2.554 -0.6654 -0.5456 -0.0844
 7935SOL     OW35263   2.100   1.374   3.130  0.4182  0.1201  0.0345
 7935SOL    HW135264   2.127   1.314   3.061  0.4881 -0.1862  0.3309
 7935SOL    HW235265   2.077   1.448   3.074  0.0111  0.1606  0.2482
 7936SOL     OW35266   0.004   0.806  10.783  0.4816 -0.1277 -0.2741
 7936SOL    HW135267   4.675   0.821  10.861  2.1311 -1.2855  1.0881
 7936SOL    HW235268   4.686   0.866  10.721 -1.9477 -1.2583  0.3079
 7937SOL     OW35269   1.683   3.699   7.560 -0.0247  0.0081  0.2381
 7937SOL    HW135270   1.679   3.707   7.656  1.2978 -1.7989  0.4424
 7937SOL    HW235271   1.661   3.788   7.532  0.9178  0.3791  0.6391
 7938SOL     OW35272   2.521   2.999   0.337 -0.6140  0.1224  0.0411
 7938SOL    HW135273   2.489   3.028   0.252  0.2445  3.1608  0.7685
 7938SOL    HW235274   2.589   3.060   0.365  1.5654 -1.8082 -1.1221
 7939SOL     OW35275   0.328   1.911  15.636 -0.2123 -0.2658  0.1162
 7939SOL    HW135276   0.236   1.919  15.613  0.2399  1.6186 -1.1446
 7939SOL    HW235277   0.348   1.997  15.674  0.4080  0.1346 -1.0970
 7940SOL     OW35278   4.055   0.794   3.326  0.2033  0.0101  0.1627
 7940SOL    HW135279   4.005   0.713   3.321 -2.0593  1.4194  0.0920
 7940SOL    HW235280   3.993   0.860   3.357  0.6303  0.0218  0.9984
 7941SOL     OW35281   1.083   0.611   3.214 -0.2041  0.3072 -0.0523
 7941SOL    HW135282   1.170   0.613   3.174  0.4097  1.9040  1.3750
 7941SOL    HW235283   1.072   0.696   3.255  0.1548 -0.6179  1.9786
 7942SOL     OW35284   2.189   0.777   3.335 -0.2667 -0.6724 -0.4120
 7942SOL    HW135285   2.266   0.821   3.298  0.0993  0.7387  2.0379
 7942SOL    HW235286   2.209   0.695   3.290 -1.1568 -2.6574  2.7828
 7943SOL     OW35287   0.131   2.359   3.004 -0.4863 -0.1056 -0.3429
 7943SOL    HW135288   0.174   2.316   3.079 -0.2966 -1.0857 -1.0170
 7943SOL    HW235289   0.047   2.378   3.044 -0.8501 -0.9335 -0.7131
 7944SOL     OW35290   2.877   0.441   4.436  0.0952  0.6812 -0.7444
 7944SOL    HW135291   2.949   0.379   4.427  0.5738  0.9002  1.4680
 7944SOL    HW235292   2.806   0.390   4.399 -2.6910  2.8550  1.6297
 7945SOL     OW35293   4.427   4.415   6.078 -0.0538 -0.0009 -0.4009
 7945SOL    HW135294   4.407   4.400   6.170  1.4094 -0.3317 -0.1387
 7945SOL    HW235295   4.482   4.493   6.086  1.3740 -0.8619 -1.7453
 7946SOL     OW35296   2.629   4.019   6.498 -0.3972 -0.4674  0.0906
 7946SOL    HW135297   2.653   4.094   6.553  1.2831 -0.3569 -0.8102
 7946SOL    HW235298   2.569   4.047   6.429 -0.4486 -2.3445 -0.6378
 7947SOL     OW35299   3.042   2.883   4.378  0.2841 -0.0185 -0.0762
 7947SOL    HW135300   3.121   2.923   4.414  1.2737 -0.0620 -2.2263
 7947SOL    HW235301   3.084   2.823   4.317  1.1113  0.7144 -0.2285
 7948SOL     OW35302   1.952   0.942   9.024 -0.1311  0.2358 -0.3975
 7948SOL    HW135303   1.872   0.992   9.040  0.2344  0.9425 -0.7996
 7948SOL    HW235304   1.930   0.917   8.934  0.9787  2.1698 -1.2043
 7949SOL     OW35305   1.983   1.147   2.230 -0.2109 -0.1863  0.3107
 7949SOL    HW135306   1.991   1.167   2.324  1.2036 -1.8801  0.5482
 7949SOL    HW235307   2.074   1.157   2.202 -0.2269  1.8546  0.9914
 7950SOL     OW35308   1.454   0.912   4.458 -0.2351 -0.4970 -0.3292
 7950SOL    HW135309   1.447   0.990   4.514  0.2194 -1.1445  0.6427
 7950SOL    HW235310   1.546   0.894   4.474 -0.2324  0.9184  1.3463
 7951SOL     OW35311   2.725   4.436   9.776 -0.1668 -0.4851  0.5431
 7951SOL    HW135312   2.677   4.378   9.836 -0.6974  2.1155  2.6643
 7951SOL    HW235313   2.808   4.430   9.824 -0.2488 -1.1672  0.6000
 7952SOL     OW35314   3.615   2.522  13.544  1.3912 -0.5646  0.2467
 7952SOL    HW135315   3.672   2.597  13.558 -1.7630  1.9743 -0.3950
 7952SOL    HW235316   3.644   2.472  13.467  2.0837 -1.2794  0.9676
 7953SOL     OW35317   3.060   4.700   6.737  0.9473  0.0315 -0.1501
 7953SOL    HW135318   2.984   0.030   6.717  1.1514  0.5828  0.5926
 7953SOL    HW235319   3.128   0.011   6.681  0.7011  2.0217  0.8242
 7954SOL     OW35320   1.962   3.359  11.907 -0.2582  0.3391  0.1720
 7954SOL    HW135321   1.943   3.438  11.857 -0.2693  0.6124  0.6097
 7954SOL    HW235322   1.883   3.308  11.887  0.9254 -1.9468  1.3724
 7955SOL     OW35323   1.214   2.867   6.665 -0.0665  0.5586  0.2781
 7955SOL    HW135324   1.128   2.827   6.654  1.3752 -2.3795 -0.0891
 7955SOL    HW235325   1.205   2.944   6.608  1.6664 -0.4846 -1.3827
 7956SOL     OW35326   3.080   0.196   9.221 -0.3518 -0.0561 -0.6584
 7956SOL    HW135327   3.043   0.187   9.309 -1.0589 -2.2064 -1.1692
 7956SOL    HW235328   3.075   0.291   9.214  0.0281 -0.0548 -0.8979
 7957SOL     OW35329   1.266   4.549   0.853 -0.0331  0.0358 -0.6970
 7957SOL    HW135330   1.220   4.608   0.793 -1.1468 -0.7338 -0.6088
 7957SOL    HW235331   1.338   4.602   0.885 -0.9334  0.3461  0.8441
 7958SOL     OW35332   0.123   4.072   4.877  0.5829  0.4578 -0.3521
 7958SOL    HW135333   0.147   4.048   4.787 -0.0044  0.1082 -0.4216
 7958SOL    HW235334   0.044   4.125   4.862 -0.2864 -0.6561  0.2525
 7959SOL     OW35335   3.864   4.673   8.685 -0.0736 -0.2778  0.1965
 7959SOL    HW135336   3.891   0.028   8.730 -0.6029 -1.2792  2.2875
 7959SOL    HW235337   3.942   4.617   8.691 -0.1632 -0.4516 -0.2331
 7960SOL     OW35338   1.472   3.880   4.668  0.1738  0.0304  0.4445
 7960SOL    HW135339   1.503   3.971   4.665 -1.3177  0.5373  0.5921
 7960SOL    HW235340   1.518   3.844   4.592  2.0136  0.0860  1.5365
 7961SOL     OW35341   4.032   0.298  10.457 -0.6342  0.0015  0.7605
 7961SOL    HW135342   4.061   0.357  10.526 -0.4738  0.9270 -0.1093
 7961SOL    HW235343   4.008   0.225  10.515 -0.0805 -0.9785 -0.2535
 7962SOL     OW35344   4.683   3.078  11.954  0.1712  0.5298 -0.2597
 7962SOL    HW135345   0.012   3.000  11.945  1.0662  1.3068 -1.5739
 7962SOL    HW235346   4.649   3.068  12.043 -1.3322  0.7328 -0.8078
 7963SOL     OW35347   0.680   0.569   2.879 -0.6764  0.1148 -0.4216
 7963SOL    HW135348   0.602   0.554   2.933  0.2899  0.3678  1.0495
 7963SOL    HW235349   0.649   0.635   2.817 -0.0734 -0.3188 -1.1866
 7964SOL     OW35350   1.136   0.709   2.333  0.0400 -0.1601  0.3583
 7964SOL    HW135351   1.164   0.641   2.394 -0.5332 -1.4735 -0.8407
 7964SOL    HW235352   1.099   0.762   2.404  1.0944 -1.1555  1.6569
 7965SOL     OW35353   3.796   1.815   2.478 -0.0652  0.2212 -0.4027
 7965SOL    HW135354   3.811   1.902   2.513 -0.3974  0.3713 -0.6279
 7965SOL    HW235355   3.850   1.823   2.399 -1.7000  2.9696 -1.2381
 7966SOL     OW35356   3.172   1.219   6.060  0.0752  0.7229 -0.2720
 7966SOL    HW135357   3.216   1.229   5.975 -0.9736  1.1654 -0.7593
 7966SOL    HW235358   3.255   1.223   6.108  0.2037  1.4180 -0.5558
 7967SOL     OW35359   1.094   3.946   5.125  0.3426 -0.2685  0.1245
 7967SOL    HW135360   1.044   4.026   5.110  0.0434 -0.4712  0.0450
 7967SOL    HW235361   1.025   3.891   5.162  0.1537  0.1695  0.4240
 7968SOL     OW35362   2.804   0.535   5.429  0.2348 -0.3019  0.0802
 7968SOL    HW135363   2.879   0.515   5.374 -0.1594 -2.5868  0.3842
 7968SOL    HW235364   2.838   0.522   5.518 -0.0438  2.4596  0.5993
 7969SOL     OW35365   1.966   0.613   3.153  0.1759 -0.1034  0.1498
 7969SOL    HW135366   2.005   0.554   3.088 -1.3319 -1.3698  0.3760
 7969SOL    HW235367   2.010   0.695   3.132  2.2370 -1.2886 -0.1620
 7970SOL     OW35368   2.689   3.754   4.942  0.4170 -0.3647 -0.6936
 7970SOL    HW135369   2.779   3.720   4.941  1.2316  1.7829  1.4967
 7970SOL    HW235370   2.691   3.849   4.931 -3.5181 -0.0586  1.3913
 7971SOL     OW35371   3.060   2.458  11.849 -0.2940 -0.3957  0.3600
 7971SOL    HW135372   3.050   2.370  11.887 -2.9786 -1.2408 -2.3867
 7971SOL    HW235373   3.063   2.429  11.758 -0.2282  0.0864  0.2114
 7972SOL     OW35374   0.423   3.344  14.297 -0.2633 -0.0718 -0.7452
 7972SOL    HW135375   0.438   3.362  14.204  0.5084  0.5916 -0.4902
 7972SOL    HW235376   0.508   3.362  14.338 -1.0386 -3.1441  2.2096
 7973SOL     OW35377   0.089   2.953   5.870 -0.0689  0.7429 -0.2542
 7973SOL    HW135378   0.152   2.885   5.848 -0.6960 -0.0620  0.4872
 7973SOL    HW235379   0.095   3.014   5.796 -1.6951  1.0416 -0.1297
 7974SOL     OW35380   1.523   0.906  14.287 -0.0558  0.2746 -0.0418
 7974SOL    HW135381   1.543   0.854  14.209 -2.0655 -0.1467 -0.2826
 7974SOL    HW235382   1.492   0.984  14.240 -0.9356 -0.2183 -0.2681
 7975SOL     OW35383   2.280   1.205   5.020 -0.3880 -0.2292  0.2507
 7975SOL    HW135384   2.223   1.198   4.943 -0.8783  0.4184  0.5578
 7975SOL    HW235385   2.331   1.124   5.029  0.5233  0.1807 -1.2521
 7976SOL     OW35386   2.147   4.494   4.128 -0.2417 -0.0307 -0.2579
 7976SOL    HW135387   2.222   4.534   4.173  1.8237 -2.3936 -1.5467
 7976SOL    HW235388   2.098   4.569   4.095 -0.7773  0.0128  0.6303
 7977SOL     OW35389   2.406   2.152   5.114 -0.0223  0.2724 -0.2387
 7977SOL    HW135390   2.493   2.146   5.075 -0.4157 -1.6682 -0.8564
 7977SOL    HW235391   2.385   2.063   5.144 -1.3891  0.2581 -1.2369
 7978SOL     OW35392   1.381   3.379   9.928 -0.2756 -0.4395 -0.3441
 7978SOL    HW135393   1.364   3.458   9.876 -0.9537 -1.0943 -1.1190
 7978SOL    HW235394   1.373   3.410  10.018 -0.9695 -0.3553 -0.4355
 7979SOL     OW35395   4.569   1.516   3.713  0.1626  0.5995 -0.4841
 7979SOL    HW135396   4.491   1.504   3.767 -0.9197  1.6573 -1.7995
 7979SOL    HW235397   4.545   1.556   3.629  0.7508  1.0254 -0.4537
 7980SOL     OW35398   0.004   1.258  15.827 -0.6269 -0.8204 -0.1462
 7980SOL    HW135399   0.071   1.258  15.895 -0.6513 -3.0691 -0.1288
 7980SOL    HW235400   0.027   1.177  15.781 -1.9296 -3.3112  3.5583
 7981SOL     OW35401   0.186   4.337   8.466 -0.2299 -0.0559 -0.7394
 7981SOL    HW135402   0.202   4.249   8.433 -0.7815 -1.2088  2.0564
 7981SOL    HW235403   0.127   4.368   8.397 -0.0258  0.5984 -0.6252
 7982SOL     OW35404   0.126   2.310   9.666  0.6447  0.4940 -0.5595
 7982SOL    HW135405   0.120   2.310   9.762 -0.6683  0.8207 -0.6503
 7982SOL    HW235406   0.160   2.222   9.650  1.8465  1.1020 -1.3862
 7983SOL     OW35407   2.770   3.089  11.177  0.0319  0.2354 -0.3060
 7983SOL    HW135408   2.715   3.015  11.150 -0.1554  0.1544  0.3075
 7983SOL    HW235409   2.839   3.038  11.221 -0.9969 -0.1101  0.9076
 7984SOL     OW35410   0.549   2.382   7.817 -0.3065  0.0362 -0.5820
 7984SOL    HW135411   0.531   2.472   7.847 -0.4982 -0.6976  1.4987
 7984SOL    HW235412   0.571   2.345   7.902 -1.6640  2.0197  0.6454
 7985SOL     OW35413   3.173   0.289   5.215  0.4993  0.4922  0.0956
 7985SOL    HW135414   3.157   0.212   5.269 -1.5484  1.2751  0.5923
 7985SOL    HW235415   3.211   0.264   5.131 -0.1420  0.7124 -0.2651
 7986SOL     OW35416   0.661   1.541  11.634  0.1259 -0.7001  0.0377
 7986SOL    HW135417   0.738   1.518  11.686  0.2370 -0.3831  0.0129
 7986SOL    HW235418   0.615   1.463  11.604 -1.7230  1.3842 -2.5354
 7987SOL     OW35419   3.303   4.700  13.301 -0.0373 -0.1994 -0.4832
 7987SOL    HW135420   3.215   0.001  13.329  0.1544  2.7861 -2.6125
 7987SOL    HW235421   3.347   0.025  13.370  0.7888 -1.0244 -0.4048
 7988SOL     OW35422   4.642   1.986   9.014 -0.7847  0.1111 -0.1798
 7988SOL    HW135423   4.645   1.950   9.102  1.1008  2.0138  0.5260
 7988SOL    HW235424   4.602   2.069   9.038 -0.5591  0.1609  0.0200
 7989SOL     OW35425   1.440   3.198   2.961 -0.3359  0.4610 -0.4527
 7989SOL    HW135426   1.456   3.270   3.020 -0.2948  0.5919 -0.6234
 7989SOL    HW235427   1.430   3.242   2.876 -1.7939 -0.3999 -0.7409
 7990SOL     OW35428   3.776   2.608   7.414  0.4087  0.6718  0.4356
 7990SOL    HW135429   3.730   2.658   7.347 -1.3676 -2.5876 -0.7962
 7990SOL    HW235430   3.711   2.618   7.484 -2.6297 -1.1537 -2.1150
 7991SOL     OW35431   3.811   4.470   4.226  0.2030 -0.0665  0.0734
 7991SOL    HW135432   3.815   4.453   4.132 -2.7495 -0.9671  0.1238
 7991SOL    HW235433   3.899   4.505   4.244  1.2942 -3.0803  0.5849
 7992SOL     OW35434   1.424   1.617   8.294 -0.3384 -0.0428 -0.4186
 7992SOL    HW135435   1.361   1.595   8.225 -0.8136  1.5556 -0.4937
 7992SOL    HW235436   1.475   1.684   8.247 -1.5898  0.2842 -1.3169
 7993SOL     OW35437   1.980   2.636   0.720  0.3361 -0.1352  0.3621
 7993SOL    HW135438   1.927   2.653   0.798 -0.6765  1.9829 -0.7837
 7993SOL    HW235439   1.957   2.714   0.670  2.1474 -0.0382 -0.3310
 7994SOL     OW35440   1.641   3.582   1.312 -0.6598  0.5760 -0.5087
 7994SOL    HW135441   1.603   3.669   1.326 -0.5678  0.6145 -0.4936
 7994SOL    HW235442   1.696   3.576   1.391 -0.1780  1.2995 -0.7884
 7995SOL     OW35443   2.125   3.916   1.770  0.1717 -0.0555 -0.1740
 7995SOL    HW135444   2.151   3.951   1.685  0.2734 -0.5921 -0.3624
 7995SOL    HW235445   2.201   3.944   1.821  0.1904 -0.0287 -0.2172
 7996SOL     OW35446   4.450   3.656   3.150  0.2749 -0.0098 -0.0354
 7996SOL    HW135447   4.447   3.743   3.190  0.7283 -0.8738  1.9155
 7996SOL    HW235448   4.468   3.653   3.056 -1.6948 -0.0191 -0.4119
 7997SOL     OW35449   0.776   0.731   0.085  0.0529  0.4530  0.5372
 7997SOL    HW135450   0.763   0.790   0.011  0.8251  0.3451  0.3149
 7997SOL    HW235451   0.872   0.739   0.086  0.0510  0.8128 -2.2266
 7998SOL     OW35452   0.632   2.811  15.287 -0.4392 -0.2158  0.7303
 7998SOL    HW135453   0.541   2.838  15.303 -0.3256  0.9260 -0.5761
 7998SOL    HW235454   0.653   2.856  15.205 -4.0711  0.7059  0.3162
 7999SOL     OW35455   2.444   1.551   8.523 -0.7822  0.0733 -0.2429
 7999SOL    HW135456   2.535   1.519   8.521 -0.6012  0.6432 -1.3849
 7999SOL    HW235457   2.440   1.637   8.481 -0.3891  0.3594  0.3121
 8000SOL     OW35458   3.637   1.436   7.465  0.2633 -0.4130  0.5735
 8000SOL    HW135459   3.622   1.467   7.554  0.5284  0.9578  0.1307
 8000SOL    HW235460   3.563   1.376   7.454 -0.9255  0.9244  1.2178
 8001SOL     OW35461   4.327   2.379   2.614  0.1162 -0.2056  0.0634
 8001SOL    HW135462   4.386   2.310   2.646 -1.0324 -0.9710  0.5385
 8001SOL    HW235463   4.322   2.357   2.522 -0.6981  1.4772 -0.2907
 8002SOL     OW35464   3.924   2.863   7.252  0.0344 -0.4146 -0.4155
 8002SOL    HW135465   3.890   2.794   7.196  1.9947 -1.0689 -0.7918
 8002SOL    HW235466   3.845   2.912   7.275 -0.7071 -2.2554  0.8807
 8003SOL     OW35467   0.477   4.474   4.376 -0.0484  0.2104 -0.1045
 8003SOL    HW135468   0.413   4.409   4.404 -1.4856  2.3090  1.3994
 8003SOL    HW235469   0.493   4.526   4.454 -3.5065 -0.0304  0.7310
 8004SOL     OW35470   3.902   2.760  15.022 -0.4515  0.2246 -0.2553
 8004SOL    HW135471   3.917   2.665  15.021  0.3444  0.3293  0.9420
 8004SOL    HW235472   3.855   2.781  14.942 -1.0801  0.3153  0.1385
 8005SOL     OW35473   3.145   0.698   3.076 -0.1541  0.1625 -0.3568
 8005SOL    HW135474   3.205   0.668   3.007  0.7794  0.3194  0.3988
 8005SOL    HW235475   3.213   0.718   3.139  1.5672 -0.9870 -1.8273
 8006SOL     OW35476   1.029   1.589   6.478  0.0315  0.0122 -0.0673
 8006SOL    HW135477   1.070   1.639   6.549  1.1727 -0.4983 -0.3716
 8006SOL    HW235478   1.006   1.513   6.532 -1.9317 -0.1820 -1.1839
 8007SOL     OW35479   2.486   2.479   4.563 -0.2360  0.0351  0.6397
 8007SOL    HW135480   2.513   2.420   4.633  2.1743  1.4113  0.8638
 8007SOL    HW235481   2.423   2.532   4.611 -0.6304  0.9214 -0.8423
 8008SOL     OW35482   3.065   1.480  14.138 -0.2938  0.3130 -0.2683
 8008SOL    HW135483   3.037   1.551  14.196 -2.2164 -0.6446  0.0006
 8008SOL    HW235484   3.156   1.502  14.120 -0.8676  2.5030 -0.4693
 8009SOL     OW35485   4.668   4.679   2.750 -0.0383 -0.2212  0.2719
 8009SOL    HW135486   0.010   4.651   2.687 -1.3378  1.5797 -1.8965
 8009SOL    HW235487   0.016   4.714   2.802 -0.7948 -1.0524  1.8535
 8010SOL     OW35488   4.262   0.259   9.264 -0.4316  0.0199 -0.2552
 8010SOL    HW135489   4.187   0.229   9.214 -0.4405 -1.0350  0.3883
 8010SOL    HW235490   4.327   0.254   9.194  1.3443 -1.7262  1.4939
 8011SOL     OW35491   3.644   3.984   8.232 -0.2235  0.3056  0.3864
 8011SOL    HW135492   3.634   3.989   8.327 -1.0632  0.2707  0.2990
 8011SOL    HW235493   3.558   3.955   8.202 -0.2340  1.1449 -0.3687
 8012SOL     OW35494   0.372   3.174   7.475  0.4122 -0.6748 -0.2747
 8012SOL    HW135495   0.342   3.227   7.549 -2.8505 -1.7611 -0.8018
 8012SOL    HW235496   0.308   3.103   7.487  1.0392 -1.2997 -0.5804
 8013SOL     OW35497   2.733   4.427  12.433  0.3722 -0.5097  0.2056
 8013SOL    HW135498   2.713   4.358  12.370 -0.5893 -0.7337  0.7752
 8013SOL    HW235499   2.804   4.388  12.484  0.8312  0.0599  0.0079
 8014SOL     OW35500   3.119   3.591   6.994 -0.2830 -0.8330  0.1442
 8014SOL    HW135501   3.123   3.664   7.056 -0.1142 -2.3353  1.8830
 8014SOL    HW235502   3.151   3.520   7.048  1.6775 -0.1034 -0.0732
 8015SOL     OW35503   2.067   1.602   5.844  0.4645  0.0188 -0.3465
 8015SOL    HW135504   2.156   1.575   5.823  0.2549 -2.5120  2.0730
 8015SOL    HW235505   2.047   1.547   5.920 -0.0102  1.3097  0.4695
 8016SOL     OW35506   3.869   2.832   4.609 -0.2676 -0.7080 -0.2030
 8016SOL    HW135507   3.944   2.824   4.549 -1.1257  0.5458 -1.4444
 8016SOL    HW235508   3.811   2.882   4.551  0.5389  0.7811  0.2764
 8017SOL     OW35509   0.741   2.004   7.371 -0.5457  0.4564  0.4556
 8017SOL    HW135510   0.749   1.920   7.326  1.4530  1.3734 -0.8766
 8017SOL    HW235511   0.828   2.018   7.410 -0.8902 -0.1723  1.4611
 8018SOL     OW35512   3.288   2.297   5.748 -0.1741 -0.0111  0.1064
 8018SOL    HW135513   3.306   2.362   5.681  0.4710  0.3932  0.6802
 8018SOL    HW235514   3.240   2.345   5.815  0.6785 -0.3501  0.9667
 8019SOL     OW35515   4.221   0.486  16.671 -0.3220  0.0438 -0.1671
 8019SOL    HW135516   4.212   0.395  16.643 -0.6741 -0.3746  1.2970
 8019SOL    HW235517   4.212   0.532  16.588 -1.2166 -1.6407 -1.0021
 8020SOL     OW35518   0.924   0.835   5.704 -0.2813 -0.0976  0.0041
 8020SOL    HW135519   0.968   0.757   5.671  1.7603 -0.1112  2.7946
 8020SOL    HW235520   0.995   0.892   5.733 -0.7718 -0.4239  1.8435
 8021SOL     OW35521   2.163   0.023   8.010 -0.1365  0.4195  0.1352
 8021SOL    HW135522   2.156   0.026   8.105 -0.2940  0.7123  0.1145
 8021SOL    HW235523   2.244   4.702   7.989 -0.7872 -0.6203 -0.0965
 8022SOL     OW35524   4.454   3.282   2.242 -0.4135  0.2705 -0.2109
 8022SOL    HW135525   4.496   3.197   2.230 -0.4160  0.2521 -0.0953
 8022SOL    HW235526   4.390   3.257   2.309  1.8506 -1.5432  1.2800
 8023SOL     OW35527   3.163   0.412   2.042  0.4169 -0.0148 -0.3651
 8023SOL    HW135528   3.165   0.496   1.997  2.1082 -0.0305 -0.3325
 8023SOL    HW235529   3.150   0.434   2.134  0.1311  0.8847 -0.6196
 8024SOL     OW35530   4.214   3.643   7.573  0.0523 -0.2467 -0.8767
 8024SOL    HW135531   4.300   3.668   7.607 -0.2388 -1.8206  0.9776
 8024SOL    HW235532   4.183   3.589   7.645  2.1006  3.0287  2.5069
 8025SOL     OW35533   2.571   0.706   5.451  0.4229 -0.1702  0.2946
 8025SOL    HW135534   2.541   0.686   5.363  3.0117 -1.3668 -0.3052
 8025SOL    HW235535   2.639   0.640   5.448  1.1406  0.6505 -1.2375
 8026SOL     OW35536   1.458   1.270   8.681 -0.8590  0.3385  0.5144
 8026SOL    HW135537   1.417   1.319   8.610  0.4339  2.7870  1.4637
 8026SOL    HW235538   1.392   1.203   8.701 -0.7279 -0.0797 -0.4605
 8027SOL     OW35539   1.183   0.077  17.667 -0.0832 -0.2332  0.2834
 8027SOL    HW135540   1.184   0.062  17.572  2.0480  2.1315 -0.0836
 8027SOL    HW235541   1.117   0.015  17.696 -0.3119 -0.4688 -0.7324
 8028SOL     OW35542   2.456   1.714  15.847  0.7273 -0.1933 -0.2254
 8028SOL    HW135543   2.439   1.796  15.894  1.8243  1.2890 -2.3793
 8028SOL    HW235544   2.391   1.656  15.886 -1.8947  2.1567 -1.1125
 8029SOL     OW35545   1.052   4.482   9.767  0.1090 -0.8566 -0.6161
 8029SOL    HW135546   1.104   4.458   9.843  1.7726 -0.0846 -1.5229
 8029SOL    HW235547   0.974   4.527   9.799 -0.4325 -0.7116 -2.1394
 8030SOL     OW35548   2.662   4.004   5.968 -0.4651 -0.1587  0.0055
 8030SOL    HW135549   2.691   4.074   6.026 -2.0418 -0.5311  1.2072
 8030SOL    HW235550   2.730   3.999   5.900 -0.8230 -2.0724 -0.2108
 8031SOL     OW35551   2.872   2.916   4.682  0.4086  0.8351 -0.2149
 8031SOL    HW135552   2.963   2.940   4.662 -0.1485  1.4185 -2.0261
 8031SOL    HW235553   2.854   2.877   4.597  0.8901 -0.1230  0.1161
 8032SOL     OW35554   1.145   4.447   5.108 -0.3852  0.1926  0.7540
 8032SOL    HW135555   1.181   4.535   5.124  0.0429  0.5368 -2.1839
 8032SOL    HW235556   1.062   4.449   5.156 -1.8508  0.0171 -1.8074
 8033SOL     OW35557   3.747   3.725   7.195  0.0176 -0.8811 -0.3083
 8033SOL    HW135558   3.705   3.807   7.221  0.5043 -0.2558 -1.4792
 8033SOL    HW235559   3.837   3.757   7.199  0.0758 -1.2030  1.0617
 8034SOL     OW35560   0.105   2.166   6.922 -0.2008 -0.4223 -0.2197
 8034SOL    HW135561   0.119   2.260   6.933  1.7189 -0.5859 -1.1928
 8034SOL    HW235562   0.094   2.166   6.827  1.3397  4.3414 -0.3879
 8035SOL     OW35563   2.443   0.922   7.080  0.1005 -0.2723  0.4303
 8035SOL    HW135564   2.498   0.910   7.158 -1.8425  0.3167  1.8917
 8035SOL    HW235565   2.376   0.988   7.098 -0.8831 -1.4195  1.0288
 8036SOL     OW35566   3.871   3.264   3.046  0.3025 -0.4979 -0.5153
 8036SOL    HW135567   3.879   3.176   3.010 -0.8041 -0.8370  0.0620
 8036SOL    HW235568   3.797   3.299   2.996  0.5774  1.8301  0.6834
 8037SOL     OW35569   3.754   0.687   8.216 -0.6240 -0.3918 -0.1644
 8037SOL    HW135570   3.705   0.758   8.257 -0.4159 -0.1894 -0.2641
 8037SOL    HW235571   3.697   0.647   8.151 -0.6448 -0.1584 -0.2910
 8038SOL     OW35572   3.669   0.660  12.276 -0.4736  0.4788  0.0944
 8038SOL    HW135573   3.634   0.726  12.336  1.8452  1.5003  0.3252
 8038SOL    HW235574   3.687   0.714  12.199  1.0907 -1.7450 -1.0986
 8039SOL     OW35575   0.102   2.749  11.009  0.0436 -0.4507 -0.4001
 8039SOL    HW135576   0.192   2.781  11.014 -0.1520  0.2881 -1.6525
 8039SOL    HW235577   0.096   2.752  11.105  1.2934  0.5866 -0.3445
 8040SOL     OW35578   2.725   4.687   9.326 -0.6479  0.5709  0.1088
 8040SOL    HW135579   2.780   0.017   9.383  1.2587 -0.0761 -1.1054
 8040SOL    HW235580   2.740   4.714   9.236  1.7937  1.3980  0.7628
 8041SOL     OW35581   1.516   2.750  16.659 -0.4064 -0.7645  0.2332
 8041SOL    HW135582   1.466   2.832  16.653  0.2410 -0.3435  0.5580
 8041SOL    HW235583   1.599   2.790  16.684 -0.1979 -1.3439  0.4725
 8042SOL     OW35584   0.896   2.995   2.142  0.1494  0.4555  0.5013
 8042SOL    HW135585   0.840   3.022   2.069 -0.0148 -1.8118 -0.1882
 8042SOL    HW235586   0.840   2.962   2.212  2.3543  1.1375  2.5833
 8043SOL     OW35587   3.510   1.350   6.412  0.3990 -0.3746  0.3657
 8043SOL    HW135588   3.596   1.314   6.436  0.3397  0.3273  1.6506
 8043SOL    HW235589   3.493   1.294   6.337  0.4722 -0.6665  0.5674
 8044SOL     OW35590   3.503   0.096   2.347  0.3913  0.1457 -0.1598
 8044SOL    HW135591   3.411   0.089   2.323  0.1154  0.7592  0.7177
 8044SOL    HW235592   3.522   0.190   2.346 -0.1658  0.2486 -0.7085
 8045SOL     OW35593   0.060   3.051   2.643 -0.1907 -0.2735  0.2603
 8045SOL    HW135594   0.149   3.027   2.667  0.2912 -0.0657 -1.3244
 8045SOL    HW235595   4.724   3.010   2.704 -1.9235  0.7351 -0.7581
 8046SOL     OW35596   2.356   3.954   1.931  0.3289  0.7417  0.1374
 8046SOL    HW135597   2.410   3.887   1.972  0.3146  0.2032 -0.7390
 8046SOL    HW235598   2.370   4.029   1.989 -0.8431  0.5777  0.6364
 8047SOL     OW35599   1.259   0.113  16.853  0.0693 -0.0091  0.1752
 8047SOL    HW135600   1.264   0.136  16.760 -2.3840  1.7339  0.4634
 8047SOL    HW235601   1.343   0.069  16.864  0.9600  0.8760 -2.9569
 8048SOL     OW35602   3.843   3.857   4.402 -0.2508 -0.0575  0.3723
 8048SOL    HW135603   3.765   3.907   4.376  0.8707  1.5594  0.0937
 8048SOL    HW235604   3.904   3.881   4.332 -2.4444  1.0291 -1.1752
 8049SOL     OW35605   3.351   4.683   6.105  0.4474 -0.4644  0.4054
 8049SOL    HW135606   3.406   4.655   6.178  2.0172 -1.6984 -1.2469
 8049SOL    HW235607   3.402   4.648   6.031 -0.8130 -1.3149 -0.0595
 8050SOL     OW35608   4.344   1.207  17.196 -0.4623  0.5918  0.3138
 8050SOL    HW135609   4.265   1.156  17.177  0.9467 -1.7442  0.7358
 8050SOL    HW235610   4.294   1.280  17.233  0.1682  0.9088  0.5417
 8051SOL     OW35611   1.451   0.251   7.355  0.0527  0.3702  0.5484
 8051SOL    HW135612   1.469   0.329   7.303  1.5842 -0.4428 -0.1396
 8051SOL    HW235613   1.417   0.293   7.433  0.1752 -1.0141  1.3485
 8052SOL     OW35614   1.444   2.063   3.342  0.8900  0.1420  0.7074
 8052SOL    HW135615   1.414   2.004   3.273  1.1886  2.8951 -1.7797
 8052SOL    HW235616   1.422   2.002   3.413 -0.7811  0.6975  0.6650
 8053SOL     OW35617   1.830   2.488   7.730 -0.4412  0.0096 -0.2835
 8053SOL    HW135618   1.798   2.398   7.730  0.7355 -0.4153 -0.1363
 8053SOL    HW235619   1.833   2.495   7.825  1.9443 -0.9448 -0.2823
 8054SOL     OW35620   1.593   1.191  15.570  0.3438 -0.4990  0.7793
 8054SOL    HW135621   1.579   1.284  15.591 -2.6124 -0.7401 -0.0944
 8054SOL    HW235622   1.576   1.196  15.475  2.0274  0.1621  0.5200
 8055SOL     OW35623   3.340   4.333   6.998  0.4527  0.4291 -0.2053
 8055SOL    HW135624   3.404   4.330   7.070  1.6186 -1.8948 -1.3270
 8055SOL    HW235625   3.378   4.286   6.924  1.0543  2.7544 -1.3646
 8056SOL     OW35626   0.219   4.431  10.410 -0.3178 -0.0025  0.1313
 8056SOL    HW135627   0.196   4.419  10.318 -0.9614 -3.4003  0.7465
 8056SOL    HW235628   0.313   4.434  10.393  0.0293 -1.1430  1.8185
 8057SOL     OW35629   2.164   2.009   1.170 -0.2586 -0.0989 -0.3191
 8057SOL    HW135630   2.155   2.091   1.217  0.0689 -0.7002  0.8020
 8057SOL    HW235631   2.255   2.017   1.143 -0.7739 -1.0468 -2.3231
 8058SOL     OW35632   2.417   0.257  10.881 -0.0040  0.5706 -0.7114
 8058SOL    HW135633   2.387   0.271  10.971  2.6912  1.7779 -0.0073
 8058SOL    HW235634   2.357   0.306  10.825  1.5670  1.7668 -1.3259
 8059SOL     OW35635   4.271   0.345   8.684 -0.0946 -0.0599  0.3635
 8059SOL    HW135636   4.274   0.362   8.779  1.3341 -0.5817  0.4242
 8059SOL    HW235637   4.281   0.430   8.642  2.1504 -0.6666 -0.3229
 8060SOL     OW35638   1.822   0.187   7.977 -0.4345  0.0344  0.2429
 8060SOL    HW135639   1.728   0.206   7.969 -0.4238 -0.0768 -0.1790
 8060SOL    HW235640   1.857   0.239   7.905 -0.8647 -1.8465 -1.3401
 8061SOL     OW35641   3.066   2.265   7.986  0.1112  0.3233  0.1891
 8061SOL    HW135642   3.011   2.324   8.036 -0.1465 -1.5839  2.1721
 8061SOL    HW235643   2.998   2.220   7.935  0.0222  1.6237 -0.8235
 8062SOL     OW35644   2.185   3.206   1.302  0.0015 -0.0773  0.0174
 8062SOL    HW135645   2.151   3.269   1.239 -0.6905 -0.6352 -0.1816
 8062SOL    HW235646   2.247   3.157   1.248 -0.3039  0.7913 -1.1243
 8063SOL     OW35647   3.163   1.474  11.099 -0.0268 -0.8656 -0.6321
 8063SOL    HW135648   3.148   1.422  11.020 -0.2808  1.3550 -2.0343
 8063SOL    HW235649   3.210   1.553  11.072 -0.5965 -0.4931 -0.5085
 8064SOL     OW35650   3.038   2.683   7.608  0.0522 -0.5113 -0.1205
 8064SOL    HW135651   3.109   2.650   7.553 -1.4039 -0.2284 -2.1520
 8064SOL    HW235652   3.073   2.765   7.644  2.7685 -0.5045 -2.7649
 8065SOL     OW35653   3.394   2.451  15.156  0.1068 -0.2257  0.2349
 8065SOL    HW135654   3.372   2.542  15.177 -2.5005 -1.6075  3.4395
 8065SOL    HW235655   3.466   2.463  15.094  0.1264 -1.5837 -0.0211
 8066SOL     OW35656   3.665   2.998   4.146  0.3596  0.4318 -0.2800
 8066SOL    HW135657   3.712   3.036   4.072  1.5234 -0.8684 -0.2256
 8066SOL    HW235658   3.625   2.917   4.115 -0.9177  1.2675 -0.7933
 8067SOL     OW35659   0.877   4.037   9.026 -0.2821  0.5966  0.3463
 8067SOL    HW135660   0.868   4.119   8.978 -1.6463  0.5691  0.5721
 8067SOL    HW235661   0.902   4.074   9.111  1.0057  2.0883 -0.6817
 8068SOL     OW35662   3.192   4.651   1.329 -0.2072 -0.2175 -0.4998
 8068SOL    HW135663   3.237   0.007   1.351  0.7984 -0.4560 -1.6687
 8068SOL    HW235664   3.248   4.577   1.305 -1.5050 -0.6998 -2.0667
 8069SOL     OW35665   4.130   2.534   4.584  0.0803  0.1398  0.4336
 8069SOL    HW135666   4.123   2.573   4.672  1.5334 -2.1341  1.5425
 8069SOL    HW235667   4.202   2.472   4.594 -0.7044 -0.7920  0.3503
 8070SOL     OW35668   4.090   4.235   3.846 -0.2111 -0.5564  0.2788
 8070SOL    HW135669   4.134   4.259   3.928  1.7326 -0.2193 -0.8744
 8070SOL    HW235670   4.118   4.146   3.827 -2.0624 -1.0043 -0.3860
 8071SOL     OW35671   3.565   4.399   2.931  0.3100  0.2728  0.3231
 8071SOL    HW135672   3.593   4.430   3.018 -0.5789 -4.5590  2.3240
 8071SOL    HW235673   3.641   4.431   2.882 -0.0375  0.4962 -0.0683
 8072SOL     OW35674   2.880   2.746   5.855 -0.2412 -0.0204  0.3056
 8072SOL    HW135675   2.868   2.717   5.945  1.7344  0.9697  0.8940
 8072SOL    HW235676   2.797   2.787   5.834  1.0598  2.2701 -0.4284
 8073SOL     OW35677   3.755   4.217   6.168 -0.0324  0.3384 -0.2055
 8073SOL    HW135678   3.697   4.167   6.224 -2.2453  3.0658 -0.0737
 8073SOL    HW235679   3.739   4.307   6.198  0.6501  0.0077  1.1270
 8074SOL     OW35680   0.463   0.228  13.894 -0.0347 -0.1863 -0.0915
 8074SOL    HW135681   0.517   0.173  13.950  0.5009  1.2208  0.7790
 8074SOL    HW235682   0.421   0.283  13.961  1.9424  0.7767  0.3414
 8075SOL     OW35683   0.827   3.233  16.865 -0.3427  0.3596 -0.2281
 8075SOL    HW135684   0.797   3.322  16.846  1.0161  1.2972  2.0460
 8075SOL    HW235685   0.796   3.229  16.955 -0.8207  1.2793 -0.3507
 8076SOL     OW35686   3.757   1.306   2.502 -0.1860  0.5236 -0.3226
 8076SOL    HW135687   3.803   1.330   2.582  0.5180 -0.4112 -0.4430
 8076SOL    HW235688   3.814   1.233   2.476  2.0761  1.3506  2.3608
 8077SOL     OW35689   0.276   2.725   5.848 -0.2740  0.6658 -0.0336
 8077SOL    HW135690   0.336   2.759   5.915 -0.3744 -2.5606  1.7081
 8077SOL    HW235691   0.322   2.757   5.770 -2.0752 -0.7431 -1.6716
 8078SOL     OW35692   0.712   1.669   6.176 -0.1652  0.2313 -0.2296
 8078SOL    HW135693   0.784   1.651   6.237 -0.0083 -0.3969 -0.6007
 8078SOL    HW235694   0.706   1.580   6.142 -0.8918 -0.5766  1.9974
 8079SOL     OW35695   3.385   1.441  10.158 -1.0254 -0.0350  0.0046
 8079SOL    HW135696   3.413   1.521  10.113  0.7551  0.0151  1.1925
 8079SOL    HW235697   3.383   1.477  10.247 -2.1614 -1.1294  0.4203
 8080SOL     OW35698   1.805   0.845  15.029 -0.2991 -0.3153 -0.0052
 8080SOL    HW135699   1.787   0.939  15.035 -0.8156 -0.3770 -0.5197
 8080SOL    HW235700   1.850   0.835  14.945 -0.9028 -2.8707 -0.0223
 8081SOL     OW35701   2.232   1.026   1.671 -0.4418 -0.4860  0.7427
 8081SOL    HW135702   2.226   1.001   1.579  0.6520 -0.4133  0.6543
 8081SOL    HW235703   2.142   1.058   1.683  0.2868  1.2835  1.4035
 8082SOL     OW35704   2.523   4.198   7.035 -0.4158  0.5257  0.8144
 8082SOL    HW135705   2.500   4.284   7.070 -1.1616 -0.3073  2.3765
 8082SOL    HW235706   2.617   4.209   7.022 -0.8227  2.5931 -0.3947
 8083SOL     OW35707   0.362   0.841   4.888  0.4727  0.2462  0.2033
 8083SOL    HW135708   0.435   0.863   4.946  1.3731 -1.7838 -0.1931
 8083SOL    HW235709   0.402   0.850   4.802  0.0237 -1.7586 -0.2107
 8084SOL     OW35710   3.307   0.334   8.513  0.2699  0.9441 -0.0800
 8084SOL    HW135711   3.342   0.345   8.424  2.7336 -0.2262  0.7426
 8084SOL    HW235712   3.355   0.258   8.545  0.3956  1.7788  1.7208
 8085SOL     OW35713   2.309   0.022   8.910 -0.4029  0.0185 -0.0388
 8085SOL    HW135714   2.242   0.062   8.966  1.1216 -1.2363  2.6726
 8085SOL    HW235715   2.308   4.662   8.955  0.2242  0.2578  0.4231
 8086SOL     OW35716   0.192   0.260   6.013  0.3112 -0.0580  0.3178
 8086SOL    HW135717   0.250   0.336   6.022 -1.7426  1.5038  0.5047
 8086SOL    HW235718   0.140   0.269   6.092 -0.3483 -0.4293 -0.0788
 8087SOL     OW35719   0.832   1.166  12.335  0.0100 -0.7187 -0.0958
 8087SOL    HW135720   0.834   1.093  12.273 -2.3942  1.4377 -2.7463
 8087SOL    HW235721   0.884   1.228  12.283  1.0490 -0.1073  1.6744
 8088SOL     OW35722   3.096   3.646  14.793 -0.9147 -0.1084 -0.1683
 8088SOL    HW135723   3.031   3.576  14.786  0.6192 -1.4076 -1.3452
 8088SOL    HW235724   3.039   3.714  14.829  1.2903  1.2139  0.7812
 8089SOL     OW35725   0.934   3.422   6.479  0.1308 -0.1352  0.2090
 8089SOL    HW135726   0.869   3.433   6.409  1.1643 -0.7544 -0.8455
 8089SOL    HW235727   1.018   3.446   6.438  0.2546 -2.1698 -0.7218
 8090SOL     OW35728   2.067   1.962  12.808 -0.3760  0.7006  0.1280
 8090SOL    HW135729   2.114   1.934  12.886 -1.2222 -1.1443 -0.0276
 8090SOL    HW235730   2.050   2.052  12.836 -0.1151  0.3013  1.5872
 8091SOL     OW35731   2.312   0.768   1.778  0.4839 -0.2934  0.4500
 8091SOL    HW135732   2.301   0.863   1.783  3.1511  0.0624 -0.2145
 8091SOL    HW235733   2.245   0.745   1.842 -0.0059 -0.3790 -0.0891
 8092SOL     OW35734   2.974   1.739   1.541 -0.4555  0.8193 -0.0341
 8092SOL    HW135735   2.921   1.716   1.616 -0.1479  0.9026  0.2093
 8092SOL    HW235736   3.050   1.685   1.563 -0.0674  1.5872  0.5345
 8093SOL     OW35737   3.329   2.329   9.445 -0.1086 -0.4359 -0.4412
 8093SOL    HW135738   3.335   2.380   9.525  0.5235 -0.4017 -0.5077
 8093SOL    HW235739   3.360   2.247   9.484 -0.3373  0.3091  1.2599
 8094SOL     OW35740   1.692   4.067   0.425  0.2516  0.6995 -0.0250
 8094SOL    HW135741   1.647   4.108   0.351  0.8783  1.0092 -0.2305
 8094SOL    HW235742   1.731   4.149   0.455  0.3838  1.2857 -1.8100
 8095SOL     OW35743   1.858   0.867   1.638  0.3153  0.2853 -0.0282
 8095SOL    HW135744   1.846   0.827   1.724  2.3921  3.2000  1.5937
 8095SOL    HW235745   1.821   0.955   1.644 -0.6458 -0.1517  0.3505
 8096SOL     OW35746   4.562   4.457   8.036  0.0647  0.6007 -0.2506
 8096SOL    HW135747   4.613   4.474   8.116 -0.9571 -0.1772  0.5665
 8096SOL    HW235748   4.613   4.506   7.972 -1.8945  2.7107 -0.1718
 8097SOL     OW35749   1.185   0.757  13.310  0.1623 -0.5663  0.9253
 8097SOL    HW135750   1.178   0.682  13.369 -0.5157 -0.8314  0.5050
 8097SOL    HW235751   1.125   0.816  13.357  1.1278  0.5212  0.7963
 8098SOL     OW35752   4.611   3.975   3.603  0.3538  0.0855  0.2603
 8098SOL    HW135753   4.541   3.964   3.539  2.0939  0.1229 -1.6431
 8098SOL    HW235754   4.684   3.920   3.577  1.1158 -0.2181  3.0021
 8099SOL     OW35755   3.332   0.224   4.503 -0.0775 -0.2500 -0.3105
 8099SOL    HW135756   3.381   0.146   4.476  0.9004  0.7169 -1.3305
 8099SOL    HW235757   3.316   0.218   4.597  1.1436 -0.4649 -0.1149
 8100SOL     OW35758   4.609   1.816   4.731 -0.2094  0.0455  0.5121
 8100SOL    HW135759   4.655   1.860   4.659 -1.5357 -0.5574 -0.7097
 8100SOL    HW235760   4.539   1.875   4.759 -0.3542  0.8701 -1.6205
 8101SOL     OW35761   1.635   4.271   7.412  0.0318  0.4110 -0.1247
 8101SOL    HW135762   1.633   4.347   7.470  0.2793  2.2549 -2.5565
 8101SOL    HW235763   1.709   4.227   7.455  0.2901  1.2817  0.3256
 8102SOL     OW35764   2.438   4.569  11.815  0.5601  0.3738  0.3115
 8102SOL    HW135765   2.473   4.545  11.729  1.0597  0.5593  0.4642
 8102SOL    HW235766   2.379   4.496  11.829  1.2058 -0.6713 -2.5140
 8103SOL     OW35767   3.373   3.280   4.037 -0.3306 -0.2242 -0.1797
 8103SOL    HW135768   3.315   3.333   4.093  0.8968 -1.0084  1.8389
 8103SOL    HW235769   3.440   3.267   4.104 -1.5044  0.4298  1.1542
 8104SOL     OW35770   0.541   2.053  10.515 -0.4845 -0.9343  0.4967
 8104SOL    HW135771   0.564   1.963  10.494  2.3710 -0.2654  0.7397
 8104SOL    HW235772   0.489   2.075  10.438 -0.9309  1.5161  1.4939
 8105SOL     OW35773   0.231   3.459  17.591 -0.4847 -0.5357 -0.3627
 8105SOL    HW135774   0.148   3.427  17.626 -0.7513 -0.0331 -0.5294
 8105SOL    HW235775   0.204   3.485  17.502 -0.7934  2.0489  0.4934
 8106SOL     OW35776   1.939   1.757   3.947  0.4332  0.2135  0.3058
 8106SOL    HW135777   1.922   1.663   3.937  0.0656  0.2634  0.4744
 8106SOL    HW235778   1.945   1.799   3.861  0.6776  1.4408  0.9166
 8107SOL     OW35779   2.185   2.348   3.714  0.3486  0.1246 -0.0366
 8107SOL    HW135780   2.262   2.311   3.758 -0.0183  1.4896  1.7435
 8107SOL    HW235781   2.131   2.277   3.749 -3.4683  2.0705 -1.9649
 8108SOL     OW35782   2.673   0.108   4.291 -0.4814 -0.3661 -0.2364
 8108SOL    HW135783   2.655   0.085   4.200  3.6794 -0.7590 -0.9705
 8108SOL    HW235784   2.626   0.039   4.338  1.1812 -0.1294  1.7613
 8109SOL     OW35785   1.815   1.255   5.053 -0.0630  0.1061  0.0986
 8109SOL    HW135786   1.862   1.332   5.020 -1.8115  1.5593  1.0171
 8109SOL    HW235787   1.784   1.291   5.135  1.8919  2.1483 -0.0730
 8110SOL     OW35788   3.298   0.935  10.261  0.1295  0.1487 -0.1917
 8110SOL    HW135789   3.370   0.941  10.325 -0.5234 -4.4410  1.0134
 8110SOL    HW235790   3.295   1.029  10.244 -0.6784  0.2214  0.3328
 8111SOL     OW35791   1.918   4.177   0.923 -0.1425 -0.2899 -0.0682
 8111SOL    HW135792   2.004   4.160   0.884  1.0387  2.3557  1.4112
 8111SOL    HW235793   1.863   4.191   0.846  0.1334 -3.2149 -0.8087
 8112SOL     OW35794   0.946   0.341   5.237 -0.2552 -0.1850  0.5482
 8112SOL    HW135795   0.982   0.405   5.176  0.5122 -0.3320  0.8514
 8112SOL    HW235796   1.020   0.287   5.266  0.4238 -0.3598 -1.4668
 8113SOL     OW35797   1.652   4.448   5.751 -0.4330 -0.2482  0.2791
 8113SOL    HW135798   1.635   4.476   5.661  0.5599  0.1825  0.2205
 8113SOL    HW235799   1.655   4.353   5.738 -0.4292 -0.4112  1.4656
 8114SOL     OW35800   3.103   2.075   4.830 -0.0078 -0.5716 -0.2208
 8114SOL    HW135801   3.067   2.161   4.806  0.4193 -0.0120  1.1483
 8114SOL    HW235802   3.032   2.041   4.883 -0.8571 -1.5386 -1.9869
 8115SOL     OW35803   2.521   1.902   0.172  0.2697 -0.2487 -0.0468
 8115SOL    HW135804   2.495   1.823   0.125 -0.7905 -2.0068  3.4579
 8115SOL    HW235805   2.434   1.932   0.199  1.3774  0.9383  2.2166
 8116SOL     OW35806   2.969   4.455   2.509  0.1674  0.0910 -0.0109
 8116SOL    HW135807   3.005   4.390   2.448  0.3286  0.0589  0.1190
 8116SOL    HW235808   2.918   4.403   2.571 -0.7484  0.6637 -0.2850
 8117SOL     OW35809   4.491   1.334   5.633  1.0231  0.3274 -0.3130
 8117SOL    HW135810   4.479   1.291   5.717  1.4605 -1.4229 -1.1570
 8117SOL    HW235811   4.452   1.277   5.567  0.0974  0.3853  0.1869
 8118SOL     OW35812   2.306   4.530   9.384 -0.5430  0.2854 -0.4193
 8118SOL    HW135813   2.319   4.447   9.337  0.4833 -0.0373  0.4403
 8118SOL    HW235814   2.214   4.546   9.362 -0.6339  2.2723  1.4856
 8119SOL     OW35815   2.272   4.431  14.639  0.2745  0.5039  0.2740
 8119SOL    HW135816   2.279   4.336  14.642  1.5789  0.5771 -0.5965
 8119SOL    HW235817   2.322   4.466  14.712 -1.5679 -0.1698  1.8498
 8120SOL     OW35818   4.140   2.040   4.985 -0.4119  0.3327 -0.3147
 8120SOL    HW135819   4.200   2.102   5.026 -1.0297 -0.4296  1.7499
 8120SOL    HW235820   4.141   1.976   5.056  2.1810  0.0080 -0.6317
 8121SOL     OW35821   1.637   3.535   7.126 -0.2477 -0.3979  0.1032
 8121SOL    HW135822   1.691   3.578   7.060  2.0245 -0.2964  2.0419
 8121SOL    HW235823   1.690   3.548   7.204  0.4308 -0.7005 -0.3082
 8122SOL     OW35824   4.100   0.210  14.382 -0.0738 -0.4716  0.4097
 8122SOL    HW135825   4.029   0.269  14.409 -1.5181 -1.4445 -1.1998
 8122SOL    HW235826   4.083   0.214  14.288  1.4274  0.5027  0.1906
 8123SOL     OW35827   1.674   0.726   0.705  0.4334 -0.2247 -0.2426
 8123SOL    HW135828   1.591   0.701   0.665  1.4863 -1.8446 -1.4629
 8123SOL    HW235829   1.681   0.679   0.788  0.1323  0.6855  0.2904
 8124SOL     OW35830   1.928   0.655  13.678  0.4624  0.1058  0.0230
 8124SOL    HW135831   1.870   0.579  13.681 -0.6950  0.9663 -0.0970
 8124SOL    HW235832   2.013   0.616  13.663 -0.0634 -1.1829  0.4444
 8125SOL     OW35833   1.540   3.128  15.190 -0.2707 -0.2411  0.0826
 8125SOL    HW135834   1.566   3.172  15.271  1.7480  0.1619 -0.7972
 8125SOL    HW235835   1.474   3.183  15.148 -2.9941 -2.0609  1.9365
 8126SOL     OW35836   4.486   0.601   4.280 -0.2250  0.0842  0.5043
 8126SOL    HW135837   4.525   0.626   4.196  0.0657  0.8649  0.8719
 8126SOL    HW235838   4.536   0.657   4.340 -0.7107  0.6770  0.3565
 8127SOL     OW35839   4.317   2.395   8.482  0.2069 -0.6002  0.4119
 8127SOL    HW135840   4.343   2.471   8.536 -0.6002 -0.3272  0.4238
 8127SOL    HW235841   4.351   2.321   8.532  2.6695  1.6852  2.1599
 8128SOL     OW35842   2.930   1.011   5.529 -0.2115  0.1124  0.1687
 8128SOL    HW135843   2.957   1.088   5.579  0.6779 -0.1027  0.0148
 8128SOL    HW235844   2.894   0.954   5.598  2.8936 -1.5884  0.4002
 8129SOL     OW35845   0.262   4.065   3.008  0.3487 -0.1871  0.4607
 8129SOL    HW135846   0.262   4.023   2.922  0.3079  1.0783 -0.1577
 8129SOL    HW235847   0.355   4.056   3.030  0.2774 -1.2016  0.3392
 8130SOL     OW35848   3.792   0.349  14.842 -0.1349  0.0110  0.3657
 8130SOL    HW135849   3.881   0.351  14.808  0.7091  1.7060  2.6282
 8130SOL    HW235850   3.774   0.257  14.861 -1.9580  0.6486  1.6889
 8131SOL     OW35851   3.020   0.144  16.704  0.0604  0.2736 -0.3513
 8131SOL    HW135852   2.936   0.120  16.664  0.4534 -2.8752  0.7422
 8131SOL    HW235853   2.997   0.202  16.777  0.9046  0.0314  0.1013
 8132SOL     OW35854   2.219   2.737  10.816  0.2677  0.1592  0.3881
 8132SOL    HW135855   2.228   2.738  10.911 -0.5153  0.0071  0.4643
 8132SOL    HW235856   2.126   2.740  10.795  0.5939  3.2634 -0.5473
 8133SOL     OW35857   0.303   0.058   3.808 -0.3468  0.2346 -0.2252
 8133SOL    HW135858   0.274   4.694   3.787 -2.4797  0.1531  3.0030
 8133SOL    HW235859   0.339   0.101   3.731 -0.9960  0.8249 -0.2020
 8134SOL     OW35860   0.500   0.064   4.844 -0.5562 -0.5053 -0.0549
 8134SOL    HW135861   0.454   0.103   4.919  1.2992  0.7488  0.4551
 8134SOL    HW235862   0.477   0.133   4.782  0.3463 -0.6560 -0.5623
 8135SOL     OW35863   2.605   2.315   7.119  0.1828  0.0454 -0.0528
 8135SOL    HW135864   2.615   2.344   7.029  1.0859  4.3594  1.3978
 8135SOL    HW235865   2.657   2.236   7.130  1.9096  1.0788 -0.7729
 8136SOL     OW35866   2.775   0.019   5.763 -0.1933  0.3672 -0.1816
 8136SOL    HW135867   2.848   4.709   5.712 -1.2415 -0.1542 -1.3291
 8136SOL    HW235868   2.701   4.716   5.709  1.7581 -1.4791 -1.8773
 8137SOL     OW35869   0.643   4.511  16.558  0.3589 -0.2095  0.0263
 8137SOL    HW135870   0.735   4.484  16.561 -0.3579 -2.7055 -0.3594
 8137SOL    HW235871   0.607   4.451  16.624  0.1206 -1.4453 -1.2088
 8138SOL     OW35872   3.040   3.217   2.959  0.0412  0.4155 -0.1933
 8138SOL    HW135873   2.983   3.275   2.909 -0.7634  0.1575  0.4266
 8138SOL    HW235874   2.977   3.170   3.014  1.3004 -2.1958 -0.9631
 8139SOL     OW35875   2.718   1.058   2.122  0.1539  0.3269  0.2077
 8139SOL    HW135876   2.788   1.074   2.185 -0.1838  2.5738 -0.0034
 8139SOL    HW235877   2.763   1.016   2.048 -0.6333  1.5195 -0.9408
 8140SOL     OW35878   1.737   1.233   3.919  0.0767 -0.9315  0.6750
 8140SOL    HW135879   1.742   1.263   4.010 -0.3142 -1.1615  0.7720
 8140SOL    HW235880   1.644   1.212   3.918 -0.2076  0.3930 -1.1048
 8141SOL     OW35881   2.736   3.786  17.679  0.1519 -0.5058 -0.1786
 8141SOL    HW135882   2.788   3.862  17.651  0.4893 -0.6149  0.1631
 8141SOL    HW235883   2.726   3.824   0.065  0.1268  0.7551 -0.7307
 8142SOL     OW35884   1.367   1.794   4.556  0.0722 -0.6067  0.2573
 8142SOL    HW135885   1.411   1.731   4.612 -0.5616 -1.2927 -0.0193
 8142SOL    HW235886   1.384   1.769   4.465  0.8916  1.8091 -0.2665
 8143SOL     OW35887   1.279   2.778   7.722  0.4055  0.4215  0.2115
 8143SOL    HW135888   1.217   2.772   7.795 -0.5100  1.3878 -0.4810
 8143SOL    HW235889   1.223   2.774   7.644  0.5989  0.9663  0.0468
 8144SOL     OW35890   0.559   0.850  12.206 -0.2631 -0.0797 -0.8412
 8144SOL    HW135891   0.539   0.756  12.205 -2.1155  0.3295 -1.0328
 8144SOL    HW235892   0.515   0.864  12.289 -0.1643  1.2716 -1.0114
 8145SOL     OW35893   1.231   3.678   1.942  0.3327 -0.2202 -0.5597
 8145SOL    HW135894   1.141   3.654   1.919 -0.4652  2.4919 -0.3116
 8145SOL    HW235895   1.216   3.739   2.014  0.1895 -0.4827 -0.3705
 8146SOL     OW35896   2.789   0.180   2.187  0.3620 -0.3023  0.3481
 8146SOL    HW135897   2.837   0.117   2.240  0.1630  1.4102  2.5509
 8146SOL    HW235898   2.713   0.129   2.161 -1.1256  1.4048  1.3467
 8147SOL     OW35899   3.026   3.643   3.055  0.3484 -0.4785 -0.0019
 8147SOL    HW135900   3.113   3.611   3.076  0.4990  0.2194  0.4363
 8147SOL    HW235901   3.046   3.732   3.026 -1.4421 -0.5027 -1.3280
 8148SOL     OW35902   2.199   0.879   4.020 -0.5071  0.5337 -0.1481
 8148SOL    HW135903   2.111   0.879   4.056 -0.3006 -3.9476  0.2687
 8148SOL    HW235904   2.216   0.974   4.016 -0.5122  0.5999  1.3252
 8149SOL     OW35905   4.407   4.377   7.420 -0.5352 -0.5836  0.3134
 8149SOL    HW135906   4.332   4.436   7.417 -0.1639 -0.1315 -0.0328
 8149SOL    HW235907   4.475   4.433   7.458 -1.6494  1.1617 -0.3075
 8150SOL     OW35908   4.660   2.301   0.871 -0.2499  0.1096  0.1077
 8150SOL    HW135909   4.695   2.295   0.782 -0.0263  0.4588  0.1723
 8150SOL    HW235910   4.640   2.395   0.871  2.4035  0.6630  1.7036
 8151SOL     OW35911   0.663   1.753  16.094  0.0499 -0.5508  0.0265
 8151SOL    HW135912   0.637   1.783  16.007  0.3199 -1.3999 -0.3433
 8151SOL    HW235913   0.671   1.659  16.078 -2.1359 -0.8124  0.4730
 8152SOL     OW35914   0.049   1.658   7.457  0.2612  0.1975 -0.2222
 8152SOL    HW135915   0.003   1.586   7.415 -1.0764  0.3009  1.0788
 8152SOL    HW235916   0.023   1.741   7.417  0.9165  1.2033  1.4448
 8153SOL     OW35917   4.404   0.856   5.522 -0.2650 -0.6122 -0.2671
 8153SOL    HW135918   4.343   0.847   5.596  0.8417  1.2880  0.8389
 8153SOL    HW235919   4.399   0.773   5.474  0.5540  0.4032 -2.1023
 8154SOL     OW35920   2.021   1.546   8.849  0.0726  0.0039  0.0755
 8154SOL    HW135921   2.102   1.584   8.816  1.2407 -2.2781  0.2734
 8154SOL    HW235922   2.028   1.452   8.828  6.4032  1.0047 -2.2235
 8155SOL     OW35923   1.872   2.808   3.176  0.5417 -0.8107  0.1294
 8155SOL    HW135924   1.865   2.876   3.109  0.9478 -2.5933 -1.7065
 8155SOL    HW235925   1.777   2.797   3.182  0.4609  0.3468  1.0004
 8156SOL     OW35926   0.848   3.417   5.952 -0.0985  0.5113 -0.3425
 8156SOL    HW135927   0.825   3.356   6.022 -1.1862 -0.5366 -1.6101
 8156SOL    HW235928   0.841   3.504   5.989 -1.7971 -0.3354  1.2968
 8157SOL     OW35929   1.292   4.150   7.540 -0.0580  0.7548  0.4275
 8157SOL    HW135930   1.311   4.221   7.479  1.8037  0.2094  0.3427
 8157SOL    HW235931   1.259   4.092   7.471  2.0061  0.0463  0.0196
 8158SOL     OW35932   3.340   1.530  13.975 -0.3975 -0.1396 -0.2270
 8158SOL    HW135933   3.328   1.445  13.933  1.2675  0.1771 -1.3347
 8158SOL    HW235934   3.294   1.588  13.915 -0.1312  1.5487  1.1865
 8159SOL     OW35935   4.679   2.911   6.603 -0.3925 -0.3736 -0.1783
 8159SOL    HW135936   0.029   2.969   6.594 -1.2639  0.8831  0.6146
 8159SOL    HW235937   4.625   2.959   6.541 -2.3579 -1.8106  0.4101
 8160SOL     OW35938   0.858   3.190   4.273  0.1112 -0.1080  0.3004
 8160SOL    HW135939   0.794   3.165   4.340 -0.6218 -2.2123 -1.1867
 8160SOL    HW235940   0.938   3.191   4.325 -0.1928 -0.9244  0.7817
 8161SOL     OW35941   1.998   2.860   8.218  0.6353 -0.1083  0.0431
 8161SOL    HW135942   2.001   2.824   8.129 -2.6563 -0.0435 -0.0809
 8161SOL    HW235943   1.949   2.940   8.200 -0.5352 -1.0420 -0.8990
 8162SOL     OW35944   0.114   0.821  15.045  0.0050 -0.0191 -0.0117
 8162SOL    HW135945   0.191   0.798  14.995 -0.7923 -0.5414 -0.9887
 8162SOL    HW235946   0.059   0.881  14.994 -0.6574 -0.3944  0.2617
 8163SOL     OW35947   2.649   2.696   4.754 -0.2712  0.3308  0.4244
 8163SOL    HW135948   2.607   2.780   4.767 -1.2590 -0.1397  0.2719
 8163SOL    HW235949   2.692   2.713   4.670 -2.7011 -0.3818 -0.9565
 8164SOL     OW35950   1.625   0.826   3.720 -0.4959 -0.3506  0.0165
 8164SOL    HW135951   1.704   0.837   3.772  0.1154  0.0919 -0.9908
 8164SOL    HW235952   1.640   0.751   3.662 -1.1774 -0.3312 -0.1890
 8165SOL     OW35953   4.719   3.604   5.646  0.3553 -0.0875  0.6215
 8165SOL    HW135954   4.718   3.663   5.571  2.3155  1.9716  2.2393
 8165SOL    HW235955   0.087   3.604   5.670  0.3915  1.2020  0.4376
 8166SOL     OW35956   2.450   0.895   2.593  0.0747  0.2438 -0.2176
 8166SOL    HW135957   2.484   0.905   2.682  1.0821 -0.8007 -0.4841
 8166SOL    HW235958   2.529   0.913   2.542 -2.4733 -0.4550 -4.4495
 8167SOL     OW35959   0.438   2.045   9.824 -0.6105 -0.1611  0.0974
 8167SOL    HW135960   0.462   2.085   9.908 -1.5164  0.0086  0.2761
 8167SOL    HW235961   0.526   2.024   9.791 -0.7527 -0.5432 -0.0298
 8168SOL     OW35962   2.105   0.555   3.854  0.2354  0.5325 -0.6676
 8168SOL    HW135963   2.036   0.496   3.826  0.5488 -1.0050  1.8374
 8168SOL    HW235964   2.126   0.601   3.772 -0.7051  1.1411 -0.5651
 8169SOL     OW35965   0.456   2.982   3.174 -0.2609 -0.1806  0.1437
 8169SOL    HW135966   0.421   3.062   3.212  0.6408  0.3144 -0.0763
 8169SOL    HW235967   0.518   3.000   3.103  1.9115 -2.8517  1.3530
 8170SOL     OW35968   3.018   1.486   9.177  0.2479 -0.4138  0.3124
 8170SOL    HW135969   3.086   1.428   9.141  1.0866 -0.9889  2.7836
 8170SOL    HW235970   3.022   1.568   9.128 -1.9644  0.0968  1.0017
 8171SOL     OW35971   3.650   1.628   8.189  0.0617  0.1220 -0.0001
 8171SOL    HW135972   3.721   1.602   8.131 -1.2325  1.2132 -2.0657
 8171SOL    HW235973   3.568   1.617   8.140  1.2411 -1.9689 -1.5173
 8172SOL     OW35974   4.575   1.101  15.262 -0.3058 -0.0693  0.0022
 8172SOL    HW135975   4.530   1.042  15.322  0.7259 -1.4024 -0.5568
 8172SOL    HW235976   4.636   1.144  15.322 -0.2019 -0.8562  0.4586
 8173SOL     OW35977   2.275   3.975  10.092  0.6427 -0.3763 -0.5919
 8173SOL    HW135978   2.305   3.959  10.182  1.5045 -1.6676 -1.0981
 8173SOL    HW235979   2.307   4.065  10.088  2.3475 -0.9430  0.3320
 8174SOL     OW35980   0.594   1.408   2.113 -0.1329 -0.4202 -0.2371
 8174SOL    HW135981   0.510   1.418   2.069 -0.6223  1.9249  1.2029
 8174SOL    HW235982   0.639   1.490   2.092 -1.9325  0.3937 -0.8414
 8175SOL     OW35983   4.143   1.353   7.433  0.1872 -0.0904  0.0286
 8175SOL    HW135984   4.049   1.356   7.416  0.3866 -0.4539 -1.1783
 8175SOL    HW235985   4.136   1.364   7.527  0.1449 -0.6466  0.0878
 8176SOL     OW35986   4.389   2.719  14.254 -0.3395  0.7874 -0.3323
 8176SOL    HW135987   4.408   2.726  14.348  2.6459  2.1023 -1.0146
 8176SOL    HW235988   4.475   2.713  14.213 -0.5804 -1.4219 -0.4701
 8177SOL     OW35989   2.696   2.034   9.074 -0.2418 -0.0722  0.1678
 8177SOL    HW135990   2.678   2.015   9.166  2.8437  2.6670  1.3155
 8177SOL    HW235991   2.721   2.126   9.081 -1.7210  0.3478 -0.0061
 8178SOL     OW35992   3.660   3.425  15.211  0.5498  0.3580 -0.0897
 8178SOL    HW135993   3.583   3.481  15.209  0.5391  0.3336 -0.3965
 8178SOL    HW235994   3.611   3.346  15.234 -0.8007  0.7311 -1.7078
 8179SOL     OW35995   4.003   4.378   3.063  1.2931 -0.5851 -0.0193
 8179SOL    HW135996   4.013   4.397   2.970 -0.5588 -1.7785 -0.4661
 8179SOL    HW235997   4.060   4.444   3.103  0.8492 -1.1168  1.5210
 8180SOL     OW35998   0.365   2.626   1.663 -0.3912  0.3342 -0.5279
 8180SOL    HW135999   0.442   2.579   1.633  0.0932 -1.0209  2.9217
 8180SOL    HW236000   0.343   2.660   1.576 -0.0368 -0.1579 -0.8128
 8181SOL     OW36001   2.215   3.256   9.594  0.1944  0.6101 -0.3830
 8181SOL    HW136002   2.141   3.316   9.581 -0.5185 -0.3598 -0.8149
 8181SOL    HW236003   2.204   3.229   9.685  0.0833 -1.2648 -0.9567
 8182SOL     OW36004   1.639   3.590  11.453 -0.1638 -0.0319 -0.1916
 8182SOL    HW136005   1.729   3.560  11.463 -0.2653 -0.4878 -0.6505
 8182SOL    HW236006   1.629   3.588  11.358 -0.4629 -1.8797 -0.1147
 8183SOL     OW36007   3.405   2.091   4.509  0.4487  0.2924 -0.3697
 8183SOL    HW136008   3.440   2.064   4.594  1.8430 -3.1975 -2.0459
 8183SOL    HW236009   3.462   2.041   4.450  1.1677  0.1080  0.4734
 8184SOL     OW36010   4.062   3.606   2.699  0.1596 -0.0132 -0.3015
 8184SOL    HW136011   4.075   3.539   2.766  0.1334  2.0023  1.7152
 8184SOL    HW236012   4.005   3.563   2.634  0.9477 -0.5114 -0.6722
 8185SOL     OW36013   4.385   0.424   2.298  0.0257 -0.2847 -0.6078
 8185SOL    HW136014   4.433   0.375   2.231  0.9088  0.5708 -0.6044
 8185SOL    HW236015   4.296   0.391   2.285  1.2365 -2.8390 -2.3957
 8186SOL     OW36016   3.780   2.256  15.335 -0.7334 -0.6602  0.7054
 8186SOL    HW136017   3.867   2.248  15.374  0.1270 -0.0178 -1.0901
 8186SOL    HW236018   3.779   2.208  15.252  2.2473  0.3744  0.0526
 8187SOL     OW36019   1.471   3.851  13.420 -0.3019  0.0183  0.5304
 8187SOL    HW136020   1.474   3.932  13.471 -0.2022  0.2779  0.1086
 8187SOL    HW236021   1.502   3.780  13.477 -2.9870 -0.4267  1.4337
 8188SOL     OW36022   2.238   1.419   9.897 -0.1990  0.2550  0.0956
 8188SOL    HW136023   2.144   1.415   9.912 -0.3434 -0.7917 -1.1306
 8188SOL    HW236024   2.260   1.484   9.964  2.8523 -0.0865 -0.5633
 8189SOL     OW36025   4.005   0.337   4.580  0.5644  0.3747 -0.1737
 8189SOL    HW136026   4.083   0.370   4.534  1.2721  0.6189  1.2180
 8189SOL    HW236027   4.045   0.271   4.636  1.3171  0.9981  0.0293
 8190SOL     OW36028   0.999   3.359   9.344 -0.5756 -0.0698 -0.1609
 8190SOL    HW136029   0.997   3.437   9.289  0.4678 -0.2651 -0.4734
 8190SOL    HW236030   0.920   3.324   9.302  0.3308 -1.4931 -0.6573
 8191SOL     OW36031   2.422   2.247   3.792  0.5536  0.5289 -0.0094
 8191SOL    HW136032   2.446   2.192   3.866  0.7351 -0.2733 -0.6645
 8191SOL    HW236033   2.460   2.191   3.724 -1.7977  0.6567 -1.4178
 8192SOL     OW36034   1.271   0.430   3.545  0.1937 -0.3425  0.1735
 8192SOL    HW136035   1.286   0.525   3.540 -1.6029 -0.0448  0.5571
 8192SOL    HW236036   1.194   0.424   3.601  1.2160 -0.3641  1.5592
 8193SOL     OW36037   2.447   1.566  16.691 -0.1144 -0.0235  0.4646
 8193SOL    HW136038   2.411   1.580  16.779  1.7638  1.0675  1.0780
 8193SOL    HW236039   2.391   1.493  16.667  0.5400 -0.1674 -0.6229
 8194SOL     OW36040   0.370   0.346   3.888 -0.5014  0.2661  0.9306
 8194SOL    HW136041   0.427   0.387   3.823 -2.0984  0.2012 -0.4977
 8194SOL    HW236042   0.409   0.259   3.882  0.6956  0.8889 -0.4547
 8195SOL     OW36043   1.661   2.943   4.499  0.7764  0.1422  0.1119
 8195SOL    HW136044   1.598   2.956   4.427  0.5556  0.1690  0.3104
 8195SOL    HW236045   1.742   2.987   4.473  0.9537 -0.4892 -0.4109
 8196SOL     OW36046   0.989   1.149   5.560 -1.0388  0.1722  0.2412
 8196SOL    HW136047   1.025   1.236   5.543 -1.0095  0.0655 -0.2435
 8196SOL    HW236048   0.945   1.148   5.475 -0.8655 -1.4276  0.1815
 8197SOL     OW36049   2.040   4.549   5.599  0.6753  0.1528  0.5404
 8197SOL    HW136050   1.997   4.531   5.516 -1.2134 -0.2406  1.6092
 8197SOL    HW236051   1.972   4.586   5.656 -0.7315 -0.2474 -0.8960
 8198SOL     OW36052   3.289   2.620   8.461 -0.2100  0.3245 -0.0730
 8198SOL    HW136053   3.279   2.654   8.550 -3.6264  2.0304 -1.1157
 8198SOL    HW236054   3.196   2.608   8.443 -0.3158 -0.4369  0.9858
 8199SOL     OW36055   3.315   3.695   7.305 -0.3682 -0.0237 -0.2764
 8199SOL    HW136056   3.234   3.720   7.260 -0.4987 -0.6564 -0.4019
 8199SOL    HW236057   3.299   3.601   7.292 -1.8065  0.3627 -1.2185
 8200SOL     OW36058   2.209   4.401  12.556  0.5171 -0.1370 -0.2099
 8200SOL    HW136059   2.181   4.325  12.608 -1.5652  0.7047 -0.1164
 8200SOL    HW236060   2.301   4.382  12.537  0.6832  0.2721  0.1900
 8201SOL     OW36061   2.069   0.277   1.965  0.1704  0.7055  0.9324
 8201SOL    HW136062   2.067   0.281   1.869  1.9014 -0.9198  0.8359
 8201SOL    HW236063   2.156   0.292   2.000  0.0715  1.5576  0.8079
 8202SOL     OW36064   1.239   2.800   2.664 -0.2216 -0.1582 -0.1984
 8202SOL    HW136065   1.318   2.750   2.644  0.6776  0.6119  1.5095
 8202SOL    HW236066   1.277   2.880   2.699  0.1350 -2.0337  3.6528
 8203SOL     OW36067   3.502   0.630   8.571  0.3510 -0.5686 -0.3067
 8203SOL    HW136068   3.591   0.612   8.541  0.6116  1.4866 -0.7334
 8203SOL    HW236069   3.455   0.566   8.517 -1.1219 -0.5800  0.9558
 8204SOL     OW36070   4.698   2.351   5.657 -0.1312  0.3533 -0.2745
 8204SOL    HW136071   0.009   2.439   5.664  1.0603 -0.0170 -1.6739
 8204SOL    HW236072   4.709   2.325   5.565 -3.8438 -1.5290 -0.2041
 8205SOL     OW36073   2.822   3.587   8.502  0.3237  0.6914  0.5548
 8205SOL    HW136074   2.829   3.680   8.523  0.3572  0.8854 -0.3158
 8205SOL    HW236075   2.729   3.568   8.487  0.2529 -0.3643  2.2515
 8206SOL     OW36076   1.724   3.979   9.424 -1.0746 -0.2523  0.1944
 8206SOL    HW136077   1.727   3.899   9.476 -0.8811 -0.5590 -0.2941
 8206SOL    HW236078   1.630   3.995   9.418 -0.4017  2.5497 -2.7355
 8207SOL     OW36079   1.909   0.706   6.445  0.0613 -0.1584  0.5097
 8207SOL    HW136080   1.949   0.619   6.444 -2.9449 -1.5192  0.7274
 8207SOL    HW236081   1.885   0.706   6.352  0.5973  0.2313  0.3692
 8208SOL     OW36082   0.243   2.746   8.580  0.0027 -0.4140  0.4483
 8208SOL    HW136083   0.331   2.762   8.615  0.2073 -1.1150  0.2449
 8208SOL    HW236084   0.187   2.775   8.652  0.2253 -0.1334  0.5094
 8209SOL     OW36085   0.703   4.481   6.508 -0.0793 -0.5028 -0.4221
 8209SOL    HW136086   0.712   4.477   6.603 -2.0065  0.2259 -0.2145
 8209SOL    HW236087   0.643   4.408   6.491 -1.4858  0.3958  0.6676
 8210SOL     OW36088   1.134   4.390   3.232  0.1771 -0.1947 -0.1054
 8210SOL    HW136089   1.195   4.455   3.267 -0.5518  0.3559  0.1502
 8210SOL    HW236090   1.094   4.441   3.161 -0.2087  0.3019  0.4678
 8211SOL     OW36091   2.018   1.600   9.331  0.1903 -0.3729 -0.0031
 8211SOL    HW136092   2.056   1.654   9.399  0.8019  1.6189 -1.9341
 8211SOL    HW236093   1.988   1.525   9.383 -2.0237  0.4449 -0.0866
 8212SOL     OW36094   0.539   4.456  11.216 -0.1490 -0.1496  0.1360
 8212SOL    HW136095   0.446   4.436  11.207 -0.3935  0.8052  0.5956
 8212SOL    HW236096   0.589   4.375  11.227 -1.9049 -0.9713  2.1193
 8213SOL     OW36097   0.155   3.801   5.442 -0.1541  0.1050 -0.0801
 8213SOL    HW136098   0.079   3.749   5.417 -0.5788  0.5313  0.3141
 8213SOL    HW236099   0.134   3.839   5.528  2.0202  1.3632 -0.1088
 8214SOL     OW36100   4.387   1.923   3.150  0.0381 -0.2355 -0.2038
 8214SOL    HW136101   4.381   2.019   3.154 -1.3802 -0.4121  1.9750
 8214SOL    HW236102   4.450   1.915   3.221 -0.5899 -2.4670  0.0874
 8215SOL     OW36103   1.041   2.010  16.919  0.1261  0.1700 -0.3465
 8215SOL    HW136104   1.113   1.947  16.925  1.9486  2.1924 -0.9754
 8215SOL    HW236105   1.065   2.080  16.979  1.4406  0.5829 -1.3442
 8216SOL     OW36106   0.075   0.552  14.394 -0.6887  0.6108 -0.5370
 8216SOL    HW136107   0.055   0.506  14.476 -0.3090 -0.4823 -1.0604
 8216SOL    HW236108   0.035   0.639  14.403 -0.0124  0.9411 -0.6887
 8217SOL     OW36109   3.759   2.815   7.697  0.2068  0.6219 -0.0689
 8217SOL    HW136110   3.733   2.873   7.769 -1.1789  0.1610 -0.1900
 8217SOL    HW236111   3.746   2.871   7.620  1.7229  0.3171 -0.5509
 8218SOL     OW36112   0.141   1.492   9.100 -0.5325  0.1180  0.3301
 8218SOL    HW136113   0.176   1.444   9.176 -1.6889  1.4213  1.6836
 8218SOL    HW236114   0.054   1.517   9.132 -2.6065 -0.6978 -4.6794
 8219SOL     OW36115   4.614   2.279   2.866  0.8076  0.2322 -0.3841
 8219SOL    HW136116   4.709   2.291   2.862  0.5087  2.5974 -0.5047
 8219SOL    HW236117   4.596   2.373   2.861 -0.9489 -0.2797 -3.5584
 8220SOL     OW36118   1.571   3.064  13.994 -0.2084  0.3483  0.1733
 8220SOL    HW136119   1.614   3.011  14.061  1.6977 -0.7297 -1.9186
 8220SOL    HW236120   1.485   3.074  14.035 -1.0902 -1.4173 -1.1804
 8221SOL     OW36121   4.550   0.469   5.418 -0.7211 -0.1375 -0.2140
 8221SOL    HW136122   4.601   0.480   5.337 -0.1647 -0.3686  0.0996
 8221SOL    HW236123   4.465   0.471   5.374 -0.3317  0.5147 -0.9304
 8222SOL     OW36124   3.474   3.734  14.085  0.0457 -0.1950  0.5361
 8222SOL    HW136125   3.413   3.712  14.014 -1.4225  0.9096  1.4610
 8222SOL    HW236126   3.467   3.829  14.084 -0.6148 -0.2497 -0.9546
 8223SOL     OW36127   4.570   1.763  11.479  0.3455 -0.4601 -0.3267
 8223SOL    HW136128   4.546   1.754  11.572  0.3909  0.5932 -0.2113
 8223SOL    HW236129   4.629   1.688  11.481 -0.4203 -0.9544  4.2660
 8224SOL     OW36130   1.498   1.192   4.025 -1.0603  0.1430 -0.4810
 8224SOL    HW136131   1.488   1.120   4.087  1.0833 -0.3445 -0.6791
 8224SOL    HW236132   1.428   1.247   4.057  0.0991  0.4733  1.4672
 8225SOL     OW36133   3.515   4.201   2.385  0.2624 -0.1086  0.0663
 8225SOL    HW136134   3.582   4.173   2.323 -0.2535 -0.7167 -0.2088
 8225SOL    HW236135   3.527   4.135   2.453  1.0501 -0.6576 -0.6079
 8226SOL     OW36136   0.301   0.537   5.203  0.0129  0.1003 -0.2777
 8226SOL    HW136137   0.384   0.582   5.184 -0.1126  1.1547  1.6560
 8226SOL    HW236138   0.320   0.494   5.286 -0.0539 -1.7875 -1.2414
 8227SOL     OW36139   2.283   3.651   6.215 -0.1086  0.2376  0.0010
 8227SOL    HW136140   2.348   3.720   6.206 -0.1779  0.4539  1.0693
 8227SOL    HW236141   2.275   3.609   6.129 -2.4293 -0.5354  0.5951
 8228SOL     OW36142   1.900   1.379   1.741 -0.1003 -0.1153 -0.3149
 8228SOL    HW136143   1.879   1.442   1.810  0.0653  0.3203 -0.6591
 8228SOL    HW236144   1.981   1.337   1.770  1.1608 -0.2380 -3.9512
 8229SOL     OW36145   3.113   2.154   7.702 -0.2017 -0.2999  0.8929
 8229SOL    HW136146   3.022   2.141   7.676 -0.2372  0.7342  0.4895
 8229SOL    HW236147   3.160   2.094   7.644 -1.3954 -2.1798  1.8789
 8230SOL     OW36148   2.648   3.981   5.510  0.3253 -0.6575 -0.5084
 8230SOL    HW136149   2.589   4.040   5.557 -0.0583  0.5341 -2.5077
 8230SOL    HW236150   2.663   4.029   5.429 -1.4024  0.1448 -0.3665
 8231SOL     OW36151   2.467   2.993   6.639 -0.3013 -0.4731  0.1723
 8231SOL    HW136152   2.466   2.974   6.545  2.5153 -0.8988  0.2358
 8231SOL    HW236153   2.503   3.080   6.621 -0.2972 -0.2909  1.0706
 8232SOL     OW36154   1.390   3.822   1.736  0.0540 -0.3366  0.0301
 8232SOL    HW136155   1.392   3.814   1.831 -0.8756 -0.0019  0.0767
 8232SOL    HW236156   1.317   3.764   1.715 -0.1012 -0.2916  0.4462
 8233SOL     OW36157   2.208   3.280   6.485 -0.3369 -0.1296  0.3104
 8233SOL    HW136158   2.207   3.313   6.574  0.1259 -0.0718  0.2915
 8233SOL    HW236159   2.244   3.352   6.433 -0.4533  0.3936  0.9633
 8234SOL     OW36160   0.968   1.897   3.065  0.4596  0.2657 -0.2814
 8234SOL    HW136161   0.985   1.969   3.125  1.8358 -1.6422  1.6278
 8234SOL    HW236162   0.873   1.904   3.058  0.2571 -2.3402 -0.2836
 8235SOL     OW36163   1.944   4.285   8.731 -0.4629  0.2886  0.0642
 8235SOL    HW136164   1.976   4.375   8.720 -2.3109  1.2030  2.0800
 8235SOL    HW236165   1.851   4.287   8.755 -0.6223 -1.0848 -0.4507
 8236SOL     OW36166   0.488   2.378   8.962 -0.5656 -0.2306 -0.0112
 8236SOL    HW136167   0.497   2.435   9.039 -0.7856 -0.0504 -0.1181
 8236SOL    HW236168   0.427   2.315   9.001 -2.2118  0.6666 -1.1215
 8237SOL     OW36169   2.172   1.696   4.583 -0.3315 -0.8846  0.1289
 8237SOL    HW136170   2.236   1.748   4.632 -1.4619  2.1023 -1.5860
 8237SOL    HW236171   2.232   1.629   4.552 -0.3323 -0.2840 -1.1785
 8238SOL     OW36172   2.168   4.560  10.467 -0.0802  0.2491 -0.3300
 8238SOL    HW136173   2.254   4.524  10.486 -0.8481 -1.5019 -0.1314
 8238SOL    HW236174   2.115   4.480  10.457  2.7489 -1.9369  2.1459
 8239SOL     OW36175   1.672   4.119   6.597  0.3641 -0.0963  0.1565
 8239SOL    HW136176   1.755   4.070   6.594 -0.2026 -0.9410 -1.4239
 8239SOL    HW236177   1.703   4.199   6.640  2.1654 -0.8952  0.3727
 8240SOL     OW36178   0.346   2.606   7.232  0.0560  0.3737  0.4169
 8240SOL    HW136179   0.365   2.687   7.184  1.5859  0.4058  1.0690
 8240SOL    HW236180   0.425   2.618   7.287  1.7751  0.6070 -2.1186
 8241SOL     OW36181   4.473   3.395   3.775 -0.1539  0.0322  0.0910
 8241SOL    HW136182   4.542   3.408   3.710  1.7586  1.1373  2.3233
 8241SOL    HW236183   4.445   3.308   3.748  2.3373 -0.3741 -1.1814
 8242SOL     OW36184   0.569   0.383  14.999 -0.2470  0.4824  0.0024
 8242SOL    HW136185   0.475   0.400  15.007 -0.1201  1.0688  0.2984
 8242SOL    HW236186   0.573   0.378  14.903 -0.9598 -1.2320  0.0625
 8243SOL     OW36187   3.990   1.811   6.287  0.0417  0.2426  0.3332
 8243SOL    HW136188   3.988   1.904   6.266  1.7630  0.2595  0.2628
 8243SOL    HW236189   3.990   1.786   6.195 -1.8546  3.3464 -0.5021
 8244SOL     OW36190   2.514   2.666   9.046  0.5490  0.0185 -0.3372
 8244SOL    HW136191   2.534   2.596   9.108 -2.9614 -0.4711  0.2595
 8244SOL    HW236192   2.462   2.626   8.977 -1.8603  0.4457  1.2144
 8245SOL     OW36193   4.185   3.624  15.012  0.7493 -0.2371  0.1776
 8245SOL    HW136194   4.279   3.641  15.017  0.7366 -0.4019  1.0523
 8245SOL    HW236195   4.163   3.659  14.926 -0.2311  1.3593  1.0734
 8246SOL     OW36196   2.717   2.648   2.498 -0.5120 -0.2579  0.4220
 8246SOL    HW136197   2.676   2.703   2.432 -2.0871 -0.7849  0.9545
 8246SOL    HW236198   2.752   2.586   2.433  0.7757  0.1251  0.7601
 8247SOL     OW36199   4.039   0.655   8.516 -0.3911 -0.2294  0.0424
 8247SOL    HW136200   4.059   0.653   8.610  1.3425  0.1169 -0.3154
 8247SOL    HW236201   3.948   0.626   8.517  0.0956 -1.7389  1.9988
 8248SOL     OW36202   2.620   0.790  13.310 -0.0689 -0.3861  0.1117
 8248SOL    HW136203   2.536   0.760  13.275 -1.2933  3.2981 -0.0711
 8248SOL    HW236204   2.674   0.786  13.231 -0.8199  1.5805 -0.4856
 8249SOL     OW36205   0.298   0.815   8.399  0.7195  0.5787 -0.4596
 8249SOL    HW136206   0.313   0.882   8.333  3.0200  1.3028  0.7911
 8249SOL    HW236207   0.347   0.736   8.374 -0.0168 -0.0635  0.1173
 8250SOL     OW36208   3.052   0.448  10.012  0.3248  0.5240 -0.0285
 8250SOL    HW136209   3.098   0.420   9.933  0.9063 -0.5766  0.6985
 8250SOL    HW236210   2.975   0.392  10.019  1.9829 -1.4036  3.0802
 8251SOL     OW36211   3.473   4.559  15.697  0.5262 -0.8475  0.1577
 8251SOL    HW136212   3.403   4.622  15.679  0.3757 -1.6419 -2.0972
 8251SOL    HW236213   3.415   4.499  15.743  0.4988 -1.0254 -0.1052
 8252SOL     OW36214   3.196   1.796  17.402 -0.3021 -0.3678 -0.2709
 8252SOL    HW136215   3.246   1.729  17.356  0.6968 -0.9337  1.6389
 8252SOL    HW236216   3.110   1.770  17.370 -0.1977 -2.0717  0.8656
 8253SOL     OW36217   3.985   3.213   1.560  0.0441  0.0660 -0.2288
 8253SOL    HW136218   3.974   3.118   1.559  0.0120  0.0755 -0.8363
 8253SOL    HW236219   3.898   3.243   1.533  0.1966  0.5156 -0.2297
 8254SOL     OW36220   4.703   4.476   8.275  0.2872  0.6456 -0.1010
 8254SOL    HW136221   4.671   4.564   8.294 -1.1522  0.0929 -0.0016
 8254SOL    HW236222   0.070   4.488   8.252  0.0184 -2.1659 -2.6533
 8255SOL     OW36223   3.593   3.338  10.496  0.3956  0.3270  0.3001
 8255SOL    HW136224   3.658   3.367  10.431  1.1983  0.2924  1.0823
 8255SOL    HW236225   3.510   3.343  10.449 -0.1742 -2.9343  0.9660
 8256SOL     OW36226   1.076   2.053   0.944 -0.5621 -0.4621  0.2640
 8256SOL    HW136227   0.994   2.064   0.992  0.5134  0.1578  1.9389
 8256SOL    HW236228   1.116   2.127   0.988 -2.5920 -0.3943  1.9930
 8257SOL     OW36229   3.253   4.416   7.317  0.4189  0.2549 -0.1857
 8257SOL    HW136230   3.304   4.336   7.306 -0.5048 -0.6458  2.1338
 8257SOL    HW236231   3.219   4.412   7.407  1.5971 -1.6317  0.1808
 8258SOL     OW36232   0.421   4.651   5.389  0.2453  0.3051  0.4922
 8258SOL    HW136233   0.457   4.661   5.477  1.1782  0.5520  0.0809
 8258SOL    HW236234   0.448   0.010   5.353  1.7051 -0.7874 -0.9407
 8259SOL     OW36235   1.439   3.647   3.541 -0.5536 -0.1874  0.0741
 8259SOL    HW136236   1.379   3.577   3.514 -0.8866  0.4347 -0.7625
 8259SOL    HW236237   1.500   3.609   3.604 -1.3514 -0.2065  0.8461
 8260SOL     OW36238   0.543   3.273   7.125  0.4842  0.6287 -0.2924
 8260SOL    HW136239   0.575   3.327   7.053 -0.1418  1.9769  0.4537
 8260SOL    HW236240   0.495   3.203   7.079 -2.0998  1.4443  1.1726
 8261SOL     OW36241   3.144   2.500   6.326  0.2112 -0.5204  0.2009
 8261SOL    HW136242   3.068   2.529   6.376 -0.4127 -0.5153 -0.7694
 8261SOL    HW236243   3.195   2.461   6.398  0.4042 -0.5070  0.0704
 8262SOL     OW36244   1.969   3.392   6.146 -0.2944  0.2992 -0.5239
 8262SOL    HW136245   2.017   3.454   6.090  0.0209 -0.3599 -0.9768
 8262SOL    HW236246   1.978   3.308   6.103 -1.9455  1.4478 -3.1189
 8263SOL     OW36247   2.939   1.396   1.134 -0.0447  0.5314  0.1315
 8263SOL    HW136248   2.894   1.475   1.164  0.7404  0.3262  1.8246
 8263SOL    HW236249   3.027   1.429   1.119  0.3002 -0.5385 -0.2389
 8264SOL     OW36250   2.736   1.504  15.734  0.7954 -0.1842 -0.8436
 8264SOL    HW136251   2.711   1.431  15.677 -1.1527  0.9272 -1.4047
 8264SOL    HW236252   2.731   1.470  15.823 -0.1315  4.1917  0.7605
 8265SOL     OW36253   2.421   0.069   5.788 -1.0598  0.4468 -0.1727
 8265SOL    HW136254   2.347   0.086   5.846 -1.2841  0.9181 -0.6035
 8265SOL    HW236255   2.434   0.147   5.735 -0.4604 -0.6579 -1.6625
 8266SOL     OW36256   4.500   2.680   4.039  0.1920  0.0550 -0.8974
 8266SOL    HW136257   4.463   2.696   3.952  0.7561  0.7553 -1.0125
 8266SOL    HW236258   4.500   2.585   4.037 -2.5544  0.0194  1.6061
 8267SOL     OW36259   0.107   1.270   1.805 -0.4780 -0.3320  0.1578
 8267SOL    HW136260   0.191   1.224   1.797 -0.6067 -0.6663  0.7523
 8267SOL    HW236261   0.045   1.208   1.767 -1.6540  1.2003 -0.3899
 8268SOL     OW36262   3.730   4.653   6.124  0.2529  0.3890  0.0249
 8268SOL    HW136263   3.675   4.614   6.192 -0.2946  0.5806 -0.3123
 8268SOL    HW236264   3.687   4.632   6.041 -0.3635 -2.5235  1.0895
 8269SOL     OW36265   4.359   3.991   5.946  0.8534  0.3145 -0.3443
 8269SOL    HW136266   4.424   3.938   5.992  1.3723  1.6003  0.4062
 8269SOL    HW236267   4.354   3.939   5.865  3.0770  0.7702 -0.7707
 8270SOL     OW36268   3.229   1.318   1.140 -0.4565  0.3469 -0.0209
 8270SOL    HW136269   3.243   1.339   1.233  0.4611  0.1464 -0.1074
 8270SOL    HW236270   3.234   1.401   1.092 -0.7905  0.4814  0.1801
 8271SOL     OW36271   2.193   3.911   7.106  0.3201  0.1556 -0.2326
 8271SOL    HW136272   2.287   3.893   7.103 -0.0585 -1.5650 -2.0660
 8271SOL    HW236273   2.179   3.965   7.183  1.0722  1.6253 -1.1106
 8272SOL     OW36274   3.897   0.617  10.301  0.4365  0.1775  0.4400
 8272SOL    HW136275   3.862   0.530  10.321 -0.9104  0.6642  0.1997
 8272SOL    HW236276   3.958   0.626  10.375  2.6052  1.8621 -1.5504
 8273SOL     OW36277   1.269   4.176   8.565  0.0464  0.2202  0.1871
 8273SOL    HW136278   1.262   4.268   8.540 -0.7404 -0.6864 -2.9328
 8273SOL    HW236279   1.363   4.158   8.560  0.2718  1.1893  1.0863
 8274SOL     OW36280   2.900   4.045   7.593 -0.1492  0.1294 -0.3141
 8274SOL    HW136281   2.805   4.038   7.587 -0.1714  0.7113 -0.6831
 8274SOL    HW236282   2.930   3.992   7.667 -1.5272 -1.3381 -0.8222
 8275SOL     OW36283   1.579   1.655  10.644 -0.0929 -0.0845  0.5800
 8275SOL    HW136284   1.512   1.708  10.599 -2.6228 -3.6093  0.2121
 8275SOL    HW236285   1.544   1.571  10.613  0.6671  0.2450 -1.1940
 8276SOL     OW36286   2.164   0.894  10.111 -0.3555 -0.0314  0.3078
 8276SOL    HW136287   2.116   0.959  10.059 -0.3406 -2.6991 -3.0660
 8276SOL    HW236288   2.252   0.930  10.124  0.2574 -1.3776 -0.0979
 8277SOL     OW36289   4.207   0.403   5.694 -0.4531 -0.4568  0.0296
 8277SOL    HW136290   4.175   0.321   5.658 -1.0225  0.8782 -2.5483
 8277SOL    HW236291   4.242   0.359   5.771  1.2502 -0.1382 -0.5570
 8278SOL     OW36292   0.504   0.166   6.190  0.2369  0.4189  0.5087
 8278SOL    HW136293   0.519   0.108   6.265 -2.2689  0.8081  1.3007
 8278SOL    HW236294   0.471   0.246   6.232  1.2833 -0.7690  3.5696
 8279SOL     OW36295   1.998   1.758   2.298 -0.3012  0.1234  0.0429
 8279SOL    HW136296   2.060   1.718   2.238 -0.9378  0.7258 -1.0170
 8279SOL    HW236297   1.910   1.724   2.278 -0.2865 -0.1318  0.4012
 8280SOL     OW36298   1.049   3.637  10.690 -0.5860 -0.8213 -0.0695
 8280SOL    HW136299   1.022   3.557  10.734  0.3665 -0.7949  0.5592
 8280SOL    HW236300   0.973   3.667  10.641 -0.7945 -1.2037  0.0225
 8281SOL     OW36301   2.955   4.675   9.978  0.0939  0.1271 -0.0505
 8281SOL    HW136302   2.900   0.004   9.921 -1.5976 -0.8749  0.6317
 8281SOL    HW236303   2.887   4.614  10.005  1.2106 -0.3906  1.5889
 8282SOL     OW36304   2.332   1.452   8.218  0.4662 -0.0428 -0.5528
 8282SOL    HW136305   2.388   1.398   8.274  1.4869  1.2984 -0.2718
 8282SOL    HW236306   2.267   1.384   8.198 -2.8228  2.5279  1.3258
 8283SOL     OW36307   1.181   3.049  16.304 -0.7432 -0.3294 -0.0647
 8283SOL    HW136308   1.130   3.069  16.225  0.0432 -0.3501 -0.5760
 8283SOL    HW236309   1.169   3.132  16.350  1.3223 -0.3425  0.4667
 8284SOL     OW36310   3.652   3.388  11.295  0.3020 -0.0878  0.0076
 8284SOL    HW136311   3.686   3.319  11.239 -1.1521 -0.1749 -0.7460
 8284SOL    HW236312   3.717   3.458  11.281 -1.3426  1.2523 -0.8835
 8285SOL     OW36313   2.591   0.783   1.908 -0.0312  0.3115  0.2463
 8285SOL    HW136314   2.539   0.808   1.985  0.1539  1.2403  0.0776
 8285SOL    HW236315   2.516   0.748   1.859  1.0489 -1.2981 -0.2387
 8286SOL     OW36316   3.549   0.834  14.474  0.6042  0.0427 -0.3466
 8286SOL    HW136317   3.603   0.769  14.520 -0.7634 -2.6851 -2.5841
 8286SOL    HW236318   3.606   0.865  14.404  1.0517  2.6777  1.1789
 8287SOL     OW36319   2.830   1.930  14.079  0.0233 -0.0082 -0.6171
 8287SOL    HW136320   2.879   1.870  14.023  0.1140  0.9458 -1.5722
 8287SOL    HW236321   2.791   1.864  14.135 -0.3219  0.7829  0.0863
 8288SOL     OW36322   1.904   0.109   5.973  0.0290 -0.2582 -0.3811
 8288SOL    HW136323   1.919   0.197   6.006  0.8581 -0.4765 -0.1857
 8288SOL    HW236324   1.935   0.058   6.048 -0.6201  0.1178  0.1474
 8289SOL     OW36325   4.495   3.470  16.612 -0.3498 -0.0907 -0.1963
 8289SOL    HW136326   4.507   3.565  16.610 -0.6354 -0.0668 -1.0770
 8289SOL    HW236327   4.439   3.453  16.536 -0.9026 -1.1811  0.4611
 8290SOL     OW36328   1.170   3.403   0.851 -0.2144  0.0179 -0.1364
 8290SOL    HW136329   1.164   3.308   0.841 -1.7790  0.0543  0.4428
 8290SOL    HW236330   1.264   3.418   0.856 -0.3195  0.9772 -1.0543
 8291SOL     OW36331   1.940   0.383   2.551  0.3972  0.2525 -0.3029
 8291SOL    HW136332   1.936   0.289   2.535  0.7116  0.0766  0.6383
 8291SOL    HW236333   2.026   0.397   2.510  2.1195 -1.2233  2.8089
 8292SOL     OW36334   2.515   0.047  16.526 -0.3442  0.1307 -0.2937
 8292SOL    HW136335   2.582   0.114  16.540 -1.4695  1.4481 -1.0583
 8292SOL    HW236336   2.544   4.718  16.452  2.3208  2.2653 -0.8019
 8293SOL     OW36337   0.401   2.549  15.202 -0.1273 -0.3602 -0.1747
 8293SOL    HW136338   0.379   2.461  15.170 -2.4789  0.9727 -2.2798
 8293SOL    HW236339   0.356   2.601  15.135 -2.0057 -0.1107  1.3017
 8294SOL     OW36340   4.115   0.948   2.869 -0.0332  0.3030 -0.4431
 8294SOL    HW136341   4.199   0.903   2.875  0.1420  0.8333  1.1736
 8294SOL    HW236342   4.129   1.007   2.795 -0.6920  1.1551  0.0951
 8295SOL     OW36343   1.498   1.674   8.701  0.1270  0.5273 -0.1512
 8295SOL    HW136344   1.585   1.641   8.725  0.6386  0.4594 -2.1047
 8295SOL    HW236345   1.528   1.765   8.697  0.5209  0.4925  2.2629
 8296SOL     OW36346   3.431   3.820  17.241 -0.0663 -1.1775 -0.2933
 8296SOL    HW136347   3.482   3.895  17.209 -0.6746 -0.7357 -0.2183
 8296SOL    HW236348   3.504   3.763  17.267  0.4980 -0.6664 -0.7467
 8297SOL     OW36349   0.828   2.574   4.299  0.0258 -0.0430 -0.5996
 8297SOL    HW136350   0.890   2.603   4.233 -0.5703 -0.0787 -1.1790
 8297SOL    HW236351   0.875   2.602   4.377  1.1097 -0.4353 -1.1112
 8298SOL     OW36352   1.818   0.197   7.257 -0.2073 -0.6806  0.2098
 8298SOL    HW136353   1.762   0.267   7.224  0.9428 -0.0245 -0.3581
 8298SOL    HW236354   1.836   0.156   7.172 -0.9221 -0.9042  0.1655
 8299SOL     OW36355   1.295   3.851   9.948 -0.1901  0.3883 -0.2000
 8299SOL    HW136356   1.214   3.878   9.991 -0.9248 -1.4683 -0.3835
 8299SOL    HW236357   1.349   3.825  10.023  1.2793 -1.0854 -1.7640
 8300SOL     OW36358   2.711   0.352  11.388 -0.0890  0.5872 -0.1648
 8300SOL    HW136359   2.805   0.337  11.381 -0.5704 -2.7154  0.5007
 8300SOL    HW236360   2.708   0.428  11.445  1.3539  1.6229 -1.4759
 8301SOL     OW36361   4.287   3.525  15.449  0.5953 -0.0052  0.2109
 8301SOL    HW136362   4.270   3.600  15.505 -0.6534 -0.4604  0.4355
 8301SOL    HW236363   4.259   3.459  15.513 -0.9553  1.2393  0.8045
 8302SOL     OW36364   3.117   2.597   3.645  0.1186 -0.0299 -0.6585
 8302SOL    HW136365   3.070   2.672   3.610 -2.0543 -1.2917 -0.4282
 8302SOL    HW236366   3.100   2.532   3.576  0.7272 -2.2147  1.2266
 8303SOL     OW36367   3.363   3.090   7.421  0.0823  0.6272  0.0531
 8303SOL    HW136368   3.272   3.104   7.447 -0.1059 -0.7778  0.1366
 8303SOL    HW236369   3.397   3.022   7.479  0.0877  0.8530  0.3116
 8304SOL     OW36370   3.478   1.465  11.026  0.1396 -0.5222 -0.3469
 8304SOL    HW136371   3.500   1.400  11.092  2.9033 -1.2270 -1.9632
 8304SOL    HW236372   3.563   1.486  10.987  0.8712 -0.2464  1.3764
 8305SOL     OW36373   4.598   4.408   3.170 -0.2234  0.2169  0.3195
 8305SOL    HW136374   4.656   4.335   3.148 -0.5717 -0.6083  2.1607
 8305SOL    HW236375   4.544   4.410   3.092 -0.2727 -0.2340  0.3441
 8306SOL     OW36376   1.480   3.803   8.842 -0.1206  0.4156 -0.1514
 8306SOL    HW136377   1.538   3.829   8.914 -0.1631 -0.9837  0.3958
 8306SOL    HW236378   1.481   3.707   8.852 -1.0854  0.3601 -0.6045
 8307SOL     OW36379   0.986   3.525   8.621 -0.0338 -0.1566  0.7485
 8307SOL    HW136380   0.958   3.471   8.696  0.2793  1.4125  1.9887
 8307SOL    HW236381   0.932   3.600   8.644 -1.9611 -1.7503  1.4819
 8308SOL     OW36382   4.148   3.356   0.591  0.6285 -0.0066 -0.0177
 8308SOL    HW136383   4.066   3.403   0.603  0.5851  0.2259 -1.2952
 8308SOL    HW236384   4.178   3.366   0.682 -3.3887  0.2187  1.2722
 8309SOL     OW36385   4.587   4.148   5.414  0.1201 -0.1892  0.7859
 8309SOL    HW136386   4.680   4.165   5.421  0.3646 -2.2183  2.5306
 8309SOL    HW236387   4.577   4.099   5.332 -1.6349  0.4820  0.5814
 8310SOL     OW36388   1.083   3.752   8.238  0.2930  0.1506  0.3894
 8310SOL    HW136389   1.081   3.784   8.328  1.4567 -2.1328  1.2195
 8310SOL    HW236390   1.175   3.753   8.209  0.0488 -0.5076 -0.4156
 8311SOL     OW36391   0.694   3.627  11.362 -0.0599 -0.1166 -0.0283
 8311SOL    HW136392   0.705   3.556  11.299  0.1433  0.0305 -0.1564
 8311SOL    HW236393   0.778   3.673  11.364 -0.3174  0.3983 -1.3360
 8312SOL     OW36394   1.519   4.138   4.936  0.2685  0.3501  0.0134
 8312SOL    HW136395   1.537   4.143   4.842  3.0677  1.4034  0.6089
 8312SOL    HW236396   1.504   4.044   4.947  0.0904  0.6169  2.0328
 8313SOL     OW36397   4.635   3.190   1.712 -0.1429  0.5178  0.0756
 8313SOL    HW136398   4.642   3.126   1.641  1.1186 -0.1807  0.8446
 8313SOL    HW236399   4.709   3.171   1.768 -0.4608  0.1648  0.3709
 8314SOL     OW36400   0.829   0.956  12.147  0.1553  0.0418 -0.3719
 8314SOL    HW136401   0.800   1.017  12.079 -1.9874 -1.4697 -0.8348
 8314SOL    HW236402   0.752   0.901  12.166 -0.4044  0.0660 -2.6383
 8315SOL     OW36403   1.671   3.425   4.548  0.1614 -0.1606 -0.7114
 8315SOL    HW136404   1.754   3.403   4.505  0.5129  1.1721 -0.7090
 8315SOL    HW236405   1.690   3.518   4.560  2.3013 -0.8011  0.8515
 8316SOL     OW36406   1.336   3.711   5.705  0.4156 -0.2370 -0.2640
 8316SOL    HW136407   1.375   3.779   5.650  0.8299 -1.2576 -1.2230
 8316SOL    HW236408   1.269   3.681   5.644  2.8920 -1.8682 -2.1386
 8317SOL     OW36409   2.893   0.392   6.637  0.2273 -0.2248  0.0511
 8317SOL    HW136410   2.956   0.415   6.705 -0.2327  0.4877  0.2403
 8317SOL    HW236411   2.830   0.465   6.644  1.1677  0.5487  0.4478
 8318SOL     OW36412   0.993   3.379   4.147 -0.1356  0.2372 -0.1611
 8318SOL    HW136413   0.945   3.309   4.192 -1.9927  2.7662  1.7407
 8318SOL    HW236414   0.995   3.324   4.068  2.7693 -0.1752  0.1921
 8319SOL     OW36415   4.054   2.875   5.668  0.3684 -0.8778 -0.1443
 8319SOL    HW136416   4.128   2.853   5.612 -0.1015  0.7008 -1.3587
 8319SOL    HW236417   4.100   2.928   5.733 -2.9906  1.7664  0.0579
 8320SOL     OW36418   4.520   3.390   5.657 -0.1344  0.3330 -0.0603
 8320SOL    HW136419   4.450   3.454   5.653  0.0907  0.4879 -1.2971
 8320SOL    HW236420   4.595   3.450   5.663  0.0672  0.1272 -0.4810
 8321SOL     OW36421   1.154   2.880   8.523  0.2513  0.0338  0.7650
 8321SOL    HW136422   1.059   2.874   8.519  0.2231  1.0634 -0.1730
 8321SOL    HW236423   1.164   2.973   8.543  1.0318  0.3464 -1.1183
 8322SOL     OW36424   0.937   4.318  15.903 -0.3868  0.1574  0.5739
 8322SOL    HW136425   1.022   4.336  15.944  0.1053 -0.4839 -0.1678
 8322SOL    HW236426   0.888   4.283  15.978 -4.0734  1.9422 -1.0117
 8323SOL     OW36427   3.846   4.405   7.811 -0.5331 -0.4049  0.3824
 8323SOL    HW136428   3.770   4.443   7.767  1.1860  2.9809  0.3577
 8323SOL    HW236429   3.829   4.312   7.798 -2.3291  0.0403 -0.4183
 8324SOL     OW36430   0.312   2.494   2.661 -0.2724 -0.4379 -0.2477
 8324SOL    HW136431   0.373   2.528   2.726  0.3110 -1.9375 -0.0051
 8324SOL    HW236432   0.251   2.568   2.664  0.8213  0.3902  1.3543
 8325SOL     OW36433   1.019   4.340   1.682  0.2920 -0.1161  0.3267
 8325SOL    HW136434   0.944   4.383   1.642 -0.4454 -1.7860 -0.1042
 8325SOL    HW236435   0.992   4.338   1.773 -0.0277 -0.9793  0.2129
 8326SOL     OW36436   2.241   3.970  16.657  0.4492 -0.4964 -0.0060
 8326SOL    HW136437   2.212   4.027  16.585 -1.1501 -0.7505  0.4426
 8326SOL    HW236438   2.180   3.896  16.655 -0.8208  0.5439 -0.2261
 8327SOL     OW36439   1.052   1.511   4.457 -0.3518 -0.4846 -0.4371
 8327SOL    HW136440   1.112   1.504   4.531 -0.3364 -0.7012 -0.4706
 8327SOL    HW236441   0.979   1.457   4.487 -0.6084 -0.3839 -0.8681
 8328SOL     OW36442   1.578   3.444  12.599 -0.1112 -0.0700 -0.2339
 8328SOL    HW136443   1.606   3.362  12.558 -0.2533 -1.3139  2.1698
 8328SOL    HW236444   1.529   3.410  12.674 -1.9687  1.0265 -0.9437
 8329SOL     OW36445   3.388   3.610   4.586  0.3146 -0.6453  0.5201
 8329SOL    HW136446   3.347   3.551   4.649  2.6917 -0.7367  1.9829
 8329SOL    HW236447   3.423   3.548   4.523  0.0958  1.1303 -1.3339
 8330SOL     OW36448   1.335   2.188   4.859 -0.0895 -0.2859 -0.6761
 8330SOL    HW136449   1.409   2.228   4.815 -0.6737  0.7080 -0.7428
 8330SOL    HW236450   1.340   2.096   4.831  0.6504 -0.4722  0.0477
 8331SOL     OW36451   3.772   3.670   2.849 -0.2268 -0.2023  0.6308
 8331SOL    HW136452   3.816   3.586   2.859  2.5346  1.2907  1.2493
 8331SOL    HW236453   3.832   3.730   2.804 -1.6760  1.1602  0.5145
 8332SOL     OW36454   4.330   3.952   1.269 -0.3368 -0.3297 -0.2590
 8332SOL    HW136455   4.318   3.904   1.351 -2.9237 -0.3903 -0.6545
 8332SOL    HW236456   4.247   3.931   1.226  0.5683  0.2185 -2.2699
 8333SOL     OW36457   4.701   2.003   8.122 -0.2978  0.3483 -0.2175
 8333SOL    HW136458   0.007   1.977   8.209  0.3807  3.3057  0.4084
 8333SOL    HW236459   4.637   2.066   8.154  0.1489  1.9717 -2.5664
 8334SOL     OW36460   0.752   1.283   8.327 -0.0162  0.3542  0.0290
 8334SOL    HW136461   0.729   1.239   8.408 -1.8147 -0.0355 -0.6880
 8334SOL    HW236462   0.806   1.352   8.365 -0.6181 -0.8459  3.0192
 8335SOL     OW36463   2.825   4.611  13.028 -0.2335  0.0640 -0.1017
 8335SOL    HW136464   2.826   4.694  13.077 -0.3812 -0.4470  0.7650
 8335SOL    HW236465   2.909   4.576  13.058 -1.1427 -0.9545  1.2734
 8336SOL     OW36466   2.824   2.537  14.024  0.0905  0.0968 -0.0826
 8336SOL    HW136467   2.862   2.534  14.112  0.0983  2.1042 -0.0233
 8336SOL    HW236468   2.790   2.448  14.021  0.0379  0.1377 -0.8063
 8337SOL     OW36469   0.741   3.826   2.072  0.3616 -1.0490 -0.2024
 8337SOL    HW136470   0.756   3.905   2.020  0.9053  0.2652  1.9394
 8337SOL    HW236471   0.656   3.843   2.112 -0.2180  0.3124 -2.0111
 8338SOL     OW36472   0.938   1.486   3.338 -0.5484 -0.3023  0.2831
 8338SOL    HW136473   1.001   1.414   3.349 -0.3175 -0.4250 -1.8103
 8338SOL    HW236474   0.975   1.527   3.260 -1.1817 -0.7250 -0.2414
 8339SOL     OW36475   2.100   1.893   5.933  0.3903  0.8691  0.2303
 8339SOL    HW136476   2.133   1.806   5.909  0.7712  1.3762 -1.1244
 8339SOL    HW236477   2.068   1.914   5.845  1.3284 -0.2719 -0.3929
 8340SOL     OW36478   1.609   2.843   5.169 -0.0694  0.2524 -0.3103
 8340SOL    HW136479   1.586   2.795   5.249 -0.8677  0.2173 -0.5624
 8340SOL    HW236480   1.525   2.873   5.137  0.7123  1.8925 -0.8356
 8341SOL     OW36481   2.170   2.956   5.601 -0.4427  0.1667 -0.5368
 8341SOL    HW136482   2.186   3.050   5.608  0.5017  0.0229 -0.7115
 8341SOL    HW236483   2.087   2.957   5.554 -2.2891  0.4336  2.7809
 8342SOL     OW36484   0.218   4.450   7.222  0.4058 -0.5884  0.1518
 8342SOL    HW136485   0.182   4.382   7.279 -0.8585  0.7789  0.9776
 8342SOL    HW236486   0.240   4.399   7.144  0.8096  1.3174 -0.9673
 8343SOL     OW36487   1.710   0.699   9.212  0.2685  0.8272 -0.4707
 8343SOL    HW136488   1.634   0.757   9.210 -0.0243  0.4474 -0.1931
 8343SOL    HW236489   1.761   0.746   9.278  0.4688  2.3884 -1.7157
 8344SOL     OW36490   1.046   0.784  12.309 -0.0123 -0.4866  0.3274
 8344SOL    HW136491   0.978   0.821  12.253  0.3489 -0.9796 -0.4252
 8344SOL    HW236492   1.039   0.851  12.377  0.3672  1.8489 -1.9382
 8345SOL     OW36493   2.088   2.745   1.361  0.6049  0.5807  0.4367
 8345SOL    HW136494   2.055   2.828   1.394  0.4696  0.2591  1.1086
 8345SOL    HW236495   2.074   2.770   1.270  2.2997  0.6741  0.2056
 8346SOL     OW36496   0.797   2.340   6.487 -0.1590 -0.0132 -0.1947
 8346SOL    HW136497   0.790   2.410   6.422 -3.0496 -0.3449 -0.2330
 8346SOL    HW236498   0.749   2.269   6.443 -1.1733  0.1068  0.7483
 8347SOL     OW36499   2.751   3.964   2.716  0.4138 -0.0803  0.2078
 8347SOL    HW136500   2.835   3.968   2.670 -0.0973  1.0452 -0.6327
 8347SOL    HW236501   2.686   4.017   2.670 -1.0550 -1.2093  0.9976
 8348SOL     OW36502   2.699   3.105   7.133  0.1516  0.2877  0.4163
 8348SOL    HW136503   2.621   3.160   7.132 -1.1615 -1.5924 -0.0555
 8348SOL    HW236504   2.713   3.101   7.038 -2.2984 -0.9026  0.1182
 8349SOL     OW36505   0.947   2.804  16.759  0.1461 -0.1342 -0.1774
 8349SOL    HW136506   0.870   2.799  16.816  0.7074  0.1834  0.6014
 8349SOL    HW236507   0.922   2.738  16.694  1.7811 -2.3797  1.4904
 8350SOL     OW36508   3.714   2.253   6.801 -0.2244 -0.3326  0.3251
 8350SOL    HW136509   3.686   2.181   6.744 -0.9375 -1.0609  1.6078
 8350SOL    HW236510   3.728   2.321   6.735  1.9366  0.1266  1.2382
 8351SOL     OW36511   0.577   0.354   3.283  0.0787 -0.1785  0.0600
 8351SOL    HW136512   0.672   0.366   3.288 -0.1943  1.2328  2.1216
 8351SOL    HW236513   0.574   0.269   3.329 -3.4522  0.6715  1.4148
 8352SOL     OW36514   3.835   4.426   3.922 -0.0605  0.0861 -0.0884
 8352SOL    HW136515   3.784   4.451   3.845  0.3276  0.3197 -0.2744
 8352SOL    HW236516   3.912   4.398   3.872 -1.1880 -1.6711 -0.8327
 8353SOL     OW36517   3.028   2.252  15.710 -0.1722  0.1425  0.1121
 8353SOL    HW136518   2.937   2.282  15.713  0.7374  2.8182  1.0731
 8353SOL    HW236519   3.080   2.325  15.745 -0.2148  0.9647 -1.5672
 8354SOL     OW36520   4.051   1.213   9.200 -0.1729 -0.0419  0.3648
 8354SOL    HW136521   4.063   1.135   9.146  0.4596 -0.5102  1.1727
 8354SOL    HW236522   4.067   1.288   9.142  0.1752 -0.4255 -0.0370
 8355SOL     OW36523   0.687   1.763   3.858  0.3273  0.6666 -0.0559
 8355SOL    HW136524   0.752   1.783   3.926 -0.4667  2.2660  0.2254
 8355SOL    HW236525   0.608   1.801   3.897  0.5375 -0.8847  1.8636
 8356SOL     OW36526   0.683   4.591  15.754  0.7902  0.0769  0.7498
 8356SOL    HW136527   0.686   4.593  15.849  0.7014  2.9082  0.6706
 8356SOL    HW236528   0.632   4.670  15.739  0.8257 -0.1592 -0.6116
 8357SOL     OW36529   3.045   4.487   7.991  0.7188  0.4535  0.4428
 8357SOL    HW136530   3.053   4.507   7.897  0.7333 -1.0058  0.1376
 8357SOL    HW236531   3.071   4.573   8.025 -0.5604  0.6591  0.9082
 8358SOL     OW36532   2.104   0.906   1.234  0.2480 -0.2321  0.6259
 8358SOL    HW136533   2.191   0.883   1.267  0.9400  0.1132 -0.9199
 8358SOL    HW236534   2.108   0.873   1.144 -2.0431  0.8404  0.1308
 8359SOL     OW36535   2.564   0.034   7.217  0.9629 -0.3464  0.2621
 8359SOL    HW136536   2.492   0.084   7.255  1.1898 -0.7714  1.2569
 8359SOL    HW236537   2.535   0.013   7.129 -2.9661 -0.9960  1.7181
 8360SOL     OW36538   2.569   1.512   0.354 -0.2679 -0.0011  0.3723
 8360SOL    HW136539   2.475   1.515   0.372 -0.3890 -0.1295 -0.2527
 8360SOL    HW236540   2.580   1.420   0.331 -2.4943 -0.2647  0.4114
 8361SOL     OW36541   0.463   4.356  17.689  0.7682  0.0188 -0.0001
 8361SOL    HW136542   0.503   4.275  17.658  1.6791  1.5341 -2.6969
 8361SOL    HW236543   0.519   4.376   0.063 -1.0334  0.6816  1.1637
 8362SOL     OW36544   3.699   2.049   8.374  0.2701 -0.1982  0.5727
 8362SOL    HW136545   3.763   2.026   8.307 -0.7571  3.1757 -1.5842
 8362SOL    HW236546   3.666   1.963   8.400  1.1279 -0.8217 -0.3824
 8363SOL     OW36547   1.314   4.383   1.735  0.0481 -0.3285  0.2783
 8363SOL    HW136548   1.238   4.388   1.676  0.8253 -0.3811 -0.7242
 8363SOL    HW236549   1.340   4.472   1.755  0.9642  0.2750 -3.6259
 8364SOL     OW36550   3.349   0.603   6.849  0.3054  0.4846  0.2544
 8364SOL    HW136551   3.293   0.656   6.792  1.1351  0.9547 -0.1201
 8364SOL    HW236552   3.280   0.564   6.903  0.7049 -0.4497  0.0917
 8365SOL     OW36553   3.210   2.941   2.953  0.2679  0.5635 -0.4996
 8365SOL    HW136554   3.285   2.886   2.934 -0.2434  0.6592 -2.8458
 8365SOL    HW236555   3.184   2.909   3.039  1.1196 -0.3374 -0.5834
 8366SOL     OW36556   2.820   1.182   9.204 -0.6971 -0.6940  0.5771
 8366SOL    HW136557   2.736   1.138   9.192 -1.5409  0.5436  1.9323
 8366SOL    HW236558   2.834   1.185   9.109  2.3902  0.3684  1.0784
 8367SOL     OW36559   1.563   0.257  11.087 -0.3926 -0.7954 -0.3612
 8367SOL    HW136560   1.488   0.301  11.047 -2.0924 -1.4729  2.0053
 8367SOL    HW236561   1.625   0.328  11.104  0.3108 -2.2996  3.4583
 8368SOL     OW36562   2.507   1.017   7.819 -0.5128 -0.3724 -0.1869
 8368SOL    HW136563   2.532   1.087   7.879 -1.8651 -0.1590  0.1420
 8368SOL    HW236564   2.533   0.941   7.871 -1.1279 -0.6058 -0.2178
 8369SOL     OW36565   0.098   0.310   4.748  0.2447 -0.0473 -0.3853
 8369SOL    HW136566   0.123   0.244   4.812 -3.1817 -0.6862  0.2915
 8369SOL    HW236567   0.124   0.255   4.674  2.9470 -0.4575  0.8769
 8370SOL     OW36568   4.545   3.001  17.353  0.1041 -0.3328  0.5631
 8370SOL    HW136569   4.466   2.982  17.303 -1.2726  1.3365  2.1142
 8370SOL    HW236570   4.612   3.032  17.292 -3.0807  0.9339 -2.2749
 8371SOL     OW36571   0.683   0.722   4.067 -0.3155  0.4828 -0.3678
 8371SOL    HW136572   0.728   0.798   4.105  0.1564  0.1621 -0.2826
 8371SOL    HW236573   0.686   0.658   4.138 -2.2167  0.8401  0.0512
 8372SOL     OW36574   2.902   1.189   1.308  0.0720 -0.2697 -0.1443
 8372SOL    HW136575   2.909   1.267   1.252 -0.2626  1.3914  2.1128
 8372SOL    HW236576   2.867   1.213   1.394 -0.7270  0.4605 -0.6724
 8373SOL     OW36577   3.194   1.494   6.901 -0.0630 -0.3999 -0.2426
 8373SOL    HW136578   3.269   1.478   6.958 -1.1102  0.2261  1.2841
 8373SOL    HW236579   3.235   1.498   6.814  0.3971 -0.8830 -0.0458
 8374SOL     OW36580   3.437   1.025   1.075 -0.0058 -0.6647  0.0868
 8374SOL    HW136581   3.476   1.083   1.010 -0.1756 -2.5002 -1.6564
 8374SOL    HW236582   3.383   1.096   1.110  1.2645  0.2919  0.0689
 8375SOL     OW36583   3.553   1.166   7.558  0.3391 -0.3307  0.2646
 8375SOL    HW136584   3.639   1.196   7.586  0.2631  0.8554 -0.7452
 8375SOL    HW236585   3.550   1.077   7.593  0.0235 -0.2466  0.4506
 8376SOL     OW36586   3.999   3.871  13.167 -0.5141  0.0066  0.1024
 8376SOL    HW136587   4.039   3.880  13.081  0.2929 -0.9048  0.3811
 8376SOL    HW236588   4.048   3.800  13.209  1.1141  2.1800  1.8653
 8377SOL     OW36589   0.383   2.150  15.701  0.4662 -0.3548  0.3670
 8377SOL    HW136590   0.334   2.207  15.761  1.0535  0.3975  0.1323
 8377SOL    HW236591   0.347   2.178  15.617 -0.9048  0.1531  1.1190
 8378SOL     OW36592   1.559   2.992   7.210  0.0511  0.4702 -0.0533
 8378SOL    HW136593   1.555   3.071   7.264 -0.3028  0.8622 -0.6438
 8378SOL    HW236594   1.614   3.019   7.136  0.6057  0.0729  0.2133
 8379SOL     OW36595   3.686   3.096   8.649 -0.6261  0.3750 -0.2878
 8379SOL    HW136596   3.750   3.097   8.578 -0.0591 -0.1918  0.2173
 8379SOL    HW236597   3.713   3.171   8.701 -0.2435  0.0030  0.0538
 8380SOL     OW36598   3.055   1.819   8.782 -0.4191 -0.5886 -0.6475
 8380SOL    HW136599   3.058   1.733   8.825  0.6708 -0.5933 -0.7337
 8380SOL    HW236600   3.108   1.806   8.704 -0.0654  0.0533 -0.5156
 8381SOL     OW36601   1.102   3.865  13.006 -0.1623 -0.0970 -0.2308
 8381SOL    HW136602   1.073   3.929  12.942 -1.6234 -0.4356  0.0912
 8381SOL    HW236603   1.197   3.860  12.999 -0.1824 -0.1115 -0.5230
 8382SOL     OW36604   0.261   3.919   7.788  0.1123  0.2783  0.1695
 8382SOL    HW136605   0.289   3.965   7.709 -0.5178  0.4470  0.0384
 8382SOL    HW236606   0.192   3.865   7.749 -0.0381 -0.1453  1.0252
 8383SOL     OW36607   1.446   4.319   5.304  0.0363  0.2026  0.2407
 8383SOL    HW136608   1.411   4.363   5.381  0.7412 -0.0306  0.7032
 8383SOL    HW236609   1.395   4.238   5.306  0.5366 -0.1354 -0.6372
 8384SOL     OW36610   0.479   2.826   1.190 -0.0277  0.0538 -0.5126
 8384SOL    HW136611   0.477   2.800   1.282 -0.8479  4.9092  0.8444
 8384SOL    HW236612   0.546   2.765   1.160  1.5005  0.6312  1.6639
 8385SOL     OW36613   3.245   2.381   9.212 -0.0774  0.0093 -0.4501
 8385SOL    HW136614   3.315   2.328   9.173  0.7331 -1.0523  2.4276
 8385SOL    HW236615   3.266   2.380   9.306  0.9128 -0.8332 -0.6900
 8386SOL     OW36616   1.280   0.241   1.135  0.3122 -0.0235 -0.7670
 8386SOL    HW136617   1.274   0.298   1.059  1.4543  4.3078  2.3962
 8386SOL    HW236618   1.201   0.188   1.123 -0.0061  0.5480 -1.2011
 8387SOL     OW36619   3.474   3.447  15.633 -0.1017  0.1971 -0.1132
 8387SOL    HW136620   3.474   3.506  15.708  2.8570 -0.0352  0.0621
 8387SOL    HW236621   3.464   3.502  15.556  1.9200 -0.5190 -0.8758
 8388SOL     OW36622   1.327   4.520   2.523  0.1256  0.2323 -0.4737
 8388SOL    HW136623   1.419   4.543   2.536  0.0625 -0.4290  1.1459
 8388SOL    HW236624   1.342   4.433   2.486 -1.7417 -0.2959  0.0218
 8389SOL     OW36625   0.508   3.026   4.287  0.5272  0.2014 -0.7863
 8389SOL    HW136626   0.595   3.001   4.318 -0.1098 -1.9830 -0.7702
 8389SOL    HW236627   0.465   3.048   4.369  2.2611 -2.0395  0.7415
 8390SOL     OW36628   2.390   2.421  10.182  0.7246  0.2543 -0.0829
 8390SOL    HW136629   2.467   2.390  10.134  1.7166  1.6503  0.6019
 8390SOL    HW236630   2.344   2.337  10.189  1.9956 -0.6520 -2.7371
 8391SOL     OW36631   3.640   3.381   4.149 -0.0196  0.5738 -0.2295
 8391SOL    HW136632   3.666   3.460   4.196  1.2938 -0.2044  0.3633
 8391SOL    HW236633   3.662   3.405   4.059  1.5863 -0.8812 -0.2070
 8392SOL     OW36634   2.414   1.491   8.911 -0.7430  0.0618 -0.0848
 8392SOL    HW136635   2.420   1.566   8.852  1.8546  0.1319  0.2684
 8392SOL    HW236636   2.416   1.536   8.996 -0.8202  0.8962 -0.5222
 8393SOL     OW36637   1.995   3.399   7.629  0.2228  0.3099  0.2225
 8393SOL    HW136638   1.976   3.454   7.553  0.4127  0.4485  0.2751
 8393SOL    HW236639   2.050   3.454   7.685 -0.3726  1.5597 -0.4503
 8394SOL     OW36640   3.073   4.187   3.463  0.0139  0.3846 -0.3440
 8394SOL    HW136641   2.986   4.167   3.429 -1.0937 -1.0569  3.2776
 8394SOL    HW236642   3.064   4.146   3.550 -0.6061 -0.8351 -0.9894
 8395SOL     OW36643   2.476   3.710   2.235  0.7785 -0.5456 -0.2179
 8395SOL    HW136644   2.545   3.681   2.175  0.4128 -0.8872 -0.4735
 8395SOL    HW236645   2.500   3.803   2.237  1.6368 -0.7778  0.0432
 8396SOL     OW36646   2.273   2.958  10.573  0.2882 -0.5170 -0.2725
 8396SOL    HW136647   2.306   3.018  10.506  0.0638 -1.3189 -1.1130
 8396SOL    HW236648   2.214   2.903  10.522  2.5910 -1.3480 -2.0869
 8397SOL     OW36649   2.941   3.516   0.313 -0.5821 -0.3908  0.3512
 8397SOL    HW136650   2.866   3.574   0.330 -0.0839 -0.0741  1.4270
 8397SOL    HW236651   2.926   3.452   0.383  2.1016 -2.1466 -0.6869
 8398SOL     OW36652   2.703   1.540   2.972  0.5805 -0.1550 -0.2666
 8398SOL    HW136653   2.746   1.479   3.032 -0.6657 -1.7451 -0.9921
 8398SOL    HW236654   2.653   1.591   3.036 -0.9380 -0.3340 -1.3139
 8399SOL     OW36655   1.800   1.931   3.141  0.6530  0.2716 -0.0004
 8399SOL    HW136656   1.818   1.852   3.191 -0.9491  0.6073  1.1235
 8399SOL    HW236657   1.835   1.998   3.200 -1.3462  1.0384  0.3234
 8400SOL     OW36658   0.306   2.456   6.226  0.2923  0.2738  0.1457
 8400SOL    HW136659   0.281   2.483   6.314 -0.2761  0.0233  0.0617
 8400SOL    HW236660   0.293   2.362   6.240  0.5527  0.2466  0.2026
 8401SOL     OW36661   2.955   1.943   3.892  0.7170 -0.4268  0.4726
 8401SOL    HW136662   2.889   2.011   3.903  1.9598  0.7652  0.5104
 8401SOL    HW236663   2.999   1.940   3.977  2.5413  2.0127 -0.3757
 8402SOL     OW36664   4.149   3.721   4.703 -0.3156 -0.9728  0.2114
 8402SOL    HW136665   4.056   3.737   4.684 -0.2502 -1.2668 -0.3685
 8402SOL    HW236666   4.147   3.638   4.750 -0.2360 -1.4785 -0.6721
 8403SOL     OW36667   4.484   0.335  15.801 -0.2110  0.0092 -0.3298
 8403SOL    HW136668   4.404   0.341  15.748 -0.9722  0.5178  0.8742
 8403SOL    HW236669   4.466   0.254  15.850  1.1616 -0.5338 -0.7332
 8404SOL     OW36670   3.683   3.576   7.613 -0.4321  0.2365 -0.1194
 8404SOL    HW136671   3.651   3.663   7.637  1.2292  1.1122 -1.0609
 8404SOL    HW236672   3.757   3.567   7.673 -0.2717  0.0679 -0.3419
 8405SOL     OW36673   0.091   3.413   5.377 -0.2638  0.5781  0.5859
 8405SOL    HW136674   0.027   3.352   5.342  1.6988 -0.7658 -0.6433
 8405SOL    HW236675   0.037   3.486   5.407 -1.0567 -0.2701  1.2175
 8406SOL     OW36676   4.379   2.232   3.797  0.0490 -0.9185  0.2221
 8406SOL    HW136677   4.362   2.316   3.756  0.6128  0.1280  2.1395
 8406SOL    HW236678   4.470   2.218   3.771  0.8609 -0.1590  2.6590
 8407SOL     OW36679   0.761   1.334   9.277 -0.2583 -0.7654  0.2811
 8407SOL    HW136680   0.785   1.427   9.277  0.7521 -1.0322 -0.6277
 8407SOL    HW236681   0.684   1.332   9.220 -0.2340  0.0204  0.2137
 8408SOL     OW36682   3.326   1.083  14.261 -0.0913 -0.2803  0.0240
 8408SOL    HW136683   3.262   1.126  14.317 -0.2688 -1.2510  0.5700
 8408SOL    HW236684   3.273   1.087  14.182 -0.7763  0.1481  0.5088
 8409SOL     OW36685   2.416   2.488   3.944  0.4390  0.4244 -0.0911
 8409SOL    HW136686   2.505   2.524   3.949  0.1716  1.0720  0.0304
 8409SOL    HW236687   2.420   2.421   3.877  1.9841  0.1833  0.2349
 8410SOL     OW36688   1.027   0.341  16.636  0.0192 -0.1112  0.4835
 8410SOL    HW136689   1.050   0.332  16.729  0.8765  0.3439  0.3136
 8410SOL    HW236690   0.945   0.391  16.638  1.0336  1.4568  3.1843
 8411SOL     OW36691   3.706   0.469  10.625  0.6232 -0.1507  0.7698
 8411SOL    HW136692   3.660   0.387  10.645 -1.1748  0.6038 -0.3272
 8411SOL    HW236693   3.726   0.506  10.711 -1.9257  1.4219  0.6822
 8412SOL     OW36694   1.704   0.664   7.364  0.1686 -0.6033 -0.2194
 8412SOL    HW136695   1.733   0.702   7.282  0.7771 -1.0490 -0.2178
 8412SOL    HW236696   1.790   0.624   7.382  0.7357 -0.0938 -1.8285
 8413SOL     OW36697   1.441   0.004   1.188 -0.0525 -0.3599 -0.1806
 8413SOL    HW136698   1.493   4.725   1.107 -0.8192 -0.1814 -0.6878
 8413SOL    HW236699   1.395   0.088   1.181 -0.1251 -0.3805  0.0702
 8414SOL     OW36700   0.498   1.565  16.761 -0.2372 -0.2226 -0.4589
 8414SOL    HW136701   0.574   1.513  16.737 -0.1030  0.0776 -0.6834
 8414SOL    HW236702   0.487   1.521  16.845 -0.1456 -0.1223 -0.3939
 8415SOL     OW36703   2.703   4.560  17.583 -0.1907  0.9570  0.2544
 8415SOL    HW136704   2.714   4.597  17.496  2.3320 -0.0737  0.1191
 8415SOL    HW236705   2.779   4.502  17.579 -1.0913 -0.3007  1.1968
 8416SOL     OW36706   3.226   2.957  10.749 -0.7908 -0.1518 -0.1202
 8416SOL    HW136707   3.278   2.977  10.671  1.4251  0.8172  1.6312
 8416SOL    HW236708   3.271   2.875  10.772 -1.2033 -0.0146  1.1887
 8417SOL     OW36709   1.496   3.112   2.486  0.6165 -0.0697  0.2450
 8417SOL    HW136710   1.522   3.023   2.460  0.0795  0.2094 -1.2670
 8417SOL    HW236711   1.415   3.125   2.436  1.1623 -1.1252 -0.9287
 8418SOL     OW36712   3.567   1.508  10.629 -0.1315 -0.0773 -0.1320
 8418SOL    HW136713   3.545   1.576  10.693  2.3628  1.2197 -0.6305
 8418SOL    HW236714   3.486   1.487  10.583  1.4581 -0.5431 -2.6844
 8419SOL     OW36715   2.071   3.297   4.518  0.1389  0.3878 -0.0097
 8419SOL    HW136716   2.106   3.283   4.431 -0.5048  2.0624 -0.5510
 8419SOL    HW236717   2.150   3.290   4.571  0.4507  2.8955 -0.1331
 8420SOL     OW36718   4.503   1.128   3.859  0.3331 -0.4821  0.7511
 8420SOL    HW136719   4.597   1.131   3.878  0.0303  0.1477  2.1650
 8420SOL    HW236720   4.503   1.149   3.766  0.6472  2.3066  1.3978
 8421SOL     OW36721   0.278   2.932   5.217  0.0672 -1.1749 -0.6083
 8421SOL    HW136722   0.254   3.016   5.255  0.8651 -0.6750 -1.2090
 8421SOL    HW236723   0.275   2.957   5.125  0.6737 -0.8273 -0.5336
 8422SOL     OW36724   1.907   0.997  12.372 -0.3011 -0.5369 -0.0773
 8422SOL    HW136725   1.844   0.953  12.314 -2.3956  1.1753  0.9060
 8422SOL    HW236726   1.896   0.953  12.456 -0.3224 -0.1757  0.1070
 8423SOL     OW36727   0.904   2.388  17.224  0.3793 -0.2894 -0.2587
 8423SOL    HW136728   0.881   2.340  17.303 -0.2497 -0.9774 -0.8687
 8423SOL    HW236729   0.960   2.455  17.265 -1.9244  1.1262  0.6046
 8424SOL     OW36730   0.674   1.398  11.935 -0.1427 -0.0462  0.1157
 8424SOL    HW136731   0.743   1.464  11.927  1.1699 -1.4469 -0.1370
 8424SOL    HW236732   0.671   1.381  12.029  1.2214  0.9827  0.3419
 8425SOL     OW36733   0.666   0.191   6.883 -0.1137 -0.6215  0.8831
 8425SOL    HW136734   0.726   0.249   6.929  0.5595  0.4594 -1.3289
 8425SOL    HW236735   0.623   0.255   6.826 -1.4077 -1.2070  1.2027
 8426SOL     OW36736   0.502   4.066   1.043 -0.3052 -0.1232  0.2348
 8426SOL    HW136737   0.593   4.066   1.013 -0.1879  1.4858  0.5623
 8426SOL    HW236738   0.499   3.976   1.075 -0.5255 -0.3037 -0.2944
 8427SOL     OW36739   1.325   4.018   6.185 -0.0129  0.6219 -0.0754
 8427SOL    HW136740   1.252   4.013   6.125 -0.5790  1.9667  0.5040
 8427SOL    HW236741   1.315   4.110   6.208  0.7846  1.0884 -1.6657
 8428SOL     OW36742   2.670   4.589   8.937 -0.4078  0.2067  0.4726
 8428SOL    HW136743   2.721   4.656   8.982 -0.6602  0.7786 -0.0917
 8428SOL    HW236744   2.644   4.635   8.857 -0.5370  0.4677  0.6649
 8429SOL     OW36745   0.351   0.684  14.155 -0.1106 -0.4045 -0.2633
 8429SOL    HW136746   0.385   0.772  14.171 -0.1357 -0.6536  1.1372
 8429SOL    HW236747   0.348   0.694  14.060  1.2579 -1.8245 -0.4589
 8430SOL     OW36748   0.634   3.961   9.925 -0.1824 -0.6209 -0.1751
 8430SOL    HW136749   0.663   4.027   9.987 -1.7169 -2.4919  2.5430
 8430SOL    HW236750   0.711   3.905   9.925  0.9851  0.9986 -0.7980
 8431SOL     OW36751   3.005   0.300   5.951 -0.6757 -0.1870  1.0415
 8431SOL    HW136752   2.933   0.236   5.948 -0.6421 -0.2115  0.7127
 8431SOL    HW236753   3.003   0.342   6.036  1.5261  2.3095 -0.1692
 8432SOL     OW36754   2.487   4.444   7.153 -0.2274 -0.1508 -0.2326
 8432SOL    HW136755   2.531   4.458   7.237  0.0911 -1.1675 -0.2353
 8432SOL    HW236756   2.419   4.510   7.168  1.2807  1.0691  1.3070
 8433SOL     OW36757   0.787   1.544  16.877  0.5547  0.0120 -0.0275
 8433SOL    HW136758   0.736   1.464  16.870 -0.3306  0.5663  0.1446
 8433SOL    HW236759   0.754   1.589  16.954 -0.1182 -0.1766 -0.2096
 8434SOL     OW36760   2.988   0.906   7.851 -0.0730 -0.2071 -0.4770
 8434SOL    HW136761   2.905   0.953   7.857 -0.2913 -0.5050 -1.2374
 8434SOL    HW236762   3.031   0.927   7.934 -1.6846  1.3236 -0.0122
 8435SOL     OW36763   0.957   0.593   9.708  1.0410 -0.0502 -1.1555
 8435SOL    HW136764   0.998   0.530   9.767  0.6282  0.8579  0.0981
 8435SOL    HW236765   0.976   0.668   9.764 -0.9788 -1.0461  0.9086
 8436SOL     OW36766   1.764   0.374   7.489  0.7277 -0.5430 -0.3178
 8436SOL    HW136767   1.847   0.422   7.486 -1.0056  2.3702 -1.6720
 8436SOL    HW236768   1.766   0.327   7.406 -0.6364 -0.5664 -0.3340
 8437SOL     OW36769   1.071   1.311  11.869  0.1985 -0.3583  0.4012
 8437SOL    HW136770   1.013   1.280  11.800 -0.3301 -1.9904  1.5788
 8437SOL    HW236771   1.152   1.314  11.818 -0.9036  1.1200 -1.2473
 8438SOL     OW36772   2.154   1.676  13.447 -0.2524  0.6068  0.4325
 8438SOL    HW136773   2.185   1.755  13.402  0.1926 -0.2951 -0.8304
 8438SOL    HW236774   2.218   1.611  13.418 -2.0996 -1.4912  1.0617
 8439SOL     OW36775   1.311   1.929  10.279 -0.1958 -0.1528  0.4027
 8439SOL    HW136776   1.285   1.979  10.201  3.6778  1.8808  0.4538
 8439SOL    HW236777   1.307   2.001  10.342 -0.0668  0.4295 -0.2529
 8440SOL     OW36778   3.396   0.316  17.679 -0.2580  0.3558 -0.0105
 8440SOL    HW136779   3.428   0.226  17.674  1.4802  0.9273  0.6289
 8440SOL    HW236780   3.342   0.305  17.601 -1.3205 -2.0943  1.0810
 8441SOL     OW36781   2.775   2.018   8.512 -0.6284  0.9404  0.2050
 8441SOL    HW136782   2.834   2.045   8.582  0.1876  0.5141 -0.3262
 8441SOL    HW236783   2.825   1.944   8.478  0.7897  1.2991  1.5202
 8442SOL     OW36784   0.500   1.447  14.771  0.3909  0.3686  0.2850
 8442SOL    HW136785   0.595   1.440  14.773  0.4130 -0.3345 -3.7579
 8442SOL    HW236786   0.494   1.503  14.694  1.3963  0.0466 -0.0315
 8443SOL     OW36787   0.355   1.794   5.602  0.4726 -0.0760 -0.0268
 8443SOL    HW136788   0.338   1.704   5.631 -2.0859 -0.9895 -4.4203
 8443SOL    HW236789   0.399   1.809   5.685 -1.9995  0.0793  1.2655
 8444SOL     OW36790   4.432   1.430   7.971 -0.2415  0.2420  0.0470
 8444SOL    HW136791   4.445   1.514   7.928  0.3481  0.1821  0.1176
 8444SOL    HW236792   4.417   1.449   8.064  0.6074  0.1065  0.2054
 8445SOL     OW36793   3.165   3.556  17.640 -0.3887  0.0050  0.2370
 8445SOL    HW136794   3.119   3.506  17.572 -2.3596  1.2432  0.6370
 8445SOL    HW236795   3.242   3.595  17.599  0.6057  1.4477  3.5040
 8446SOL     OW36796   4.532   3.119   5.864  0.0337 -0.0328 -0.5701
 8446SOL    HW136797   4.562   3.196   5.815 -2.3278  0.7857 -0.7480
 8446SOL    HW236798   4.506   3.055   5.798 -1.9538  0.4158 -0.2448
 8447SOL     OW36799   2.815   1.974   3.432 -0.7836  0.7987 -0.1362
 8447SOL    HW136800   2.865   2.009   3.359  0.5544  1.8437  1.2827
 8447SOL    HW236801   2.887   1.964   3.494 -1.4008  1.8570  0.7568
 8448SOL     OW36802   4.201   3.680   2.018 -0.0508  0.1732  0.0153
 8448SOL    HW136803   4.122   3.654   2.066  0.8525 -0.8359  0.9544
 8448SOL    HW236804   4.266   3.615   2.043 -1.0250 -0.8575 -0.1176
 8449SOL     OW36805   0.493   4.101   8.737  0.1601 -0.0035  0.7251
 8449SOL    HW136806   0.429   4.140   8.796 -0.3825  0.7129 -0.3387
 8449SOL    HW236807   0.432   4.050   8.683 -0.6304  0.6279  1.0195
 8450SOL     OW36808   0.450   3.619  13.968  0.4059 -0.8447 -0.3997
 8450SOL    HW136809   0.534   3.665  13.965 -0.0904  0.1879  1.3570
 8450SOL    HW236810   0.482   3.541  14.013  0.6561 -0.3584  0.2704
 8451SOL     OW36811   4.241   4.268   4.974 -0.2304 -0.1901  0.0334
 8451SOL    HW136812   4.226   4.213   4.897 -4.7342  0.1870  0.6730
 8451SOL    HW236813   4.157   4.311   4.985  1.0741  2.5367 -0.7258
 8452SOL     OW36814   4.641   1.564   5.714  0.9365  0.1925  0.5515
 8452SOL    HW136815   4.671   1.530   5.799  0.4687 -1.8663 -0.1191
 8452SOL    HW236816   4.613   1.485   5.670 -1.8223  0.6852  1.4183
 8453SOL     OW36817   3.327   3.335  14.126 -0.0226 -0.1525 -0.1452
 8453SOL    HW136818   3.336   3.257  14.070 -2.2388 -0.0557 -0.6479
 8453SOL    HW236819   3.279   3.392  14.066  2.2515  1.5502 -0.3134
 8454SOL     OW36820   0.877   0.104   0.831 -0.4712 -0.4187  0.2987
 8454SOL    HW136821   0.792   0.146   0.819  0.0035  0.8908  1.4568
 8454SOL    HW236822   0.934   0.136   0.762 -1.9612  1.7572  0.0562
 8455SOL     OW36823   2.661   1.053  11.428  0.3804  0.3603  0.3259
 8455SOL    HW136824   2.673   1.084  11.518 -2.6104 -2.1452  1.5801
 8455SOL    HW236825   2.579   1.005  11.438  0.0094  1.0133  0.4775
 8456SOL     OW36826   4.180   4.067  15.025 -0.3920  0.6004  0.3641
 8456SOL    HW136827   4.132   4.117  14.959  2.6051  0.9105 -1.5711
 8456SOL    HW236828   4.226   4.136  15.073 -0.3275 -0.6469  2.1081
 8457SOL     OW36829   4.251   2.491  15.875 -0.7299 -0.1164  0.1667
 8457SOL    HW136830   4.205   2.545  15.810 -0.6288  1.2136  1.1838
 8457SOL    HW236831   4.245   2.545  15.954  0.6522  0.8016 -0.3414
 8458SOL     OW36832   2.977   2.511  11.313 -0.9039 -0.0575  0.5417
 8458SOL    HW136833   3.066   2.490  11.342 -0.9927 -0.3351  0.6143
 8458SOL    HW236834   2.940   2.554  11.390 -0.3160 -1.2059  1.4817
 8459SOL     OW36835   4.724   3.865   7.621 -0.7943  0.1771  0.1556
 8459SOL    HW136836   4.652   3.851   7.560 -0.9994 -1.6358  0.7954
 8459SOL    HW236837   4.678   3.923   7.682 -0.7550 -1.2683  1.5812
 8460SOL     OW36838   2.398   1.991   9.739 -0.6452  0.0920 -0.0734
 8460SOL    HW136839   2.325   2.040   9.700 -1.4812 -0.5757  0.6601
 8460SOL    HW236840   2.352   1.917   9.779 -3.2728  0.4671 -2.3708
 8461SOL     OW36841   4.625   1.642   3.171 -0.8150  0.0920  0.2965
 8461SOL    HW136842   4.604   1.686   3.254  2.7820 -0.6374  1.5973
 8461SOL    HW236843   4.626   1.708   3.102  1.6513  0.5533  0.7738
 8462SOL     OW36844   2.753   4.515  13.833  0.1454  0.2008 -0.2965
 8462SOL    HW136845   2.800   4.588  13.795  1.0634  1.0935  2.5269
 8462SOL    HW236846   2.807   4.440  13.807 -0.6513 -0.4073 -0.2211
 8463SOL     OW36847   0.542   0.795   3.452 -0.3628  0.1642  0.1941
 8463SOL    HW136848   0.577   0.880   3.481 -1.2923  0.2064  1.1870
 8463SOL    HW236849   0.582   0.742   3.521 -0.3142  1.4439  1.1606
 8464SOL     OW36850   4.674   2.216  15.117  0.2042  1.2700  0.4257
 8464SOL    HW136851   4.605   2.162  15.155  1.2093 -0.9609 -0.8999
 8464SOL    HW236852   0.011   2.219  15.190  0.9379 -0.5150 -0.1031
 8465SOL     OW36853   0.563   4.437   8.882  0.2441  0.3853 -0.1671
 8465SOL    HW136854   0.501   4.365   8.881 -1.8293  2.1830  3.0492
 8465SOL    HW236855   0.533   4.494   8.953  1.2212 -0.1343  0.6508
 8466SOL     OW36856   2.601   2.100   2.671  0.1736  0.3241  0.4080
 8466SOL    HW136857   2.573   2.050   2.594 -0.1607 -0.3512  0.9704
 8466SOL    HW236858   2.634   2.176   2.623  0.6722  0.1483  0.4751
 8467SOL     OW36859   1.106   3.527   5.240  0.1509  0.5964  0.5070
 8467SOL    HW136860   1.037   3.514   5.176  1.1042  1.9921 -0.7991
 8467SOL    HW236861   1.186   3.511   5.189 -0.7353  0.4255 -0.8162
 8468SOL     OW36862   0.749   4.274   1.692 -0.4261  0.1416 -0.8385
 8468SOL    HW136863   0.722   4.201   1.636  0.6364  0.8758 -2.3084
 8468SOL    HW236864   0.752   4.343   1.626  2.7300 -0.9837 -1.8647
 8469SOL     OW36865   0.805   0.489   4.997 -0.5989 -0.4202 -0.2886
 8469SOL    HW136866   0.794   0.396   5.016  0.0551 -0.3252  0.5407
 8469SOL    HW236867   0.896   0.507   5.020 -0.9251  1.0817 -0.1516
 8470SOL     OW36868   1.114   1.862   4.623  0.0308 -0.0499 -0.3719
 8470SOL    HW136869   1.207   1.845   4.613 -0.0195  0.2994 -1.4342
 8470SOL    HW236870   1.100   1.835   4.713 -1.5122  2.2099  0.0575
 8471SOL     OW36871   3.676   2.400   8.313 -0.9628  0.0997  0.0651
 8471SOL    HW136872   3.714   2.487   8.327  0.5323 -0.0747 -2.8701
 8471SOL    HW236873   3.744   2.358   8.260  0.4446  1.6586  0.6160
 8472SOL     OW36874   2.802   0.566  10.239 -0.0859 -0.3109  0.5289
 8472SOL    HW136875   2.825   0.474  10.232  0.1539 -0.2101  0.0090
 8472SOL    HW236876   2.716   0.566  10.197  1.7355 -1.0113 -3.1745
 8473SOL     OW36877   2.544   1.763   4.953 -0.0441  0.4950  0.9053
 8473SOL    HW136878   2.574   1.681   4.993  1.8167 -0.7041 -2.9407
 8473SOL    HW236879   2.478   1.794   5.015  0.9707 -0.6009  2.5295
 8474SOL     OW36880   3.705   3.229   6.933  0.9488  0.3837 -0.0215
 8474SOL    HW136881   3.675   3.287   7.003  1.4775 -1.6173  1.8739
 8474SOL    HW236882   3.778   3.278   6.894  0.6618  0.0348 -0.9736
 8475SOL     OW36883   1.815   4.301   4.561  0.0670  0.5710 -0.7747
 8475SOL    HW136884   1.824   4.351   4.642 -1.5804 -1.6723  0.7825
 8475SOL    HW236885   1.847   4.214   4.586  1.5450  1.2245 -0.4048
 8476SOL     OW36886   0.982   0.357   0.029 -0.0795  0.0282  0.5935
 8476SOL    HW136887   0.979   0.313   0.113 -0.9539 -0.4235  0.3156
 8476SOL    HW236888   1.023   0.284  17.685 -1.2935  0.5924 -1.4317
 8477SOL     OW36889   0.283   3.285   9.065  0.1813 -0.2053 -0.0316
 8477SOL    HW136890   0.275   3.227   8.989 -0.2262 -0.4814  0.2139
 8477SOL    HW236891   0.202   3.328   9.039  0.3651  0.4144  0.4276
 8478SOL     OW36892   2.141   0.708   1.982 -0.3000 -0.5480 -0.5825
 8478SOL    HW136893   2.170   0.790   2.020 -1.2810 -0.6176  0.3308
 8478SOL    HW236894   2.047   0.698   1.998 -0.9321  1.4404 -2.9750
 8479SOL     OW36895   1.775   3.980   4.930 -0.1271 -0.1153  0.0814
 8479SOL    HW136896   1.712   3.973   5.002  0.4181 -0.9925  0.4760
 8479SOL    HW236897   1.802   4.072   4.931 -0.2818 -0.0752  0.4256
 8480SOL     OW36898   3.840   3.815   3.242 -0.3597 -0.4930 -0.2737
 8480SOL    HW136899   3.825   3.831   3.149 -1.1502  0.1627 -0.0299
 8480SOL    HW236900   3.936   3.812   3.245 -0.4394 -2.2196  0.4975
 8481SOL     OW36901   2.685   3.089   1.525  0.4664  0.5361  0.1938
 8481SOL    HW136902   2.606   3.097   1.471  1.0265  2.1586 -0.3901
 8481SOL    HW236903   2.643   3.095   1.611 -1.3094 -0.9232 -0.5644
 8482SOL     OW36904   4.718   3.477   3.099 -0.0340 -0.2634 -0.2835
 8482SOL    HW136905   4.691   3.395   3.057 -1.6899 -0.5764  1.3572
 8482SOL    HW236906   0.086   3.470   3.080  0.7456 -0.6433  3.6837
 8483SOL     OW36907   0.826   3.222   5.723 -0.0491  0.1143 -0.2948
 8483SOL    HW136908   0.820   3.246   5.815 -0.8230 -2.6707  0.3696
 8483SOL    HW236909   0.738   3.203   5.690  0.3901 -1.0446 -0.7991
 8484SOL     OW36910   2.509   3.762   9.401  0.4174 -0.1324 -0.3833
 8484SOL    HW136911   2.563   3.749   9.324 -0.9177 -2.1260 -0.9847
 8484SOL    HW236912   2.564   3.821   9.452  1.1190 -0.0141 -1.2734
 8485SOL     OW36913   1.719   1.569  15.846 -0.9704  0.3768 -0.3402
 8485SOL    HW136914   1.660   1.644  15.855 -2.5410 -1.2652  2.8178
 8485SOL    HW236915   1.742   1.554  15.937 -1.0145 -0.3717 -0.4498
 8486SOL     OW36916   0.554   0.957   8.547  0.0696  0.8233 -0.1173
 8486SOL    HW136917   0.461   0.951   8.569  0.3224  1.7529  1.1712
 8486SOL    HW236918   0.580   0.869   8.520 -1.4904  0.3144  0.0692
 8487SOL     OW36919   1.773   3.311   4.047  0.1318 -0.4374  0.3506
 8487SOL    HW136920   1.707   3.241   4.043 -1.3269  1.0144 -1.2123
 8487SOL    HW236921   1.728   3.392   4.069 -0.5545 -1.7234  3.7280
 8488SOL     OW36922   0.662   4.628   7.845 -0.2907 -0.4533 -0.2998
 8488SOL    HW136923   0.700   4.540   7.853  0.0802 -0.2798 -0.1594
 8488SOL    HW236924   0.734   4.680   7.882 -1.8226  2.3596 -1.2626
 8489SOL     OW36925   0.827   3.284   7.167 -0.2941 -0.2051 -0.1761
 8489SOL    HW136926   0.739   3.267   7.201  0.8251 -0.5797  2.5240
 8489SOL    HW236927   0.848   3.375   7.187 -2.9873  0.7219 -1.5944
 8490SOL     OW36928   4.206   1.492   8.642  0.1602 -0.0887  0.1395
 8490SOL    HW136929   4.218   1.398   8.651 -2.8142 -0.4762  0.0641
 8490SOL    HW236930   4.292   1.531   8.659 -0.0857  1.1153 -1.3396
 8491SOL     OW36931   3.612   1.974   4.031  0.4048 -0.1995 -0.0610
 8491SOL    HW136932   3.647   2.020   3.954 -0.7180 -1.7639 -1.4981
 8491SOL    HW236933   3.649   1.888   4.011  2.6720  0.5517  0.9371
 8492SOL     OW36934   2.678   3.555   0.407 -0.1214 -0.1696  0.2090
 8492SOL    HW136935   2.674   3.648   0.385 -0.1501 -0.0490  0.7056
 8492SOL    HW236936   2.585   3.533   0.406  0.2527 -1.9745  3.2532
 8493SOL     OW36937   0.419   3.548   7.599  0.2237  0.1217  0.2159
 8493SOL    HW136938   0.439   3.641   7.607  0.9425  0.0158 -0.3872
 8493SOL    HW236939   0.337   3.550   7.549  0.5072  0.0155 -0.2471
 8494SOL     OW36940   1.304   3.787   2.931  0.2948  0.6259 -0.0828
 8494SOL    HW136941   1.263   3.720   2.986 -0.0918 -0.0907 -1.2418
 8494SOL    HW236942   1.229   3.827   2.886 -1.1684 -0.8110  1.0663
 8495SOL     OW36943   3.073   4.112   2.967  0.4794 -0.0131 -0.5556
 8495SOL    HW136944   3.152   4.162   2.947  0.1807  1.3087  1.5354
 8495SOL    HW236945   3.082   4.035   2.911  4.0928  0.6131 -0.8354
 8496SOL     OW36946   1.546   0.836   9.557 -0.5646 -0.0138 -0.1492
 8496SOL    HW136947   1.482   0.902   9.531  1.0542  2.2654  1.6571
 8496SOL    HW236948   1.629   0.874   9.530  0.0842 -0.5491  1.0474
 8497SOL     OW36949   1.125   0.604  11.676  0.1403  0.1683 -0.2232
 8497SOL    HW136950   1.032   0.622  11.686  0.5099  1.6959  0.4271
 8497SOL    HW236951   1.163   0.681  11.718 -1.3397  1.5057 -1.3170
 8498SOL     OW36952   3.497   1.655   5.092 -0.0642  0.0704 -0.3268
 8498SOL    HW136953   3.518   1.586   5.155 -1.8321  0.3243  0.5641
 8498SOL    HW236954   3.411   1.686   5.122  0.2276 -0.4134  1.0061
 8499SOL     OW36955   2.906   2.141   5.972 -0.1775 -0.1263 -0.5736
 8499SOL    HW136956   2.902   2.231   6.005 -1.1407 -0.2492 -0.3393
 8499SOL    HW236957   2.882   2.160   5.881 -0.4154 -1.0813 -0.7116
 8500SOL     OW36958   2.264   3.878   6.654  0.5537 -0.3189 -0.0268
 8500SOL    HW136959   2.253   3.969   6.683 -0.9951 -0.3856 -0.4320
 8500SOL    HW236960   2.177   3.846   6.633 -1.1097  2.9738  1.9062
 8501SOL     OW36961   4.241   2.340   2.878  0.0518 -0.2738 -0.3652
 8501SOL    HW136962   4.265   2.344   2.785  1.4775  2.1242  0.1050
 8501SOL    HW236963   4.190   2.259   2.869 -0.4270  0.1076 -1.0524
 8502SOL     OW36964   2.647   3.204   6.543  0.0664 -0.4097 -0.4521
 8502SOL    HW136965   2.690   3.283   6.577 -1.2080 -0.4095  1.1867
 8502SOL    HW236966   2.571   3.245   6.503  0.7183  1.5904  0.3674
 8503SOL     OW36967   4.459   0.237  14.663  0.0980 -0.3112 -0.1229
 8503SOL    HW136968   4.513   0.162  14.640  0.4622  0.0488 -0.4414
 8503SOL    HW236969   4.518   0.290  14.716 -1.8239 -0.0510  1.7502
 8504SOL     OW36970   3.174   2.402   2.505  0.0113 -0.7968 -0.3368
 8504SOL    HW136971   3.269   2.400   2.515  0.0144 -0.9878 -0.4195
 8504SOL    HW236972   3.146   2.349   2.579 -2.1169 -1.6345 -1.7515
 8505SOL     OW36973   4.415   0.959   6.314  0.0489 -0.3333 -1.1537
 8505SOL    HW136974   4.453   0.886   6.265  1.9102  0.8011 -1.4066
 8505SOL    HW236975   4.404   1.028   6.249  0.7005  1.7791  0.9650
 8506SOL     OW36976   3.916   3.213   8.157  0.1853  0.4563 -0.4542
 8506SOL    HW136977   3.856   3.248   8.091 -2.0066 -0.7747  0.8998
 8506SOL    HW236978   3.914   3.296   8.204  0.8452  1.3694 -2.0302
 8507SOL     OW36979   4.690   0.994   9.510  0.1567  0.3047 -0.1234
 8507SOL    HW136980   4.696   0.976   9.417 -1.9119  2.0824 -0.6253
 8507SOL    HW236981   4.686   0.908   9.551 -2.3651  0.3935 -0.1929
 8508SOL     OW36982   1.852   3.214  14.752 -0.3320  0.3634  0.2884
 8508SOL    HW136983   1.825   3.185  14.839 -0.0249 -1.4188 -0.2018
 8508SOL    HW236984   1.789   3.177  14.689  0.3135  0.1722 -0.2423
 8509SOL     OW36985   2.531   0.704  12.156  0.8371  0.2530 -0.0489
 8509SOL    HW136986   2.559   0.658  12.234  1.0876  0.9500  0.2731
 8509SOL    HW236987   2.578   0.787  12.163 -1.9773  1.8453  0.2319
 8510SOL     OW36988   3.156   3.468  10.512 -0.6574  0.0670  0.1707
 8510SOL    HW136989   3.245   3.461  10.477 -0.4120  0.5223  0.7020
 8510SOL    HW236990   3.098   3.508  10.446 -1.2976 -0.8592  0.1772
 8511SOL     OW36991   1.659   0.202   5.038 -0.0258 -0.2357  0.4380
 8511SOL    HW136992   1.689   0.285   5.000 -0.5478 -0.5561 -0.6652
 8511SOL    HW236993   1.703   0.203   5.123  0.2901  0.7497  0.2633
 8512SOL     OW36994   0.985   2.149  16.685  0.0240 -0.0055  0.0767
 8512SOL    HW136995   0.893   2.147  16.710 -0.6675  0.3088 -2.3996
 8512SOL    HW236996   1.024   2.098  16.756 -1.0212  0.2794  0.8539
 8513SOL     OW36997   4.038   4.186   8.716 -0.1891 -0.4072 -0.4706
 8513SOL    HW136998   4.036   4.282   8.722 -0.9220 -0.5633  1.7229
 8513SOL    HW236999   3.954   4.166   8.759  0.4596 -1.6859  0.1982
 8514SOL     OW37000   4.178   1.443   4.338 -0.4183 -0.0023 -0.2729
 8514SOL    HW137001   4.109   1.450   4.403  0.1380 -0.0277  0.3235
 8514SOL    HW237002   4.195   1.349   4.344  0.7569  0.0417 -2.7538
 8515SOL     OW37003   3.435   4.614  11.159  0.1526  0.1694 -0.2205
 8515SOL    HW137004   3.418   4.561  11.237 -2.8889  0.7171 -0.5075
 8515SOL    HW237005   3.346   4.610  11.124 -0.0674  1.9362  0.1579
 8516SOL     OW37006   2.462   0.063   8.132  0.1982  0.0820 -0.4396
 8516SOL    HW137007   2.481   0.005   8.205  0.4061  2.1535  1.1747
 8516SOL    HW237008   2.438   0.004   8.061  1.0292  0.0608 -0.7124
 8517SOL     OW37009   0.672   4.155   3.473 -0.3806  0.0352 -0.1421
 8517SOL    HW137010   0.597   4.158   3.414 -0.2867  0.4404 -0.2397
 8517SOL    HW237011   0.699   4.247   3.476  1.0440 -0.3780 -0.4038
 8518SOL     OW37012   2.167   2.692   3.542  0.3031  0.3284 -0.0644
 8518SOL    HW137013   2.204   2.781   3.537 -0.6507  0.8138  1.5926
 8518SOL    HW237014   2.192   2.688   3.634 -0.5418  1.6826  0.2328
 8519SOL     OW37015   4.476   2.948   5.650  0.3376  0.4626  0.1395
 8519SOL    HW137016   4.481   2.852   5.654  0.1470  0.3953 -1.1423
 8519SOL    HW237017   4.552   2.970   5.596  0.8063 -0.3568  0.4612
 8520SOL     OW37018   2.712   3.430   9.298 -0.1446 -0.0143  0.6488
 8520SOL    HW137019   2.658   3.417   9.220  1.1446  0.8729 -0.3703
 8520SOL    HW237020   2.700   3.346   9.343 -0.8954 -0.8946 -1.1810
 8521SOL     OW37021   0.319   2.459   4.371  0.1852  0.4564 -0.4183
 8521SOL    HW137022   0.286   2.546   4.351 -2.2403 -1.1941 -3.6846
 8521SOL    HW237023   0.412   2.474   4.383  0.0007  3.2682 -2.6095
 8522SOL     OW37024   2.615   0.633   6.315 -0.1646 -0.0127  0.5346
 8522SOL    HW137025   2.620   0.713   6.263 -0.1554 -0.6730 -0.4739
 8522SOL    HW237026   2.577   0.673   6.394  0.2744 -0.5188  0.9944
 8523SOL     OW37027   1.850   2.269   1.508  0.1390  0.1412 -0.1320
 8523SOL    HW137028   1.880   2.343   1.455 -2.2596  0.4876 -1.0553
 8523SOL    HW237029   1.789   2.315   1.565  0.6689  0.8803 -0.1671
 8524SOL     OW37030   3.698   0.670   2.844  0.2123  0.2291  0.0103
 8524SOL    HW137031   3.648   0.745   2.813 -3.6711 -2.5259 -0.2620
 8524SOL    HW237032   3.786   0.705   2.830  0.8733 -1.7244 -0.6627
 8525SOL     OW37033   1.581   4.130   8.922 -0.0341  0.1709  0.2080
 8525SOL    HW137034   1.583   4.106   8.830  0.6808  0.5304  0.1331
 8525SOL    HW237035   1.634   4.056   8.952  1.8039  0.6143 -1.9816
 8526SOL     OW37036   1.743   0.387   7.102  0.0567 -0.0588  0.6241
 8526SOL    HW137037   1.817   0.448   7.099  0.0991 -0.1680 -0.4118
 8526SOL    HW237038   1.680   0.428   7.044  3.6551  1.0597 -2.4920
 8527SOL     OW37039   2.573   2.589   0.941  0.0034  0.1251  0.3109
 8527SOL    HW137040   2.655   2.638   0.948 -0.2973  0.2828  2.8822
 8527SOL    HW237041   2.588   2.521   1.006 -0.1917  0.0677  0.2969
 8528SOL     OW37042   3.240   3.992   6.631  0.4607 -0.1822  0.1525
 8528SOL    HW137043   3.282   3.926   6.577  1.6967 -0.3812  1.3609
 8528SOL    HW237044   3.162   3.947   6.664  1.4675 -0.4703  2.1432
 8529SOL     OW37045   1.064   3.284   8.823  0.0786  0.3942  0.0469
 8529SOL    HW137046   1.116   3.351   8.866  0.1437 -0.7466  1.7409
 8529SOL    HW237047   1.010   3.247   8.892 -1.2972  2.0368 -0.1420
 8530SOL     OW37048   1.301   0.795   5.435  0.2238  0.0428 -0.7876
 8530SOL    HW137049   1.314   0.854   5.508 -0.3709  2.0725 -2.3262
 8530SOL    HW237050   1.287   0.856   5.363  0.0561 -0.6783 -1.3749
 8531SOL     OW37051   1.035   2.420   5.646 -0.0124  0.5817 -0.3136
 8531SOL    HW137052   1.029   2.510   5.615 -0.8990  0.2727 -1.0178
 8531SOL    HW237053   0.950   2.413   5.688  0.2130  1.6717  0.3251
 8532SOL     OW37054   3.559   4.298   4.281 -0.4572 -0.5963 -0.8255
 8532SOL    HW137055   3.561   4.322   4.188 -0.3775  1.6039 -0.2481
 8532SOL    HW237056   3.542   4.379   4.329  1.9646 -1.6703  1.8037
 8533SOL     OW37057   0.604   3.607   1.332 -0.0316 -0.4440 -0.0402
 8533SOL    HW137058   0.670   3.616   1.264 -0.9735 -0.8908 -1.0176
 8533SOL    HW237059   0.653   3.572   1.406 -1.6592  1.3859  1.8895
 8534SOL     OW37060   1.747   2.882   0.273  0.4541  0.1937  0.2570
 8534SOL    HW137061   1.832   2.926   0.282 -0.7712  2.3697  1.1734
 8534SOL    HW237062   1.720   2.907   0.185 -0.1223  3.1923  1.3044
 8535SOL     OW37063   4.378   3.961   0.647 -0.0698 -0.1425 -0.4865
 8535SOL    HW137064   4.395   4.012   0.568  0.1698  1.0220  0.3233
 8535SOL    HW237065   4.378   3.874   0.607 -1.6898 -0.1094 -0.5589
 8536SOL     OW37066   4.588   2.489   6.502 -0.0961 -0.0661 -0.2902
 8536SOL    HW137067   4.621   2.559   6.445  0.9720 -0.0307  0.3734
 8536SOL    HW237068   4.558   2.541   6.577 -0.0020 -0.0743 -0.2469
 8537SOL     OW37069   2.687   0.152  12.685 -1.1747  0.9283 -0.4535
 8537SOL    HW137070   2.716   0.114  12.768  2.3047  2.1354 -1.1081
 8537SOL    HW237071   2.689   0.077  12.626  0.7485  0.1358  0.5980
 8538SOL     OW37072   2.687   2.059   7.148  0.5802 -0.2466 -0.0241
 8538SOL    HW137073   2.726   1.972   7.142  3.0377  0.7428  1.6951
 8538SOL    HW237074   2.625   2.045   7.219 -0.5066  0.5690 -0.8112
 8539SOL     OW37075   3.844   2.858  16.072 -0.8657 -0.1534 -0.4548
 8539SOL    HW137076   3.867   2.938  16.118  2.1587  0.1143 -2.4768
 8539SOL    HW237077   3.878   2.885  15.987 -0.1530  0.1209 -0.0810
 8540SOL     OW37078   1.066   4.369  13.324  0.5816  0.2826  0.7750
 8540SOL    HW137079   1.155   4.360  13.291  0.3219  0.5090  0.0332
 8540SOL    HW237080   1.072   4.446  13.382 -0.1648 -0.9736  2.5270
 8541SOL     OW37081   4.356   1.183  10.341 -0.2812 -0.1238 -0.7307
 8541SOL    HW137082   4.319   1.255  10.392 -1.0089  0.5472 -2.2050
 8541SOL    HW237083   4.289   1.116  10.356  1.3608 -1.3188  1.2772
 8542SOL     OW37084   1.864   1.794   4.757  0.1387  0.1143  0.0967
 8542SOL    HW137085   1.959   1.784   4.761  0.0228 -0.4542  1.1451
 8542SOL    HW237086   1.839   1.860   4.822 -1.2963  0.7741 -1.1068
 8543SOL     OW37087   4.182   3.409   2.868 -0.5536 -0.8599 -0.0914
 8543SOL    HW137088   4.245   3.351   2.912 -0.2096  0.0266  0.5979
 8543SOL    HW237089   4.159   3.453   2.950  0.2892  0.9395 -0.7969
 8544SOL     OW37090   0.601   3.207   5.391  0.0373  0.0721  0.7438
 8544SOL    HW137091   0.524   3.260   5.373  1.0703  2.2267  2.7158
 8544SOL    HW237092   0.643   3.207   5.305  0.1800 -0.0571  0.8124
 8545SOL     OW37093   0.223   2.527   6.474  0.3973  0.6519 -0.5581
 8545SOL    HW137094   0.176   2.602   6.438  0.4487  0.6935 -0.5373
 8545SOL    HW237095   0.276   2.567   6.542 -0.1376 -0.0859  0.3014
 8546SOL     OW37096   3.637   2.898   8.430 -0.1220 -0.1975  0.0979
 8546SOL    HW137097   3.643   2.890   8.525  0.9708 -1.2652 -0.0659
 8546SOL    HW237098   3.676   2.817   8.398  1.0420  0.4091  0.0077
 8547SOL     OW37099   2.739   2.590   5.504  0.2303 -0.0057 -0.7036
 8547SOL    HW137100   2.665   2.593   5.565  1.2565 -0.4353  0.5414
 8547SOL    HW237101   2.798   2.529   5.548 -0.3490 -0.8389 -1.0716
 8548SOL     OW37102   2.958   2.131   5.467 -0.2758  0.6062  0.1106
 8548SOL    HW137103   2.989   2.045   5.496  0.1253  0.7736  0.1785
 8548SOL    HW237104   3.033   2.171   5.423  0.7036  0.2479  1.4310
 8549SOL     OW37105   2.836   0.677   5.119 -0.6599 -0.1874 -0.2581
 8549SOL    HW137106   2.910   0.635   5.162  0.6723  2.1625 -0.2590
 8549SOL    HW237107   2.813   0.749   5.178  2.8530  0.8938 -0.2531
 8550SOL     OW37108   2.523   2.500  14.081 -0.0759  0.1205  0.4679
 8550SOL    HW137109   2.571   2.418  14.092 -0.5215  0.0682  1.9882
 8550SOL    HW237110   2.537   2.534  14.169 -0.3241  0.2995  0.4387
 8551SOL     OW37111   0.835   1.618   6.913  0.6634  0.1979  0.1708
 8551SOL    HW137112   0.885   1.695   6.886  0.5350 -0.2559 -1.3915
 8551SOL    HW237113   0.772   1.616   6.840 -0.3769 -2.7184  1.1637
 8552SOL     OW37114   2.892   0.343   6.211  0.5948 -0.4948 -0.3317
 8552SOL    HW137115   2.858   0.287   6.141  1.2476 -0.2264 -0.8649
 8552SOL    HW237116   2.834   0.337   6.286 -0.9029 -0.1184 -1.4701
 8553SOL     OW37117   1.141   1.857   8.163 -0.2336 -0.4966 -0.1906
 8553SOL    HW137118   1.164   1.950   8.170 -1.1273 -0.0588 -3.1851
 8553SOL    HW237119   1.047   1.854   8.180 -0.3854  2.0559 -0.5094
 8554SOL     OW37120   3.846   2.716   5.546 -0.0514 -0.6032  0.4281
 8554SOL    HW137121   3.861   2.630   5.586  1.7782 -0.5199 -0.0736
 8554SOL    HW237122   3.909   2.769   5.594  0.1130  0.0752 -0.5430
 8555SOL     OW37123   3.665   2.681   6.443 -0.1079 -0.2704  0.0909
 8555SOL    HW137124   3.648   2.639   6.359  0.3474  2.0908 -1.1623
 8555SOL    HW237125   3.602   2.752   6.442 -0.6038 -0.7813 -2.7613
 8556SOL     OW37126   2.461   3.793   3.104  0.2728  0.1371 -0.4194
 8556SOL    HW137127   2.475   3.886   3.122  1.7077  0.4043 -2.8905
 8556SOL    HW237128   2.546   3.768   3.139 -0.1462  0.1314  0.6126
 8557SOL     OW37129   0.791   1.758   5.331 -0.5436 -0.9289  0.3535
 8557SOL    HW137130   0.854   1.827   5.353  0.0333 -0.6908 -1.9843
 8557SOL    HW237131   0.708   1.800   5.355  0.5394  1.4161  0.0200
 8558SOL     OW37132   4.368   2.435   0.248  0.6690 -0.1360  0.1352
 8558SOL    HW137133   4.459   2.406   0.240 -0.3136 -3.1806 -0.0438
 8558SOL    HW237134   4.391   2.517   0.291 -0.5439  1.5947 -2.5068
 8559SOL     OW37135   3.316   2.784   0.043 -0.5778 -0.4527  0.0575
 8559SOL    HW137136   3.391   2.786   0.102 -0.1717  0.1492 -0.4715
 8559SOL    HW237137   3.323   2.868  17.698  0.8118  0.2607  1.5608
 8560SOL     OW37138   0.322   3.415   2.454  0.3377 -0.2183 -0.8374
 8560SOL    HW137139   0.396   3.474   2.470 -0.7202  1.0396 -0.6462
 8560SOL    HW237140   0.325   3.370   2.538  1.5316 -0.7418 -1.1553
 8561SOL     OW37141   3.343   1.609   5.603 -0.1854 -0.1231  0.7388
 8561SOL    HW137142   3.371   1.519   5.582  0.0163 -0.6497  3.2858
 8561SOL    HW237143   3.258   1.607   5.558 -0.7790  2.1739  1.7770
 8562SOL     OW37144   2.333   0.048  10.109  0.4560 -0.1781  0.2862
 8562SOL    HW137145   2.249   0.078  10.143 -1.2927  0.0166 -4.2161
 8562SOL    HW237146   2.375   0.010  10.186  2.6105 -0.7429 -1.1376
 8563SOL     OW37147   1.123   4.626   1.505  0.4462 -0.5711  0.0380
 8563SOL    HW137148   1.090   4.565   1.439  0.6072 -1.5723  0.8813
 8563SOL    HW237149   1.059   4.613   1.575 -1.2532  1.0760 -1.1953
 8564SOL     OW37150   3.756   0.975   3.219 -0.1718  0.0563  0.4538
 8564SOL    HW137151   3.668   1.004   3.194  0.3503  1.1416 -0.1241
 8564SOL    HW237152   3.812   1.045   3.185 -0.7399  0.5856  0.5881
 8565SOL     OW37153   0.171   4.532   5.302  0.3968  0.4067 -0.2461
 8565SOL    HW137154   0.125   4.615   5.290 -0.0799  0.1514 -0.1876
 8565SOL    HW237155   0.256   4.571   5.322  0.2662  0.4454  0.2187
 8566SOL     OW37156   3.596   4.155   5.962  0.5459  0.1342  0.0815
 8566SOL    HW137157   3.631   4.213   5.894 -1.7782  0.6867 -0.6322
 8566SOL    HW237158   3.657   4.177   6.032 -1.5418  1.0208  1.6221
 8567SOL     OW37159   2.222   1.919  13.024  0.3806  0.0070  0.3007
 8567SOL    HW137160   2.265   1.848  12.975 -0.3857 -0.1265 -0.1729
 8567SOL    HW237161   2.264   1.923  13.110  2.4151  1.2078 -0.7449
 8568SOL     OW37162   2.725   3.991   3.666 -0.4466  0.1061 -0.0086
 8568SOL    HW137163   2.727   4.060   3.733 -0.7475  0.3647 -0.2677
 8568SOL    HW237164   2.810   3.953   3.688 -0.6361 -1.5948 -2.2601
 8569SOL     OW37165   3.922   1.256  17.287 -0.4491 -0.2629 -0.2561
 8569SOL    HW137166   3.995   1.318  17.284 -1.3383  0.7031 -2.0789
 8569SOL    HW237167   3.848   1.316  17.290 -0.3497 -0.1062 -0.9428
 8570SOL     OW37168   4.350   2.300   2.324  0.5158 -0.0940  0.2783
 8570SOL    HW137169   4.275   2.290   2.265  1.4117 -0.3372 -0.8126
 8570SOL    HW237170   4.421   2.262   2.273 -1.7407 -1.9461 -1.4869
 8571SOL     OW37171   4.495   2.980   4.304  0.4033  0.2448  0.1015
 8571SOL    HW137172   4.465   3.046   4.366  0.4088 -1.9208  2.4612
 8571SOL    HW237173   4.482   3.032   4.225  0.8113  0.5571  0.2394
 8572SOL     OW37174   3.143   3.124   4.027  0.1986  0.2619 -0.2002
 8572SOL    HW137175   3.169   3.033   4.014 -0.2729  0.3816 -1.8709
 8572SOL    HW237176   3.229   3.167   4.029  0.3118  0.0099  0.4134
 8573SOL     OW37177   2.769   1.982   2.128 -0.6916 -0.6886  0.4610
 8573SOL    HW137178   2.695   2.035   2.158 -0.9262  0.1838 -1.6955
 8573SOL    HW237179   2.811   2.038   2.063  2.0718 -2.4915  0.6552
 8574SOL     OW37180   1.173   3.875   9.319 -0.6081 -0.3154 -0.0486
 8574SOL    HW137181   1.131   3.925   9.389 -1.2330  0.6283 -1.0916
 8574SOL    HW237182   1.247   3.932   9.299 -0.4512 -1.1637 -1.8600
 8575SOL     OW37183   1.471   0.192   1.908 -0.8730  0.1406  0.1353
 8575SOL    HW137184   1.401   0.181   1.844 -0.5845  0.3608 -0.2173
 8575SOL    HW237185   1.501   0.283   1.896 -2.3006  0.5302 -0.4990
 8576SOL     OW37186   4.464   4.370   0.973 -0.1052 -0.0960  0.2859
 8576SOL    HW137187   4.393   4.394   1.033 -1.6630 -0.4045 -1.4349
 8576SOL    HW237188   4.441   4.278   0.959  0.9735 -0.5871  1.6902
 8577SOL     OW37189   1.664   0.250  11.828  0.6915 -0.3212  0.0861
 8577SOL    HW137190   1.671   0.177  11.766  1.3705 -0.9837  0.9485
 8577SOL    HW237191   1.682   0.207  11.911  0.7377 -3.1463 -1.3931
 8578SOL     OW37192   2.120   3.067   2.106  0.1619  0.5075 -0.0409
 8578SOL    HW137193   2.106   3.120   2.028  0.8823 -1.1047 -1.2418
 8578SOL    HW237194   2.129   3.135   2.173 -1.3516 -0.5471  1.2435
 8579SOL     OW37195   3.500   3.057   7.737 -0.0855 -0.1553  0.3204
 8579SOL    HW137196   3.421   3.085   7.784  0.9799  1.7785  0.9571
 8579SOL    HW237197   3.523   3.143   7.701 -1.2548 -0.4571 -1.1995
 8580SOL     OW37198   2.866   0.636   2.882  0.4464 -0.6143 -0.2273
 8580SOL    HW137199   2.954   0.619   2.848  0.0227 -2.0856 -0.6328
 8580SOL    HW237200   2.889   0.615   2.972  1.6900  0.3276 -0.3283
 8581SOL     OW37201   4.396   2.606  17.690 -0.1333  0.9421  0.7284
 8581SOL    HW137202   4.422   2.516  17.668  0.3459  1.5042 -0.9957
 8581SOL    HW237203   4.429   2.656  17.615 -2.2684 -1.7682 -2.0375
 8582SOL     OW37204   3.912   3.709   5.696  0.0643  0.9474  0.3866
 8582SOL    HW137205   3.959   3.762   5.631  0.3408 -1.2875 -1.2466
 8582SOL    HW237206   3.822   3.700   5.664 -0.2951 -1.5434  2.1036
 8583SOL     OW37207   1.695   3.880   8.989  0.3958 -0.3893 -1.1630
 8583SOL    HW137208   1.763   3.939   9.023  1.0030 -0.5679 -2.0379
 8583SOL    HW237209   1.742   3.796   8.993  0.0711 -0.4090  2.3048
 8584SOL     OW37210   2.194   2.388   2.030  0.2762 -0.2073 -0.2659
 8584SOL    HW137211   2.149   2.337   2.097 -0.5791  0.0541 -0.6314
 8584SOL    HW237212   2.124   2.444   1.995  1.3811  1.6304  0.4439
 8585SOL     OW37213   4.008   2.732   3.374  0.0318 -0.1232  0.7998
 8585SOL    HW137214   4.088   2.691   3.341  0.7514  0.6132  1.6481
 8585SOL    HW237215   4.042   2.817   3.403 -1.4673  0.1451  1.7936
 8586SOL     OW37216   1.275   3.123  10.821  0.0089 -0.0403 -0.5917
 8586SOL    HW137217   1.350   3.146  10.765  1.7893 -0.7881  1.4806
 8586SOL    HW237218   1.206   3.139  10.756  1.1484  0.5166 -1.6786
 8587SOL     OW37219   2.158   1.353   5.589  0.3045 -0.3929  0.4802
 8587SOL    HW137220   2.214   1.403   5.530 -1.2824 -0.3846 -1.0310
 8587SOL    HW237221   2.170   1.272   5.539  0.7718  0.8535 -1.4339
 8588SOL     OW37222   2.014   2.225   3.292  0.5057 -0.3466 -0.1883
 8588SOL    HW137223   2.075   2.159   3.261 -0.7120 -2.8682  2.7939
 8588SOL    HW237224   2.046   2.295   3.234 -0.0834 -0.1712 -0.3047
 8589SOL     OW37225   1.444   0.039   4.671 -0.0183 -0.0685  0.1285
 8589SOL    HW137226   1.523   0.002   4.632  1.6242  1.4272  1.9947
 8589SOL    HW237227   1.439   4.708   4.749 -1.2067  1.1776  0.9406
 8590SOL     OW37228   1.185   3.766   4.102  0.8770 -0.3658 -0.1598
 8590SOL    HW137229   1.109   3.727   4.145  1.6997 -0.2325  1.4233
 8590SOL    HW237230   1.205   3.691   4.047 -1.4724 -0.3668 -0.9952
 8591SOL     OW37231   3.728   2.432   8.902 -0.2597 -0.1202  0.1867
 8591SOL    HW137232   3.657   2.475   8.854 -0.8008 -0.5813  0.5669
 8591SOL    HW237233   3.802   2.481   8.866 -1.0905  0.4854 -0.7018
 8592SOL     OW37234   0.606   1.223   0.285  0.1449  0.0434 -0.2854
 8592SOL    HW137235   0.511   1.210   0.280  0.2387 -1.8051  2.4415
 8592SOL    HW237236   0.627   1.260   0.371  0.7724 -2.8043  0.7665
 8593SOL     OW37237   1.296   2.572   1.181 -0.4205  0.6265 -0.5341
 8593SOL    HW137238   1.306   2.655   1.228  2.3294  0.0832 -0.1729
 8593SOL    HW237239   1.203   2.578   1.157 -0.5962 -0.5572 -0.1624
 8594SOL     OW37240   3.214   1.067   3.033 -0.2087  0.2645 -0.1131
 8594SOL    HW137241   3.309   1.053   3.037 -0.4451 -1.1979  0.5354
 8594SOL    HW237242   3.211   1.163   3.034  2.5969  0.3741 -2.5566
 8595SOL     OW37243   2.526   1.528   3.782  0.1045 -0.3136  0.2821
 8595SOL    HW137244   2.535   1.515   3.688  1.5165  0.8844  0.2504
 8595SOL    HW237245   2.441   1.569   3.790 -0.1616 -0.8356  0.1497
 8596SOL     OW37246   2.026   0.780   8.766 -0.0020 -0.1358  0.1581
 8596SOL    HW137247   1.974   0.788   8.686  0.5643 -1.1426 -0.3137
 8596SOL    HW237248   2.090   0.852   8.761  0.7192 -0.7852  0.0084
 8597SOL     OW37249   2.305   3.939   4.464  0.4476 -0.7408  0.0166
 8597SOL    HW137250   2.327   3.916   4.374 -0.0144  1.7306 -0.7208
 8597SOL    HW237251   2.253   4.019   4.457  0.5590 -0.5039  1.8961
 8598SOL     OW37252   3.068   2.826  14.498 -0.2092  0.2797 -0.6718
 8598SOL    HW137253   3.074   2.748  14.442 -1.8917  0.4745 -1.1150
 8598SOL    HW237254   3.120   2.791  14.570  0.8493  0.7039 -1.2357
 8599SOL     OW37255   1.906   0.709   1.036 -0.4463  0.7074 -0.0273
 8599SOL    HW137256   1.852   0.632   1.016  0.6950 -0.4100  1.1423
 8599SOL    HW237257   1.988   0.663   1.054 -0.0668  1.3063 -0.2335
 8600SOL     OW37258   1.249   1.826  16.867  0.1528  0.1009 -0.2071
 8600SOL    HW137259   1.275   1.734  16.866  0.3049  0.1733 -2.9706
 8600SOL    HW237260   1.329   1.865  16.832 -0.8405  2.5585  0.2905
 8601SOL     OW37261   0.790   1.911  16.971  0.2176  0.4391 -0.3889
 8601SOL    HW137262   0.883   1.925  16.950  0.0724  0.5374 -0.9508
 8601SOL    HW237263   0.790   1.828  17.018 -0.3446  1.5716  1.5982
 8602SOL     OW37264   3.671   0.404  12.512  1.0974  0.0797 -0.5176
 8602SOL    HW137265   3.644   0.414  12.421 -0.3176  0.0554 -0.0931
 8602SOL    HW237266   3.687   0.496  12.535 -2.0858  0.6265 -0.4625
 8603SOL     OW37267   2.611   0.507  13.369  0.2020 -0.2536  0.3325
 8603SOL    HW137268   2.540   0.466  13.321 -1.2322  1.2674  1.1819
 8603SOL    HW237269   2.590   0.598  13.352  1.8417 -0.4036 -2.4581
 8604SOL     OW37270   3.744   0.466   4.551  0.0740 -0.4025  0.0771
 8604SOL    HW137271   3.818   0.410   4.576 -0.0588 -1.5672 -2.1174
 8604SOL    HW237272   3.715   0.495   4.637 -1.2207  0.4745 -0.6637
 8605SOL     OW37273   0.547   3.203  17.188 -0.6358  0.2861 -0.8613
 8605SOL    HW137274   0.629   3.217  17.234 -1.4137  3.5735 -0.4481
 8605SOL    HW237275   0.561   3.139  17.118 -2.7074  0.8001 -1.7498
 8606SOL     OW37276   0.610   2.398   3.387  0.5566  0.1058  0.6398
 8606SOL    HW137277   0.577   2.341   3.457 -0.4821  0.9397  0.8427
 8606SOL    HW237278   0.523   2.430   3.363  0.7990 -0.1901 -0.6332
 8607SOL     OW37279   1.342   1.388  11.236 -0.9116 -0.2871  0.3167
 8607SOL    HW137280   1.271   1.332  11.202 -0.6818 -0.3134 -0.1207
 8607SOL    HW237281   1.296   1.421  11.313 -1.1018 -0.1089  0.1295
 8608SOL     OW37282   1.477   3.875  16.113 -0.0043 -0.2570 -0.1077
 8608SOL    HW137283   1.480   3.868  16.208 -1.6104  1.8225  0.1024
 8608SOL    HW237284   1.423   3.954  16.104  2.4619  1.2337 -1.8081
 8609SOL     OW37285   2.402   3.889   5.315  0.6658  0.0301  0.4724
 8609SOL    HW137286   2.314   3.851   5.314  0.7000 -0.0612  1.3469
 8609SOL    HW237287   2.414   3.900   5.409 -0.3563  0.3913  0.5658
 8610SOL     OW37288   0.734   3.109  13.762  0.7173  0.2003  0.1962
 8610SOL    HW137289   0.807   3.052  13.737  0.8915  1.8515 -3.0795
 8610SOL    HW237290   0.751   3.186  13.708  0.0344 -0.2371 -0.6292
 8611SOL     OW37291   3.824   3.801  14.557  0.1214  0.2340  0.3087
 8611SOL    HW137292   3.764   3.800  14.482 -1.0400  0.5763  1.2426
 8611SOL    HW237293   3.908   3.789  14.513 -0.3703 -0.1589 -0.5367
 8612SOL     OW37294   0.190   4.024  15.487 -0.6371  0.6887 -0.0697
 8612SOL    HW137295   0.153   4.112  15.473  0.1130  0.9322 -0.5467
 8612SOL    HW237296   0.114   3.976  15.517  0.0837 -0.6493 -0.3778
 8613SOL     OW37297   1.922   1.160  15.119 -0.4613 -0.0513 -0.1695
 8613SOL    HW137298   1.831   1.130  15.126 -0.0384 -1.6553 -1.3365
 8613SOL    HW237299   1.953   1.105  15.191 -0.4040 -0.6336 -0.6352
 8614SOL     OW37300   3.881   1.594   6.712  0.4295  0.0995  0.0019
 8614SOL    HW137301   3.952   1.647   6.749  1.4126 -0.2855 -1.3320
 8614SOL    HW237302   3.886   1.615   6.619  0.3431 -0.3413 -0.1054
 8615SOL     OW37303   0.184   1.694   7.120 -0.4777  0.0723  0.1790
 8615SOL    HW137304   0.222   1.764   7.066 -2.8800  0.4577 -1.0486
 8615SOL    HW237305   0.263   1.651   7.153 -1.8753 -2.9346 -0.4586
 8616SOL     OW37306   2.883   1.147   0.478 -0.0674 -0.3446  0.3080
 8616SOL    HW137307   2.978   1.159   0.475 -0.1845 -0.1139 -2.6166
 8616SOL    HW237308   2.880   1.052   0.486 -1.6966  0.0729  4.5309
 8617SOL     OW37309   0.679   0.242   8.158  0.1296  0.2519 -0.2584
 8617SOL    HW137310   0.625   0.279   8.227 -1.1836  0.9964 -1.6690
 8617SOL    HW237311   0.645   0.290   8.083  0.1582 -0.5327 -0.7784
 8618SOL     OW37312   3.495   0.649   2.529  0.5420 -0.3180  0.0442
 8618SOL    HW137313   3.546   0.629   2.607  3.0313  2.9702 -0.7254
 8618SOL    HW237314   3.556   0.621   2.461 -0.9328 -0.6418 -1.1473
 8619SOL     OW37315   0.073   4.375   9.011 -0.5172 -0.1892 -0.0678
 8619SOL    HW137316   0.023   4.403   8.934  1.9351  0.5791 -1.3953
 8619SOL    HW237317   0.021   4.312   9.060 -1.1436  2.3123  2.5006
 8620SOL     OW37318   3.663   2.849  15.654  0.8028 -0.4343 -0.5337
 8620SOL    HW137319   3.623   2.785  15.713  0.4983  0.0056 -0.2573
 8620SOL    HW237320   3.743   2.870  15.703 -0.5388 -0.3673  1.6714
 8621SOL     OW37321   1.060   1.764   3.837  0.1919 -0.4553 -0.1918
 8621SOL    HW137322   1.036   1.690   3.781  0.2663 -2.4303  2.3884
 8621SOL    HW237323   1.011   1.755   3.919  1.4216 -0.1830  0.5632
 8622SOL     OW37324   4.077   4.237   8.237  0.0310 -0.7073  0.6102
 8622SOL    HW137325   4.164   4.259   8.203 -0.0382  0.7483  1.3761
 8622SOL    HW237326   4.018   4.288   8.181 -0.1808 -2.3795 -0.6694
 8623SOL     OW37327   1.465   4.544   8.471  0.1228  0.0834  0.2186
 8623SOL    HW137328   1.407   4.497   8.412 -0.2815  1.6562 -0.6353
 8623SOL    HW237329   1.494   4.611   8.409 -1.5764  1.9041  1.3992
 8624SOL     OW37330   3.316   3.952   6.237  0.7946 -0.3431  0.1878
 8624SOL    HW137331   3.277   3.893   6.172  1.2441  0.8720 -1.1944
 8624SOL    HW237332   3.311   3.896   6.314 -0.7266 -2.5543 -1.5071
 8625SOL     OW37333   2.952   3.672  12.180 -0.7145  0.1083  0.4097
 8625SOL    HW137334   2.954   3.725  12.260  2.7103  2.2794 -1.1545
 8625SOL    HW237335   3.005   3.597  12.208  0.6464  0.5418 -1.0383
 8626SOL     OW37336   4.017   3.219   2.692 -0.3601 -0.6017 -0.5483
 8626SOL    HW137337   4.075   3.246   2.763  0.0811  0.3340 -1.2672
 8626SOL    HW237338   4.035   3.125   2.699 -0.7786 -0.5846  0.9525
 8627SOL     OW37339   2.340   3.188   4.619 -0.3107 -0.2918 -0.6663
 8627SOL    HW137340   2.425   3.179   4.577  0.7542 -0.7373  1.5984
 8627SOL    HW237341   2.373   3.156   4.703  1.0893  0.0001 -1.1189
 8628SOL     OW37342   2.092   4.095   2.810  0.4459 -0.3832 -0.1976
 8628SOL    HW137343   2.048   4.028   2.862 -1.0181  0.6752 -0.1063
 8628SOL    HW237344   2.176   4.050   2.797 -0.1214 -1.3968 -0.3861
 8629SOL     OW37345   0.103   1.800   2.197  0.1787 -0.0693  0.6397
 8629SOL    HW137346   0.197   1.800   2.212  0.3796  0.0378 -0.6456
 8629SOL    HW237347   0.079   1.871   2.257  0.5819  1.1382 -0.6388
 8630SOL     OW37348   2.039   2.873   4.455  0.5405  0.1835 -0.0508
 8630SOL    HW137349   1.999   2.866   4.368 -0.8739  1.3602  0.4941
 8630SOL    HW237350   2.042   2.784   4.491 -2.3489  0.3532  0.6809
 8631SOL     OW37351   2.117   2.988   4.106 -0.5793 -0.0660 -0.2816
 8631SOL    HW137352   2.113   3.026   4.018  1.5589  0.7160 -0.0424
 8631SOL    HW237353   2.030   3.008   4.140 -0.8894 -0.7147 -0.7031
 8632SOL     OW37354   1.540   0.867   7.009 -0.4540  0.2717  0.0448
 8632SOL    HW137355   1.613   0.831   7.059 -1.1190 -0.3855  0.5343
 8632SOL    HW237356   1.572   0.827   6.928 -0.3318 -0.9618  0.6988
 8633SOL     OW37357   0.768   0.343  10.132  0.1218  0.3638 -0.4084
 8633SOL    HW137358   0.801   0.370  10.218 -0.7992  0.6097 -0.1350
 8633SOL    HW237359   0.732   0.428  10.106 -0.7865  0.3032  0.6518
 8634SOL     OW37360   1.655   1.881   3.767 -0.3553 -0.3947 -1.2129
 8634SOL    HW137361   1.749   1.866   3.770 -0.4661 -0.4576  1.7935
 8634SOL    HW237362   1.641   1.941   3.693  0.5121  2.0908  0.6363
 8635SOL     OW37363   3.778   4.191   1.072 -0.2643  0.2958 -0.1173
 8635SOL    HW137364   3.773   4.120   1.137  2.3572  0.1711 -0.0436
 8635SOL    HW237365   3.855   4.234   1.111  0.1299 -0.4433 -0.0748
 8636SOL     OW37366   2.565   0.445   2.811  0.0634  0.4413 -0.6536
 8636SOL    HW137367   2.485   0.461   2.761 -0.6627  0.4334  0.4973
 8636SOL    HW237368   2.608   0.530   2.820  2.4103 -0.7616 -0.2998
 8637SOL     OW37369   0.946   0.185   5.849  0.1096 -0.1986  0.3246
 8637SOL    HW137370   1.018   0.222   5.798  1.3196 -0.9945  1.4445
 8637SOL    HW237371   0.882   0.243   5.808  0.2222  0.5207  1.1585
 8638SOL     OW37372   1.326   0.469   9.248 -0.1341  0.1184  0.3063
 8638SOL    HW137373   1.371   0.546   9.212  1.5277 -2.0889 -2.3794
 8638SOL    HW237374   1.328   0.420   9.166  1.1748  1.7025 -0.6103
 8639SOL     OW37375   1.512   2.537   4.841  0.1477  0.5725  0.0184
 8639SOL    HW137376   1.482   2.465   4.785  1.0032  0.6628 -0.5655
 8639SOL    HW237377   1.506   2.608   4.778  0.7652  0.6512  0.0478
 8640SOL     OW37378   2.634   1.796   8.656  0.0250 -0.3983 -0.2651
 8640SOL    HW137379   2.702   1.858   8.627 -2.0968  0.5745 -3.1823
 8640SOL    HW237380   2.644   1.771   8.748 -0.5716 -0.9447 -0.3495
 8641SOL     OW37381   4.715   4.371  10.515 -0.2384 -0.6668  0.0225
 8641SOL    HW137382   0.065   4.405  10.465 -2.1869  0.6691 -2.0117
 8641SOL    HW237383   4.698   4.444  10.574 -1.0294 -0.4872 -0.4259
 8642SOL     OW37384   1.932   3.053   8.614  0.5571 -0.3307 -0.0799
 8642SOL    HW137385   1.945   3.125   8.675  0.5382 -0.8458  0.5278
 8642SOL    HW237386   1.973   3.088   8.535  2.7612 -0.6278  0.9244
 8643SOL     OW37387   1.072   3.182  10.621  0.8803 -0.3501  0.1488
 8643SOL    HW137388   0.993   3.129  10.611  0.5178 -0.0720  1.6421
 8643SOL    HW237389   1.112   3.150  10.540  0.0730 -1.2176  0.0943
 8644SOL     OW37390   0.512   1.637   9.408 -0.0119 -0.2701  0.3992
 8644SOL    HW137391   0.436   1.649   9.464  1.7193 -0.1825  2.7612
 8644SOL    HW237392   0.539   1.729   9.400  1.7957 -0.7658  0.7507
 8645SOL     OW37393   1.953   0.070   7.600 -0.1263  0.3134  0.3972
 8645SOL    HW137394   1.943   0.008   7.672 -0.6090  0.1159  0.1614
 8645SOL    HW237395   1.863   0.072   7.566  0.0521  0.0775 -0.0917
 8646SOL     OW37396   4.510   0.077   7.299 -0.0348  0.5743 -0.1339
 8646SOL    HW137397   4.491   0.141   7.368 -0.8586  0.4334 -0.2286
 8646SOL    HW237398   4.545   0.141   7.236  0.2390  1.7635  1.2353
 8647SOL     OW37399   4.365   4.445   1.657 -0.2426  1.1073 -0.2765
 8647SOL    HW137400   4.277   4.434   1.623  0.0153 -1.0448 -0.2192
 8647SOL    HW237401   4.350   4.427   1.750 -0.1567  2.7528  0.0663
 8648SOL     OW37402   2.879   4.331   6.576 -0.4310  0.2523 -0.1552
 8648SOL    HW137403   2.961   4.281   6.577 -1.4433 -1.4372 -1.4212
 8648SOL    HW237404   2.903   4.404   6.519  0.3535  1.1322  1.2993
 8649SOL     OW37405   4.139   0.658   8.799  0.3198 -0.5114 -0.6132
 8649SOL    HW137406   4.200   0.679   8.729 -0.2189 -1.2105 -1.2936
 8649SOL    HW237407   4.178   0.582   8.842  1.4099  0.2284 -0.2876
 8650SOL     OW37408   2.438   2.332   5.539  0.2217 -0.1421 -0.8591
 8650SOL    HW137409   2.455   2.354   5.447 -0.6106 -0.1793 -1.0171
 8650SOL    HW237410   2.344   2.316   5.531 -0.1516  1.7819 -0.1090
 8651SOL     OW37411   2.648   0.269  16.420 -0.0174  0.4713 -0.6152
 8651SOL    HW137412   2.562   0.271  16.378 -0.2475 -1.0657 -0.2415
 8651SOL    HW237413   2.636   0.320  16.500 -0.2160  3.1599 -2.3861
 8652SOL     OW37414   0.513   1.744   4.803  0.1021 -0.2477  0.7181
 8652SOL    HW137415   0.422   1.740   4.834 -1.2279 -0.8549 -3.1653
 8652SOL    HW237416   0.529   1.654   4.774 -1.2314  0.6966 -3.0044
 8653SOL     OW37417   3.784   0.291   5.264 -0.2558  0.0341  0.1394
 8653SOL    HW137418   3.690   0.277   5.276  0.1337 -0.9446  2.0333
 8653SOL    HW237419   3.813   0.282   5.355 -1.8512 -1.6819  0.4799
 8654SOL     OW37420   1.190   2.254   6.949  0.5366 -0.1802 -0.0908
 8654SOL    HW137421   1.111   2.306   6.960  0.3348 -0.2289 -1.3165
 8654SOL    HW237422   1.261   2.315   6.927  1.0909 -2.1345 -3.6834
 8655SOL     OW37423   1.347   2.413   4.228 -0.1868 -0.0856 -0.2680
 8655SOL    HW137424   1.393   2.386   4.148  0.3717 -0.6088  0.2286
 8655SOL    HW237425   1.303   2.335   4.262 -0.1919  0.2989  0.5996
 8656SOL     OW37426   2.346   2.212  12.275 -0.4293 -0.0795  0.5568
 8656SOL    HW137427   2.354   2.149  12.204 -0.7452 -0.0546  0.4977
 8656SOL    HW237428   2.316   2.154  12.346 -0.2297  0.1903  0.8619
 8657SOL     OW37429   2.426   2.009  16.407  0.6208  0.1080 -0.1582
 8657SOL    HW137430   2.353   1.991  16.348 -0.0229 -0.8902  0.9255
 8657SOL    HW237431   2.455   1.919  16.423 -0.7705  0.0449  1.9764
 8658SOL     OW37432   2.403   0.406  15.736  0.0487  0.4700  0.4923
 8658SOL    HW137433   2.326   0.397  15.679  0.0228 -0.8769  0.7256
 8658SOL    HW237434   2.380   0.330  15.790 -0.0332  0.3714  0.3205
 8659SOL     OW37435   1.611   1.445   4.793 -0.2625  0.1732  0.0165
 8659SOL    HW137436   1.656   1.458   4.876  1.3061 -2.5054 -0.3983
 8659SOL    HW237437   1.589   1.354   4.810 -0.9847  0.2658 -0.4316
 8660SOL     OW37438   3.040   0.053   8.987 -0.1595 -0.2857 -0.2960
 8660SOL    HW137439   3.064   4.685   8.990  0.0912 -0.1889  0.7370
 8660SOL    HW237440   3.085   0.084   9.065  2.8498 -1.5897 -1.5077
 8661SOL     OW37441   2.869   3.789  14.803  0.3145 -0.2815 -0.0335
 8661SOL    HW137442   2.819   3.870  14.803 -3.7027 -2.7419 -1.2205
 8661SOL    HW237443   2.874   3.775  14.709  0.4938 -1.1242  0.1005
 8662SOL     OW37444   3.637   1.444   8.383  0.3502  0.1889  0.1207
 8662SOL    HW137445   3.672   1.367   8.338 -0.1496 -0.1043  0.2303
 8662SOL    HW237446   3.642   1.498   8.305  0.1323 -2.1268 -1.5202
 8663SOL     OW37447   1.148   0.365  16.866 -0.3234  0.4623  0.2449
 8663SOL    HW137448   1.197   0.283  16.873  0.7477  1.3346  2.9862
 8663SOL    HW237449   1.185   0.424  16.932 -0.3123  1.2866 -0.4966
 8664SOL     OW37450   1.022   1.602   5.803  0.3140 -0.2330 -0.2727
 8664SOL    HW137451   1.012   1.621   5.896  0.2817 -0.9659 -0.1203
 8664SOL    HW237452   1.014   1.687   5.760  1.6661  0.9362  1.7731
 8665SOL     OW37453   2.625   2.771   0.239  0.3777  0.0063  0.3361
 8665SOL    HW137454   2.615   2.852   0.289 -0.3780 -0.3675  0.7807
 8665SOL    HW237455   2.573   2.781   0.160  0.3620 -0.3131  0.3042
 8666SOL     OW37456   0.450   1.834   2.362 -0.6387  0.1775 -0.1284
 8666SOL    HW137457   0.449   1.746   2.325  0.3304  0.2090 -0.2344
 8666SOL    HW237458   0.374   1.832   2.420  0.5546 -0.1215  1.4206
 8667SOL     OW37459   1.402   1.133   6.785 -0.0804  0.0351  0.0716
 8667SOL    HW137460   1.422   1.182   6.705  0.7854 -1.3573 -0.5564
 8667SOL    HW237461   1.439   1.046   6.768 -1.0908 -0.0075 -1.8680
 8668SOL     OW37462   1.617   4.004   3.604  0.2164  0.1374 -0.7015
 8668SOL    HW137463   1.610   4.093   3.638  1.3265 -0.0844  0.1261
 8668SOL    HW237464   1.591   4.022   3.514 -3.1471  0.2010  0.2766
 8669SOL     OW37465   2.525   0.332   5.741  0.0145  0.0389 -0.3536
 8669SOL    HW137466   2.614   0.349   5.772 -0.3911 -0.2313  0.9523
 8669SOL    HW237467   2.543   0.330   5.647  2.1233  2.0301 -0.0002
 8670SOL     OW37468   0.165   4.700   4.278 -0.0721 -0.1727  0.4432
 8670SOL    HW137469   0.208   4.660   4.202  0.2181  0.0065  0.5131
 8670SOL    HW237470   0.220   0.049   4.304  1.4986 -1.2198  0.0856
 8671SOL     OW37471   4.442   0.041  16.690  0.0714  1.1323  0.2540
 8671SOL    HW137472   4.366   4.708  16.693 -0.0801  1.1975 -3.1025
 8671SOL    HW237473   4.414   0.111  16.750  0.7530  0.5416  1.2675
 8672SOL     OW37474   3.224   3.035   5.336 -0.3428 -0.1570  0.4241
 8672SOL    HW137475   3.179   3.078   5.263  2.2384  0.8336 -0.5970
 8672SOL    HW237476   3.286   3.096   5.376 -0.3237  0.1116 -0.0231
 8673SOL     OW37477   2.536   2.513  15.333 -0.0647 -0.7824 -0.4028
 8673SOL    HW137478   2.520   2.604  15.360 -0.6830 -0.8260 -0.6101
 8673SOL    HW237479   2.561   2.471  15.415  0.1905 -0.0716 -0.1173
 8674SOL     OW37480   2.664   4.014   9.721  0.1542  0.1245 -0.2896
 8674SOL    HW137481   2.707   3.961   9.655  0.2350 -0.2433  0.0621
 8674SOL    HW237482   2.704   3.985   9.803 -2.4498 -0.7342  0.7059
 8675SOL     OW37483   1.121   2.697   8.729  0.3337 -0.5668  0.2135
 8675SOL    HW137484   1.056   2.641   8.686  0.3510 -0.5368  0.1481
 8675SOL    HW237485   1.134   2.758   8.657 -0.7827 -0.2604  0.2606
 8676SOL     OW37486   0.242   4.574  16.591  0.1226 -0.2085  0.4600
 8676SOL    HW137487   0.173   4.566  16.525 -0.2455 -0.2160  0.8443
 8676SOL    HW237488   0.189   4.564  16.670  0.6011  0.6494  0.8860
 8677SOL     OW37489   0.729   4.384   2.416 -0.2197 -0.0144 -0.4519
 8677SOL    HW137490   0.780   4.417   2.490  1.4361 -2.8313 -0.3052
 8677SOL    HW237491   0.660   4.450   2.415 -0.2437 -0.0241  0.2068
 8678SOL     OW37492   2.208   3.242   7.058 -0.0155 -0.5384  0.3198
 8678SOL    HW137493   2.151   3.237   7.135 -0.5169 -0.7494 -0.0605
 8678SOL    HW237494   2.156   3.196   6.991 -1.3081  0.0014  0.9538
 8679SOL     OW37495   4.221   4.624  14.693 -0.1362 -0.1108  0.0930
 8679SOL    HW137496   4.206   4.709  14.733 -0.7665  0.5590 -1.5649
 8679SOL    HW237497   4.298   4.636  14.636 -0.8252 -0.4086 -0.9029
 8680SOL     OW37498   0.219   4.530   3.707  0.8232  0.1205  0.0940
 8680SOL    HW137499   0.157   4.576   3.651  1.6968  1.8098  0.5163
 8680SOL    HW237500   0.249   4.465   3.644  0.5422  1.1143 -1.0535
 8681SOL     OW37501   0.195   1.705  11.642  1.0243 -0.2916  0.0467
 8681SOL    HW137502   0.122   1.643  11.647  0.6851  0.1295  0.3639
 8681SOL    HW237503   0.197   1.720  11.547  0.1353  1.4491  0.3013
 8682SOL     OW37504   2.980   0.186   8.743  0.2291 -0.0752 -0.2183
 8682SOL    HW137505   3.004   0.143   8.825 -1.8135 -3.5330 -1.4120
 8682SOL    HW237506   2.981   0.279   8.766 -0.2241  0.0404 -0.6687
 8683SOL     OW37507   3.603   4.076   1.434 -0.2662  0.1401 -0.6516
 8683SOL    HW137508   3.628   4.017   1.364  2.5482  0.3545  0.1695
 8683SOL    HW237509   3.629   4.161   1.399  2.2084 -0.3085  0.1468
 8684SOL     OW37510   0.549   3.079   4.948  0.4166 -0.7034 -0.0516
 8684SOL    HW137511   0.597   3.013   4.998 -1.0529 -0.9913  0.9610
 8684SOL    HW237512   0.501   3.126   5.016 -0.1895 -1.3485 -0.0307
 8685SOL     OW37513   3.601   0.755   1.504  1.2357  0.2759 -0.2766
 8685SOL    HW137514   3.523   0.760   1.559  1.6292  2.6838  0.0586
 8685SOL    HW237515   3.620   0.846   1.483  0.0827  0.9967  1.7748
 8686SOL     OW37516   2.159   3.152   8.059  0.0854  0.0967  0.0997
 8686SOL    HW137517   2.125   3.169   7.972 -0.4685  2.6360  0.8052
 8686SOL    HW237518   2.247   3.188   8.050 -0.5362  1.4304 -0.6296
 8687SOL     OW37519   2.466   3.076   2.538  0.4354 -0.3571 -0.0085
 8687SOL    HW137520   2.555   3.042   2.539  1.2571  1.8167 -0.3189
 8687SOL    HW237521   2.465   3.130   2.617  0.2470  0.3516 -0.4974
 8688SOL     OW37522   1.862   4.178  15.378 -0.3926 -0.2213 -0.4482
 8688SOL    HW137523   1.796   4.141  15.437  0.0759 -0.7094 -0.2340
 8688SOL    HW237524   1.800   4.216  15.315  1.8663  1.2228 -1.8108
 8689SOL     OW37525   1.290   0.041   3.527 -0.2138  0.3438  0.0528
 8689SOL    HW137526   1.296   0.135   3.544  0.1917  0.0754  1.3367
 8689SOL    HW237527   1.376   0.005   3.507  0.3699  1.0414  1.3729
 8690SOL     OW37528   2.064   4.524   8.816  0.3623 -0.2789  0.0759
 8690SOL    HW137529   2.016   4.495   8.893  1.8046 -0.7380  0.8201
 8690SOL    HW237530   2.154   4.510   8.847  1.0858  0.0921 -1.8346
 8691SOL     OW37531   4.072   3.748   6.354  0.1167 -0.1215 -0.5008
 8691SOL    HW137532   3.980   3.768   6.337 -0.1916 -2.5974 -1.7254
 8691SOL    HW237533   4.108   3.813   6.293 -0.1791  1.2515  0.7894
 8692SOL     OW37534   0.147   0.088  17.029 -0.3200  0.1265 -0.2031
 8692SOL    HW137535   0.052   0.082  17.040 -0.3661  0.3799 -0.4809
 8692SOL    HW237536   0.167   0.030  16.956  0.3267 -0.0955  0.1491
 8693SOL     OW37537   0.718   3.604  16.663 -0.3242 -0.5505 -0.0124
 8693SOL    HW137538   0.803   3.567  16.686  0.4367  1.5659  0.5893
 8693SOL    HW237539   0.720   3.571  16.573  0.2557 -1.0389  0.1775
 8694SOL     OW37540   3.720   2.333   3.503 -0.1812  0.2021 -0.2435
 8694SOL    HW137541   3.694   2.328   3.595 -0.7083  1.0833 -0.3455
 8694SOL    HW237542   3.737   2.426   3.487  0.6515  0.0046 -0.5061
 8695SOL     OW37543   3.515   1.507   4.235  0.0562  0.2766  0.1922
 8695SOL    HW137544   3.547   1.566   4.303 -0.8470 -0.5774  1.3455
 8695SOL    HW237545   3.553   1.421   4.254 -0.1218  0.2852  0.5721
 8696SOL     OW37546   3.388   0.728   1.078  0.1829  0.0363  0.4299
 8696SOL    HW137547   3.300   0.751   1.108  0.4157 -0.1896  1.2956
 8696SOL    HW237548   3.419   0.814   1.051  0.0539 -0.3175 -0.8295
 8697SOL     OW37549   1.062   4.220   5.624 -0.3178 -0.1791 -0.1737
 8697SOL    HW137550   1.071   4.224   5.720  1.0289  2.4632 -0.4155
 8697SOL    HW237551   1.127   4.283   5.593 -0.3474  0.6219  1.3923
 8698SOL     OW37552   3.661   4.433   1.101 -0.3819  0.3487 -0.1725
 8698SOL    HW137553   3.695   4.345   1.085  0.6912  0.0598  3.6044
 8698SOL    HW237554   3.728   4.481   1.053 -0.3152 -1.6175 -2.0424
 8699SOL     OW37555   1.879   0.210  12.372  0.0085 -0.5331 -0.6085
 8699SOL    HW137556   1.889   0.209  12.277  0.0855 -1.3568 -0.5965
 8699SOL    HW237557   1.961   0.171  12.404  0.1353 -1.6772 -2.3689
 8700SOL     OW37558   0.722   1.980   1.572 -0.0940  0.6971 -0.2487
 8700SOL    HW137559   0.796   1.956   1.628 -0.9143 -0.9047  0.1614
 8700SOL    HW237560   0.680   2.031   1.641  0.3156 -0.2396  0.6909
 8701SOL     OW37561   3.082   1.120  16.319  0.1032 -0.0911 -0.0267
 8701SOL    HW137562   3.154   1.080  16.367  1.0257  1.6227 -0.0034
 8701SOL    HW237563   3.031   1.041  16.298  2.7598 -0.4113 -5.1559
 8702SOL     OW37564   1.291   0.187   7.645 -0.0515 -0.0899 -0.2089
 8702SOL    HW137565   1.256   0.266   7.604  1.6768  1.2112  0.7930
 8702SOL    HW237566   1.215   0.135   7.618  0.6458 -1.3338  0.2455
 8703SOL     OW37567   3.667   4.577   4.433  0.3791  0.2987 -0.2337
 8703SOL    HW137568   3.618   4.645   4.387  1.6093  2.0219  1.0594
 8703SOL    HW237569   3.715   4.529   4.365  0.4545 -0.8014  0.5842
 8704SOL     OW37570   1.284   1.691  17.451  0.8904  0.1708  0.3289
 8704SOL    HW137571   1.255   1.751  17.520  1.2626  0.6250  0.0893
 8704SOL    HW237572   1.349   1.636  17.497 -0.6281  0.7195  3.1541
 8705SOL     OW37573   2.657   2.723   1.950 -0.3708  0.4121 -0.2613
 8705SOL    HW137574   2.607   2.790   1.997  1.1912 -0.2066  2.2725
 8705SOL    HW237575   2.635   2.741   1.858  1.4119 -1.5651 -1.0917
 8706SOL     OW37576   4.210   2.423  13.454 -0.0539 -0.4643  0.1118
 8706SOL    HW137577   4.281   2.370  13.417  1.2778  2.2646 -1.2154
 8706SOL    HW237578   4.202   2.501  13.399 -0.3230  0.4963  1.5189
 8707SOL     OW37579   1.568   4.694  10.560 -0.0555 -0.4670 -0.0070
 8707SOL    HW137580   1.573   0.028  10.485 -2.2116 -0.7127 -0.3282
 8707SOL    HW237581   1.592   0.037  10.624 -1.0664 -2.5971  2.6448
 8708SOL     OW37582   0.308   2.171   9.039 -0.3025 -0.2381  0.1488
 8708SOL    HW137583   0.245   2.204   9.103  0.2963  2.1598 -0.5019
 8708SOL    HW237584   0.257   2.139   8.965 -0.0251  3.3923 -1.6189
 8709SOL     OW37585   4.569   2.671   6.747 -0.0979  0.4843  0.1052
 8709SOL    HW137586   4.481   2.703   6.767  0.3741 -0.5195  3.7682
 8709SOL    HW237587   4.600   2.752   6.707  0.9485 -0.0015 -0.0730
 8710SOL     OW37588   1.936   1.210   5.435 -0.0141 -0.0593 -0.6402
 8710SOL    HW137589   1.904   1.192   5.523  1.1862 -3.2720 -0.8375
 8710SOL    HW237590   1.920   1.302   5.414 -1.3564 -0.0729  0.3791
 8711SOL     OW37591   0.362   2.055  13.609  0.0484  0.1903  0.4197
 8711SOL    HW137592   0.457   2.058  13.601 -0.1256 -0.7512 -1.8658
 8711SOL    HW237593   0.348   2.145  13.639 -0.6125  0.6376 -1.2575
 8712SOL     OW37594   2.300   1.110  14.042 -0.1997  0.2785  0.0909
 8712SOL    HW137595   2.394   1.110  14.024  0.2111  0.6660  2.2390
 8712SOL    HW237596   2.277   1.202  14.053  2.4658  1.0296 -0.5795
 8713SOL     OW37597   3.083   0.706  15.174 -0.7180 -0.7638 -0.2115
 8713SOL    HW137598   3.002   0.660  15.196 -1.3287  0.0265 -0.8428
 8713SOL    HW237599   3.146   0.646  15.213  1.7303  2.6173  1.0777
 8714SOL     OW37600   3.324   3.210   3.583  0.1865 -0.0306  0.8671
 8714SOL    HW137601   3.361   3.246   3.502 -0.8415  0.8547  0.7783
 8714SOL    HW237602   3.366   3.269   3.646  2.2986 -2.0544  1.3539
 8715SOL     OW37603   1.807   3.707   9.311  0.6167 -0.4830 -0.3283
 8715SOL    HW137604   1.726   3.662   9.338 -0.2946 -0.9984 -3.8914
 8715SOL    HW237605   1.803   3.704   9.216 -2.0026 -1.2769 -0.2070
 8716SOL     OW37606   4.716   4.673  16.721  0.1798  0.4055 -0.8063
 8716SOL    HW137607   0.039   0.005  16.661 -0.2414 -1.0322 -2.5112
 8716SOL    HW237608   4.630   4.714  16.709  0.0535  0.6414  0.8343
 8717SOL     OW37609   3.310   3.091   6.933 -0.1464 -0.2222 -0.0049
 8717SOL    HW137610   3.390   3.141   6.950 -0.1286  0.6023 -2.6078
 8717SOL    HW237611   3.283   3.049   7.015 -2.1759  0.5245 -0.2735
 8718SOL     OW37612   4.265   1.051   6.823  0.0489  0.0872 -0.0791
 8718SOL    HW137613   4.227   1.116   6.765  1.2148  1.4100  0.6337
 8718SOL    HW237614   4.337   1.013   6.773 -0.5636 -2.4940  0.9829
 8719SOL     OW37615   0.375   4.508  10.101 -0.0974 -0.4187  0.4781
 8719SOL    HW137616   0.322   4.429  10.092  1.0161 -1.0119 -0.8552
 8719SOL    HW237617   0.462   4.477  10.075  1.0892  2.9434  0.4173
 8720SOL     OW37618   3.693   3.476   3.905 -0.0007  0.0729  0.3937
 8720SOL    HW137619   3.654   3.563   3.901  1.0694  0.4527 -1.7723
 8720SOL    HW237620   3.687   3.469   3.810  1.4162  0.7614  0.2630
 8721SOL     OW37621   3.920   3.340   8.728 -0.6898  0.1569 -0.3040
 8721SOL    HW137622   3.943   3.260   8.776 -1.9169 -0.4665 -0.7422
 8721SOL    HW237623   3.890   3.393   8.802 -2.4271 -0.8992 -0.2327
 8722SOL     OW37624   0.648   2.123   1.780 -0.4395  0.8864 -0.0099
 8722SOL    HW137625   0.644   2.075   1.862 -0.9376  0.3257 -0.3608
 8722SOL    HW237626   0.626   2.213   1.804  1.5857  2.2131 -3.1911
 8723SOL     OW37627   1.140   2.648   9.523  0.0127  0.2962 -0.3070
 8723SOL    HW137628   1.081   2.585   9.482  0.4215  0.5559 -1.2861
 8723SOL    HW237629   1.078   2.719   9.540  0.2369  0.9941 -2.4331
 8724SOL     OW37630   3.354   2.404  14.800  0.8931  0.3790 -0.1844
 8724SOL    HW137631   3.262   2.390  14.823  0.7833  2.9332  0.8557
 8724SOL    HW237632   3.378   2.311  14.803 -0.7568  0.0501  2.7262
 8725SOL     OW37633   3.447   1.084   4.119  0.5135 -0.1766 -0.4338
 8725SOL    HW137634   3.354   1.081   4.144 -0.0700  1.8756 -2.3374
 8725SOL    HW237635   3.478   0.996   4.137  0.5490  0.0511  0.6294
 8726SOL     OW37636   4.275   2.168   7.533 -0.0083  0.0512 -0.2396
 8726SOL    HW137637   4.366   2.193   7.545  0.0261 -0.5581  0.7326
 8726SOL    HW237638   4.242   2.228   7.465  0.2592  1.4609  0.8877
 8727SOL     OW37639   3.131   1.167  12.671  0.1593  0.5233  0.1963
 8727SOL    HW137640   3.127   1.166  12.575  1.9477 -2.3327  0.1306
 8727SOL    HW237641   3.103   1.255  12.696 -0.1111  0.0851  1.4195
 8728SOL     OW37642   3.481   3.406   2.009  0.0787 -0.3122 -0.6251
 8728SOL    HW137643   3.447   3.317   2.004 -1.2485  0.2443 -1.6548
 8728SOL    HW237644   3.396   3.441   1.981  0.9153  1.5775 -0.8358
 8729SOL     OW37645   2.354   2.592   8.847 -0.3169  0.1565  0.1508
 8729SOL    HW137646   2.280   2.552   8.800 -0.4226 -0.1262  0.5593
 8729SOL    HW237647   2.408   2.611   8.770  0.4537  1.0492  0.9103
 8730SOL     OW37648   4.670   0.126  15.194 -0.4155  0.1845  0.5166
 8730SOL    HW137649   4.632   0.193  15.250 -2.4677  0.2575 -0.9320
 8730SOL    HW237650   4.593   0.075  15.167 -0.5386  0.1996  0.8359
 8731SOL     OW37651   2.249   0.784   7.391  0.4925  0.2511 -0.9260
 8731SOL    HW137652   2.159   0.814   7.403 -0.6494 -3.4063 -0.4685
 8731SOL    HW237653   2.274   0.874   7.415 -1.5086  0.3088  0.9658
 8732SOL     OW37654   4.154   0.045   8.528 -0.1789 -0.5742  0.4027
 8732SOL    HW137655   4.196   4.693   8.567  0.0750 -0.7231 -0.1729
 8732SOL    HW237656   4.094   0.000   8.468  1.9802 -1.7254 -0.9032
 8733SOL     OW37657   2.275   1.805   3.280  0.1409  0.2038 -0.3761
 8733SOL    HW137658   2.270   1.717   3.242 -1.0668  0.2192 -0.2667
 8733SOL    HW237659   2.315   1.781   3.363 -0.0313 -1.6032 -0.8088
 8734SOL     OW37660   2.418   1.231  11.204 -0.2496  0.3821 -0.5297
 8734SOL    HW137661   2.360   1.199  11.135  1.1826 -2.0129 -0.6177
 8734SOL    HW237662   2.352   1.251  11.270 -0.6560 -4.2080  0.4466
 8735SOL     OW37663   4.194   2.486  14.926  0.3169  0.2564 -0.4966
 8735SOL    HW137664   4.133   2.449  14.862  2.2987 -1.5650 -1.3476
 8735SOL    HW237665   4.148   2.490  15.009  2.4375  0.7597  0.6486
 8736SOL     OW37666   3.976   1.458   4.508  0.3279 -0.0411 -0.1823
 8736SOL    HW137667   3.881   1.449   4.520  0.5521 -1.9297  0.0281
 8736SOL    HW237668   3.992   1.459   4.602 -1.3339  3.4557  0.1082
 8737SOL     OW37669   2.754   2.709   8.223  0.8978 -0.7658  0.0448
 8737SOL    HW137670   2.740   2.803   8.229  1.6465 -0.6315 -0.3732
 8737SOL    HW237671   2.844   2.705   8.190  1.5479 -0.1302  1.7253
 8738SOL     OW37672   4.029   0.989  14.390 -0.3313  0.1367 -0.0248
 8738SOL    HW137673   3.973   0.947  14.456 -0.9281 -0.2277 -0.7626
 8738SOL    HW237674   4.010   1.077  14.421 -0.4629  0.3527 -0.7276
 8739SOL     OW37675   4.315   0.600   8.590  0.0165 -0.5374 -0.1823
 8739SOL    HW137676   4.338   0.642   8.507  0.0731  0.9539  0.5948
 8739SOL    HW237677   4.395   0.609   8.642  1.6989  1.1451 -3.0921
 8740SOL     OW37678   1.825   4.058   9.164 -0.3086 -0.0185  0.4405
 8740SOL    HW137679   1.786   4.003   9.232 -0.1973 -1.1903 -0.4524
 8740SOL    HW237680   1.916   4.064   9.191 -0.4874 -2.7704  1.7213
 8741SOL     OW37681   0.835   0.444  10.389  0.0348 -0.4781 -0.3722
 8741SOL    HW137682   0.740   0.443  10.400 -0.1615  0.6052 -1.9610
 8741SOL    HW237683   0.850   0.537  10.374  0.6574 -0.5930 -0.4784
 8742SOL     OW37684   2.579   2.853   4.443  0.0707  0.6060 -0.2823
 8742SOL    HW137685   2.650   2.792   4.463  0.5880  0.6529 -1.9084
 8742SOL    HW237686   2.531   2.807   4.373 -0.4427 -0.7857  0.9962
 8743SOL     OW37687   1.154   0.403   7.541 -0.1588 -0.5213 -0.5409
 8743SOL    HW137688   1.077   0.351   7.519 -1.2916  0.4411  1.2084
 8743SOL    HW237689   1.127   0.487   7.502  2.3723 -0.2639 -1.8003
 8744SOL     OW37690   1.681   2.989   9.657  0.0710  1.1932  0.1750
 8744SOL    HW137691   1.768   2.972   9.620 -0.4970 -0.2423 -0.5089
 8744SOL    HW237692   1.672   3.084   9.652  0.7635  1.3808  2.6287
 8745SOL     OW37693   1.061   1.428   5.564  0.3002 -0.2265 -0.3006
 8745SOL    HW137694   1.011   1.470   5.493 -0.5114 -0.8328 -0.0901
 8745SOL    HW237695   1.082   1.501   5.622  1.3618 -0.5462 -0.2948
 8746SOL     OW37696   1.152   3.217   3.404 -0.1720  0.0126  0.1877
 8746SOL    HW137697   1.190   3.131   3.385 -0.3655 -0.0590  0.1268
 8746SOL    HW237698   1.063   3.210   3.372 -0.4935 -0.4420  1.1632
 8747SOL     OW37699   4.382   2.105  12.992  0.3794 -0.0789 -0.1667
 8747SOL    HW137700   4.317   2.130  12.927  0.4000  2.5270  0.8155
 8747SOL    HW237701   4.362   2.176  13.054 -1.8807 -2.0875  1.4123
 8748SOL     OW37702   4.625   0.581  11.330  0.3108  0.0025  0.2493
 8748SOL    HW137703   4.619   0.497  11.376  1.6178 -0.3140 -0.1665
 8748SOL    HW237704   4.605   0.561  11.239  0.0951  2.2410 -0.1990
 8749SOL     OW37705   4.024   4.479   7.302 -0.1631 -0.8716  0.0886
 8749SOL    HW137706   4.083   4.537   7.253  1.1859 -0.6900  1.9501
 8749SOL    HW237707   4.051   4.501   7.391  1.0571 -4.3119  0.5637
 8750SOL     OW37708   2.669   2.981   0.633 -0.0408  0.1368 -0.4824
 8750SOL    HW137709   2.611   2.905   0.623  0.2933 -0.0040 -1.4137
 8750SOL    HW237710   2.657   3.019   0.720  1.0504 -1.8051  0.5126
 8751SOL     OW37711   1.762   4.138   4.096 -0.1246  0.3644  0.2650
 8751SOL    HW137712   1.739   4.195   4.169 -1.5952  0.6502 -0.4344
 8751SOL    HW237713   1.678   4.131   4.050 -0.2893  0.0880  0.6049
 8752SOL     OW37714   2.968   4.207   9.063 -0.4706 -0.4436  0.4617
 8752SOL    HW137715   2.895   4.269   9.063  0.0048  0.0930 -2.2515
 8752SOL    HW237716   3.038   4.254   9.109  1.1442  0.5487 -3.0322
 8753SOL     OW37717   0.089   0.867   7.170  0.1554  0.1284 -0.1862
 8753SOL    HW137718   0.124   0.780   7.153 -1.7969 -0.9842  1.4905
 8753SOL    HW237719   0.071   0.858   7.264  0.6893  3.0889  0.2230
 8754SOL     OW37720   3.636   2.635   4.906 -0.1045  0.1092  0.1223
 8754SOL    HW137721   3.675   2.663   4.823 -0.2435  1.5168  0.5482
 8754SOL    HW237722   3.679   2.550   4.917 -0.5722  0.1263  1.9692
 8755SOL     OW37723   3.169   1.860  17.665  0.2464 -0.4405 -0.0358
 8755SOL    HW137724   3.074   1.853  17.675  0.2472  1.4590  1.2068
 8755SOL    HW237725   3.177   1.815  17.580 -0.9923  0.3490 -0.5735
 8756SOL     OW37726   0.204   0.405  10.027 -0.0241  0.1815 -0.2648
 8756SOL    HW137727   0.201   0.429  10.120 -3.1050 -1.1818 -0.0112
 8756SOL    HW237728   0.292   0.441  10.017 -0.3001  0.2584 -2.3787
 8757SOL     OW37729   3.221   2.942   8.581  0.2533  0.2095 -0.2650
 8757SOL    HW137730   3.183   3.023   8.616  0.5431  1.4390 -2.7995
 8757SOL    HW237731   3.147   2.886   8.606  1.0742 -0.9275 -0.3762
 8758SOL     OW37732   0.880   0.921   2.932 -0.1515  0.9305 -0.3822
 8758SOL    HW137733   0.892   0.864   2.855  0.9822 -0.6194  0.9305
 8758SOL    HW237734   0.950   0.985   2.919  2.2561 -1.7111 -0.6311
 8759SOL     OW37735   4.449   0.113   2.730 -0.0046 -0.1065  1.2059
 8759SOL    HW137736   4.517   0.058   2.770  1.2711 -0.6161 -1.5844
 8759SOL    HW237737   4.463   0.084   2.639 -0.9468 -2.2382  1.7361
 8760SOL     OW37738   2.454   0.313  11.385 -0.0996  0.2041 -0.2100
 8760SOL    HW137739   2.445   0.394  11.435  2.0183 -0.1012  0.6618
 8760SOL    HW237740   2.550   0.311  11.379 -0.1908  0.3075 -1.7532
 8761SOL     OW37741   1.277   3.749   7.266 -0.2191  0.7528 -0.3574
 8761SOL    HW137742   1.273   3.657   7.293  1.8033  1.2665  1.7233
 8761SOL    HW237743   1.311   3.736   7.177 -1.5141  2.9860 -1.1778
 8762SOL     OW37744   3.795   0.275   1.412 -0.0216  0.3218 -0.0631
 8762SOL    HW137745   3.890   0.280   1.427  0.1462  1.6832 -1.6121
 8762SOL    HW237746   3.769   0.348   1.468  1.9164  0.5387  0.5435
 8763SOL     OW37747   1.582   4.668  10.164  0.2440 -0.6133  0.4747
 8763SOL    HW137748   1.512   4.705  10.217  0.1789  0.2600 -0.2052
 8763SOL    HW237749   1.656   0.001  10.184  0.4599 -0.9552  0.6471
 8764SOL     OW37750   4.182   1.567   2.359 -0.0807 -0.0038  0.5897
 8764SOL    HW137751   4.210   1.550   2.449 -0.3397 -0.8643  0.5035
 8764SOL    HW237752   4.262   1.587   2.310  0.2381 -0.5988  0.8771
 8765SOL     OW37753   3.631   4.436  14.752 -0.1573  0.3759 -0.1482
 8765SOL    HW137754   3.672   4.521  14.735 -0.4682  0.4244 -0.6626
 8765SOL    HW237755   3.692   4.392  14.811  0.7398  0.5558 -0.9508
 8766SOL     OW37756   2.254   4.471   9.000  0.6809  0.1713 -0.3287
 8766SOL    HW137757   2.317   4.413   8.957  0.1642 -2.0050  1.8365
 8766SOL    HW237758   2.242   4.423   9.082  1.0444 -0.1345 -0.4556
 8767SOL     OW37759   2.304   0.472  11.843 -0.4148 -0.5487  0.1411
 8767SOL    HW137760   2.252   0.513  11.773 -0.6213  3.3216  2.5735
 8767SOL    HW237761   2.392   0.488  11.807 -0.8744  2.1972  0.2318
 8768SOL     OW37762   0.995   4.001   6.478  0.3122 -0.2790  0.4962
 8768SOL    HW137763   1.073   4.051   6.500  0.1603 -0.6178  1.7696
 8768SOL    HW237764   0.937   4.017   6.553 -1.7021  2.3635 -1.6032
 8769SOL     OW37765   3.988   1.806   3.895  0.1454 -0.1485  0.3084
 8769SOL    HW137766   4.065   1.796   3.951  1.1865 -1.3670 -1.3372
 8769SOL    HW237767   3.997   1.885   3.843  0.6774  0.7503  1.7614
 8770SOL     OW37768   1.341   3.089   4.380  0.2666 -0.0149 -0.3735
 8770SOL    HW137769   1.379   3.168   4.339  0.0472 -0.1096 -0.7554
 8770SOL    HW237770   1.273   3.133   4.431  2.9739  0.0241  3.2316
 8771SOL     OW37771   1.389   0.614   7.630  0.0338  0.0185  0.1875
 8771SOL    HW137772   1.304   0.572   7.615  0.1748 -0.1724 -0.0856
 8771SOL    HW237773   1.352   0.701   7.639 -0.5923 -0.0713 -1.4386
 8772SOL     OW37774   2.738   2.186   8.196  0.3781 -0.6441  0.4502
 8772SOL    HW137775   2.792   2.257   8.229 -0.1658  0.9743 -2.1325
 8772SOL    HW237776   2.719   2.220   8.108  2.4525 -0.2661  0.1477
 8773SOL     OW37777   3.243   2.802   5.045  0.1655  0.5178  0.1435
 8773SOL    HW137778   3.301   2.876   5.030  1.4232 -0.5743 -0.3549
 8773SOL    HW237779   3.313   2.746   5.079 -0.9577 -0.4341  0.9211
 8774SOL     OW37780   0.839   1.471  11.000  0.1524 -0.1277 -0.4752
 8774SOL    HW137781   0.932   1.457  10.983  0.4299  0.8832  0.2692
 8774SOL    HW237782   0.802   1.413  10.933  0.3150 -2.6830  1.6160
 8775SOL     OW37783   0.027   2.258   4.186  0.9317 -0.3907 -0.3389
 8775SOL    HW137784   0.107   2.206   4.192  0.3756 -1.1708  0.2793
 8775SOL    HW237785   4.689   2.201   4.141  1.1592 -0.1639 -0.9449
 8776SOL     OW37786   4.008   3.241   7.047 -0.3033 -0.2568  0.1791
 8776SOL    HW137787   3.980   3.307   6.985  0.7154  1.0335  1.0818
 8776SOL    HW237788   3.990   3.155   7.010 -0.5839 -1.3835  2.9312
 8777SOL     OW37789   2.486   1.315   1.622  0.2723  0.2271  0.0212
 8777SOL    HW137790   2.561   1.368   1.649  0.6574 -1.1435  1.5649
 8777SOL    HW237791   2.483   1.334   1.528  0.0684  1.1307  0.2053
 8778SOL     OW37792   3.391   3.091  17.043 -0.2706 -0.1412  0.3565
 8778SOL    HW137793   3.411   3.008  17.085 -1.4299 -0.0417  1.1120
 8778SOL    HW237794   3.479   3.126  17.029 -0.0897  0.0217  1.9048
 8779SOL     OW37795   1.473   4.714   9.059 -0.1360 -0.0083 -0.4063
 8779SOL    HW137796   1.513   0.033   9.134 -1.1056 -0.9666  0.6649
 8779SOL    HW237797   1.469   4.622   9.087  0.4646 -0.6721 -2.4641
 8780SOL     OW37798   1.480   3.018  10.038  0.3341 -0.3029 -0.1770
 8780SOL    HW137799   1.535   2.947  10.071 -0.6537 -0.2964  1.4920
 8780SOL    HW237800   1.424   2.974   9.975 -0.3151 -0.7048  0.6839
 8781SOL     OW37801   3.100   0.980   0.823  0.1877  0.3206 -0.1825
 8781SOL    HW137802   3.115   0.951   0.913  0.6240 -3.0983 -1.3894
 8781SOL    HW237803   3.176   0.946   0.777 -0.6837 -2.3889  0.3976
 8782SOL     OW37804   1.947   0.784  14.771  0.6573  0.0851  0.1965
 8782SOL    HW137805   1.879   0.851  14.763  1.7359  1.3016  1.2065
 8782SOL    HW237806   1.920   0.716  14.709  3.4373 -0.1013 -0.8151
 8783SOL     OW37807   2.343   0.276   2.044 -0.8418  0.3657  0.1910
 8783SOL    HW137808   2.360   0.247   2.133  1.5632  1.6745  0.1808
 8783SOL    HW237809   2.422   0.321   2.013 -1.6069  0.3917 -1.7613
 8784SOL     OW37810   4.124   3.816   3.230  0.3690 -0.4899  0.2227
 8784SOL    HW137811   4.199   3.841   3.177  1.2606  0.2846  1.8410
 8784SOL    HW237812   4.164   3.807   3.317 -0.2292 -2.7435  0.2645
 8785SOL     OW37813   1.762   3.834   1.407  0.5798  0.5584 -0.4764
 8785SOL    HW137814   1.784   3.848   1.499 -0.9425  0.1281 -0.0487
 8785SOL    HW237815   1.821   3.759   1.395  0.6774  0.8004 -1.5462
 8786SOL     OW37816   4.683   3.276   7.068 -0.6607 -0.0528 -0.4244
 8786SOL    HW137817   4.683   3.272   7.164 -0.1321  0.1758 -0.4161
 8786SOL    HW237818   4.592   3.253   7.054 -1.1287  1.5700 -0.0760
 8787SOL     OW37819   0.570   3.443   8.078  0.5254  0.1122  0.3430
 8787SOL    HW137820   0.659   3.415   8.056  0.4498 -0.9029  1.2970
 8787SOL    HW237821   0.553   3.394   8.159 -0.3550 -0.4294 -0.1783
 8788SOL     OW37822   2.550   1.571  10.998 -0.5135 -0.3738  0.0017
 8788SOL    HW137823   2.462   1.551  11.028 -1.2660 -0.1402 -2.1011
 8788SOL    HW237824   2.531   1.590  10.907 -0.3020 -0.6175 -0.0974
 8789SOL     OW37825   0.364   4.607   5.718 -0.5622  0.1870  0.6750
 8789SOL    HW137826   0.325   4.662   5.785 -0.2791 -1.6432  2.3534
 8789SOL    HW237827   0.376   4.525   5.767 -0.0369  0.4870  1.0398
 8790SOL     OW37828   3.777   2.592   3.438  0.0516 -0.6644 -0.2932
 8790SOL    HW137829   3.851   2.647   3.410  0.1991 -0.4881  0.4223
 8790SOL    HW237830   3.764   2.553   3.352  1.0108 -0.1730 -0.6641
 8791SOL     OW37831   2.892   1.976   4.993 -0.1267 -0.0673 -0.5358
 8791SOL    HW137832   2.864   1.933   5.073  0.3490 -0.2603 -0.4686
 8791SOL    HW237833   2.883   1.904   4.930 -0.5362 -0.2384 -0.2734
 8792SOL     OW37834   2.691   1.432   1.756 -0.0320  0.3362 -0.0970
 8792SOL    HW137835   2.634   1.428   1.833  0.6745  1.5181  0.4931
 8792SOL    HW237836   2.747   1.509   1.769 -0.1107  0.4533 -0.4561
 8793SOL     OW37837   0.321   2.001   4.358  0.2954  0.1393 -0.0048
 8793SOL    HW137838   0.369   1.947   4.296  1.0852 -0.5047  1.1619
 8793SOL    HW237839   0.349   1.987   4.448  2.4660 -1.2165 -0.9071
 8794SOL     OW37840   2.830   1.246  16.582 -0.2600  0.6732  0.3456
 8794SOL    HW137841   2.843   1.308  16.509 -3.0183  0.4434 -0.3394
 8794SOL    HW237842   2.774   1.303  16.636 -1.4341  0.9991 -1.2086
 8795SOL     OW37843   4.221   0.787  14.400 -0.1579 -0.2358  0.1767
 8795SOL    HW137844   4.158   0.859  14.393  2.0562  1.8555  1.9710
 8795SOL    HW237845   4.237   0.783  14.494  2.1956  1.5329 -0.1438
 8796SOL     OW37846   1.157   2.684   3.406 -0.0962 -0.4652  0.5424
 8796SOL    HW137847   1.191   2.606   3.362 -1.1677  1.0844 -3.0005
 8796SOL    HW237848   1.143   2.648   3.494  0.5542  0.9137  1.2160
 8797SOL     OW37849   4.114   1.224   6.229 -0.0911 -0.3194 -0.1222
 8797SOL    HW137850   4.102   1.144   6.177 -0.7013 -0.0642 -0.3763
 8797SOL    HW237851   4.077   1.287   6.168  2.3122  1.3723  0.1659
 8798SOL     OW37852   3.199   0.190   3.530  0.0008 -0.3299  0.1370
 8798SOL    HW137853   3.203   0.220   3.621  0.7822  1.3809 -0.4682
 8798SOL    HW237854   3.270   0.230   3.480 -0.0789  0.3217  0.5480
 8799SOL     OW37855   3.147   1.018   4.645 -0.2903 -0.1238 -0.3539
 8799SOL    HW137856   3.121   0.963   4.719 -2.0590  0.6536 -0.3904
 8799SOL    HW237857   3.094   0.983   4.573  1.1650 -1.0823 -0.9634
 8800SOL     OW37858   1.291   3.937   2.034  0.5583  0.2152 -0.4836
 8800SOL    HW137859   1.383   3.961   2.042  1.0906 -2.5725  2.2060
 8800SOL    HW237860   1.266   3.998   1.965  2.4348 -0.7545 -2.0143
 8801SOL     OW37861   4.174   1.897   4.751 -0.3441  0.1795  0.1624
 8801SOL    HW137862   4.263   1.932   4.739 -0.0959 -0.1965  0.9283
 8801SOL    HW237863   4.144   1.946   4.827 -1.7690 -2.4099  1.2705
 8802SOL     OW37864   3.920   3.803   8.605  0.1654 -0.1701  0.1034
 8802SOL    HW137865   3.873   3.876   8.645  3.3159  1.8453  0.1143
 8802SOL    HW237866   3.848   3.763   8.556 -0.7372 -0.8143  1.9445
 8803SOL     OW37867   1.272   1.357   2.280 -0.1897  0.2837 -0.1033
 8803SOL    HW137868   1.329   1.291   2.320  0.4553  1.2985  0.6431
 8803SOL    HW237869   1.213   1.308   2.223 -1.2216  1.1562  0.2253
 8804SOL     OW37870   4.536   1.912   2.517 -0.0224  0.4463 -0.1903
 8804SOL    HW137871   4.487   1.897   2.436  2.2991 -0.2271 -1.4589
 8804SOL    HW237872   4.522   1.832   2.569 -0.6740  0.9310  0.3918
 8805SOL     OW37873   4.716   0.030  14.852 -0.4779  0.4123 -0.1930
 8805SOL    HW137874   4.686   0.027  14.761  1.2511 -1.0965 -0.7204
 8805SOL    HW237875   4.638   0.038  14.907 -0.4403 -0.4641 -0.0064
 8806SOL     OW37876   1.978   3.017  15.387  0.1449 -0.0299  0.5879
 8806SOL    HW137877   1.947   3.089  15.332  0.7474  0.3470  0.7396
 8806SOL    HW237878   1.990   3.069  15.466 -1.1817  2.4014 -0.8322
 8807SOL     OW37879   3.921   1.231   3.709 -0.2072 -0.0667 -0.1382
 8807SOL    HW137880   3.903   1.216   3.802 -0.5858 -1.8238 -0.5062
 8807SOL    HW237881   3.853   1.174   3.672 -0.8858  0.8521 -0.3149
 8808SOL     OW37882   1.766   2.751   5.621  0.0389  0.2525  0.0623
 8808SOL    HW137883   1.763   2.759   5.716  1.9721 -1.0825  0.2321
 8808SOL    HW237884   1.696   2.689   5.600  1.4081 -1.3427  0.2166
 8809SOL     OW37885   0.279   3.458   4.691 -0.2613  0.8738 -0.5930
 8809SOL    HW137886   0.225   3.484   4.617  0.1497 -0.6360 -1.4227
 8809SOL    HW237887   0.319   3.379   4.654  1.3137  0.4640  1.9828
 8810SOL     OW37888   1.717   2.776   7.805  0.5833 -0.1856  0.2252
 8810SOL    HW137889   1.774   2.705   7.775 -1.3720 -1.3363 -0.7553
 8810SOL    HW237890   1.637   2.762   7.755  0.2350 -2.8324  1.4944
 8811SOL     OW37891   2.966   0.186   7.560  0.1844 -0.3341  0.0523
 8811SOL    HW137892   2.947   0.180   7.654  1.5669 -0.5633  0.3163
 8811SOL    HW237893   3.046   0.135   7.546  0.4546  0.7150 -2.1507
 8812SOL     OW37894   2.848   2.125   7.608  0.0695 -0.5503 -0.8002
 8812SOL    HW137895   2.755   2.133   7.584  0.1068 -1.5184 -1.2744
 8812SOL    HW237896   2.890   2.108   7.524  1.1108  0.3266 -0.4514
 8813SOL     OW37897   1.373   1.000   1.102 -0.0861 -0.3025 -0.1361
 8813SOL    HW137898   1.287   0.996   1.060 -0.5989 -1.1410  0.9646
 8813SOL    HW237899   1.387   0.913   1.140  1.9906  0.4421  0.8007
 8814SOL     OW37900   2.828   1.806  15.817  0.1431  0.1250 -0.1992
 8814SOL    HW137901   2.904   1.775  15.767 -0.8311 -0.2093 -1.4832
 8814SOL    HW237902   2.767   1.734  15.799  2.8469 -2.0918 -0.5334
 8815SOL     OW37903   2.985   1.443  11.300 -0.4461  0.7914  0.0204
 8815SOL    HW137904   3.054   1.459  11.235  0.8382 -0.3727  1.1128
 8815SOL    HW237905   2.909   1.454  11.242 -0.8884 -0.8979  0.2800
 8816SOL     OW37906   2.330   1.443   4.874 -0.6773 -0.5236 -0.6046
 8816SOL    HW137907   2.424   1.451   4.856 -0.3925 -1.4091  0.5315
 8816SOL    HW237908   2.328   1.374   4.940 -1.4521 -1.3296 -1.4760
 8817SOL     OW37909   3.964   2.900  11.637  0.4050 -0.2595 -0.8230
 8817SOL    HW137910   3.913   2.889  11.717  0.3623 -0.9466 -0.9390
 8817SOL    HW237911   3.978   2.806  11.624 -2.4237 -1.3626  3.9966
 8818SOL     OW37912   4.129   0.811  11.806  0.6242  0.3867 -0.3217
 8818SOL    HW137913   4.179   0.842  11.882 -0.0073  0.6340 -0.0079
 8818SOL    HW237914   4.041   0.819  11.841 -0.1851  2.4044 -2.8053
 8819SOL     OW37915   3.190   2.247  17.246  0.1169  0.2305  0.3880
 8819SOL    HW137916   3.133   2.202  17.309  1.7751 -0.7121  1.2121
 8819SOL    HW237917   3.248   2.178  17.216 -1.2051 -0.4938 -0.5336
 8820SOL     OW37918   2.756   0.140  10.479  0.0509  0.2890 -0.1345
 8820SOL    HW137919   2.708   0.223  10.488 -0.5829 -0.0765 -0.1275
 8820SOL    HW237920   2.842   0.180  10.469 -1.1014  2.9377  0.5589
 8821SOL     OW37921   4.283   3.927   8.199  0.2943 -0.0901 -0.4625
 8821SOL    HW137922   4.250   3.844   8.165 -1.1038  0.1190  0.4186
 8821SOL    HW237923   4.222   3.936   8.272  0.4464 -1.9215 -0.0960
 8822SOL     OW37924   0.458   4.338  16.368 -0.2032  0.3128 -0.5741
 8822SOL    HW137925   0.531   4.290  16.409 -0.6501  0.5095  0.4617
 8822SOL    HW237926   0.378   4.307  16.409  1.4188 -1.3183  1.4095
 8823SOL     OW37927   1.327   3.163   6.276 -0.1704  0.1401 -0.1184
 8823SOL    HW137928   1.278   3.164   6.358 -0.9738  1.6542 -0.6217
 8823SOL    HW237929   1.336   3.068   6.275 -3.8292 -0.1781 -0.8670
 8824SOL     OW37930   4.068   4.181  14.807  0.1925  0.2588  0.1866
 8824SOL    HW137931   4.083   4.111  14.744  0.4843 -0.3115  0.8864
 8824SOL    HW237932   4.052   4.257  14.751 -0.8576 -1.8010 -2.2777
 8825SOL     OW37933   0.462   4.309  10.347 -0.5834  0.2183  0.0359
 8825SOL    HW137934   0.406   4.258  10.288  0.7560  0.0432 -1.0927
 8825SOL    HW237935   0.545   4.302  10.300 -0.8313 -1.3031 -0.1558
 8826SOL     OW37936   2.727   4.003   4.357  0.0026  0.0416 -0.1542
 8826SOL    HW137937   2.692   3.971   4.440  1.5430  0.3801  0.6104
 8826SOL    HW237938   2.698   3.928   4.304  2.9016 -2.6048  1.9990
 8827SOL     OW37939   0.945   2.028   1.938  0.3296  0.5020  0.1760
 8827SOL    HW137940   0.963   2.007   1.847 -1.0013 -0.9498  0.2511
 8827SOL    HW237941   1.028   2.011   1.982  1.5073  0.1966 -2.1938
 8828SOL     OW37942   1.307   4.425   3.625  0.1598  0.2749 -0.2708
 8828SOL    HW137943   1.364   4.502   3.621 -1.8373  1.7105 -1.5202
 8828SOL    HW237944   1.364   4.365   3.672 -2.1849  0.8764  3.3581
 8829SOL     OW37945   2.535   0.934  12.899 -0.6016  0.5261  0.0418
 8829SOL    HW137946   2.482   0.974  12.967 -0.0476 -0.0320  0.8029
 8829SOL    HW237947   2.493   0.848  12.899 -0.3271  0.3764 -1.7387
 8830SOL     OW37948   4.432   1.944  12.548  1.3040 -0.0863 -0.2482
 8830SOL    HW137949   4.367   1.973  12.613  1.8238  0.0669  0.1994
 8830SOL    HW237950   4.516   1.966  12.588 -0.3401  3.6385  1.1363
 8831SOL     OW37951   0.014   3.651   8.746 -0.3488  0.3611 -0.0031
 8831SOL    HW137952   0.076   3.637   8.674 -2.3781 -3.0703 -1.1155
 8831SOL    HW237953   0.025   3.744   8.762 -2.9661  0.7766 -0.7462
 8832SOL     OW37954   1.522   4.189   3.373  0.2451 -0.5894 -0.9180
 8832SOL    HW137955   1.428   4.169   3.377 -0.2360  1.9953  0.2686
 8832SOL    HW237956   1.540   4.137   3.295 -1.5909 -1.3841 -0.8097
 8833SOL     OW37957   4.006   1.368   3.956  0.4114  0.1260  0.0573
 8833SOL    HW137958   4.096   1.335   3.949  1.0134  1.8577 -0.3355
 8833SOL    HW237959   3.971   1.280   3.971  0.2268 -0.2550 -2.6250
 8834SOL     OW37960   2.414   1.344  15.837 -0.4377  0.2392  0.1318
 8834SOL    HW137961   2.410   1.389  15.752  0.3415 -0.5101 -0.2947
 8834SOL    HW237962   2.388   1.416  15.895  1.5046  1.8222 -0.9228
 8835SOL     OW37963   1.646   0.486   8.233  0.2402  0.2911  0.5770
 8835SOL    HW137964   1.634   0.579   8.254 -1.9252  0.3835 -1.1171
 8835SOL    HW237965   1.673   0.491   8.141 -0.6261 -0.2197  0.3027
 8836SOL     OW37966   0.976   3.989   8.485  0.2661 -0.0666 -0.2405
 8836SOL    HW137967   0.952   3.979   8.577 -0.5020 -0.3186 -0.4684
 8836SOL    HW237968   1.062   3.946   8.480 -0.1500 -0.7500 -1.5061
 8837SOL     OW37969   1.700   1.373   7.447 -0.2054  0.1047 -0.0225
 8837SOL    HW137970   1.700   1.380   7.542 -0.1843 -0.0177 -0.0129
 8837SOL    HW237971   1.664   1.457   7.418 -2.5257 -0.9417 -0.2111
 8838SOL     OW37972   0.615   1.104   4.437  0.0421  0.6037 -0.8126
 8838SOL    HW137973   0.658   1.019   4.445  0.3360  0.6814 -1.6545
 8838SOL    HW237974   0.604   1.122   4.344  1.6103  1.0951 -0.9004
 8839SOL     OW37975   1.798   0.726   6.180 -0.4746  0.1324  0.0234
 8839SOL    HW137976   1.761   0.641   6.204  0.4895  0.1434  1.5316
 8839SOL    HW237977   1.726   0.768   6.133 -1.9455  0.4084  2.5181
 8840SOL     OW37978   2.892   3.383   2.778 -0.0993 -0.3215 -0.1051
 8840SOL    HW137979   2.865   3.390   2.686  1.7194 -0.1421 -0.6367
 8840SOL    HW237980   2.811   3.421   2.811  0.9798  1.1164  0.8781
 8841SOL     OW37981   1.394   4.576   6.481  0.2686  0.1479 -0.2077
 8841SOL    HW137982   1.467   4.580   6.543 -0.8177  1.0086  1.0278
 8841SOL    HW237983   1.318   4.573   6.540  0.4622  0.0867  0.0370
 8842SOL     OW37984   1.825   1.640   3.260  0.4315  0.2242 -0.2360
 8842SOL    HW137985   1.764   1.656   3.332 -0.9975  1.1131 -1.6544
 8842SOL    HW237986   1.902   1.600   3.301 -0.4975  0.1363  1.4499
 8843SOL     OW37987   3.175   1.751   2.892 -0.0935  0.0587  0.2476
 8843SOL    HW137988   3.240   1.729   2.959  2.4424  2.1852 -1.5451
 8843SOL    HW237989   3.197   1.694   2.818 -0.9183 -0.9041  0.7366
 8844SOL     OW37990   3.637   1.887   5.286  0.4325 -0.4966 -0.3976
 8844SOL    HW137991   3.569   1.954   5.275  1.1608 -0.3809 -4.0815
 8844SOL    HW237992   3.619   1.847   5.371 -1.2458  0.1717 -0.4398
 8845SOL     OW37993   3.155   2.344   5.981  0.2105  0.3485  0.2495
 8845SOL    HW137994   3.157   2.281   6.052 -2.9698 -0.7570 -0.6249
 8845SOL    HW237995   3.061   2.360   5.976 -0.0706 -1.9128 -1.6199
 8846SOL     OW37996   2.033   3.803   6.555 -0.0531  0.0330 -0.1880
 8846SOL    HW137997   2.039   3.760   6.470  1.4277 -3.5257  1.7104
 8846SOL    HW237998   2.021   3.723   6.606 -0.5371  0.4397  0.3290
 8847SOL     OW37999   0.180   2.707   0.653 -0.2922  0.5584 -0.2134
 8847SOL    HW138000   0.216   2.693   0.741  1.6466  1.3402 -0.8764
 8847SOL    HW238001   0.252   2.677   0.597  0.2414  0.0528  0.7535
 8848SOL     OW38002   4.649   2.322   1.173  0.5308  0.0773 -0.2969
 8848SOL    HW138003   4.673   2.284   1.088 -1.0593  0.2646 -0.8223
 8848SOL    HW238004   4.554   2.312   1.180  0.7347 -1.9830 -0.3830
 8849SOL     OW38005   2.270   0.331  10.634  0.0778  0.0944 -0.1313
 8849SOL    HW138006   2.180   0.348  10.664  0.7045  3.4767 -0.1699
 8849SOL    HW238007   2.285   0.423  10.612  1.1295 -0.7070 -2.7573
 8850SOL     OW38008   1.681   0.012   7.599 -0.0886 -0.3311 -0.1242
 8850SOL    HW138009   1.634   0.039   7.520 -0.0977 -1.0105 -0.3487
 8850SOL    HW238010   1.635   0.071   7.659 -2.3170 -1.0705 -1.1216
 8851SOL     OW38011   1.147   3.746  11.080  0.4198 -0.3251  0.5825
 8851SOL    HW138012   1.237   3.760  11.050  0.9672 -0.6442  2.0946
 8851SOL    HW238013   1.174   3.694  11.155  2.6001  0.6761  0.5059
 8852SOL     OW38014   4.029   1.509   4.766  0.5452 -0.0141  0.2765
 8852SOL    HW138015   3.951   1.501   4.822  0.5831 -0.7846  0.2204
 8852SOL    HW238016   4.097   1.514   4.833  0.2913 -0.2640  0.5587
 8853SOL     OW38017   2.646   4.136   8.346 -0.1390 -0.2666  0.1630
 8853SOL    HW138018   2.576   4.193   8.379  1.8255  0.5730  2.8565
 8853SOL    HW238019   2.693   4.127   8.429  0.8903  0.4559 -0.3381
 8854SOL     OW38020   3.658   3.674  14.340 -0.0451  0.1354  0.4626
 8854SOL    HW138021   3.707   3.593  14.332  0.7616  0.8321 -1.5909
 8854SOL    HW238022   3.610   3.677  14.257 -0.0606 -0.5423  0.4472
 8855SOL     OW38023   4.108   2.664  15.701  0.4641 -0.0604 -0.2178
 8855SOL    HW138024   4.074   2.753  15.707  0.1872 -0.2954  1.7410
 8855SOL    HW238025   4.029   2.612  15.691  0.3616 -0.0100  0.3415
 8856SOL     OW38026   2.013   3.189   7.259  0.1134  0.1274  0.1555
 8856SOL    HW138027   1.935   3.212   7.209 -0.4689 -2.1603  0.0156
 8856SOL    HW238028   1.979   3.114   7.308 -1.6975  1.0867  0.3242
 8857SOL     OW38029   3.888   4.067  10.135 -0.0185 -0.0603 -0.4671
 8857SOL    HW138030   3.889   3.989  10.190  2.2321  0.0904 -0.2965
 8857SOL    HW238031   3.823   4.037  10.071 -0.7240  1.6107 -0.5201
 8858SOL     OW38032   3.923   2.608   4.789 -0.1061 -0.0951 -0.1313
 8858SOL    HW138033   3.919   2.683   4.729  4.4170  1.2968  1.2934
 8858SOL    HW238034   3.874   2.532   4.757 -0.8774 -1.1076  3.4663
 8859SOL     OW38035   0.503   0.342   7.131  0.3766 -0.0161 -0.6965
 8859SOL    HW138036   0.494   0.259   7.083 -1.4833 -1.7117  2.6160
 8859SOL    HW238037   0.463   0.325   7.216 -2.6643  0.6352 -2.0277
 8860SOL     OW38038   1.073   1.488   3.737  0.2924 -0.6241 -0.2613
 8860SOL    HW138039   1.070   1.393   3.723  0.0666 -0.8699  1.4476
 8860SOL    HW238040   1.002   1.527   3.685  0.7920  0.2606 -0.2773
 8861SOL     OW38041   2.849   2.109   3.097  0.0618 -0.1248 -0.1632
 8861SOL    HW138042   2.793   2.172   3.142 -0.0958 -0.1991 -0.2547
 8861SOL    HW238043   2.927   2.099   3.152  0.0288  1.3565  0.1563
 8862SOL     OW38044   4.248   4.692   2.860  0.1088  0.2840 -0.1711
 8862SOL    HW138045   4.325   0.023   2.852  0.5452 -0.6566 -2.4041
 8862SOL    HW238046   4.204   4.708   2.777 -0.7594  0.2732  0.2851
 8863SOL     OW38047   0.847   2.434   5.911 -0.5083  1.0654 -0.4781
 8863SOL    HW138048   0.905   2.505   5.937 -0.7899  1.8256 -1.9299
 8863SOL    HW238049   0.784   2.472   5.850  0.4389  0.0521 -2.0893
 8864SOL     OW38050   2.848   3.846   0.793 -0.1454  0.5262  0.4184
 8864SOL    HW138051   2.855   3.845   0.888  2.0605  1.1604  0.2451
 8864SOL    HW238052   2.808   3.761   0.775 -0.3225  1.2792 -2.7974
 8865SOL     OW38053   2.786   3.959   7.142  0.0403 -0.1938 -0.6638
 8865SOL    HW138054   2.793   4.054   7.153  1.8667 -0.5392  1.0510
 8865SOL    HW238055   2.818   3.940   7.230 -2.2962 -0.2422  0.1805
 8866SOL     OW38056   1.646   3.462   5.345 -0.2157  0.0468 -0.0540
 8866SOL    HW138057   1.591   3.441   5.270 -0.7432  1.3292 -0.0301
 8866SOL    HW238058   1.592   3.426   5.416 -0.1734  0.0011 -0.0452
 8867SOL     OW38059   0.826   2.251  13.962  0.0955 -0.0069 -0.7230
 8867SOL    HW138060   0.811   2.272  14.054 -0.8432 -0.9378 -0.6535
 8867SOL    HW238061   0.760   2.187  13.935 -0.6106  0.8788 -1.0982
 8868SOL     OW38062   2.734   0.256  13.443  0.0272  0.3912 -0.2143
 8868SOL    HW138063   2.699   0.245  13.532  1.6471  0.1700  0.4016
 8868SOL    HW238064   2.722   0.351  13.445 -0.7085  0.2682  1.5525
 8869SOL     OW38065   1.463   0.594   1.793 -0.2526  0.1903  0.4347
 8869SOL    HW138066   1.472   0.512   1.745  0.1108 -0.8439  2.2679
 8869SOL    HW238067   1.486   0.652   1.721  0.6309  1.0840  1.4309
 8870SOL     OW38068   4.484   1.293   7.732 -0.2805  0.1253 -0.0972
 8870SOL    HW138069   4.459   1.337   7.813 -2.6363 -0.0724 -0.7050
 8870SOL    HW238070   4.438   1.212   7.754  0.1948 -0.3088 -0.6833
 8871SOL     OW38071   3.610   4.208  15.002  0.2812  0.0274 -0.5386
 8871SOL    HW138072   3.695   4.253  15.000  0.1306  0.3643  1.3611
 8871SOL    HW238073   3.625   4.155  14.923 -2.8313  1.4965 -2.1135
 8872SOL     OW38074   4.620   3.956   5.208 -0.0659  0.0943  0.5476
 8872SOL    HW138075   4.671   3.882   5.176  0.3853  1.7146 -2.4009
 8872SOL    HW238076   4.531   3.923   5.199  1.2640 -3.5080  0.3560
 8873SOL     OW38077   0.919   4.130   6.245  0.5234 -0.2622 -0.7748
 8873SOL    HW138078   0.833   4.089   6.232  0.6267 -1.0984  1.1454
 8873SOL    HW238079   0.957   4.070   6.308 -1.4599  0.5440  1.2100
 8874SOL     OW38080   2.550   3.531  17.313 -0.2422 -0.2701  0.7269
 8874SOL    HW138081   2.616   3.599  17.323 -0.1573 -0.0375 -1.5321
 8874SOL    HW238082   2.501   3.544  17.394 -0.3241 -3.1372  1.1647
 8875SOL     OW38083   0.459   0.369   2.395  0.3274 -0.2875 -0.3207
 8875SOL    HW138084   0.422   0.457   2.406 -0.5330 -0.7178  0.1833
 8875SOL    HW238085   0.460   0.320   2.477 -0.5274  0.6436  0.2508
 8876SOL     OW38086   3.853   2.031   5.414  0.4540  0.4637 -0.0488
 8876SOL    HW138087   3.774   1.985   5.385 -0.2252 -0.3253  3.0698
 8876SOL    HW238088   3.858   1.989   5.500  0.2028  2.0002  0.7196
 8877SOL     OW38089   4.432   3.116  13.978  0.6500 -0.1136 -0.6029
 8877SOL    HW138090   4.391   3.137  13.894 -0.7184  1.2812  0.4217
 8877SOL    HW238091   4.487   3.192  13.994  0.0866  0.1603  0.0213
 8878SOL     OW38092   3.246   1.282   8.239 -0.1268 -0.0113  0.7402
 8878SOL    HW138093   3.291   1.366   8.252  0.7732 -0.3050 -0.4844
 8878SOL    HW238094   3.157   1.317   8.251  0.0525  0.8003 -0.2901
 8879SOL     OW38095   2.401   3.723   1.429 -0.0037  0.6023 -0.4912
 8879SOL    HW138096   2.323   3.705   1.482  0.9342 -0.1892  0.6037
 8879SOL    HW238097   2.424   3.646   1.377 -1.5863 -0.3689  0.2568
 8880SOL     OW38098   3.895   2.022   6.620  0.1371  0.2196  0.2813
 8880SOL    HW138099   3.966   2.084   6.636 -0.0373  0.6625 -0.6313
 8880SOL    HW238100   3.869   2.048   6.531  1.0680 -0.5455 -0.2108
 8881SOL     OW38101   3.444   3.066   1.592 -0.0339 -0.5129  0.5269
 8881SOL    HW138102   3.363   3.113   1.571  0.8478  1.6065  1.8868
 8881SOL    HW238103   3.512   3.120   1.553 -0.9103  0.8808  0.9052
 8882SOL     OW38104   3.094   3.664   4.239  0.2792  0.0492  0.2268
 8882SOL    HW138105   3.085   3.655   4.334  1.6019 -0.1168  0.3317
 8882SOL    HW238106   3.084   3.758   4.225  0.8912  0.1271  0.3385
 8883SOL     OW38107   3.693   1.346  10.810 -0.1488 -0.3825  0.1235
 8883SOL    HW138108   3.733   1.291  10.742 -5.3660 -1.4898 -2.0658
 8883SOL    HW238109   3.648   1.410  10.753  0.8649 -0.2276 -0.5057
 8884SOL     OW38110   0.829   2.891   8.089  0.6677  0.1995  0.2708
 8884SOL    HW138111   0.801   2.951   8.020  1.2518  0.1428 -0.0153
 8884SOL    HW238112   0.751   2.837   8.102 -0.3334  1.6098  0.1366
 8885SOL     OW38113   0.365   3.012   6.297 -0.2806 -0.4122  0.1132
 8885SOL    HW138114   0.349   2.942   6.361 -2.0003  1.1562  1.4182
 8885SOL    HW238115   0.285   3.061   6.319  0.8649  0.9898  1.1627
 8886SOL     OW38116   3.525   4.394   6.613  0.0232 -0.1816  0.4657
 8886SOL    HW138117   3.480   4.322   6.658  0.8709 -1.4878 -0.7565
 8886SOL    HW238118   3.480   4.466   6.656  0.4181 -1.3531  2.8487
 8887SOL     OW38119   4.518   4.681   8.926 -0.2073 -0.2100 -0.4804
 8887SOL    HW138120   4.571   4.610   8.889 -0.2667  1.1514 -3.1852
 8887SOL    HW238121   4.446   4.694   8.865 -2.4348 -2.4415  1.6689
 8888SOL     OW38122   2.905   4.678   6.178 -0.0259  0.4389  0.4255
 8888SOL    HW138123   2.877   0.040   6.147 -0.7107  0.3015  0.6680
 8888SOL    HW238124   2.932   4.688   6.269  0.7458 -0.6285  0.3122
 8889SOL     OW38125   1.299   2.595   7.111 -0.4025 -0.8213 -0.3601
 8889SOL    HW138126   1.285   2.570   7.203  3.0249 -0.1586  0.3348
 8889SOL    HW238127   1.392   2.616   7.116 -0.3365 -1.1527 -0.1870
 8890SOL     OW38128   2.335   1.542   5.799  0.0270  0.0779 -0.2569
 8890SOL    HW138129   2.380   1.512   5.879  0.1178 -0.1608 -0.3975
 8890SOL    HW238130   2.349   1.472   5.735 -0.1302 -0.5401  0.3734
 8891SOL     OW38131   1.567   1.219   9.907 -0.0019 -0.4879 -0.0145
 8891SOL    HW138132   1.609   1.164   9.840  0.1841  1.5486 -1.5681
 8891SOL    HW238133   1.475   1.193   9.894 -0.9028  2.9050 -0.3606
 8892SOL     OW38134   0.269   3.125   6.021 -0.4612  0.1693 -0.1609
 8892SOL    HW138135   0.203   3.063   5.991  1.5190 -1.8595 -0.3047
 8892SOL    HW238136   0.300   3.089   6.104  0.0830 -1.3860 -1.0396
 8893SOL     OW38137   1.431   3.456   8.607 -0.6081 -0.4299 -0.1518
 8893SOL    HW138138   1.410   3.366   8.632 -0.2639 -1.4463 -3.5586
 8893SOL    HW238139   1.401   3.457   8.516  1.2297  1.0892 -0.7450
 8894SOL     OW38140   0.915   2.964  10.571  0.2830  0.3673  0.0449
 8894SOL    HW138141   0.962   2.883  10.553 -0.8602 -0.7751  2.1722
 8894SOL    HW238142   0.843   2.938  10.628  1.6543 -2.2141  0.5901
 8895SOL     OW38143   0.559   2.397  13.510 -0.3721  0.1771 -0.8085
 8895SOL    HW138144   0.586   2.415  13.420 -1.2579  1.1532 -0.8824
 8895SOL    HW238145   0.507   2.474  13.535 -1.5254 -0.9444  0.2259
 8896SOL     OW38146   1.697   3.159   7.816  0.2070 -0.3146  0.2766
 8896SOL    HW138147   1.762   3.189   7.753 -0.2586 -3.1646 -1.5301
 8896SOL    HW238148   1.667   3.081   7.769 -0.1101  0.8167 -1.4120
 8897SOL     OW38149   1.089   2.188   3.894  0.2298  0.5096 -0.6420
 8897SOL    HW138150   1.069   2.114   3.837  1.4084 -0.8381  0.7093
 8897SOL    HW238151   1.185   2.188   3.896  0.2148  1.8625  0.5735
 8898SOL     OW38152   2.465   0.608  16.241 -0.0198 -0.1372  0.0807
 8898SOL    HW138153   2.451   0.513  16.242  2.9865 -0.5424  1.7057
 8898SOL    HW238154   2.434   0.623  16.330  1.7904  0.1096  0.6668
 8899SOL     OW38155   0.227   2.203  11.594 -0.0011 -0.3284 -0.2620
 8899SOL    HW138156   0.291   2.272  11.579  0.1576 -0.7220 -1.4213
 8899SOL    HW238157   0.286   2.132  11.621  2.1211  1.5524 -0.0178
 8900SOL     OW38158   3.051   2.306   7.062 -0.0127 -0.1208 -0.3150
 8900SOL    HW138159   3.042   2.217   7.030 -0.4572  0.6530 -2.4033
 8900SOL    HW238160   3.121   2.292   7.125  1.1138  1.2178 -1.2512
 8901SOL     OW38161   1.403   2.749   8.396 -0.2036 -0.2118 -0.2358
 8901SOL    HW138162   1.413   2.654   8.403 -3.3596 -0.4792  0.7253
 8901SOL    HW238163   1.326   2.760   8.451 -0.6216  2.4855 -1.3770
 8902SOL     OW38164   1.698   2.252   7.715 -0.1807 -0.6481  0.2365
 8902SOL    HW138165   1.634   2.181   7.722 -0.1822 -0.5550  1.1797
 8902SOL    HW238166   1.742   2.223   7.635 -1.4419  0.9196 -1.0383
 8903SOL     OW38167   3.371   1.621   9.821  0.1739 -0.2339  0.4941
 8903SOL    HW138168   3.284   1.595   9.789  1.1211 -0.8284 -1.5722
 8903SOL    HW238169   3.351   1.709   9.852 -4.6693 -1.7703  1.8530
 8904SOL     OW38170   3.999   3.499  15.216  0.6951  0.1102  0.1721
 8904SOL    HW138171   4.040   3.558  15.153  0.2337  0.8665  0.5689
 8904SOL    HW238172   4.017   3.545  15.299  0.1931  0.9162 -0.1681
 8905SOL     OW38173   1.093   2.385   5.220 -0.1810 -0.5032  0.2435
 8905SOL    HW138174   1.044   2.459   5.184  0.5771 -0.0694  0.0993
 8905SOL    HW238175   1.079   2.322   5.149 -1.1522  0.0320 -0.0313
 8906SOL     OW38176   4.047   2.693   6.194 -0.7468  0.1997 -0.8471
 8906SOL    HW138177   4.101   2.702   6.272 -0.1817  1.6147 -1.4112
 8906SOL    HW238178   4.007   2.779   6.188  0.9164  0.9387 -1.1661
 8907SOL     OW38179   2.318   0.216   5.081  0.0153 -0.1025  0.1852
 8907SOL    HW138180   2.254   0.247   5.145 -1.8806  2.7753 -3.1142
 8907SOL    HW238181   2.350   0.140   5.131  1.7684 -0.2567 -1.1582
 8908SOL     OW38182   1.063   0.427   4.050 -0.0969  0.5401 -0.0687
 8908SOL    HW138183   1.087   0.433   4.142 -1.3626 -1.7035  0.3848
 8908SOL    HW238184   1.002   0.354   4.049  1.0395 -0.4043  1.7320
 8909SOL     OW38185   3.092   1.182   5.336 -0.3533 -0.1354 -0.0747
 8909SOL    HW138186   3.089   1.109   5.397 -0.6107  0.2866  0.4128
 8909SOL    HW238187   3.057   1.148   5.253  2.9264 -1.3973 -0.9446
 8910SOL     OW38188   4.059   1.147  11.346 -0.1166 -0.4828  0.2784
 8910SOL    HW138189   4.026   1.186  11.265  0.0920 -0.1601  0.3478
 8910SOL    HW238190   3.980   1.143  11.400  0.8336 -1.1244  1.6495
 8911SOL     OW38191   0.052   1.697   6.229  0.2757  0.0209 -0.2322
 8911SOL    HW138192   0.124   1.677   6.170 -0.5876  0.3209 -1.3945
 8911SOL    HW238193   4.704   1.707   6.168  0.3359 -0.4335 -0.3798
 8912SOL     OW38194   0.974   4.521   7.742 -0.4435  0.0791 -0.2312
 8912SOL    HW138195   0.900   4.471   7.775 -1.6711  0.9788 -1.6511
 8912SOL    HW238196   1.026   4.537   7.821 -1.7111 -0.1421  0.6442
 8913SOL     OW38197   0.902   0.160   4.714 -0.0384 -0.2017  0.4372
 8913SOL    HW138198   0.812   0.180   4.738 -0.5944 -1.0093 -1.0045
 8913SOL    HW238199   0.936   0.180   4.801  0.5243  1.5057 -0.1818
 8914SOL     OW38200   2.570   0.130   6.953  0.1797 -0.2325 -0.0319
 8914SOL    HW138201   2.553   0.223   6.963  0.9443 -0.5200  3.9366
 8914SOL    HW238202   2.664   0.128   6.969  0.0755 -1.3212  0.4655
 8915SOL     OW38203   2.490   3.983  16.750  0.3150 -0.4297 -0.8006
 8915SOL    HW138204   2.401   3.981  16.715  0.8698 -0.5457 -2.2178
 8915SOL    HW238205   2.510   3.899  16.792  1.4936  0.1141 -0.2872
 8916SOL     OW38206   2.705   3.190   2.304 -0.3515  0.3776 -0.3852
 8916SOL    HW138207   2.663   3.201   2.218 -2.4522 -0.6727  0.4981
 8916SOL    HW238208   2.798   3.185   2.285 -0.0573 -0.4274  1.2954
 8917SOL     OW38209   0.553   1.923   0.732  0.1129  0.0817 -0.1656
 8917SOL    HW138210   0.527   1.941   0.823 -0.6168  1.7330 -0.7107
 8917SOL    HW238211   0.644   1.895   0.743  1.4073  4.6008  0.3942
 8918SOL     OW38212   2.363   1.161   9.544  0.4894  0.5442 -0.0131
 8918SOL    HW138213   2.277   1.179   9.506  0.4292 -0.4278 -0.3541
 8918SOL    HW238214   2.367   1.250   9.577  1.0907  0.1903  0.8652
 8919SOL     OW38215   1.088   1.488   6.240  0.0373 -0.0760 -0.3497
 8919SOL    HW138216   1.048   1.539   6.311 -1.3800  1.5869 -2.3320
 8919SOL    HW238217   1.137   1.419   6.284 -1.5548 -2.1476 -1.8257
 8920SOL     OW38218   3.248   2.670   5.765 -0.2265  0.1025 -0.2484
 8920SOL    HW138219   3.247   2.613   5.688 -1.6063 -2.0950  1.3934
 8920SOL    HW238220   3.247   2.758   5.725 -1.4125 -0.4409 -1.4345
 8921SOL     OW38221   1.807   2.515   2.942  0.4514  0.8338  0.7863
 8921SOL    HW138222   1.870   2.579   2.911  0.6024  0.1611 -0.2792
 8921SOL    HW238223   1.837   2.485   3.027 -0.4239 -2.2587  0.0040
 8922SOL     OW38224   2.520   3.311   1.138  0.2374 -0.3313  0.4665
 8922SOL    HW138225   2.567   3.381   1.183  0.8547  0.7018 -1.8090
 8922SOL    HW238226   2.450   3.364   1.099 -0.3132 -2.4825 -1.5027
 8923SOL     OW38227   1.361   4.147  14.289  0.1091 -0.4038 -0.5173
 8923SOL    HW138228   1.454   4.164  14.301 -0.4077  0.4656  2.2008
 8923SOL    HW238229   1.358   4.122  14.197 -2.3411 -0.6955 -0.3657
 8924SOL     OW38230   1.817   2.859   8.771  0.9441 -0.2858  0.0541
 8924SOL    HW138231   1.880   2.791   8.795 -2.1603 -2.0110  3.2792
 8924SOL    HW238232   1.871   2.906   8.708 -1.3847  1.1069 -0.9109
 8925SOL     OW38233   0.209   0.700  11.344 -0.7030 -0.3056  0.1524
 8925SOL    HW138234   0.129   0.648  11.343 -1.7464  1.2798  1.2099
 8925SOL    HW238235   0.258   0.662  11.272 -0.3114 -0.2797  0.4017
 8926SOL     OW38236   2.904   0.603  12.150 -0.1457 -0.5444  0.5879
 8926SOL    HW138237   2.894   0.520  12.197 -0.9782 -0.4231  0.6312
 8926SOL    HW238238   2.888   0.670  12.217  0.5459 -0.4708  0.6774
 8927SOL     OW38239   3.512   2.768   2.522  0.0014  0.7929  0.1916
 8927SOL    HW138240   3.453   2.728   2.586  0.0212 -0.6511 -0.6942
 8927SOL    HW238241   3.535   2.851   2.564  1.2319 -0.0508  1.1665
 8928SOL     OW38242   0.095   3.919   8.831 -0.0475 -0.2623 -0.9684
 8928SOL    HW138243   0.074   3.911   8.924 -0.0695  0.4368 -0.9117
 8928SOL    HW238244   0.072   4.008   8.804 -1.7589 -0.3636  0.1319
 8929SOL     OW38245   4.352   3.921   3.105 -0.3401 -0.4807 -0.0541
 8929SOL    HW138246   4.375   3.875   3.025  0.1962 -1.3505  0.6121
 8929SOL    HW238247   4.316   4.006   3.077 -1.4837 -0.4102  1.5729
 8930SOL     OW38248   3.109   2.148  13.774  0.3519 -0.6834 -0.4894
 8930SOL    HW138249   3.154   2.135  13.857  0.9516 -5.0018 -1.4949
 8930SOL    HW238250   3.161   2.209  13.722 -0.8250  1.8582  1.3358
 8931SOL     OW38251   1.362   2.135   7.140 -0.1603  0.1031 -0.7240
 8931SOL    HW138252   1.435   2.179   7.097 -0.3040  0.4551 -0.6062
 8931SOL    HW238253   1.290   2.186   7.104 -1.4563 -1.5881 -0.5324
 8932SOL     OW38254   3.475   1.223   0.859 -0.3569  0.1884 -0.1534
 8932SOL    HW138255   3.382   1.233   0.836 -0.6664  0.2221  1.1067
 8932SOL    HW238256   3.524   1.287   0.808 -0.8623  0.5013 -0.2566
 8933SOL     OW38257   4.321   2.707  15.532 -0.3684  0.7492 -0.1265
 8933SOL    HW138258   4.385   2.646  15.569  1.9739  2.5786 -1.1103
 8933SOL    HW238259   4.241   2.686  15.579  0.8321  0.1776  1.6375
 8934SOL     OW38260   1.606   3.642   1.635 -0.2280  0.1987 -0.2380
 8934SOL    HW138261   1.608   3.602   1.723 -0.7037  0.4537 -0.1084
 8934SOL    HW238262   1.557   3.723   1.649 -0.9428 -0.2469 -0.1114
 8935SOL     OW38263   1.810   4.492   6.011 -0.0104 -0.4224  0.2541
 8935SOL    HW138264   1.786   4.440   5.934  0.2664  0.8281 -0.6816
 8935SOL    HW238265   1.905   4.499   6.008 -0.2144  2.1169 -0.6012
 8936SOL     OW38266   3.976   3.915  16.907 -0.3897  0.4432 -0.2901
 8936SOL    HW138267   4.054   3.958  16.941 -0.2403  0.0163 -0.0840
 8936SOL    HW238268   3.919   3.933  16.982  0.2092  2.2111 -0.2566
 8937SOL     OW38269   0.122   1.614   5.104  0.7630 -0.3413 -0.3067
 8937SOL    HW138270   0.049   1.568   5.145 -0.5294  0.0459 -2.1849
 8937SOL    HW238271   0.067   1.639   5.030 -1.6784  0.8862  1.9207
 8938SOL     OW38272   3.422   3.016  10.567  0.3397 -0.1050  0.5988
 8938SOL    HW138273   3.510   3.042  10.592  0.1935  0.1106  0.8870
 8938SOL    HW238274   3.437   2.938  10.514 -0.8947 -0.6061  0.9833
 8939SOL     OW38275   1.737   3.999   6.197 -0.1539  0.3363  0.7276
 8939SOL    HW138276   1.727   3.904   6.207 -4.4079  0.7516  0.5205
 8939SOL    HW238277   1.708   4.009   6.107 -1.4663  1.7364  1.2983
 8940SOL     OW38278   2.411   3.523   0.438  0.0413  0.1344 -0.7372
 8940SOL    HW138279   2.393   3.538   0.531 -0.2322 -1.5726 -0.5200
 8940SOL    HW238280   2.392   3.430   0.426 -0.5953 -0.1334  2.5986
 8941SOL     OW38281   0.344   4.096   9.927  0.2201  0.1368  0.2169
 8941SOL    HW138282   0.283   4.103   9.854 -0.7542  0.9528  1.1090
 8941SOL    HW238283   0.429   4.123   9.892 -0.2722  3.2375  1.4109
 8942SOL     OW38284   1.932   2.325   7.117  0.2514 -0.2272  0.6669
 8942SOL    HW138285   1.974   2.382   7.182  2.3780  0.5390 -1.3960
 8942SOL    HW238286   1.954   2.238   7.150 -0.8003 -1.0086 -0.7137
 8943SOL     OW38287   2.302   3.195   8.450 -0.6656  0.3720  0.0980
 8943SOL    HW138288   2.267   3.145   8.377 -0.4918 -0.0047  0.2713
 8943SOL    HW238289   2.323   3.125   8.513 -0.4558  1.3902  1.1704
 8944SOL     OW38290   1.461   3.864   6.920  0.1841 -0.0707  0.0391
 8944SOL    HW138291   1.408   3.789   6.944  1.8095 -1.4785 -0.7757
 8944SOL    HW238292   1.551   3.832   6.925 -0.3480 -1.6227 -0.4880
 8945SOL     OW38293   0.995   3.884   6.995 -0.2496  0.4547 -0.3512
 8945SOL    HW138294   0.906   3.908   7.022  0.0105 -0.2566  1.1943
 8945SOL    HW238295   0.970   3.834   6.918  0.6813 -0.1968 -0.2312
 8946SOL     OW38296   0.889   2.196   4.756  0.9379 -0.2347 -0.3735
 8946SOL    HW138297   0.878   2.105   4.784 -2.0454  0.3976  0.5182
 8946SOL    HW238298   0.906   2.175   4.664  1.4202  3.0391 -1.0064
 8947SOL     OW38299   2.098   1.297   8.311 -0.1590  0.0294 -0.2250
 8947SOL    HW138300   2.071   1.350   8.386  0.0832  2.0720 -1.5623
 8947SOL    HW238301   2.023   1.329   8.262  0.1224  1.7730  0.4650
 8948SOL     OW38302   2.417   4.090   6.351 -0.5993 -0.0473 -0.0150
 8948SOL    HW138303   2.370   4.092   6.267 -0.9095 -0.4864  0.1544
 8948SOL    HW238304   2.350   4.092   6.419 -0.3616  0.2260  0.2110
 8949SOL     OW38305   1.904   3.191   1.751 -0.3358 -0.2353  0.1249
 8949SOL    HW138306   1.929   3.260   1.690  3.4420 -0.9554  0.8377
 8949SOL    HW238307   1.980   3.191   1.809  0.1908  0.1317 -0.5632
 8950SOL     OW38308   4.178   1.685  15.847 -0.2168 -0.6752 -0.3435
 8950SOL    HW138309   4.236   1.609  15.840 -1.2055 -1.3824 -0.9044
 8950SOL    HW238310   4.087   1.654  15.850 -0.5049  0.1978 -0.2483
 8951SOL     OW38311   1.145   0.110   0.406 -0.1164 -0.0493 -0.2039
 8951SOL    HW138312   1.156   0.170   0.333  0.0063 -0.2885 -0.3823
 8951SOL    HW238313   1.158   0.027   0.360 -0.7883  1.0965 -2.4573
 8952SOL     OW38314   1.533   2.403   3.560  0.0821  0.2864  0.2941
 8952SOL    HW138315   1.533   2.397   3.465 -1.3889 -1.4668  0.4205
 8952SOL    HW238316   1.600   2.469   3.578 -0.7228  1.5535 -1.4121
 8953SOL     OW38317   1.932   0.590   7.024 -0.7172  0.1614 -0.0764
 8953SOL    HW138318   1.969   0.522   6.966 -1.2912 -1.2207  1.1796
 8953SOL    HW238319   1.998   0.659   7.019 -1.3994  0.7591 -0.9663
 8954SOL     OW38320   2.047   1.185   6.804  0.5341  0.3287 -0.4438
 8954SOL    HW138321   2.044   1.099   6.846 -0.4550 -0.4565 -2.0999
 8954SOL    HW238322   2.126   1.183   6.750  0.5525 -2.3259 -0.3236
 8955SOL     OW38323   0.289   0.281  15.368  0.0427 -0.0287  0.5945
 8955SOL    HW138324   0.343   0.356  15.342 -0.2099  0.0625  0.3263
 8955SOL    HW238325   0.333   0.213  15.317  1.0368 -0.1022  1.5604
 8956SOL     OW38326   3.851   2.674   3.679  0.0180  0.5694 -0.3011
 8956SOL    HW138327   3.805   2.650   3.599  0.9846  0.2892 -0.7763
 8956SOL    HW238328   3.770   2.697   3.725  0.9525  1.8917  0.6692
 8957SOL     OW38329   0.512   2.353   7.410  0.0224 -0.3076  0.2819
 8957SOL    HW138330   0.433   2.399   7.381 -0.0038 -0.4988  0.0468
 8957SOL    HW238331   0.533   2.395   7.493  0.4215 -1.9720  1.0152
 8958SOL     OW38332   4.472   2.695   8.533  0.6004  0.6416 -0.2415
 8958SOL    HW138333   4.487   2.781   8.572 -0.6084 -0.3854  2.4689
 8958SOL    HW238334   4.517   2.636   8.594 -2.5310 -0.6930  0.7686
 8959SOL     OW38335   1.409   4.290   2.429  0.3993  0.0328 -0.2488
 8959SOL    HW138336   1.454   4.243   2.359 -0.4107  0.6253 -1.1622
 8959SOL    HW238337   1.385   4.220   2.489 -0.9743  2.5572  2.1565
 8960SOL     OW38338   0.806   4.256   2.202  0.5529  0.2260  0.4357
 8960SOL    HW138339   0.728   4.206   2.181  3.0521 -3.3202 -0.3473
 8960SOL    HW238340   0.777   4.296   2.284 -2.1941 -0.7241 -0.0787
 8961SOL     OW38341   2.668   4.588  10.967 -0.2832  0.3351  0.4548
 8961SOL    HW138342   2.676   4.523  11.037  0.9687 -1.7199 -1.5751
 8961SOL    HW238343   2.648   4.666  11.019 -0.2678  0.3515  0.4359
 8962SOL     OW38344   0.050   3.087  12.530  0.0670 -0.7575  0.2681
 8962SOL    HW138345   0.085   3.098  12.442 -0.8126  1.4529  0.2020
 8962SOL    HW238346   0.052   3.180  12.554  0.8491 -0.8373  0.5068
 8963SOL     OW38347   0.423   2.687   7.783 -0.0386  0.5531  0.2696
 8963SOL    HW138348   0.380   2.658   7.703  0.7058 -0.0303  0.0746
 8963SOL    HW238349   0.362   2.675   7.856 -0.1007 -0.5643  0.0418
 8964SOL     OW38350   3.722   3.408   2.350  0.4182  0.7018 -0.0991
 8964SOL    HW138351   3.700   3.378   2.262 -1.1191 -1.5505  1.0620
 8964SOL    HW238352   3.816   3.395   2.362  0.4357  0.6790 -0.2540
 8965SOL     OW38353   1.636   1.509   5.933  0.0052 -0.1014 -0.1185
 8965SOL    HW138354   1.683   1.495   6.015  0.1048  2.0046  0.2006
 8965SOL    HW238355   1.697   1.571   5.893  0.0654 -0.2358 -0.2310
 8966SOL     OW38356   2.019   0.742  10.850 -0.5393 -0.0647  0.1038
 8966SOL    HW138357   1.985   0.831  10.838 -0.1414  0.2249  1.0709
 8966SOL    HW238358   2.113   0.760  10.854 -0.7820  1.1759  0.1221
 8967SOL     OW38359   1.511   0.063   9.312 -0.5868 -0.1806  0.2187
 8967SOL    HW138360   1.435   0.010   9.336 -1.1082  1.0812  1.3239
 8967SOL    HW238361   1.579   0.058   9.380  1.3214  0.3462 -1.6642
 8968SOL     OW38362   3.324   2.963   5.917  0.5872  0.1601  0.3055
 8968SOL    HW138363   3.319   2.968   5.821 -1.7426 -3.5598  0.2506
 8968SOL    HW238364   3.240   2.999   5.945 -0.3607 -2.1813  0.3879
 8969SOL     OW38365   2.787   0.238   2.796  0.0629  0.3453  0.0731
 8969SOL    HW138366   2.771   0.163   2.739 -3.3605  0.6303  0.6587
 8969SOL    HW238367   2.814   0.190   2.875 -4.1355 -0.4816  0.9810
 8970SOL     OW38368   1.320   3.833   3.707 -0.5634  0.6139  0.2133
 8970SOL    HW138369   1.238   3.788   3.684  0.1534  0.3286 -1.8238
 8970SOL    HW238370   1.375   3.789   3.642 -1.2126  0.6137 -0.3421
 8971SOL     OW38371   0.906   4.589   8.277  0.0026  0.4079 -0.2910
 8971SOL    HW138372   0.861   4.575   8.360  0.6133  1.0055  0.1387
 8971SOL    HW238373   0.984   4.635   8.308  0.6702 -1.8756  1.4128
 8972SOL     OW38374   0.077   4.541   4.980 -0.1761  0.3934 -0.1249
 8972SOL    HW138375   0.003   4.591   5.014 -0.4865  0.0176 -0.2454
 8972SOL    HW238376   0.038   4.453   4.980  1.1612 -0.2130  0.0104
 8973SOL     OW38377   0.270   1.800   8.325 -0.2965 -0.5734  0.3227
 8973SOL    HW138378   0.222   1.772   8.403 -0.9697  3.0539  1.2141
 8973SOL    HW238379   0.262   1.895   8.317 -0.4388 -0.6148 -0.0295
 8974SOL     OW38380   1.569   2.574   4.023  0.0054  0.3249  0.0796
 8974SOL    HW138381   1.529   2.491   3.999 -0.5939  0.4513  0.6438
 8974SOL    HW238382   1.651   2.551   4.067 -0.1849  1.3509  0.9842
 8975SOL     OW38383   3.935   2.801   4.102  0.3833  0.1603  0.0257
 8975SOL    HW138384   3.965   2.878   4.053  1.0794  0.4631  0.9363
 8975SOL    HW238385   4.010   2.742   4.099 -1.1674 -1.7865 -0.3302
 8976SOL     OW38386   1.350   1.798   7.760  0.6359  0.8359 -0.3065
 8976SOL    HW138387   1.265   1.754   7.763  1.9200 -1.5674  0.4352
 8976SOL    HW238388   1.420   1.742   7.794 -1.4476 -1.3204  0.4222
 8977SOL     OW38389   2.009   1.152   6.447  0.3449 -0.5064 -0.4973
 8977SOL    HW138390   2.097   1.136   6.483  0.2681 -0.2193 -0.1753
 8977SOL    HW238391   1.960   1.114   6.520 -0.7818  2.6785  0.4255
 8978SOL     OW38392   1.503   1.684   1.198 -0.0157  0.3815  0.3742
 8978SOL    HW138393   1.419   1.639   1.197 -1.0521  2.3332 -1.6802
 8978SOL    HW238394   1.518   1.700   1.291 -1.2576 -2.3366  1.0209
 8979SOL     OW38395   2.157   4.669   9.914  0.1237  0.4884  0.2786
 8979SOL    HW138396   2.108   0.026   9.920 -0.3477  0.0194  2.9556
 8979SOL    HW238397   2.204   4.666   9.997 -2.7944  1.4468  1.9466
 8980SOL     OW38398   4.159   0.118  13.873 -0.1268  0.2482 -0.1303
 8980SOL    HW138399   4.241   0.092  13.832  0.8100  0.8759  1.3474
 8980SOL    HW238400   4.158   0.209  13.842 -2.1280  0.3365  0.1793
 8981SOL     OW38401   1.644   4.380  15.728  0.2214 -0.2957  0.0521
 8981SOL    HW138402   1.639   4.293  15.769 -2.2663 -0.3621 -0.3896
 8981SOL    HW238403   1.738   4.392  15.742  0.0639 -0.1779  1.0342
 8982SOL     OW38404   1.725   2.211   7.411 -0.8177 -0.1217 -0.3255
 8982SOL    HW138405   1.658   2.149   7.382 -1.8949  0.5872  0.6188
 8982SOL    HW238406   1.677   2.294   7.397 -1.3595 -0.5175 -0.8494
 8983SOL     OW38407   2.240   4.157   7.750 -0.1551  0.2407  0.2967
 8983SOL    HW138408   2.311   4.094   7.740 -0.7367 -0.2200 -0.9514
 8983SOL    HW238409   2.289   4.237   7.733  0.8966 -0.2660  0.9275
 8984SOL     OW38410   3.183   0.412   3.312 -0.0564 -0.5804  0.8111
 8984SOL    HW138411   3.250   0.361   3.266  2.4155  0.7531  2.9150
 8984SOL    HW238412   3.111   0.355   3.288  0.2104 -0.5578 -0.0590
 8985SOL     OW38413   1.150   1.649   0.309 -0.3130 -0.0394 -0.0891
 8985SOL    HW138414   1.092   1.577   0.335  1.1413 -1.4482 -0.7593
 8985SOL    HW238415   1.239   1.620   0.294 -0.6174 -0.7386 -0.5521
 8986SOL     OW38416   4.518   2.620   3.588 -0.3483 -0.0313 -0.2117
 8986SOL    HW138417   4.573   2.650   3.661 -0.3213 -1.6599  0.4375
 8986SOL    HW238418   4.440   2.584   3.630 -0.0877  1.1071  1.2525
 8987SOL     OW38419   1.499   0.596   5.548  0.3072 -0.1940 -0.2691
 8987SOL    HW138420   1.462   0.529   5.490 -1.5669  0.2769  0.3900
 8987SOL    HW238421   1.439   0.669   5.535  0.9083  0.1345 -1.2368
 8988SOL     OW38422   0.606   3.076   5.640  0.0486  0.4416 -0.3513
 8988SOL    HW138423   0.591   3.118   5.555  0.7004  0.1982 -0.5859
 8988SOL    HW238424   0.548   3.126   5.698  0.6475 -0.8739  1.3925
 8989SOL     OW38425   3.342   1.983   0.195  0.3784  0.3085 -0.4002
 8989SOL    HW138426   3.289   2.007   0.120 -0.6299  1.4750  0.6780
 8989SOL    HW238427   3.395   2.063   0.198 -1.0840  1.2496  0.3094
 8990SOL     OW38428   4.410   4.442   2.934  0.6751 -0.0982  0.2123
 8990SOL    HW138429   4.460   4.449   2.853  1.2118 -1.8943  0.4027
 8990SOL    HW238430   4.321   4.462   2.904  0.9703  1.4917  0.4021
 8991SOL     OW38431   4.060   3.752  14.432  0.2839 -0.3543 -0.0997
 8991SOL    HW138432   4.156   3.758  14.435  0.5134 -4.3621  0.3366
 8991SOL    HW238433   4.059   3.689  14.360 -1.6399  0.6362 -0.9334
 8992SOL     OW38434   1.752   1.183   8.842  0.1260  0.2754  0.1714
 8992SOL    HW138435   1.836   1.225   8.823 -0.3388  1.5203  0.8302
 8992SOL    HW238436   1.701   1.221   8.771 -1.3415 -0.8693  0.6118
 8993SOL     OW38437   2.251   3.001   0.635  0.1226  0.0776 -0.6196
 8993SOL    HW138438   2.308   2.940   0.588  1.1284  1.0487 -0.6863
 8993SOL    HW238439   2.165   2.999   0.593  0.0461 -0.0982 -0.4521
 8994SOL     OW38440   2.163   1.513  17.338 -0.1732 -0.0528  0.2306
 8994SOL    HW138441   2.140   1.454  17.267  0.3238  0.4500 -0.3531
 8994SOL    HW238442   2.096   1.581  17.331  0.6645  1.0239  2.6677
 8995SOL     OW38443   4.283   1.710   3.251 -0.5346  0.4481  0.4331
 8995SOL    HW138444   4.320   1.639   3.198 -0.8541  1.0646 -0.6202
 8995SOL    HW238445   4.336   1.787   3.229 -2.2269  2.3016  2.8553
 8996SOL     OW38446   2.651   3.980   2.389 -0.6463  0.3627 -0.0265
 8996SOL    HW138447   2.677   4.066   2.422  1.4743 -0.1484 -0.3323
 8996SOL    HW238448   2.562   4.007   2.366 -0.0550  1.8220 -0.5854
 8997SOL     OW38449   4.274   0.816  17.102  0.2939 -0.6043 -0.1535
 8997SOL    HW138450   4.307   0.760  17.031  2.5459  0.1113  0.3362
 8997SOL    HW238451   4.297   0.906  17.081 -0.0572 -0.4227  0.2259
 8998SOL     OW38452   2.023   1.069   8.102 -0.7490  0.4226  0.2519
 8998SOL    HW138453   1.992   1.157   8.079 -0.5091  0.0140 -1.6944
 8998SOL    HW238454   1.974   1.025   8.032  1.1881 -0.1871 -0.7082
 8999SOL     OW38455   0.011   4.092  12.124  0.0766 -0.1040  0.3122
 8999SOL    HW138456   0.011   4.015  12.181  0.0028 -0.3797 -0.0640
 8999SOL    HW238457   4.721   4.162  12.188 -1.7759 -0.4230  0.2102
 9000SOL     OW38458   3.042   0.660   2.390  0.0020  0.1322 -0.2388
 9000SOL    HW138459   3.070   0.743   2.354  0.5426 -0.4688 -1.1959
 9000SOL    HW238460   2.949   0.677   2.382  0.2918  0.9162 -1.9215
 9001SOL     OW38461   0.720   0.432   4.206  0.4974  0.1315 -0.3112
 9001SOL    HW138462   0.764   0.363   4.157  2.4366  1.5605 -0.5661
 9001SOL    HW238463   0.750   0.415   4.295  0.2512 -1.2805 -0.4944
 9002SOL     OW38464   1.627   1.933   8.892  0.2189  0.2122  0.2778
 9002SOL    HW138465   1.690   2.002   8.874 -1.1096  1.8606  1.9206
 9002SOL    HW238466   1.555   1.960   8.834  0.3479 -2.6472 -1.2482
 9003SOL     OW38467   3.028   3.164   8.049  0.6694  0.4009 -0.0425
 9003SOL    HW138468   2.975   3.243   8.061  1.0017  0.5708  0.3008
 9003SOL    HW238469   3.061   3.146   8.137 -1.0358  1.2158  0.7694
 9004SOL     OW38470   0.782   2.829   9.025 -0.4080  1.1045 -0.7785
 9004SOL    HW138471   0.773   2.924   9.021  0.4419  1.2431  0.7615
 9004SOL    HW238472   0.746   2.813   9.113  0.2894 -1.4509 -0.9726
 9005SOL     OW38473   0.479   1.091  10.532  0.1611  0.6099 -0.1754
 9005SOL    HW138474   0.534   1.014  10.515 -0.1448  0.4480 -0.4157
 9005SOL    HW238475   0.404   1.057  10.581 -1.5018  1.6627 -1.9936
 9006SOL     OW38476   4.716   4.543   0.034  0.0341 -0.2257  0.0644
 9006SOL    HW138477   4.639   4.489   0.051  1.8211 -2.5182  0.8452
 9006SOL    HW238478   4.691   4.604  17.666 -0.6174 -1.0142 -0.4074
 9007SOL     OW38479   0.475   3.225   4.090  0.3235 -0.5268 -0.0387
 9007SOL    HW138480   0.511   3.161   4.152  1.2718  1.6657  1.6531
 9007SOL    HW238481   0.518   3.190   4.012 -1.2126 -3.2092  0.3175
 9008SOL     OW38482   4.618   1.999   2.976 -0.3622  0.1553 -0.0830
 9008SOL    HW138483   4.604   2.090   2.950 -0.9614 -0.0381 -0.4566
 9008SOL    HW238484   4.537   1.984   3.025  0.2660 -1.2771  0.5159
 9009SOL     OW38485   2.800   2.184  11.354 -0.2610 -0.4277  0.1278
 9009SOL    HW138486   2.852   2.198  11.434  0.1662 -1.3052  0.0080
 9009SOL    HW238487   2.837   2.104  11.316  1.9792  0.3401  0.6880
 9010SOL     OW38488   0.593   4.391  10.008  0.3111 -0.2881 -0.3330
 9010SOL    HW138489   0.669   4.416  10.060 -1.0799 -1.0683  2.1177
 9010SOL    HW238490   0.628   4.352   9.928 -0.9845 -0.1035 -0.9865
 9011SOL     OW38491   3.941   2.019   8.210 -0.5597 -0.2118  0.2206
 9011SOL    HW138492   3.975   1.931   8.226 -0.7607 -0.2367  0.5014
 9011SOL    HW238493   3.955   2.073   8.287  0.4107 -0.7625  0.4343
 9012SOL     OW38494   2.625   4.467   2.057  0.2377  0.1099  0.2516
 9012SOL    HW138495   2.684   4.419   2.000  1.1778 -1.6606  2.7454
 9012SOL    HW238496   2.583   4.395   2.105  1.1052 -0.1443  0.6266
 9013SOL     OW38497   0.192   3.058   8.187 -0.1345  0.7010 -0.0652
 9013SOL    HW138498   0.125   3.037   8.122 -1.6386 -1.1596  2.0821
 9013SOL    HW238499   0.139   3.092   8.259 -1.5262 -3.6050  0.9511
 9014SOL     OW38500   0.579   3.125   2.668  0.5010 -0.3002  0.3168
 9014SOL    HW138501   0.573   3.212   2.630  1.8164  0.1023  1.0204
 9014SOL    HW238502   0.665   3.095   2.639  1.0785 -0.1698  1.9141
 9015SOL     OW38503   0.820   4.304   4.653 -0.3148 -0.7983 -0.4956
 9015SOL    HW138504   0.790   4.250   4.580  0.6387 -0.3186 -1.2474
 9015SOL    HW238505   0.916   4.299   4.646 -0.2953 -1.0697 -0.0632
 9016SOL     OW38506   0.652   3.432   7.582  0.2627  0.3704  0.2516
 9016SOL    HW138507   0.563   3.463   7.600 -0.0171 -0.3607  0.1129
 9016SOL    HW238508   0.698   3.444   7.666  1.0545  0.7164 -0.2347
 9017SOL     OW38509   0.512   3.337  15.658  0.1927  0.2826 -0.2296
 9017SOL    HW138510   0.441   3.316  15.597  1.7500 -0.5571 -1.7501
 9017SOL    HW238511   0.592   3.315  15.611  0.7526  0.5192  0.6200
 9018SOL     OW38512   4.704   3.403   5.955  0.5713  0.2730  0.3528
 9018SOL    HW138513   4.628   3.452   5.986  0.3115 -0.5714  1.0805
 9018SOL    HW238514   0.044   3.416   6.025  1.8390 -1.4172 -0.4905
 9019SOL     OW38515   4.340   4.479   2.659  0.1400 -0.1261  0.2837
 9019SOL    HW138516   4.288   4.536   2.602 -0.0319 -0.8790 -0.3137
 9019SOL    HW238517   4.427   4.486   2.619 -0.2089  0.2706 -0.4003
 9020SOL     OW38518   2.826   1.618   9.726  0.6652  0.5077 -0.4677
 9020SOL    HW138519   2.818   1.524   9.715  0.9313  0.6359 -1.7884
 9020SOL    HW238520   2.816   1.641   9.634  1.0578  2.0579 -0.1225
 9021SOL     OW38521   1.106   3.001  13.523  0.2163  0.0930  0.3798
 9021SOL    HW138522   1.041   2.944  13.482 -1.3512  1.9679  0.3010
 9021SOL    HW238523   1.180   2.991  13.462 -0.9337  0.7133 -1.0920
 9022SOL     OW38524   1.312   4.325   9.608  0.2009  0.1587 -0.0169
 9022SOL    HW138525   1.289   4.324   9.701  1.1596 -2.0538  0.1786
 9022SOL    HW238526   1.258   4.394   9.569 -1.0925 -0.8680 -0.0500
 9023SOL     OW38527   3.833   2.322   2.951  0.0730  0.4221 -0.0809
 9023SOL    HW138528   3.762   2.278   2.905  1.1887 -0.2079 -1.2093
 9023SOL    HW238529   3.847   2.396   2.893 -0.1159  0.5143 -0.0084
 9024SOL     OW38530   1.231   2.953   3.330  0.0007 -0.1758  0.0246
 9024SOL    HW138531   1.186   2.881   3.373 -0.7318 -0.1024 -0.6143
 9024SOL    HW238532   1.211   2.929   3.240  2.0141  0.4909 -0.6055
 9025SOL     OW38533   1.394   2.173   2.667 -0.0078  0.0019  0.0941
 9025SOL    HW138534   1.451   2.225   2.610  0.7356  0.1717  1.0079
 9025SOL    HW238535   1.452   2.100   2.687  2.3225  0.9977 -3.1956
 9026SOL     OW38536   2.298   1.474   1.792 -0.6844 -0.2494  0.1987
 9026SOL    HW138537   2.323   1.399   1.737  1.6778 -1.9133  3.5107
 9026SOL    HW238538   2.216   1.439   1.828 -0.7961 -0.5991 -0.4060
 9027SOL     OW38539   1.452   4.416   8.055 -0.4956 -0.6110  0.0532
 9027SOL    HW138540   1.449   4.458   7.969 -0.9764  2.1200  1.4017
 9027SOL    HW238541   1.429   4.490   8.112  0.2924  0.6737 -1.2844
 9028SOL     OW38542   3.889   3.894  11.595 -0.8926  0.2180 -0.5352
 9028SOL    HW138543   3.826   3.825  11.575  0.7827 -1.4563 -0.0424
 9028SOL    HW238544   3.969   3.848  11.570 -1.1586 -0.6329  0.1964
 9029SOL     OW38545   1.031   0.814   0.029  0.2615 -0.2862 -0.3316
 9029SOL    HW138546   1.007   0.894  17.684 -2.0725 -0.5875  0.3744
 9029SOL    HW238547   1.109   0.836   0.080  0.0045 -1.1178  0.4122
 9030SOL     OW38548   2.237   2.433   3.466  0.5724 -0.1666 -0.5142
 9030SOL    HW138549   2.194   2.504   3.514 -0.4921  0.3208 -2.1860
 9030SOL    HW238550   2.238   2.366   3.534  0.1869  0.0895 -0.2554
 9031SOL     OW38551   4.292   3.212   8.319  0.1759  0.2370  0.3108
 9031SOL    HW138552   4.355   3.272   8.360 -0.0190 -0.3426  1.4465
 9031SOL    HW238553   4.310   3.196   8.226  0.2055 -1.3351  0.5800
 9032SOL     OW38554   3.298   0.713   1.481  0.0844 -0.2915 -0.7147
 9032SOL    HW138555   3.312   0.784   1.544  1.3514 -0.8149 -0.4021
 9032SOL    HW238556   3.219   0.740   1.434 -2.0879 -1.1945  2.3789
 9033SOL     OW38557   2.757   4.692  13.520 -0.2338  0.4752  0.3054
 9033SOL    HW138558   2.732   4.684  13.428 -1.6095  0.8100  0.6565
 9033SOL    HW238559   2.729   0.058  13.520 -0.0238  0.5415  0.6547
 9034SOL     OW38560   3.510   4.051   1.677  1.0030 -0.3084  0.0760
 9034SOL    HW138561   3.537   4.135   1.715 -1.0903 -0.1482  1.2270
 9034SOL    HW238562   3.514   4.069   1.584 -0.2858 -2.0457 -0.3221
 9035SOL     OW38563   2.009   4.643   8.577  0.3035  0.4189  0.3117
 9035SOL    HW138564   1.979   4.603   8.659  1.0312  1.5085  1.1163
 9035SOL    HW238565   2.031   0.009   8.598  0.0865  0.3004  1.0771
 9036SOL     OW38566   2.468   1.812   8.427 -0.0611 -0.6101  0.5387
 9036SOL    HW138567   2.402   1.875   8.454 -0.9924 -1.9324  1.3401
 9036SOL    HW238568   2.516   1.809   8.509  0.0787  1.4882  0.5360
 9037SOL     OW38569   4.399   4.353  13.390 -0.0289  0.4620 -0.0359
 9037SOL    HW138570   4.432   4.308  13.468  1.3492 -1.6898 -1.8632
 9037SOL    HW238571   4.335   4.290  13.358 -1.8699  2.4061 -0.1267
 9038SOL     OW38572   3.910   3.858   7.986 -0.2787 -0.1206 -0.0244
 9038SOL    HW138573   3.960   3.797   8.039 -1.4270 -2.3485 -1.5295
 9038SOL    HW238574   3.977   3.922   7.961  0.4188 -1.3117 -1.2100
 9039SOL     OW38575   3.502   3.026   0.311  0.0534  0.4148 -0.2753
 9039SOL    HW138576   3.553   3.105   0.289 -2.2410  2.6628  2.5593
 9039SOL    HW238577   3.414   3.059   0.293 -0.5178 -0.1406  1.5023
 9040SOL     OW38578   2.198   0.166   4.836  0.1884 -0.3976  0.1029
 9040SOL    HW138579   2.246   0.173   4.919  0.4114  1.1278 -0.1561
 9040SOL    HW238580   2.275   0.168   4.779 -0.4600 -0.7354 -0.7662
 9041SOL     OW38581   2.313   3.513   1.074 -0.0470 -0.3832 -0.6935
 9041SOL    HW138582   2.250   3.521   1.146 -0.0386 -1.2226 -0.5921
 9041SOL    HW238583   2.261   3.545   1.001 -1.5861 -1.9296 -0.2896
 9042SOL     OW38584   3.803   3.971  13.770  0.5168  0.0238  0.5764
 9042SOL    HW138585   3.865   3.933  13.708 -1.5540 -1.1615 -0.7717
 9042SOL    HW238586   3.749   3.894  13.788 -0.3903 -0.0489 -2.4628
 9043SOL     OW38587   4.363   1.134   5.490  0.2464 -0.3237  0.0310
 9043SOL    HW138588   4.422   1.059   5.495  1.0880  0.3081 -0.5533
 9043SOL    HW238589   4.377   1.157   5.398 -0.5896 -1.8779 -0.4953
 9044SOL     OW38590   2.481   3.251   9.533  0.6458 -0.2514 -0.1750
 9044SOL    HW138591   2.391   3.274   9.555  0.1730  0.5412 -2.9558
 9044SOL    HW238592   2.531   3.327   9.564 -1.4154  0.6184  1.0371
 9045SOL     OW38593   2.864   0.681  11.259 -0.2451 -0.2608  0.0095
 9045SOL    HW138594   2.880   0.771  11.287 -0.2713 -0.5369  0.9199
 9045SOL    HW238595   2.770   0.669  11.272  0.1215 -2.1198  0.8558
 9046SOL     OW38596   0.243   1.689   4.815  0.3058  0.1209  0.1664
 9046SOL    HW138597   0.171   1.722   4.869  0.3308  0.2819  0.1014
 9046SOL    HW238598   0.207   1.620   4.759  2.0129 -0.2749 -0.4444
 9047SOL     OW38599   3.266   0.656   9.078  0.2460  0.2317 -0.0591
 9047SOL    HW138600   3.320   0.719   9.030 -1.1246  1.5558  0.1415
 9047SOL    HW238601   3.229   0.602   9.009 -1.1040 -1.6839  2.1855
 9048SOL     OW38602   0.508   4.415   0.733 -0.1011 -0.0119 -0.1683
 9048SOL    HW138603   0.593   4.383   0.763  0.5179 -0.0711 -1.9841
 9048SOL    HW238604   0.477   4.330   0.702  0.5147 -1.3440  2.8826
 9049SOL     OW38605   2.167   0.790   1.485  0.0463 -0.9190  0.3469
 9049SOL    HW138606   2.185   0.714   1.540  1.3825 -0.6125  0.3212
 9049SOL    HW238607   2.256   0.814   1.460  0.5277 -2.0849  0.9324
 9050SOL     OW38608   1.847   3.000  14.410 -0.1117  0.2650  0.8919
 9050SOL    HW138609   1.903   2.929  14.441 -0.6869 -0.9247 -0.7700
 9050SOL    HW238610   1.901   3.076  14.430 -1.0455  0.9830  0.6796
 9051SOL     OW38611   4.154   3.666   8.659  0.0099  0.2939 -0.8970
 9051SOL    HW138612   4.191   3.754   8.652  1.1475 -0.1237 -0.1499
 9051SOL    HW238613   4.070   3.685   8.618  0.6654  1.0187 -1.8838
 9052SOL     OW38614   4.208   3.587   5.574 -0.1036  0.0479 -0.1329
 9052SOL    HW138615   4.183   3.607   5.664 -0.6175  0.5605 -0.3876
 9052SOL    HW238616   4.143   3.523   5.545 -1.4016  0.4567  1.8925
 9053SOL     OW38617   4.693   3.933  16.048  0.1634  0.0974  0.6239
 9053SOL    HW138618   0.011   3.878  16.114 -1.5790  0.6933  2.2333
 9053SOL    HW238619   0.048   3.977  16.017 -1.4966  1.9877 -0.9387
 9054SOL     OW38620   3.321   3.087   0.600  0.1748 -0.9045  0.6044
 9054SOL    HW138621   3.332   2.992   0.591 -1.1336 -1.0313  0.3439
 9054SOL    HW238622   3.295   3.112   0.511 -0.2941 -1.9043  0.4602
 9055SOL     OW38623   0.326   3.635   8.124  0.1265 -0.2575  0.3787
 9055SOL    HW138624   0.268   3.608   8.053 -2.1243  2.5922  1.1336
 9055SOL    HW238625   0.394   3.569   8.116 -1.2956 -1.5381 -1.1031
 9056SOL     OW38626   4.691   4.478   5.510  0.4770  0.3605  0.5677
 9056SOL    HW138627   0.045   4.529   5.490 -0.2262  0.3383 -2.1964
 9056SOL    HW238628   0.005   4.394   5.485  1.0293  0.0746  2.3364
 9057SOL     OW38629   3.821   3.529  14.632 -0.2958  0.6739 -0.1944
 9057SOL    HW138630   3.816   3.622  14.610  1.9472  0.8516  0.0082
 9057SOL    HW238631   3.738   3.502  14.595 -1.0502  1.6882  0.7606
 9058SOL     OW38632   4.061   0.218   7.846  0.0327  0.1155  0.1077
 9058SOL    HW138633   4.008   0.141   7.825  1.1982 -0.7117  0.1790
 9058SOL    HW238634   4.135   0.162   7.871  1.0316  1.4874  0.2377
 9059SOL     OW38635   3.526   1.321   3.977  0.1846  0.2002 -0.0939
 9059SOL    HW138636   3.475   1.376   4.037  0.4724  2.1853 -1.6846
 9059SOL    HW238637   3.499   1.235   4.011  1.1004 -0.2088 -0.4007
 9060SOL     OW38638   4.439   2.006   4.806 -0.1474  0.2689 -0.5901
 9060SOL    HW138639   4.472   2.090   4.774  2.0122 -0.4817 -0.3719
 9060SOL    HW238640   4.404   2.032   4.892 -1.7048 -0.0325 -1.1375
 9061SOL     OW38641   4.369   3.075  11.278 -0.6658  0.2861 -0.0643
 9061SOL    HW138642   4.289   3.100  11.231 -1.1786 -1.7717 -0.2949
 9061SOL    HW238643   4.335   3.000  11.327 -0.4345  0.4464  0.3376
 9062SOL     OW38644   2.812   0.336   9.153 -0.1930  0.2890  0.0403
 9062SOL    HW138645   2.721   0.360   9.170 -0.0006  1.3218 -0.3668
 9062SOL    HW238646   2.863   0.407   9.191  2.3744 -1.7394  0.3923
 9063SOL     OW38647   3.661   0.159   3.268 -0.2668 -0.0266  0.7023
 9063SOL    HW138648   3.716   0.192   3.197 -1.1751  0.9473  0.4520
 9063SOL    HW238649   3.706   0.176   3.351  0.1182 -1.3401  0.7550
 9064SOL     OW38650   2.161   1.905   4.937  0.3933 -0.4345  0.1817
 9064SOL    HW138651   2.154   1.813   4.911  0.0302 -0.9867  2.2634
 9064SOL    HW238652   2.208   1.895   5.020  0.3602  0.4042  0.3011
 9065SOL     OW38653   2.724   4.237   6.129  0.2566 -0.2033 -0.0717
 9065SOL    HW138654   2.774   4.318   6.135  0.3161 -0.1804 -0.8393
 9065SOL    HW238655   2.779   4.187   6.190 -1.1090 -2.1606 -0.4411
 9066SOL     OW38656   0.983   2.021   9.580 -0.1362 -0.1909 -0.1572
 9066SOL    HW138657   1.024   1.936   9.569 -2.5057 -1.5882  1.7650
 9066SOL    HW238658   0.937   2.017   9.664 -0.2107 -1.4907 -0.2589
 9067SOL     OW38659   2.365   3.280  16.578 -0.2757  0.6649  0.1217
 9067SOL    HW138660   2.446   3.307  16.621  0.0965 -0.3360  0.0521
 9067SOL    HW238661   2.297   3.300  16.643 -0.1926 -0.2979  0.5214
 9068SOL     OW38662   2.829   3.051  13.064  0.5022 -0.2214 -0.1484
 9068SOL    HW138663   2.895   3.085  13.003  0.9766 -0.8024  0.0353
 9068SOL    HW238664   2.793   3.130  13.104 -2.4406 -2.1316  0.9327
 9069SOL     OW38665   0.972   2.577   8.542  0.0736 -0.0218 -0.0310
 9069SOL    HW138666   0.910   2.648   8.554 -2.9521 -2.7631  0.5063
 9069SOL    HW238667   0.901   2.515   8.556  0.5463 -0.5887 -0.1492
 9070SOL     OW38668   2.190   1.569   2.210 -0.0792  0.1087 -0.1786
 9070SOL    HW138669   2.255   1.637   2.191  0.2920 -0.4068 -0.7805
 9070SOL    HW238670   2.229   1.525   2.286 -0.8578  0.6290  0.5221
 9071SOL     OW38671   1.842   3.850  10.238  0.4801  0.0484 -0.3003
 9071SOL    HW138672   1.767   3.908  10.225  0.7032  0.9441  2.4991
 9071SOL    HW238673   1.889   3.845  10.155 -0.7905 -1.7415 -0.9286
 9072SOL     OW38674   0.904   2.386  16.496 -0.6711 -0.7423  0.2673
 9072SOL    HW138675   0.851   2.362  16.571 -0.6252 -1.1859  0.1553
 9072SOL    HW238676   0.890   2.481  16.502 -0.7274 -0.6890 -0.7174
 9073SOL     OW38677   2.593   2.890  15.244  0.2842 -0.3484  1.3343
 9073SOL    HW138678   2.541   2.958  15.201 -0.3923 -1.9443 -0.3680
 9073SOL    HW238679   2.657   2.944  15.290 -1.3376  4.1105 -1.6257
 9074SOL     OW38680   2.082   4.096   4.749  0.5281  0.0960  0.2713
 9074SOL    HW138681   1.998   4.132   4.777  0.9339  0.3506  1.1806
 9074SOL    HW238682   2.064   4.005   4.774 -2.1264  0.9240  1.3975
 9075SOL     OW38683   0.928   2.304   7.931  0.3781  0.0601 -0.0718
 9075SOL    HW138684   0.922   2.398   7.912 -2.2924  0.1795  1.2284
 9075SOL    HW238685   0.958   2.317   8.021  0.3786 -3.1552  0.3986
 9076SOL     OW38686   1.286   3.001   9.673 -0.3612  0.1756  0.0740
 9076SOL    HW138687   1.366   3.011   9.621 -0.1820  0.0355  0.3221
 9076SOL    HW238688   1.214   3.001   9.610  0.2339 -0.6016 -0.5952
 9077SOL     OW38689   4.383   0.219   5.311 -0.3357  0.0200 -0.4084
 9077SOL    HW138690   4.316   0.151   5.306  0.3105 -0.6233 -0.3056
 9077SOL    HW238691   4.346   0.287   5.254  0.9225  1.0735  0.0362
 9078SOL     OW38692   3.113   2.821  12.006 -0.4436  0.1368 -0.4520
 9078SOL    HW138693   3.087   2.899  12.056  0.0605  0.4006 -0.6018
 9078SOL    HW238694   3.131   2.868  11.924 -0.1956 -2.0237 -1.6369
 9079SOL     OW38695   1.521   4.697   8.269  0.7474  0.1211 -0.5062
 9079SOL    HW138696   1.443   4.654   8.233 -0.0015  0.5608  0.5827
 9079SOL    HW238697   1.538   0.038   8.202  0.6163  0.4811 -0.1891
 9080SOL     OW38698   3.891   3.210   6.362  0.4461  0.6026 -0.0430
 9080SOL    HW138699   3.886   3.258   6.280 -1.2460 -2.3338 -1.6444
 9080SOL    HW238700   3.820   3.146   6.357  0.6023  0.2840  1.6881
 9081SOL     OW38701   0.767   2.429   6.153 -0.2903 -0.2162  0.2348
 9081SOL    HW138702   0.718   2.348   6.172 -0.0075 -1.0554 -2.7280
 9081SOL    HW238703   0.797   2.430   6.063 -3.4629  2.4091 -0.7503
 9082SOL     OW38704   3.290   3.312   1.347  0.1760  0.0248  0.4850
 9082SOL    HW138705   3.369   3.277   1.386  0.7048 -1.0743 -1.5523
 9082SOL    HW238706   3.282   3.286   1.255 -0.2043  2.4812 -0.1879
 9083SOL     OW38707   2.162   2.994   5.877  0.7769 -0.3388  0.3174
 9083SOL    HW138708   2.084   3.043   5.903 -0.0989 -1.8632  0.5626
 9083SOL    HW238709   2.157   2.982   5.782  1.9576  1.5490  0.0135
 9084SOL     OW38710   2.928   3.799   8.100 -0.0159  0.2123 -0.9604
 9084SOL    HW138711   2.843   3.837   8.122  1.3508  1.5635  2.0647
 9084SOL    HW238712   2.991   3.854   8.147  0.4150  0.5010 -1.8908
 9085SOL     OW38713   2.046   2.100   8.521  0.0320  0.0962 -0.2021
 9085SOL    HW138714   2.099   2.170   8.483  0.2914 -2.0773 -3.8467
 9085SOL    HW238715   2.010   2.146   8.597  1.8627  0.7737  0.2539
 9086SOL     OW38716   2.085   1.713  11.106 -0.2340  0.7119 -0.0321
 9086SOL    HW138717   2.061   1.637  11.054  0.5000  0.0314  0.6168
 9086SOL    HW238718   2.007   1.716  11.161 -0.6102  1.4735 -0.6131
 9087SOL     OW38719   2.482   4.692   6.304  0.1858  0.0547  0.4243
 9087SOL    HW138720   2.537   4.653   6.236  0.8776 -1.3869  1.8383
 9087SOL    HW238721   2.390   4.668   6.288  0.4629 -0.2171 -0.7648
 9088SOL     OW38722   3.272   1.945   1.794  0.0501 -0.2444  0.6016
 9088SOL    HW138723   3.329   1.892   1.738  0.0973 -0.9606  1.3265
 9088SOL    HW238724   3.259   1.895   1.875 -1.7255 -0.9666 -0.1244
 9089SOL     OW38725   2.960   4.125  12.166 -0.7063  0.1626 -0.5791
 9089SOL    HW138726   2.997   4.071  12.097 -1.8784 -0.1176 -0.9788
 9089SOL    HW238727   3.032   4.185  12.186 -2.3945  1.8159  0.5755
 9090SOL     OW38728   2.708   0.469   7.211  0.0889  0.4869 -0.5174
 9090SOL    HW138729   2.653   0.494   7.286 -1.5231 -0.5811 -1.3415
 9090SOL    HW238730   2.724   0.377   7.232  1.5796  0.9159  0.1875
 9091SOL     OW38731   3.019   3.975   2.307 -0.1607  0.1329  0.3888
 9091SOL    HW138732   3.017   3.898   2.251 -0.3337  1.2047 -1.0828
 9091SOL    HW238733   3.103   4.015   2.285 -0.1883  1.1761  2.1611
 9092SOL     OW38734   0.592   4.434   9.186 -0.2199 -0.3942 -0.3805
 9092SOL    HW138735   0.552   4.349   9.203 -1.2100  0.5242  1.9111
 9092SOL    HW238736   0.681   4.416   9.216 -0.6509  3.5205  3.2771
 9093SOL     OW38737   2.050   1.037   7.175 -0.2439 -0.6012  0.5677
 9093SOL    HW138738   1.969   1.072   7.212  0.5017 -0.8376  2.4167
 9093SOL    HW238739   2.107   1.113   7.189 -2.4541  1.1054  0.3833
 9094SOL     OW38740   1.517   0.929   4.172  0.2640  0.4008  0.4016
 9094SOL    HW138741   1.601   0.895   4.143 -1.2600  0.1562 -3.7432
 9094SOL    HW238742   1.495   0.894   4.259 -1.0718  0.5003  0.0986
 9095SOL     OW38743   2.016   4.618   7.793  0.0514  0.3103  0.6472
 9095SOL    HW138744   2.064   4.669   7.858  1.2231 -0.4506  0.3926
 9095SOL    HW238745   2.089   4.586   7.739 -0.4935 -0.6263  0.4532
 9096SOL     OW38746   0.792   2.419   7.534  0.1291 -0.5440 -0.0149
 9096SOL    HW138747   0.818   2.349   7.593  1.6463 -0.4236 -0.5476
 9096SOL    HW238748   0.786   2.369   7.452  2.4126  1.3133 -1.3037
 9097SOL     OW38749   1.897   3.529   9.830  0.7927 -0.2415  0.1832
 9097SOL    HW138750   1.865   3.503   9.916 -0.3015 -0.6981 -0.3579
 9097SOL    HW238751   1.922   3.444   9.792 -3.6733 -1.4839  0.0125
 9098SOL     OW38752   2.357   2.926  13.834  0.0935 -0.4646  0.1112
 9098SOL    HW138753   2.402   2.876  13.903 -0.0413  1.3562  1.5155
 9098SOL    HW238754   2.358   3.016  13.865 -0.2371 -0.4638  0.1278
 9099SOL     OW38755   3.480   1.263   4.838 -0.3190 -0.3182 -0.1448
 9099SOL    HW138756   3.426   1.186   4.856  1.4778 -1.7954 -1.0496
 9099SOL    HW238757   3.493   1.255   4.743  1.3307 -2.3094  0.2452
 9100SOL     OW38758   0.184   4.019  16.377 -0.0478  0.2503  0.0838
 9100SOL    HW138759   0.208   4.082  16.444  2.9601 -0.4923 -0.3194
 9100SOL    HW238760   0.107   4.058  16.335 -0.5349  0.3250  1.0467
 9101SOL     OW38761   0.154   2.465   7.379 -0.3542 -0.4158 -0.3006
 9101SOL    HW138762   0.090   2.412   7.332 -3.8314  2.3520  1.3332
 9101SOL    HW238763   0.219   2.496   7.316 -0.7503  0.7006 -0.1622
 9102SOL     OW38764   3.825   1.284   3.368  0.0900  0.7471  0.0061
 9102SOL    HW138765   3.911   1.258   3.400 -0.4388 -1.6709 -0.5005
 9102SOL    HW238766   3.773   1.218   3.413 -0.9321  1.9339  0.5856
 9103SOL     OW38767   2.011   4.062  14.654 -0.1408  0.5407 -0.3584
 9103SOL    HW138768   2.101   4.090  14.672  0.4197 -0.4224 -1.6835
 9103SOL    HW238769   1.988   4.020  14.737  1.0328  2.1612  0.7854
 9104SOL     OW38770   3.448   0.738   3.149 -0.3264 -0.0833 -0.0164
 9104SOL    HW138771   3.433   0.703   3.062 -0.5664  0.0136 -0.0130
 9104SOL    HW238772   3.464   0.655   3.195  0.6858  0.0843 -0.0641
 9105SOL     OW38773   1.934   3.052   3.004  0.3807  0.2867  0.7717
 9105SOL    HW138774   1.912   3.055   2.911  1.1619  1.2798  0.6269
 9105SOL    HW238775   1.863   3.104   3.042 -1.0411 -0.6903 -0.5586
 9106SOL     OW38776   3.809   3.643  14.985 -0.0128 -0.2060  0.4097
 9106SOL    HW138777   3.727   3.693  14.979 -0.7737 -1.6349 -0.9278
 9106SOL    HW238778   3.867   3.718  15.001 -1.6517  0.3113  4.0247
 9107SOL     OW38779   2.341   3.937  10.341 -0.8852  0.8347  0.4534
 9107SOL    HW138780   2.314   3.858  10.389  2.4507 -0.5541  0.0180
 9107SOL    HW238781   2.332   3.999  10.413 -1.1713  0.6741  0.5578
 9108SOL     OW38782   1.176   3.861  10.559  0.2951  0.1586 -0.2908
 9108SOL    HW138783   1.130   3.784  10.593 -1.0916  0.8829 -0.5282
 9108SOL    HW238784   1.266   3.844  10.587  0.4398 -1.2984 -1.5586
 9109SOL     OW38785   0.518   3.462   3.132  0.0413  0.0722 -0.0160
 9109SOL    HW138786   0.511   3.520   3.207 -0.5038  1.3557 -1.0615
 9109SOL    HW238787   0.607   3.483   3.105  0.0745  0.6477  0.5413
 9110SOL     OW38788   3.867   2.025   9.057  0.1683  0.7685  0.1625
 9110SOL    HW138789   3.885   2.039   8.964 -0.3935 -3.1492 -0.5322
 9110SOL    HW238790   3.778   1.993   9.042 -0.1202  2.2678 -1.3026
 9111SOL     OW38791   0.678   2.452   5.310  0.3969 -0.0017  0.5408
 9111SOL    HW138792   0.631   2.518   5.259  0.5926 -0.5127 -0.3057
 9111SOL    HW238793   0.606   2.391   5.324  1.3595 -1.1995  0.3136
 9112SOL     OW38794   4.451   1.286  15.090  0.7350  0.2239  0.2071
 9112SOL    HW138795   4.386   1.228  15.128  1.4791 -0.3766  0.5741
 9112SOL    HW238796   4.529   1.256  15.138  0.6386  0.2362  0.3695
 9113SOL     OW38797   2.618   3.595  11.977  0.4646  0.7468 -0.0138
 9113SOL    HW138798   2.543   3.578  11.921  1.2210 -0.2539 -0.7353
 9113SOL    HW238799   2.635   3.510  12.017 -2.0883 -0.0854 -0.7187
 9114SOL     OW38800   0.495   2.608   1.034 -0.3003 -0.1666  0.5061
 9114SOL    HW138801   0.433   2.643   0.970 -0.2027 -2.4953 -0.8636
 9114SOL    HW238802   0.445   2.543   1.084  1.4260 -0.5416  1.7431
 9115SOL     OW38803   0.446   2.002  11.282 -0.3326  0.1646 -0.4840
 9115SOL    HW138804   0.480   2.026  11.196  0.4172 -0.1250 -0.2642
 9115SOL    HW238805   0.524   2.002  11.337 -1.3136  2.3986  0.8756
 9116SOL     OW38806   3.252   2.389   5.087 -0.2964 -0.5215  0.2525
 9116SOL    HW138807   3.321   2.329   5.113 -0.3668 -1.1386 -0.9989
 9116SOL    HW238808   3.298   2.473   5.094  0.2897 -0.8064 -0.2392
 9117SOL     OW38809   3.292   0.098   7.329  0.0780 -0.5223 -0.0395
 9117SOL    HW138810   3.327   0.011   7.308 -1.0742 -0.9493 -0.1768
 9117SOL    HW238811   3.269   0.123   7.239 -0.0662 -2.4007 -0.5344
 9118SOL     OW38812   0.633   2.038   7.826  0.5907 -0.0848  0.7007
 9118SOL    HW138813   0.561   2.085   7.783  0.3844  0.1678  1.3287
 9118SOL    HW238814   0.652   1.969   7.762 -0.8904 -0.1918  0.3659
 9119SOL     OW38815   4.208   3.959   3.818  0.1918 -0.4767  0.5608
 9119SOL    HW138816   4.286   4.007   3.790 -1.0695  0.1132 -1.8627
 9119SOL    HW238817   4.241   3.900   3.886 -1.2931  0.4748  2.1184
 9120SOL     OW38818   2.556   0.661   3.766 -0.3294 -0.0560  0.3372
 9120SOL    HW138819   2.625   0.620   3.817  0.0408  0.9667  0.6620
 9120SOL    HW238820   2.547   0.731   3.831  0.3298  0.7799 -0.4679
 9121SOL     OW38821   0.831   4.208  13.370 -0.4431 -0.7598 -0.1832
 9121SOL    HW138822   0.800   4.248  13.451 -2.2707  0.0637 -1.3117
 9121SOL    HW238823   0.919   4.246  13.371 -1.2302  1.0510 -0.7920
 9122SOL     OW38824   3.191   2.722  14.230 -0.4821  0.2123  0.3072
 9122SOL    HW138825   3.284   2.704  14.216 -0.1111  0.7869  2.0045
 9122SOL    HW238826   3.167   2.652  14.291 -3.2897  0.4061 -0.5832
 9123SOL     OW38827   3.678   2.523   0.057  0.2069  0.0918 -0.4212
 9123SOL    HW138828   3.711   2.440   0.023  1.2147  0.4920 -0.4198
 9123SOL    HW238829   3.593   2.498   0.093 -1.1726  2.6426 -1.8729
 9124SOL     OW38830   2.127   3.409   3.097  0.2350  0.1458 -0.1855
 9124SOL    HW138831   2.117   3.331   3.042  0.3249 -2.2268  3.1188
 9124SOL    HW238832   2.064   3.472   3.062 -2.4264 -0.8176  2.8844
 9125SOL     OW38833   3.964   0.372  11.208 -0.4845 -0.7693  0.9267
 9125SOL    HW138834   3.908   0.446  11.232  0.0575 -0.1452  0.2338
 9125SOL    HW238835   4.005   0.351  11.292  2.0401  0.1385 -0.0771
 9126SOL     OW38836   2.590   0.804  15.516 -0.3032  0.0360  0.3937
 9126SOL    HW138837   2.603   0.715  15.551  0.7187  0.5937  1.4547
 9126SOL    HW238838   2.497   0.789  15.498 -0.4884  0.6404  0.8414
 9127SOL     OW38839   3.793   3.996   6.982  0.4532  0.0591 -0.9016
 9127SOL    HW138840   3.882   4.017   6.955  0.7508  1.0299  0.8808
 9127SOL    HW238841   3.759   3.939   6.912  1.2118 -0.8554 -0.5226
 9128SOL     OW38842   1.213   0.705   3.528 -0.0950 -0.0605  0.4221
 9128SOL    HW138843   1.267   0.776   3.564 -0.4408  0.6840 -0.5146
 9128SOL    HW238844   1.170   0.755   3.458 -0.5320  1.4219  1.7409
 9129SOL     OW38845   2.167   0.904  13.058 -0.7324  0.1345  0.4642
 9129SOL    HW138846   2.129   0.953  12.985  0.4222 -1.2251 -1.0493
 9129SOL    HW238847   2.102   0.908  13.129 -0.4139  4.9592  0.4782
 9130SOL     OW38848   3.059   2.314  11.591  0.0131  0.0617 -0.4463
 9130SOL    HW138849   3.066   2.240  11.531 -1.1026 -0.4387  0.0544
 9130SOL    HW238850   3.148   2.347  11.606 -1.4081  3.7222  0.0922
 9131SOL     OW38851   1.133   4.526   9.512  0.2372 -0.3374  0.0472
 9131SOL    HW138852   1.057   4.581   9.492 -0.0561 -1.4600 -1.9603
 9131SOL    HW238853   1.112   4.517   9.605  0.0473 -2.3036 -0.1701
 9132SOL     OW38854   0.355   0.572  14.415  0.0892 -0.0613  0.0212
 9132SOL    HW138855   0.367   0.617  14.332  0.3177 -0.0501  0.0603
 9132SOL    HW238856   0.269   0.531  14.402  0.7450 -1.2524 -0.5501
 9133SOL     OW38857   3.260   4.000   5.113 -0.2850 -0.8056  0.1605
 9133SOL    HW138858   3.338   3.945   5.115 -0.4117 -1.0818 -2.4541
 9133SOL    HW238859   3.265   4.035   5.024 -1.7530 -1.1336 -0.0619
 9134SOL     OW38860   0.315   4.674   8.964 -0.5593  0.0145 -0.1538
 9134SOL    HW138861   0.336   4.653   8.873  1.3458 -2.2763  0.8333
 9134SOL    HW238862   0.397   4.691   9.010 -0.7735  1.2282 -0.2295
 9135SOL     OW38863   3.203   3.417   0.176 -0.3666  0.1079  0.2252
 9135SOL    HW138864   3.229   3.475   0.104  1.8358 -3.6777 -2.0472
 9135SOL    HW238865   3.120   3.384   0.141 -0.9362  0.1035  1.5630
 9136SOL     OW38866   0.748   2.362   9.347  0.1943  0.3798  0.0861
 9136SOL    HW138867   0.780   2.274   9.366 -0.0032  0.1563 -0.5881
 9136SOL    HW238868   0.656   2.361   9.376 -0.5066  0.1479 -2.1106
 9137SOL     OW38869   4.121   0.650   7.927  0.2302 -0.1417 -0.0391
 9137SOL    HW138870   4.058   0.695   7.870  0.2971 -0.2379 -0.1879
 9137SOL    HW238871   4.203   0.643   7.878 -0.3805  0.1875 -1.1027
 9138SOL     OW38872   1.432   3.364  14.057  0.1439 -0.1777 -0.7470
 9138SOL    HW138873   1.451   3.305  14.129  2.8764  1.4543 -0.1149
 9138SOL    HW238874   1.337   3.365  14.067  0.5637  0.2919  3.1195
 9139SOL     OW38875   1.300   2.279   3.092 -0.1577 -0.6291 -0.5998
 9139SOL    HW138876   1.287   2.337   3.017  0.0020 -1.5703 -1.3537
 9139SOL    HW238877   1.382   2.234   3.072 -0.2149 -1.3443  0.7967
 9140SOL     OW38878   2.891   3.509   7.248  0.2864 -0.0000 -0.1423
 9140SOL    HW138879   2.903   3.509   7.153  0.2826  1.0685 -0.1442
 9140SOL    HW238880   2.808   3.555   7.251  0.6900  0.8191 -1.4764
 9141SOL     OW38881   0.280   0.712  13.898  0.1592  0.2552 -0.0875
 9141SOL    HW138882   0.270   0.752  13.812  0.8360 -0.5077 -0.5277
 9141SOL    HW238883   0.334   0.636  13.874  0.4287  0.5693 -0.4677
 9142SOL     OW38884   4.518   4.672  16.444 -0.6170  0.2122  0.0652
 9142SOL    HW138885   4.599   4.634  16.477 -0.2875  1.2537  0.4714
 9142SOL    HW238886   4.485   4.713  16.524  0.8693 -0.2707  0.9226
 9143SOL     OW38887   0.281   1.303   8.108  0.5877  0.2570  0.3092
 9143SOL    HW138888   0.281   1.388   8.065  1.3160 -0.4531 -1.1013
 9143SOL    HW238889   0.295   1.241   8.036 -1.5024  0.6608 -0.4554
 9144SOL     OW38890   3.435   4.459   1.645  0.0242  0.2862 -0.0869
 9144SOL    HW138891   3.457   4.410   1.724 -1.9335  0.2864  0.4585
 9144SOL    HW238892   3.499   4.530   1.654  0.3098  0.3576 -2.6460
 9145SOL     OW38893   1.197   0.122   9.192  0.1656  0.4886  0.2204
 9145SOL    HW138894   1.228   0.040   9.229 -2.9362 -0.1741  1.3155
 9145SOL    HW238895   1.218   0.194   9.251 -0.8365 -0.9445  2.3042
 9146SOL     OW38896   0.857   3.801   5.191  0.0599 -0.0633  0.4424
 9146SOL    HW138897   0.794   3.744   5.236  1.3995 -1.3106  0.7344
 9146SOL    HW238898   0.787   3.841   5.139 -1.1606 -3.0746 -0.2704
 9147SOL     OW38899   0.869   3.042   4.027  0.5650 -0.2922 -0.2472
 9147SOL    HW138900   0.884   2.955   4.066 -0.6651 -0.3921  0.0056
 9147SOL    HW238901   0.849   3.102   4.099  1.0234  1.9403 -2.0037
 9148SOL     OW38902   1.412   1.187   7.649  0.3015 -0.3425 -0.2069
 9148SOL    HW138903   1.318   1.167   7.654  0.2674  0.1678  1.2656
 9148SOL    HW238904   1.447   1.105   7.684  0.2326 -1.1522 -2.0685
 9149SOL     OW38905   1.403   0.752   2.266 -0.0463  0.1633  0.7452
 9149SOL    HW138906   1.313   0.722   2.251  1.4949 -4.8365  1.3428
 9149SOL    HW238907   1.436   0.690   2.332  0.4349 -1.5846 -1.1228
 9150SOL     OW38908   0.829   1.584   8.041 -0.3448 -0.1593 -0.0534
 9150SOL    HW138909   0.740   1.563   8.013 -1.1719 -0.2569  2.6105
 9150SOL    HW238910   0.844   1.663   7.991  0.6498 -0.9728 -1.0374
 9151SOL     OW38911   0.170   4.486  10.770 -0.2519  0.1291 -0.1259
 9151SOL    HW138912   0.081   4.452  10.774 -0.0754 -0.3365 -0.1496
 9151SOL    HW238913   0.180   4.539  10.848  1.5631 -0.0787 -0.2056
 9152SOL     OW38914   1.302   2.935  13.350  0.3324 -0.2597 -0.6537
 9152SOL    HW138915   1.324   2.925  13.258 -0.0684  0.2332 -0.8023
 9152SOL    HW238916   1.364   2.877  13.394  0.9621  0.1803 -0.9694
 9153SOL     OW38917   3.543   0.971   6.739  0.3358  0.3422 -0.2060
 9153SOL    HW138918   3.592   0.963   6.657  1.9696 -1.6843  0.9544
 9153SOL    HW238919   3.500   1.056   6.731  1.2240  0.8382  0.1677
 9154SOL     OW38920   4.172   0.528  14.328  0.3449  0.5218 -0.3133
 9154SOL    HW138921   4.137   0.553  14.414 -1.0526 -1.4352 -0.3058
 9154SOL    HW238922   4.163   0.611  14.280 -0.7648  1.0480  0.7948
 9155SOL     OW38923   4.127   2.682   7.030 -0.1228 -0.1223  0.6566
 9155SOL    HW138924   4.168   2.636   6.956 -1.4946  2.5735 -1.7888
 9155SOL    HW238925   4.049   2.630   7.048  0.2925 -1.1043 -0.4065
 9156SOL     OW38926   2.866   0.259   0.624  0.6588 -0.5385  0.2533
 9156SOL    HW138927   2.914   0.230   0.547  1.6282 -0.6837  0.9161
 9156SOL    HW238928   2.930   0.315   0.667  0.7820 -1.2356  0.9801
 9157SOL     OW38929   0.827   4.608   9.466  0.5687 -0.4854  0.1926
 9157SOL    HW138930   0.855   4.619   9.375 -0.8092 -2.8498 -0.5018
 9157SOL    HW238931   0.789   4.693   9.489 -0.2263 -0.1308 -2.5272
 9158SOL     OW38932   0.601   0.006   6.403  0.2919  0.1837  0.4469
 9158SOL    HW138933   0.673   0.061   6.433 -1.2106  0.4886  3.4871
 9158SOL    HW238934   0.638   4.648   6.436  1.7706  0.4445 -0.5581
 9159SOL     OW38935   0.722   2.790  16.163 -0.0138  0.4154 -0.3878
 9159SOL    HW138936   0.644   2.834  16.130  1.1912  3.1664  0.4546
 9159SOL    HW238937   0.723   2.717  16.101 -0.2180  1.4665 -1.6286
 9160SOL     OW38938   2.148   2.333   5.521 -0.2242  0.1305  0.0416
 9160SOL    HW138939   2.180   2.409   5.473 -0.4351  0.4140  0.3502
 9160SOL    HW238940   2.070   2.368   5.564  0.4257 -0.1692  1.4712
 9161SOL     OW38941   3.334   2.403   8.009 -0.2542 -0.2761  0.1106
 9161SOL    HW138942   3.260   2.435   8.061 -0.6200 -0.3771 -0.3432
 9161SOL    HW238943   3.371   2.351   8.081 -0.4955  0.6014  0.8589
 9162SOL     OW38944   1.924   0.070  11.844  0.2224  0.2207  0.5554
 9162SOL    HW138945   1.933   0.165  11.851  0.4794  0.3146 -1.0549
 9162SOL    HW238946   1.950   0.046  11.933  1.9916 -0.3230 -0.1290
 9163SOL     OW38947   4.140   3.592   7.840  0.1511  0.0378  0.0315
 9163SOL    HW138948   4.226   3.552   7.858  1.0386  1.2525 -1.5025
 9163SOL    HW238949   4.166   3.683   7.854  2.1306 -0.4940 -0.1881
 9164SOL     OW38950   1.780   0.623  17.293 -0.6945  0.7804  0.0064
 9164SOL    HW138951   1.689   0.635  17.266 -0.5201  1.6611 -0.2082
 9164SOL    HW238952   1.837   0.639  17.217  1.2774  0.0838  1.3431
 9165SOL     OW38953   0.652   1.807  11.678  0.1856 -0.3424 -0.0583
 9165SOL    HW138954   0.659   1.716  11.650  2.5797 -0.0526 -0.4315
 9165SOL    HW238955   0.560   1.800  11.700  0.9358  0.6096  3.3206
 9166SOL     OW38956   2.774   3.408   6.651  0.0853 -0.3398 -0.0764
 9166SOL    HW138957   2.740   3.492   6.679 -0.9166 -1.6078  2.5338
 9166SOL    HW238958   2.856   3.409   6.699 -1.1265  1.8790  1.9474
 9167SOL     OW38959   1.176   2.915   2.358  0.2932  0.7449 -0.2007
 9167SOL    HW138960   1.086   2.937   2.382  0.3045  1.1925 -0.5658
 9167SOL    HW238961   1.182   2.852   2.430 -0.9972  2.0799  1.0852
 9168SOL     OW38962   0.356   4.499   4.981  0.2591  0.0835 -0.0208
 9168SOL    HW138963   0.332   4.410   5.007  0.5976  0.0106  0.0478
 9168SOL    HW238964   0.272   4.542   4.994  0.3644  0.0413  0.8652
 9169SOL     OW38965   2.952   2.093   6.418  0.4287  0.7401 -0.1350
 9169SOL    HW138966   2.985   2.019   6.468 -1.2892 -0.6615 -1.0658
 9169SOL    HW238967   2.858   2.082   6.405  0.7658 -0.8042 -1.2580
 9170SOL     OW38968   3.071   4.347   5.828 -0.3057  0.5297 -0.1775
 9170SOL    HW138969   3.162   4.329   5.849 -0.4038  1.5174  1.1128
 9170SOL    HW238970   3.044   4.392   5.908 -0.4850  1.2002 -0.6143
 9171SOL     OW38971   1.808   4.342   6.711 -0.2455 -0.0930  0.8736
 9171SOL    HW138972   1.881   4.365   6.653 -0.5899 -0.5637  0.2491
 9171SOL    HW238973   1.854   4.306   6.787 -0.0582  0.7338  1.1563
 9172SOL     OW38974   0.302   1.174   2.904 -0.3972 -0.1799 -0.2649
 9172SOL    HW138975   0.359   1.180   2.827 -1.4670  1.4519 -0.9248
 9172SOL    HW238976   0.264   1.086   2.905  0.5987 -0.5978  1.0392
 9173SOL     OW38977   1.171   1.396  17.680  0.6541 -0.1920  0.5192
 9173SOL    HW138978   1.103   1.375  17.615  1.3760  1.8279 -0.8941
 9173SOL    HW238979   1.133   1.471   0.024  3.1453  0.5276  1.3823
 9174SOL     OW38980   2.906   0.696   3.651  0.1992 -0.3468 -0.8822
 9174SOL    HW138981   2.975   0.703   3.717 -1.0351  0.5280  0.3155
 9174SOL    HW238982   2.927   0.622   3.594  0.8980 -0.5112 -0.3983
 9175SOL     OW38983   0.814   1.284   7.634  0.0327  0.0623  0.3165
 9175SOL    HW138984   0.801   1.198   7.594 -1.1141  0.6449 -0.5652
 9175SOL    HW238985   0.877   1.265   7.704 -0.1534  0.9427  0.7190
 9176SOL     OW38986   2.509   0.841   6.494 -0.2584  0.5802 -0.3640
 9176SOL    HW138987   2.423   0.801   6.483  1.2403 -2.4451 -1.0651
 9176SOL    HW238988   2.490   0.935   6.495  0.7900  0.7901 -0.2929
 9177SOL     OW38989   2.600   0.846   3.964 -0.6257 -0.5980 -0.1324
 9177SOL    HW138990   2.609   0.821   4.056 -0.6843 -0.6381 -0.1377
 9177SOL    HW238991   2.559   0.933   3.971  0.0148 -0.3014 -0.1007
 9178SOL     OW38992   2.558   4.673   9.778  0.2621 -0.0104  0.0299
 9178SOL    HW138993   2.613   4.595   9.783 -3.2624 -2.5999 -0.9426
 9178SOL    HW238994   2.503   4.649   9.853  1.8864 -1.4481  0.7471
 9179SOL     OW38995   3.635   2.136  14.360  0.3002 -1.1432 -0.9973
 9179SOL    HW138996   3.640   2.050  14.402 -2.1221 -0.8227 -0.0801
 9179SOL    HW238997   3.560   2.174  14.405  2.2276 -2.7238  3.5328
 9180SOL     OW38998   2.191   2.260   5.864  0.3048  0.1653  0.0691
 9180SOL    HW138999   2.199   2.354   5.882 -1.4875  0.4817 -0.8323
 9180SOL    HW239000   2.242   2.229   5.939 -0.5412 -0.4328  0.3915
 9181SOL     OW39001   3.637   0.889   7.608  0.0156 -0.4787 -0.0256
 9181SOL    HW139002   3.570   0.845   7.556  1.2892 -0.5044 -1.6460
 9181SOL    HW239003   3.705   0.880   7.541  1.3977 -0.5017  1.3896
 9182SOL     OW39004   0.255   3.447   7.211 -0.1334  0.3867 -0.2344
 9182SOL    HW139005   0.238   3.368   7.262  1.5646  0.7162  0.8220
 9182SOL    HW239006   0.187   3.510   7.235  0.2575  1.1306 -1.0808
 9183SOL     OW39007   0.992   1.893   0.320  0.0462 -0.0534  0.0464
 9183SOL    HW139008   1.049   1.819   0.303 -0.4967  0.0498 -2.2575
 9183SOL    HW239009   0.904   1.862   0.301 -0.2479  1.3531 -0.8866
 9184SOL     OW39010   2.813   1.524   2.446  0.6063 -0.2497 -0.3324
 9184SOL    HW139011   2.826   1.555   2.535 -1.0285 -0.2654 -0.1053
 9184SOL    HW239012   2.825   1.601   2.391  3.2084  0.0041  0.5655
 9185SOL     OW39013   0.215   3.689  13.204 -0.1449  0.0986 -0.5916
 9185SOL    HW139014   0.199   3.727  13.290 -0.2654  1.1535 -1.0648
 9185SOL    HW239015   0.275   3.618  13.226  0.9433  1.4834  0.9417
 9186SOL     OW39016   3.886   4.173  16.726  0.8803 -0.2057 -0.0774
 9186SOL    HW139017   3.833   4.210  16.655  1.4194  1.6100  0.4893
 9186SOL    HW239018   3.947   4.114  16.682 -0.9534 -0.2537 -2.5531
 9187SOL     OW39019   0.662   1.858  13.480 -0.0272  0.2646  0.1799
 9187SOL    HW139020   0.651   1.953  13.474 -1.0432 -0.0286 -2.4650
 9187SOL    HW239021   0.592   1.817  13.429 -0.8602  1.2861  0.5075
 9188SOL     OW39022   1.005   2.387   7.322  0.2877 -0.0234  0.2939
 9188SOL    HW139023   0.913   2.361   7.320  0.2034  0.2829  0.2469
 9188SOL    HW239024   0.996   2.469   7.273 -1.1901  0.0595  0.6984
 9189SOL     OW39025   0.522   2.092  16.372 -0.3932  0.1897  0.7744
 9189SOL    HW139026   0.526   2.136  16.287 -0.5660  0.1938  0.7682
 9189SOL    HW239027   0.464   2.157  16.412 -2.6879 -1.7744  0.5942
 9190SOL     OW39028   2.812   4.170   7.983  0.3689 -0.2860  0.2117
 9190SOL    HW139029   2.777   4.226   8.052 -1.1642 -1.2873  0.2532
 9190SOL    HW239030   2.899   4.179   8.022  0.2325  0.2959  0.3757
 9191SOL     OW39031   3.405   3.887   4.578  0.4494  0.6852  0.3312
 9191SOL    HW139032   3.405   3.914   4.486 -0.3198 -1.2676 -0.2465
 9191SOL    HW239033   3.396   3.792   4.577 -0.1572  0.7791 -4.5217
 9192SOL     OW39034   2.742   2.838  17.140  0.0008 -0.3204 -0.4490
 9192SOL    HW139035   2.834   2.845  17.166 -0.6896 -1.1162  2.1959
 9192SOL    HW239036   2.737   2.887  17.058  1.3544  0.2408 -0.2074
 9193SOL     OW39037   3.252   1.382   1.410  0.4911 -0.1954  0.8303
 9193SOL    HW139038   3.186   1.349   1.470 -0.8931  1.5552  0.2846
 9193SOL    HW239039   3.315   1.415   1.474  1.2710  1.7095 -0.9182
 9194SOL     OW39040   2.498   3.097   1.317 -0.0285 -0.5232 -0.5980
 9194SOL    HW139041   2.505   3.159   1.245 -0.4656 -1.7477 -1.6902
 9194SOL    HW239042   2.461   3.019   1.277 -0.8489 -0.3034 -0.2794
 9195SOL     OW39043   3.182   1.590   1.676  0.4644 -0.2307 -0.5840
 9195SOL    HW139044   3.168   1.495   1.668 -1.9425  0.0467  0.4922
 9195SOL    HW239045   3.131   1.606   1.755  0.9870  0.5954 -0.4129
 9196SOL     OW39046   4.327   1.258   8.356 -0.2501 -0.1906  0.1581
 9196SOL    HW139047   4.259   1.325   8.349  0.4271  0.3475 -1.2677
 9196SOL    HW239048   4.408   1.300   8.326  0.3471 -0.7653  0.9271
 9197SOL     OW39049   2.478   3.512   7.198  0.7692 -0.1285  0.2451
 9197SOL    HW139050   2.523   3.468   7.270 -0.8612 -2.4967 -0.1663
 9197SOL    HW239051   2.547   3.555   7.148 -0.6411  0.8433 -0.8792
 9198SOL     OW39052   4.649   0.747   0.504  0.1812  1.1694 -0.5805
 9198SOL    HW139053   4.705   0.674   0.529 -2.9705 -0.9857  0.2348
 9198SOL    HW239054   4.566   0.700   0.498 -0.0526  1.4167  0.7310
 9199SOL     OW39055   3.414   2.569   9.087  0.0066  0.1014 -0.2657
 9199SOL    HW139056   3.346   2.630   9.117 -0.0728  0.3608 -0.9698
 9199SOL    HW239057   3.377   2.483   9.108  1.5133 -0.0587  1.7387
 9200SOL     OW39058   2.655   3.135   5.707  0.0298 -0.6164  0.4694
 9200SOL    HW139059   2.595   3.147   5.781 -1.0232  0.8619 -0.6474
 9200SOL    HW239060   2.615   3.066   5.654 -0.2216  0.3408 -0.5717
 9201SOL     OW39061   0.328   1.184   8.602 -0.2573 -0.1080 -0.3519
 9201SOL    HW139062   0.266   1.114   8.585  0.5821 -0.7763 -0.6751
 9201SOL    HW239063   0.340   1.224   8.516  2.3356 -2.3242 -1.0262
 9202SOL     OW39064   3.935   3.898  13.561  0.1134 -0.3709  0.0487
 9202SOL    HW139065   4.028   3.878  13.553  0.3057 -0.0744  1.6066
 9202SOL    HW239066   3.916   3.936  13.475  1.7868  0.4161  0.0249
 9203SOL     OW39067   2.634   4.264   4.474  0.1141  0.1679  0.0559
 9203SOL    HW139068   2.539   4.265   4.487  0.0059 -1.0018 -0.6984
 9203SOL    HW239069   2.652   4.193   4.413  0.7957 -0.7175  1.2895
 9204SOL     OW39070   0.743   3.620   8.699 -0.1471 -0.2261  0.1388
 9204SOL    HW139071   0.674   3.666   8.651 -1.0755 -0.3254  1.3551
 9204SOL    HW239072   0.788   3.696   8.736  0.5942  0.4610 -2.2299
 9205SOL     OW39073   4.279   1.788  14.968  0.2403 -0.6710  0.2836
 9205SOL    HW139074   4.278   1.882  14.951  1.4719 -0.6217  0.5074
 9205SOL    HW239075   4.196   1.766  14.926 -0.8711 -0.8731  2.5653
 9206SOL     OW39076   0.619   1.934   6.936  0.3355  0.0173  0.2745
 9206SOL    HW139077   0.624   1.938   6.841  1.9799 -1.6780  0.2915
 9206SOL    HW239078   0.702   1.979   6.956  1.2746 -1.9617  0.8213
 9207SOL     OW39079   3.028   2.952   5.924  0.1256 -0.3493 -0.2850
 9207SOL    HW139080   2.973   2.882   5.888  0.0645 -0.4501  0.0103
 9207SOL    HW239081   3.100   2.893   5.945  1.3626  1.2911  0.0870
 9208SOL     OW39082   2.280   4.682   4.296 -0.2397 -0.2935  0.2710
 9208SOL    HW139083   2.358   4.677   4.350  1.3668  0.4217 -1.9509
 9208SOL    HW239084   2.230   0.024   4.342 -2.1415  0.5434 -2.9766
 9209SOL     OW39085   1.961   1.776   4.437 -0.0524 -0.0346 -0.5390
 9209SOL    HW139086   1.949   1.695   4.487  0.8647 -0.2457 -0.6627
 9209SOL    HW239087   2.046   1.799   4.472 -0.7556  1.2220  0.3311
 9210SOL     OW39088   2.766   3.902  16.301  0.0751  0.2100 -0.1236
 9210SOL    HW139089   2.710   3.970  16.336 -0.2338  0.0689 -0.3483
 9210SOL    HW239090   2.714   3.853  16.237  0.9692 -2.1733  0.9573
 9211SOL     OW39091   0.093   2.474   4.030  0.1557  0.7094 -0.5429
 9211SOL    HW139092   0.035   2.545   4.003  0.1339  0.1770 -1.9052
 9211SOL    HW239093   0.041   2.421   4.091 -0.5213  1.0714 -0.8135
 9212SOL     OW39094   0.525   0.677   5.194 -0.5156  0.2616 -0.3464
 9212SOL    HW139095   0.548   0.745   5.131  2.6441  0.2491  0.8117
 9212SOL    HW239096   0.612   0.648   5.221 -0.8371 -0.0814  0.3115
 9213SOL     OW39097   4.620   3.642   7.915  0.5991 -0.2936  0.1465
 9213SOL    HW139098   4.684   3.575   7.938 -1.6801 -2.9692 -1.3354
 9213SOL    HW239099   4.660   3.713   7.964  0.3618  0.7576 -1.1879
 9214SOL     OW39100   4.139   4.569  13.049  0.2653  0.0852  0.1857
 9214SOL    HW139101   4.173   4.552  12.961 -1.0587  0.3732 -0.3906
 9214SOL    HW239102   4.214   4.548  13.104 -0.3010 -0.1328  0.8729
 9215SOL     OW39103   3.082   2.528   3.377 -0.4836  0.3487  0.2470
 9215SOL    HW139104   3.047   2.548   3.290  2.3092  0.4929 -0.8337
 9215SOL    HW239105   3.150   2.463   3.357 -0.5999  0.5985 -0.9687
 9216SOL     OW39106   3.334   2.394   6.799  0.3571 -0.4608 -0.0594
 9216SOL    HW139107   3.330   2.482   6.836  0.0789 -0.7613  0.6289
 9216SOL    HW239108   3.359   2.337   6.872  0.5634  0.7926  0.8460
 9217SOL     OW39109   3.556   1.665  13.537  0.1647  0.1756 -0.2296
 9217SOL    HW139110   3.602   1.599  13.484  0.1703 -0.6236  0.7775
 9217SOL    HW239111   3.482   1.622  13.578 -0.5944  0.8770 -0.8710
 9218SOL     OW39112   0.844   1.221  11.700  0.2546  0.3551 -0.9102
 9218SOL    HW139113   0.749   1.230  11.690  0.1475  0.4127  0.1058
 9218SOL    HW239114   0.875   1.215  11.610  0.9072 -1.2774 -0.5882
 9219SOL     OW39115   2.111   3.069  10.307 -0.0096  0.2041  0.2191
 9219SOL    HW139116   2.195   3.088  10.348 -0.8842  0.3522  1.9539
 9219SOL    HW239117   2.087   2.985  10.347 -0.2993  1.1501  2.0357
 9220SOL     OW39118   0.656   2.028  11.436 -0.0887  0.2887 -0.6919
 9220SOL    HW139119   0.750   2.011  11.428  0.1761  1.0068  1.0387
 9220SOL    HW239120   0.651   2.043  11.530 -1.2571  1.9065 -1.0271
 9221SOL     OW39121   0.988   1.379   6.979  0.1885  0.2077  0.1407
 9221SOL    HW139122   0.942   1.451   7.021 -1.6420  0.5680 -2.4948
 9221SOL    HW239123   0.917   1.349   6.922 -1.1544 -1.3170  2.5992
 9222SOL     OW39124   1.616   0.796   1.038  0.4232  0.3865  0.8522
 9222SOL    HW139125   1.522   0.780   1.042  0.5126 -0.2218  0.5648
 9222SOL    HW239126   1.655   0.713   1.009  0.7778  1.3598 -1.4563
 9223SOL     OW39127   3.749   2.824   6.038 -0.2159  0.1593 -0.5155
 9223SOL    HW139128   3.830   2.780   6.014  0.6690  1.5582 -0.1121
 9223SOL    HW239129   3.697   2.816   5.958  0.9134 -0.6238 -1.1632
 9224SOL     OW39130   1.565   4.230  14.098 -0.3251 -0.3015  0.1001
 9224SOL    HW139131   1.652   4.201  14.126  0.5438  0.8287 -1.4106
 9224SOL    HW239132   1.579   4.324  14.112 -1.9731  0.0463 -0.5805
 9225SOL     OW39133   1.909   4.705   3.323 -0.0603  1.2209  0.6788
 9225SOL    HW139134   1.894   0.061   3.373  0.0596  0.2793  2.2512
 9225SOL    HW239135   1.996   4.679   3.356  0.6418  0.6474 -1.6625
 9226SOL     OW39136   2.034   0.976   5.358  0.1198  0.2740 -0.3548
 9226SOL    HW139137   1.996   1.062   5.377  0.2075  0.1600  0.3237
 9226SOL    HW239138   2.121   0.978   5.400 -0.6088 -0.8108  1.1971
 9227SOL     OW39139   2.023   2.396  16.834  0.4502 -0.2136  0.2397
 9227SOL    HW139140   2.100   2.437  16.873 -0.2864 -0.8682  2.3585
 9227SOL    HW239141   1.967   2.473  16.818  0.5629 -0.8446 -3.1931
 9228SOL     OW39142   3.159   3.403   2.214  0.0147  0.0687  0.2728
 9228SOL    HW139143   3.193   3.331   2.160 -1.0143 -0.5576  0.4511
 9228SOL    HW239144   3.215   3.476   2.188 -0.2638  0.6538  1.3413
 9229SOL     OW39145   4.559   3.298   4.833 -0.1274 -0.3635 -0.0595
 9229SOL    HW139146   4.557   3.216   4.785  0.9298 -1.7837  2.3244
 9229SOL    HW239147   4.464   3.306   4.845  0.3306  2.6456  1.8763
 9230SOL     OW39148   3.061   3.010  10.231 -0.2310 -0.1376 -0.3257
 9230SOL    HW139149   3.127   3.035  10.296 -2.2709 -1.4114  2.2104
 9230SOL    HW239150   2.995   3.078  10.245  0.0371  0.0164  0.1833
 9231SOL     OW39151   0.533   1.020  13.491  0.5936 -0.1198  0.2751
 9231SOL    HW139152   0.448   1.008  13.533 -0.0367 -1.7973 -1.4707
 9231SOL    HW239153   0.515   0.967  13.413  2.7715  2.0674 -1.7603
 9232SOL     OW39154   1.171   2.028  16.434  0.1183 -0.0434  0.8091
 9232SOL    HW139155   1.234   1.966  16.469  0.8558  0.0806 -0.3048
 9232SOL    HW239156   1.159   1.987  16.348 -2.3318  4.7941 -1.1849
 9233SOL     OW39157   2.882   4.254  12.571 -0.0245 -0.1067 -0.6062
 9233SOL    HW139158   2.908   4.228  12.659 -0.1431  1.8937  0.0049
 9233SOL    HW239159   2.863   4.164  12.542 -2.7581 -0.2996  1.7264
 9234SOL     OW39160   1.213   1.945   5.819  0.0690  0.5529  0.3071
 9234SOL    HW139161   1.247   1.908   5.738  1.8029  1.3615  0.6572
 9234SOL    HW239162   1.289   1.969   5.872  0.2855 -1.5049  0.9248
 9235SOL     OW39163   2.213   1.623   8.647 -0.1716  0.3947  0.0740
 9235SOL    HW139164   2.255   1.699   8.687 -1.6274  1.1281  0.1869
 9235SOL    HW239165   2.292   1.595   8.601 -0.4551 -2.2339  1.1702
 9236SOL     OW39166   0.560   3.453   8.925 -0.0542 -0.0187  0.1605
 9236SOL    HW139167   0.491   3.419   8.869  0.4459  0.2885 -0.6466
 9236SOL    HW239168   0.546   3.547   8.918  2.3028  0.2920 -0.6712
 9237SOL     OW39169   2.238   2.927   2.490  0.6296  0.4062 -0.1893
 9237SOL    HW139170   2.317   2.965   2.529  0.7411 -0.7492  0.7213
 9237SOL    HW239171   2.270   2.870   2.420  0.5142 -0.2055  0.2591
 9238SOL     OW39172   1.532   0.322  11.403  0.3982 -0.0284  0.2310
 9238SOL    HW139173   1.545   0.248  11.461  0.7960 -1.9433 -2.3094
 9238SOL    HW239174   1.547   0.287  11.316  0.4466  1.9435 -0.5690
 9239SOL     OW39175   3.636   2.271   8.619  0.1853  0.6655 -0.4278
 9239SOL    HW139176   3.684   2.353   8.616 -0.3247  1.0541  2.2498
 9239SOL    HW239177   3.633   2.253   8.525  0.9744 -2.5670  0.1693
 9240SOL     OW39178   0.357   4.130   3.884 -0.6368 -0.3556 -0.1445
 9240SOL    HW139179   0.400   4.058   3.930  0.6196 -1.0739 -2.4393
 9240SOL    HW239180   0.393   4.208   3.926 -4.7760  1.2515  0.4351
 9241SOL     OW39181   4.231   0.241   3.702  0.0715  0.4675 -0.4544
 9241SOL    HW139182   4.209   0.244   3.795  2.4656  1.4676  0.0876
 9241SOL    HW239183   4.326   0.228   3.704 -0.2362 -1.5928  0.5584
 9242SOL     OW39184   1.202   3.625   2.578 -0.0520  0.3713 -0.7970
 9242SOL    HW139185   1.148   3.662   2.507 -0.9463  0.0732 -0.2761
 9242SOL    HW239186   1.290   3.661   2.568  0.7281 -1.4253 -0.3688
 9243SOL     OW39187   3.886   3.254  15.466  0.3831 -0.2331 -0.1188
 9243SOL    HW139188   3.879   3.345  15.437  1.0248 -0.0767  0.2202
 9243SOL    HW239189   3.795   3.228  15.480 -0.5146  1.4716 -2.6712
 9244SOL     OW39190   1.990   0.889   7.463  0.3993  0.4200  0.3956
 9244SOL    HW139191   2.016   0.824   7.529 -0.3868 -0.8413 -0.5417
 9244SOL    HW239192   1.907   0.922   7.495 -0.4597  0.2187 -1.6397
 9245SOL     OW39193   0.925   2.834   2.481 -0.0066  0.6405 -0.1064
 9245SOL    HW139194   0.853   2.839   2.419  0.8527 -1.4640 -1.2472
 9245SOL    HW239195   0.897   2.752   2.521  0.4035  1.2187  1.3768
 9246SOL     OW39196   0.665   1.458   1.579  0.2553 -0.5026 -0.5023
 9246SOL    HW139197   0.605   1.517   1.532  0.4039 -0.4595 -0.6420
 9246SOL    HW239198   0.608   1.385   1.601 -1.2464  0.1461 -2.1992
 9247SOL     OW39199   3.783   4.688  12.134  0.1203 -0.0942  0.2323
 9247SOL    HW139200   3.788   0.033  12.198  0.6418 -0.0421  0.1305
 9247SOL    HW239201   3.689   4.675  12.150 -0.0304 -0.1574 -0.7027
 9248SOL     OW39202   2.523   0.961   9.434  0.5502  0.0855  0.1332
 9248SOL    HW139203   2.458   1.028   9.454 -1.5170 -3.1074  4.0563
 9248SOL    HW239204   2.603   1.011   9.414  1.4135 -1.6446 -0.7280
 9249SOL     OW39205   0.523   4.169   5.232  0.6310  0.1151 -0.7617
 9249SOL    HW139206   0.433   4.170   5.266  0.8787  0.3367 -0.0997
 9249SOL    HW239207   0.539   4.262   5.215 -3.0648  0.9682  0.2596
 9250SOL     OW39208   1.247   3.544   4.300  0.0231 -0.0674 -0.1488
 9250SOL    HW139209   1.175   3.571   4.244  0.7461  0.8734 -0.6163
 9250SOL    HW239210   1.210   3.521   4.386 -3.8443  1.9030 -1.2948
 9251SOL     OW39211   3.441   2.242   6.983 -0.3206  0.5122  0.1491
 9251SOL    HW139212   3.525   2.260   6.941 -0.6223 -1.0297 -1.1150
 9251SOL    HW239213   3.463   2.224   7.075 -1.3586  2.0419  0.6917
 9252SOL     OW39214   3.059   2.841   8.192 -0.1501  0.0904 -0.9855
 9252SOL    HW139215   3.136   2.887   8.225 -1.8763  2.9793 -0.8715
 9252SOL    HW239216   3.057   2.871   8.101  1.2913  1.0593 -0.7047
 9253SOL     OW39217   4.138   2.046  13.460  0.1963 -0.2701  0.1936
 9253SOL    HW139218   4.125   2.102  13.384  1.1943  0.5179  0.6021
 9253SOL    HW239219   4.078   2.098  13.513  0.3293 -1.0255  1.0852
 9254SOL     OW39220   2.955   2.764   1.990  0.3161  0.2766  0.1421
 9254SOL    HW139221   3.002   2.742   1.909 -0.7071 -0.2776 -0.2967
 9254SOL    HW239222   2.867   2.733   1.970 -0.4582  2.2120  0.5426
 9255SOL     OW39223   2.336   2.614   4.766 -0.5148 -0.2444  0.0696
 9255SOL    HW139224   2.332   2.625   4.861  0.6247  1.9610 -0.1417
 9255SOL    HW239225   2.316   2.703   4.737 -2.9747 -0.6239  0.5520
 9256SOL     OW39226   4.701   0.958   3.555  0.3733  0.5508 -0.0260
 9256SOL    HW139227   4.663   1.043   3.576 -0.6866  0.4528 -1.4885
 9256SOL    HW239228   4.684   0.951   3.461 -1.8199 -0.0963  0.4170
 9257SOL     OW39229   3.872   1.433   2.732 -0.3168 -0.3198 -0.5809
 9257SOL    HW139230   3.961   1.426   2.698  0.3724  0.7004  1.0266
 9257SOL    HW239231   3.881   1.476   2.817  0.2404 -1.4622 -0.0720
 9258SOL     OW39232   3.333   0.306  13.262  0.6257  0.4828  0.4087
 9258SOL    HW139233   3.368   0.254  13.190 -1.7853 -0.1787 -0.2756
 9258SOL    HW239234   3.268   0.243  13.292  1.1688 -1.0622 -1.6661
 9259SOL     OW39235   1.059   4.609   4.295  1.0962 -0.0179  0.0787
 9259SOL    HW139236   1.023   4.622   4.382 -0.8950  0.1241 -0.7684
 9259SOL    HW239237   1.148   4.645   4.289  0.4743  1.6430  1.0001
 9260SOL     OW39238   3.886   4.624   4.983  0.1490 -0.5029  0.2290
 9260SOL    HW139239   3.829   4.699   4.999  0.9175  0.2832 -0.6912
 9260SOL    HW239240   3.971   4.660   5.007  0.1414  1.4416 -2.7172
 9261SOL     OW39241   0.563   0.797  12.487 -0.0005 -0.3030  0.2524
 9261SOL    HW139242   0.629   0.838  12.542 -0.8481 -1.2533  1.9740
 9261SOL    HW239243   0.486   0.828  12.535  0.5455  0.2045  0.7902
 9262SOL     OW39244   4.593   3.298   5.213 -0.0880 -0.4068 -0.1505
 9262SOL    HW139245   4.559   3.268   5.297 -0.9513 -2.0323 -1.0734
 9262SOL    HW239246   4.524   3.248   5.169  0.8025  2.2402 -4.5656
 9263SOL     OW39247   2.821   1.311   7.917  0.1939  0.2865 -0.0465
 9263SOL    HW139248   2.776   1.292   7.835 -2.5536 -0.8048  1.6909
 9263SOL    HW239249   2.803   1.231   7.966 -2.5206  0.5905 -0.5610
 9264SOL     OW39250   2.604   2.819   6.832  0.2933  0.4282  0.3284
 9264SOL    HW139251   2.609   2.729   6.801 -0.3582  0.3654  0.4003
 9264SOL    HW239252   2.559   2.861   6.759 -0.2985 -2.7883 -1.1537
 9265SOL     OW39253   4.200   2.889  13.016 -0.6219  0.3771 -0.6258
 9265SOL    HW139254   4.166   2.897  13.105 -0.3110  2.7874 -0.7145
 9265SOL    HW239255   4.151   2.809  12.995  0.3920 -0.5332  0.4388
 9266SOL     OW39256   4.482   1.722   4.117 -0.6494 -0.2381 -0.1356
 9266SOL    HW139257   4.499   1.721   4.211 -0.2976 -1.0862 -0.2067
 9266SOL    HW239258   4.454   1.631   4.118 -0.8559 -0.1647  0.8713
 9267SOL     OW39259   1.571   0.846   8.589  0.5523 -0.5586 -0.1919
 9267SOL    HW139260   1.656   0.889   8.583 -0.6463  1.3184 -3.7625
 9267SOL    HW239261   1.547   0.872   8.678  0.8552  0.4334 -0.3952
 9268SOL     OW39262   1.174   3.775   4.926 -0.6793 -0.3664  0.4966
 9268SOL    HW139263   1.247   3.732   4.970 -0.8425 -0.6238  0.5153
 9268SOL    HW239264   1.164   3.837   4.998  2.2509  0.5234  0.1460
 9269SOL     OW39265   3.040   1.065  10.683  0.0333  0.2550 -0.2758
 9269SOL    HW139266   3.074   1.148  10.649  0.4969 -0.8140 -2.4076
 9269SOL    HW239267   2.963   1.044  10.630 -0.5855  2.9214 -0.4235
 9270SOL     OW39268   2.263   0.632   4.748 -0.0924 -0.5825 -0.0117
 9270SOL    HW139269   2.253   0.726   4.734 -1.9667 -0.8414 -0.4693
 9270SOL    HW239270   2.358   0.623   4.754 -0.1482  1.2615  3.4355
 9271SOL     OW39271   1.760   2.713   4.981 -0.2353 -0.1160  0.1668
 9271SOL    HW139272   1.702   2.672   4.918  1.8169  1.4598 -2.7320
 9271SOL    HW239273   1.710   2.773   5.036 -2.5013  0.4407 -2.5285
 9272SOL     OW39274   1.276   0.404   6.673 -0.3628 -0.1349  0.7253
 9272SOL    HW139275   1.292   0.381   6.582 -0.4822  0.1456  0.6357
 9272SOL    HW239276   1.193   0.362   6.693 -0.1415 -1.3430 -0.9535
 9273SOL     OW39277   4.240   1.389   3.662  0.2960  0.1528 -0.1944
 9273SOL    HW139278   4.154   1.425   3.682 -0.1376 -1.8812  1.6955
 9273SOL    HW239279   4.285   1.463   3.621 -1.5005  0.8660 -0.8437
 9274SOL     OW39280   2.605   0.637  12.402  0.4604  0.5834  0.6224
 9274SOL    HW139281   2.647   0.686  12.473  2.0036  0.2702 -0.0773
 9274SOL    HW239282   2.650   0.553  12.403  2.4472  1.6342  1.4930
 9275SOL     OW39283   1.836   3.089   8.166 -0.5880  0.5161  0.3106
 9275SOL    HW139284   1.797   3.052   8.087 -3.6270  0.8443  1.6850
 9275SOL    HW239285   1.752   3.103   8.209 -1.4849 -0.5889 -1.0822
 9276SOL     OW39286   4.628   2.303   0.280 -0.8328 -0.0071 -0.0020
 9276SOL    HW139287   4.684   2.355   0.223  0.0784 -0.7083  0.2467
 9276SOL    HW239288   4.694   2.268   0.340  0.2174 -0.2609 -1.3076
 9277SOL     OW39289   3.555   1.547   2.896  0.6092  0.0199  1.0034
 9277SOL    HW139290   3.555   1.454   2.918 -0.6765 -0.5070 -1.2347
 9277SOL    HW239291   3.642   1.570   2.929  1.6805 -1.9428 -0.5067
 9278SOL     OW39292   3.961   3.217   7.733  0.0436  0.1553 -0.7389
 9278SOL    HW139293   3.942   3.309   7.753 -1.3654 -0.5994  1.4317
 9278SOL    HW239294   3.904   3.177   7.799 -0.3422  0.2568 -1.0137
 9279SOL     OW39295   2.378   2.945  14.743 -0.2114 -0.2119 -0.2379
 9279SOL    HW139296   2.339   2.858  14.731 -1.6752  0.2393  1.1733
 9279SOL    HW239297   2.303   3.002  14.765  0.2293  0.7277 -1.1676
 9280SOL     OW39298   0.934   1.545   4.741  0.2322 -0.6277 -0.2637
 9280SOL    HW139299   0.980   1.601   4.803 -0.1635 -0.9103  0.2838
 9280SOL    HW239300   0.865   1.605   4.710  0.2653 -1.6062 -2.2288
 9281SOL     OW39301   0.512   1.816   5.374 -0.0668  0.0719  0.6376
 9281SOL    HW139302   0.447   1.788   5.310  0.7446  0.6237 -0.4383
 9281SOL    HW239303   0.465   1.809   5.457 -3.3278 -1.0012 -1.3428
 9282SOL     OW39304   0.528   3.906   5.111  0.0805  0.2194  0.6299
 9282SOL    HW139305   0.555   3.996   5.131 -0.6265  0.5901 -0.0676
 9282SOL    HW239306   0.434   3.923   5.113 -0.1941 -1.0289 -1.1886
 9283SOL     OW39307   0.561   3.379  16.958 -0.6623  0.4242  0.1635
 9283SOL    HW139308   0.579   3.289  16.983 -2.1523  0.1684  0.3321
 9283SOL    HW239309   0.625   3.435  17.002  0.7347  0.4875 -1.9681
 9284SOL     OW39310   3.801   3.268  14.074 -0.2545 -0.4083  0.4334
 9284SOL    HW139311   3.860   3.325  14.025 -0.2054 -1.8553 -1.1815
 9284SOL    HW239312   3.742   3.334  14.110 -0.8510 -0.8858  0.3266
 9285SOL     OW39313   1.888   1.642   6.420  0.4435  0.1828 -0.0263
 9285SOL    HW139314   1.919   1.712   6.362  1.6324 -3.5593 -3.8538
 9285SOL    HW239315   1.877   1.682   6.506 -0.2085  0.7969 -0.3983
 9286SOL     OW39316   1.995   1.822   6.241 -0.1029 -0.0779 -0.2614
 9286SOL    HW139317   1.989   1.844   6.148  2.6592 -1.6451 -0.8247
 9286SOL    HW239318   2.042   1.894   6.282 -0.0141 -0.6527  0.6559
 9287SOL     OW39319   1.196   2.137   2.434  0.0115 -0.6629  0.3301
 9287SOL    HW139320   1.285   2.104   2.427  0.5376  0.4727  1.7143
 9287SOL    HW239321   1.217   2.209   2.493  2.2203 -0.1169 -1.1194
 9288SOL     OW39322   0.626   2.061   9.587  0.4300 -0.8886 -0.0663
 9288SOL    HW139323   0.697   2.104   9.635  0.7657  0.9570 -2.1757
 9288SOL    HW239324   0.589   2.141   9.550 -2.1867 -1.8816  0.4675
 9289SOL     OW39325   3.970   2.082   3.833 -0.5503  0.1039  0.5165
 9289SOL    HW139326   3.976   2.109   3.741 -0.5392  0.0453  0.4998
 9289SOL    HW239327   3.876   2.069   3.838 -0.6561  0.9575  0.7201
 9290SOL     OW39328   3.480   2.826  17.130 -0.6001 -0.6874  0.3327
 9290SOL    HW139329   3.457   2.745  17.084 -1.2736 -0.7206  0.7184
 9290SOL    HW239330   3.575   2.826  17.124 -0.7253  2.5459 -1.4938
 9291SOL     OW39331   1.835   3.773  14.478  0.5944  0.6759  0.6654
 9291SOL    HW139332   1.877   3.858  14.485  0.3530  0.9616 -1.4196
 9291SOL    HW239333   1.761   3.797  14.422  0.2488  1.6207  1.5462
 9292SOL     OW39334   4.154   1.752   4.286 -0.2638 -0.2279 -0.1535
 9292SOL    HW139335   4.123   1.745   4.377  1.0755 -0.6932  0.2575
 9292SOL    HW239336   4.141   1.660   4.262  1.1436 -0.5411  0.2899
 9293SOL     OW39337   3.213   0.906   5.383  0.2473 -0.0211  0.2189
 9293SOL    HW139338   3.257   0.821   5.385 -0.7416 -0.4780  2.2704
 9293SOL    HW239339   3.272   0.955   5.440 -0.3103  1.6273 -0.6203
 9294SOL     OW39340   3.672   2.419   7.915 -0.0988  0.5196  0.0575
 9294SOL    HW139341   3.653   2.494   7.970  1.0121 -0.1898  1.4221
 9294SOL    HW239342   3.707   2.358   7.980 -0.6002  1.7080  1.4487
 9295SOL     OW39343   2.510   1.638   0.781  0.3785  0.4481  0.4506
 9295SOL    HW139344   2.490   1.642   0.875 -0.4480 -0.6364  0.3174
 9295SOL    HW239345   2.485   1.554   0.745 -1.1669  0.8114  0.6623
 9296SOL     OW39346   4.096   0.593  13.568 -0.2384  0.3433  0.6732
 9296SOL    HW139347   4.068   0.504  13.546  1.1052  0.3438 -1.0264
 9296SOL    HW239348   4.008   0.629  13.581  0.4296  2.7432 -1.5373
 9297SOL     OW39349   3.492   0.517   5.006  0.2074 -0.3534  0.2608
 9297SOL    HW139350   3.459   0.548   5.091 -1.4697 -1.0849 -0.1166
 9297SOL    HW239351   3.434   0.558   4.941 -0.5941 -1.9563 -0.0288
 9298SOL     OW39352   1.540   2.025   4.490  0.7786 -0.0028  0.2253
 9298SOL    HW139353   1.510   1.944   4.531 -0.6652 -0.5268 -1.8806
 9298SOL    HW239354   1.624   1.997   4.455  0.7948  0.2238  0.0841
 9299SOL     OW39355   2.610   3.344  14.153  0.4731 -0.0630  0.5319
 9299SOL    HW139356   2.669   3.334  14.228 -1.6500 -2.5839  1.8406
 9299SOL    HW239357   2.589   3.251  14.142  2.4061 -0.5483  0.9106
 9300SOL     OW39358   0.368   0.689   8.867 -0.6095 -0.2624 -0.2913
 9300SOL    HW139359   0.346   0.759   8.928 -1.1621 -0.5616 -0.1530
 9300SOL    HW239360   0.461   0.675   8.884 -0.9492 -0.8494  1.0068
 9301SOL     OW39361   3.785   1.795   9.918 -0.6971  0.5962  0.2466
 9301SOL    HW139362   3.745   1.720   9.963  1.0639 -0.9988 -0.8291
 9301SOL    HW239363   3.851   1.745   9.871 -0.0775 -0.5284  2.3214
 9302SOL     OW39364   1.024   1.960   8.922 -0.0976  0.0097  0.1485
 9302SOL    HW139365   1.108   1.913   8.916  0.4587  1.0867 -0.4932
 9302SOL    HW239366   0.973   1.912   8.857 -0.8388 -1.6342  1.9687
 9303SOL     OW39367   1.079   4.486   1.081  0.0538 -0.1471 -0.3141
 9303SOL    HW139368   1.098   4.392   1.082 -1.1132 -0.4032 -1.6543
 9303SOL    HW239369   1.126   4.509   1.001  1.0275  2.8427  1.1292
 9304SOL     OW39370   2.772   3.620  16.457 -0.0880 -0.1437 -0.0121
 9304SOL    HW139371   2.843   3.631  16.395 -1.1358  0.2388 -1.1467
 9304SOL    HW239372   2.707   3.570  16.407  1.6189 -1.0272 -1.3318
 9305SOL     OW39373   3.903   4.313   5.202 -0.0471  0.3978  0.0236
 9305SOL    HW139374   3.978   4.272   5.243 -0.8161 -1.9852 -0.9434
 9305SOL    HW239375   3.839   4.243   5.215 -1.0776  1.1154 -1.0604
 9306SOL     OW39376   0.341   3.678   4.858 -0.2985 -0.0995  0.2353
 9306SOL    HW139377   0.252   3.711   4.868 -1.7402 -3.5857 -1.5063
 9306SOL    HW239378   0.324   3.595   4.815 -3.0007  0.4330  0.2636
 9307SOL     OW39379   1.385   3.591   6.449  0.3496  0.1170  0.5504
 9307SOL    HW139380   1.408   3.626   6.362 -3.2941 -1.6434 -1.1173
 9307SOL    HW239381   1.476   3.565   6.464  0.1063 -0.0927  1.6573
 9308SOL     OW39382   3.615   0.718   3.894 -0.2152  0.4412 -0.7587
 9308SOL    HW139383   3.558   0.677   3.828 -0.0875  0.7618 -1.0658
 9308SOL    HW239384   3.649   0.638   3.935 -1.0461  0.0218 -0.8743
 9309SOL     OW39385   4.194   1.363   6.809 -0.4689  0.0099  0.4542
 9309SOL    HW139386   4.166   1.295   6.749 -0.5963 -0.8832  1.5216
 9309SOL    HW239387   4.116   1.417   6.822  0.4614  1.1303  1.4204
 9310SOL     OW39388   2.428   3.407   7.832  0.2956  0.3345  0.1171
 9310SOL    HW139389   2.492   3.337   7.819 -1.1184 -0.9017 -0.1447
 9310SOL    HW239390   2.381   3.397   7.749 -2.3907  2.6508  1.3601
 9311SOL     OW39391   3.528   1.204   3.735  0.2358  0.2177 -0.0015
 9311SOL    HW139392   3.474   1.272   3.694  0.4898  0.1201 -0.4974
 9311SOL    HW239393   3.553   1.257   3.811  0.1787 -0.9779  0.8387
 9312SOL     OW39394   3.550   2.975  15.471 -0.3158  0.0184 -0.3698
 9312SOL    HW139395   3.586   3.056  15.507 -1.7056  0.4068  0.1664
 9312SOL    HW239396   3.588   2.912  15.533 -1.9993 -1.7597 -1.1527
 9313SOL     OW39397   1.410   4.368   8.911 -0.2132 -0.2224 -0.4533
 9313SOL    HW139398   1.340   4.316   8.872  0.2373  0.1676 -1.7837
 9313SOL    HW239399   1.482   4.317   8.875  0.7519 -0.7056  2.1122
 9314SOL     OW39400   2.821   3.016  14.865  0.0801  0.1572 -0.1636
 9314SOL    HW139401   2.853   2.925  14.863  0.4609  0.2407  1.6808
 9314SOL    HW239402   2.762   3.013  14.790 -1.2932  0.4064  0.9035
 9315SOL     OW39403   3.114   1.236  10.459 -0.2665 -0.4980  0.0142
 9315SOL    HW139404   3.148   1.237  10.370  0.3486  0.6555  0.2547
 9315SOL    HW239405   3.051   1.308  10.460  0.8182  0.4463  0.9865
 9316SOL     OW39406   3.112   0.784   4.950  0.1402  0.3998 -0.0454
 9316SOL    HW139407   3.107   0.703   4.899  0.8601  1.5455 -1.9518
 9316SOL    HW239408   3.047   0.825   4.893  1.0776  0.4357 -1.0890
 9317SOL     OW39409   0.794   0.088  10.055  0.5836 -0.1248 -0.4706
 9317SOL    HW139410   0.887   0.108  10.046  0.6520 -0.7145 -0.9933
 9317SOL    HW239411   0.763   0.177  10.071 -0.7777 -0.9134  1.3140
 9318SOL     OW39412   2.032   4.250   1.447 -0.0889  0.0792 -0.8456
 9318SOL    HW139413   2.066   4.258   1.358  0.9516  0.2342 -0.4399
 9318SOL    HW239414   1.943   4.217   1.434 -0.1368  0.5238 -1.6421
 9319SOL     OW39415   2.115   0.609   9.222  0.4692  0.4081 -0.1170
 9319SOL    HW139416   2.050   0.569   9.280  0.3164 -1.6645 -1.7010
 9319SOL    HW239417   2.089   0.700   9.212 -1.7713 -0.2997 -0.7014
 9320SOL     OW39418   0.012   4.247  11.795  0.3722 -0.4004  0.4332
 9320SOL    HW139419   0.068   4.245  11.717 -0.9921 -0.1020 -0.5483
 9320SOL    HW239420   4.699   4.335  11.790  1.6423  0.1999  1.4447
 9321SOL     OW39421   2.358   3.342   1.510  0.0777  0.2925  0.2213
 9321SOL    HW139422   2.292   3.338   1.441  0.1614  2.7597 -0.0154
 9321SOL    HW239423   2.379   3.250   1.526  1.6926  0.6199  0.0326
 9322SOL     OW39424   0.229   1.268   8.833 -0.0843 -0.0417  0.2949
 9322SOL    HW139425   0.302   1.309   8.880  0.7769  1.9387 -2.7978
 9322SOL    HW239426   0.281   1.237   8.758  1.4595  3.4842 -0.0818
 9323SOL     OW39427   3.923   1.108   3.953 -0.2939  0.2812 -0.2756
 9323SOL    HW139428   3.965   1.026   3.977  1.7056  0.7969 -2.1306
 9323SOL    HW239429   3.857   1.106   4.023 -1.3365 -0.4679 -1.2888
 9324SOL     OW39430   3.725   1.045   1.462  0.2693 -0.3760  0.4529
 9324SOL    HW139431   3.812   1.004   1.458 -0.1800 -0.9511 -3.5085
 9324SOL    HW239432   3.693   1.050   1.372 -0.5416 -2.8678  0.5972
 9325SOL     OW39433   3.210   1.079   1.732  0.1801 -0.0265 -0.1749
 9325SOL    HW139434   3.298   1.054   1.761 -0.1872 -1.4037 -0.2303
 9325SOL    HW239435   3.219   1.066   1.638 -3.5913  2.7141 -0.9107
 9326SOL     OW39436   1.982   1.419   6.019 -0.2827  0.7116  0.2926
 9326SOL    HW139437   2.040   1.416   6.095 -0.1092  0.5868  0.1561
 9326SOL    HW239438   1.899   1.420   6.066 -1.3579 -0.9460 -1.5465
 9327SOL     OW39439   0.686   4.524   5.869  0.0392  0.1966  0.4803
 9327SOL    HW139440   0.675   4.597   5.929 -2.5870  1.0960 -1.0904
 9327SOL    HW239441   0.595   4.494   5.872  0.1891 -0.4924 -2.2621
 9328SOL     OW39442   3.145   0.946   6.785 -0.4615  0.3542  0.0277
 9328SOL    HW139443   3.218   1.000   6.813  0.1628 -2.0116  2.8985
 9328SOL    HW239444   3.090   0.945   6.863  1.3030 -0.0558  1.2598
 9329SOL     OW39445   1.047   1.598   8.271 -0.0280  0.1645  0.1533
 9329SOL    HW139446   1.073   1.566   8.185  0.4895  1.9849 -0.3804
 9329SOL    HW239447   1.101   1.676   8.285 -1.8344  1.4737 -0.1733
 9330SOL     OW39448   4.495   1.795  13.775  0.1095 -0.1207  0.3400
 9330SOL    HW139449   4.591   1.805  13.776 -0.0120  0.6548  3.6547
 9330SOL    HW239450   4.464   1.847  13.701 -2.1009 -3.2892 -0.9609
 9331SOL     OW39451   3.787   2.664   8.352  0.1426 -0.6010  0.4001
 9331SOL    HW139452   3.877   2.652   8.383  1.1455 -0.1725 -2.2981
 9331SOL    HW239453   3.804   2.703   8.266  0.5217 -1.0122  0.2851
 9332SOL     OW39454   0.855   2.909   5.593 -0.1889  0.0451  0.1428
 9332SOL    HW139455   0.797   2.979   5.620 -0.0050  0.0646  0.4923
 9332SOL    HW239456   0.836   2.844   5.661 -0.3594  2.3870  2.3247
 9333SOL     OW39457   4.637   0.386   3.128  0.2899 -0.3601 -0.0771
 9333SOL    HW139458   4.565   0.391   3.066  1.0959 -1.3448 -1.1016
 9333SOL    HW239459   4.601   0.352   3.210  0.0220 -1.3109 -0.5920
 9334SOL     OW39460   1.023   1.251   7.831 -0.7913  0.0612 -0.2539
 9334SOL    HW139461   1.095   1.314   7.833 -0.1159 -0.6727 -1.4875
 9334SOL    HW239462   0.990   1.253   7.921  0.3423  0.3963  0.1506
 9335SOL     OW39463   3.156   4.351   4.716  0.1130 -0.7539 -0.0195
 9335SOL    HW139464   3.093   4.303   4.662  1.7580 -2.1061 -0.7369
 9335SOL    HW239465   3.206   4.409   4.659 -1.7253  0.4343 -0.4114
 9336SOL     OW39466   3.123   3.926  12.759  0.3961 -0.4825  0.0914
 9336SOL    HW139467   3.151   3.970  12.679 -4.5834  0.1692 -1.2902
 9336SOL    HW239468   3.038   3.969  12.764 -0.3045 -1.6995 -1.3753
 9337SOL     OW39469   0.690   2.786   9.298 -0.2453 -0.6534  0.3072
 9337SOL    HW139470   0.619   2.849   9.286  1.8371  1.0733 -3.2131
 9337SOL    HW239471   0.643   2.737   9.365  2.0031 -2.3255  0.6657
 9338SOL     OW39472   2.086   0.466   2.962 -0.2841 -0.0238 -0.0533
 9338SOL    HW139473   2.164   0.423   2.925  0.5442  0.6394  0.9139
 9338SOL    HW239474   2.064   0.406   3.034  0.1765 -0.3894 -0.2109
 9339SOL     OW39475   3.254   1.325   2.513 -0.4092  0.0073  0.0191
 9339SOL    HW139476   3.340   1.332   2.556 -0.8406  1.1801  0.6879
 9339SOL    HW239477   3.286   1.352   2.427 -1.3796  0.2964 -0.2489
 9340SOL     OW39478   2.437   1.674   9.126  0.5915 -0.0334 -0.1637
 9340SOL    HW139479   2.493   1.641   9.197  1.9339 -2.1142 -2.1753
 9340SOL    HW239480   2.365   1.725   9.163  0.4103 -0.1168 -0.4008
 9341SOL     OW39481   3.730   0.654  12.607 -0.1727  0.8017 -0.2089
 9341SOL    HW139482   3.780   0.608  12.674 -1.2945 -2.4746 -1.5820
 9341SOL    HW239483   3.717   0.737  12.653 -0.1980  0.2028  0.8666
 9342SOL     OW39484   4.408   3.149  16.380 -0.1392  0.1814  0.7373
 9342SOL    HW139485   4.379   3.240  16.388 -0.1053  0.1463  1.2376
 9342SOL    HW239486   4.439   3.162  16.290 -0.7076  0.8475  0.6401
 9343SOL     OW39487   0.970   1.105  15.987  0.0600 -0.2280  0.4726
 9343SOL    HW139488   0.962   1.190  16.030 -0.6079 -0.0560  0.0206
 9343SOL    HW239489   0.924   1.120  15.904  0.1940 -1.4867  0.1698
 9344SOL     OW39490   3.556   4.048   8.507  0.5011  0.2298  0.4106
 9344SOL    HW139491   3.466   4.016   8.502  1.1097 -1.3327 -0.4641
 9344SOL    HW239492   3.534   4.139   8.491  0.8176  0.0663 -0.9096
 9345SOL     OW39493   3.815   4.193   1.852 -0.4093  0.1026 -0.5157
 9345SOL    HW139494   3.786   4.103   1.844  0.1176  0.0507 -1.9379
 9345SOL    HW239495   3.877   4.179   1.923  0.0550  3.4108 -0.2707
 9346SOL     OW39496   4.621   1.460   2.374  0.4219 -0.0767  0.8720
 9346SOL    HW139497   4.596   1.368   2.378  0.5142 -0.1638 -0.4645
 9346SOL    HW239498   4.708   1.454   2.334 -0.0646  1.7352 -0.4645
 9347SOL     OW39499   4.616   2.254   5.026 -0.0160 -0.0890 -0.4039
 9347SOL    HW139500   4.588   2.318   4.960 -1.2752  0.4468  0.6555
 9347SOL    HW239501   4.711   2.267   5.033  0.1770 -0.0910 -2.9845
 9348SOL     OW39502   2.707   1.660  12.003  0.2483  0.4912 -0.2868
 9348SOL    HW139503   2.774   1.692  12.062 -0.0361  0.0560  0.2713
 9348SOL    HW239504   2.634   1.683  12.061 -0.4117 -1.6179 -0.2675
 9349SOL     OW39505   0.573   4.197  14.610 -0.4320  0.0606  0.2959
 9349SOL    HW139506   0.521   4.276  14.598  1.7821  1.4391 -0.1661
 9349SOL    HW239507   0.659   4.231  14.585  0.6584 -2.6957  0.2971
 9350SOL     OW39508   0.422   0.450   4.249  0.3149 -0.1460  0.3882
 9350SOL    HW139509   0.391   0.486   4.166  0.7306 -1.2608 -0.2520
 9350SOL    HW239510   0.514   0.474   4.244  0.6314 -0.9539  2.3453
 9351SOL     OW39511   0.755   1.225   7.103  0.2658 -0.1067  0.3080
 9351SOL    HW139512   0.724   1.220   7.193 -1.7395 -0.0211 -0.3943
 9351SOL    HW239513   0.751   1.133   7.078 -1.7334  0.2532 -0.6608
 9352SOL     OW39514   0.539   4.323  14.309 -0.0001 -0.5919 -0.5432
 9352SOL    HW139515   0.506   4.366  14.388  1.0656 -1.0747  0.1594
 9352SOL    HW239516   0.610   4.386  14.295 -0.8725  0.8989  1.6648
 9353SOL     OW39517   0.766   3.643   0.242  0.1807 -0.0912 -0.0077
 9353SOL    HW139518   0.733   3.672   0.157 -3.8625  0.2603  1.6854
 9353SOL    HW239519   0.857   3.675   0.238  0.6408 -1.4909 -0.7922
 9354SOL     OW39520   2.710   2.526   9.752  0.3879 -0.6487 -0.2847
 9354SOL    HW139521   2.631   2.559   9.795  1.4001  0.0718  1.0216
 9354SOL    HW239522   2.655   2.481   9.688 -0.3923  0.5709 -0.4759
 9355SOL     OW39523   1.401   2.831   4.325  1.0064  0.1070  0.2774
 9355SOL    HW139524   1.370   2.919   4.344  0.1156 -0.1925  0.2251
 9355SOL    HW239525   1.392   2.826   4.230 -1.5210 -1.6020  0.6231
 9356SOL     OW39526   0.786   3.333  14.007  0.1287  0.3383  0.1798
 9356SOL    HW139527   0.776   3.382  13.926  0.4687  1.3443  0.7487
 9356SOL    HW239528   0.800   3.396  14.077  0.0662 -1.3723  1.7505
 9357SOL     OW39529   1.468   2.500   9.766 -0.0953  0.6389 -0.2776
 9357SOL    HW139530   1.466   2.420   9.714  1.9020 -1.0682  2.2519
 9357SOL    HW239531   1.433   2.573   9.714 -1.0892  1.1063  1.0418
 9358SOL     OW39532   3.862   2.011  14.715  0.5206  0.2001 -0.3097
 9358SOL    HW139533   3.896   1.960  14.789 -0.3962 -0.5832 -0.4249
 9358SOL    HW239534   3.895   2.099  14.733 -0.3061  0.8388 -1.8576
 9359SOL     OW39535   2.522   3.471   6.313  0.5977  0.1151 -0.2379
 9359SOL    HW139536   2.441   3.510   6.281  0.0743  1.6023  3.0109
 9359SOL    HW239537   2.531   3.526   6.390  0.4597 -1.6065  1.0091
 9360SOL     OW39538   2.781   1.058   4.280 -0.3872 -0.4110  0.0624
 9360SOL    HW139539   2.866   1.099   4.290  0.2148 -1.4020 -0.9552
 9360SOL    HW239540   2.720   1.107   4.335  0.0285 -1.4472  1.4360
 9361SOL     OW39541   2.144   2.146   6.975  0.1477  0.2574  0.3082
 9361SOL    HW139542   2.066   2.117   7.024 -0.0644 -1.9066 -1.3225
 9361SOL    HW239543   2.125   2.112   6.888  1.2190 -1.0432  0.5692
 9362SOL     OW39544   3.054   4.355   1.151 -0.5234 -0.4230 -0.7747
 9362SOL    HW139545   2.985   4.330   1.213 -0.5044  0.0942 -0.5520
 9362SOL    HW239546   3.048   4.275   1.099 -1.6633 -0.4663 -0.5873
 9363SOL     OW39547   0.832   2.311  11.343  0.2118 -0.0406  0.1234
 9363SOL    HW139548   0.796   2.262  11.269 -0.2232  1.1255 -0.4388
 9363SOL    HW239549   0.832   2.248  11.415 -1.5792 -2.6764 -2.2046
 9364SOL     OW39550   1.109   0.151   5.352 -0.5111  0.2255  1.2188
 9364SOL    HW139551   1.027   0.103   5.343 -0.4304  0.4742 -0.8355
 9364SOL    HW239552   1.148   0.097   5.422 -0.8544  1.4596  2.3736
 9365SOL     OW39553   0.611   0.951  17.672  0.8518 -0.3334  0.0067
 9365SOL    HW139554   0.668   1.027  17.684  0.5947 -0.4879  2.3410
 9365SOL    HW239555   0.541   0.983   0.027  0.6398 -0.4900 -0.1682
 9366SOL     OW39556   3.646   2.515   5.527  0.4110  0.1126  0.0134
 9366SOL    HW139557   3.723   2.459   5.538 -0.7808 -2.0451 -2.6085
 9366SOL    HW239558   3.627   2.528   5.620  2.8667  1.2790  0.3440
 9367SOL     OW39559   3.479   2.081  11.224 -0.6248  0.3695  0.0645
 9367SOL    HW139560   3.511   2.002  11.180 -1.9416  0.0970 -0.4079
 9367SOL    HW239561   3.553   2.093  11.284 -0.2126 -0.2541 -0.3213
 9368SOL     OW39562   1.576   3.027   6.590  0.2666  0.2310 -0.6286
 9368SOL    HW139563   1.584   2.954   6.529 -1.9226 -0.5644  0.0435
 9368SOL    HW239564   1.543   2.974   6.662 -1.3390  0.2728 -1.3269
 9369SOL     OW39565   0.749   0.210   1.507 -0.3811 -0.4254 -0.4870
 9369SOL    HW139566   0.757   0.249   1.420  1.2038  0.4639  0.0567
 9369SOL    HW239567   0.679   0.147   1.491 -1.8721  0.5536  2.0400
 9370SOL     OW39568   3.774   1.257  13.100  0.6527  0.4535  0.0203
 9370SOL    HW139569   3.731   1.268  13.015 -1.8677 -0.4894  1.1823
 9370SOL    HW239570   3.838   1.328  13.092  1.1671 -0.1925 -1.5467
 9371SOL     OW39571   2.333   2.509   7.479  0.6593 -0.1168  0.2009
 9371SOL    HW139572   2.394   2.545   7.414 -0.7457 -1.5802 -1.9380
 9371SOL    HW239573   2.283   2.590   7.491 -0.1138 -0.3788 -1.2905
 9372SOL     OW39574   2.571   1.931   5.355  0.1986  0.3036  0.1125
 9372SOL    HW139575   2.559   1.853   5.410 -0.2485  1.4505  1.6201
 9372SOL    HW239576   2.557   1.995   5.424 -1.6856  0.2244 -0.1870
 9373SOL     OW39577   2.208   2.761   7.489 -0.0865 -0.2792 -0.0243
 9373SOL    HW139578   2.260   2.815   7.429 -0.1491 -0.2484 -0.0508
 9373SOL    HW239579   2.127   2.771   7.439 -0.1702 -0.8952 -0.0159
 9374SOL     OW39580   1.296   4.038   3.912  0.4049 -0.7070  0.2064
 9374SOL    HW139581   1.314   3.985   3.835  1.1413 -0.4179  0.1768
 9374SOL    HW239582   1.206   4.059   3.885  0.4409 -0.1412  0.5243
 9375SOL     OW39583   2.416   3.684   7.923 -0.5676  0.2011 -0.4411
 9375SOL    HW139584   2.398   3.592   7.901 -1.2544  0.7643 -2.2848
 9375SOL    HW239585   2.329   3.708   7.953  0.2448  0.8998  1.2949
 9376SOL     OW39586   0.824   0.025   6.715  0.0821  0.2923  0.1144
 9376SOL    HW139587   0.785   0.076   6.785  0.3311 -2.0159  1.9182
 9376SOL    HW239588   0.821   0.082   6.638  0.4652  0.7278  0.4216
 9377SOL     OW39589   4.625   1.932   5.143  0.6726  0.0759 -0.2936
 9377SOL    HW139590   4.684   1.948   5.217 -1.4187 -1.8438  1.7905
 9377SOL    HW239591   4.565   2.006   5.139  0.3219 -0.1962 -0.0689
 9378SOL     OW39592   2.508   0.306   3.033 -0.6878 -0.1422  0.1323
 9378SOL    HW139593   2.417   0.311   3.002 -1.4632 -1.4200  2.2158
 9378SOL    HW239594   2.555   0.342   2.958  0.3466 -1.1955  0.2735
 9379SOL     OW39595   1.251   2.730  12.147 -0.1844  0.3244  0.1992
 9379SOL    HW139596   1.298   2.737  12.064 -1.1659  0.8390 -0.3105
 9379SOL    HW239597   1.313   2.765  12.210 -1.9587  0.9933  1.5737
 9380SOL     OW39598   1.062   4.175  15.715 -0.0880 -0.7417  0.1253
 9380SOL    HW139599   0.999   4.229  15.764  0.7107  0.3115 -0.0189
 9380SOL    HW239600   1.044   4.200  15.625  1.7670 -0.7138 -0.2301
 9381SOL     OW39601   1.806   2.577  16.624 -0.3196 -0.8524 -0.0054
 9381SOL    HW139602   1.754   2.655  16.604  0.5123 -0.3939 -0.3386
 9381SOL    HW239603   1.761   2.548  16.704 -0.0492  1.5923  1.0386
 9382SOL     OW39604   3.943   0.129   8.860 -0.2874  0.2756 -0.1586
 9382SOL    HW139605   3.892   0.207   8.837  0.8706  1.7450  2.3104
 9382SOL    HW239606   3.881   0.087   8.919 -0.3330 -2.0903 -1.8536
 9383SOL     OW39607   0.998   2.559   2.324  0.6893 -0.3019  0.6786
 9383SOL    HW139608   0.934   2.521   2.263  2.9554 -1.4911 -0.9596
 9383SOL    HW239609   0.952   2.562   2.408 -1.4098  2.6649 -0.5860
 9384SOL     OW39610   0.549   3.267   1.089 -0.1024  0.2947 -0.2953
 9384SOL    HW139611   0.489   3.277   1.163 -1.3184 -1.6648 -1.0100
 9384SOL    HW239612   0.510   3.189   1.049  1.0081 -0.2371 -0.3156
 9385SOL     OW39613   2.157   3.507   0.843 -0.4019 -0.5901  0.3398
 9385SOL    HW139614   2.097   3.434   0.859 -1.8429  0.2634 -1.2058
 9385SOL    HW239615   2.084   3.568   0.829  0.7493  0.7257  0.1457
 9386SOL     OW39616   2.027   2.725   5.081  0.0887 -0.2044  0.6601
 9386SOL    HW139617   1.949   2.707   5.029  0.7455  1.0079 -0.7510
 9386SOL    HW239618   2.093   2.738   5.013 -2.6917  1.1641 -1.7432
 9387SOL     OW39619   3.137   3.255   8.420 -0.8741  0.6931  0.4252
 9387SOL    HW139620   3.120   3.229   8.510  2.2284 -1.6848  0.3423
 9387SOL    HW239621   3.187   3.180   8.387 -1.2037  0.8166 -0.3548
 9388SOL     OW39622   0.347   1.340   8.368 -0.0353  0.3223 -0.1535
 9388SOL    HW139623   0.312   1.306   8.285 -0.4997  1.1131 -0.2830
 9388SOL    HW239624   0.357   1.430   8.336 -1.1224  0.0913 -1.1116
 9389SOL     OW39625   3.872   0.458   5.738 -0.0580  0.3711 -0.6810
 9389SOL    HW139626   3.814   0.383   5.726  0.4577 -0.7031  3.5928
 9389SOL    HW239627   3.844   0.517   5.668  1.8248  0.0777 -1.6718
 9390SOL     OW39628   2.001   1.010   5.990 -0.0080 -0.1982  0.3999
 9390SOL    HW139629   1.930   0.979   5.934 -0.2542  1.3484 -0.1402
 9390SOL    HW239630   1.996   1.103   5.966  2.9372  0.4796  2.3264
 9391SOL     OW39631   2.696   2.505   3.879 -0.6128 -0.0527  0.5262
 9391SOL    HW139632   2.714   2.545   3.964  0.8853 -0.6947  0.5136
 9391SOL    HW239633   2.691   2.581   3.821 -0.8232 -1.1715 -0.9025
 9392SOL     OW39634   1.109   0.874   2.128 -0.4973 -0.1777 -0.6109
 9392SOL    HW139635   1.060   0.848   2.206  2.4263  0.2269  1.3823
 9392SOL    HW239636   1.052   0.819   2.074 -1.7523  0.6652 -0.1424
 9393SOL     OW39637   1.760   1.970   7.976  0.1361 -0.5823 -0.4863
 9393SOL    HW139638   1.813   1.981   8.055  1.6364  2.5568 -1.9465
 9393SOL    HW239639   1.702   2.046   7.978  2.2850  1.1052 -2.4459
 9394SOL     OW39640   3.517   3.671   6.702  0.1883 -0.0538  0.5975
 9394SOL    HW139641   3.592   3.651   6.758  1.2389 -1.4958 -1.3177
 9394SOL    HW239642   3.488   3.752   6.743 -1.5641  1.3163 -3.2787
 9395SOL     OW39643   3.983   3.279   0.345 -0.1085 -0.0776 -0.4624
 9395SOL    HW139644   3.938   3.237   0.419  1.7828 -2.4929 -0.6830
 9395SOL    HW239645   4.065   3.302   0.389 -0.2533  0.3667 -0.4319
 9396SOL     OW39646   0.452   3.900   4.764  0.5860  0.2228  0.3765
 9396SOL    HW139647   0.432   3.832   4.829  0.9168 -0.3409 -0.1133
 9396SOL    HW239648   0.468   3.842   4.689 -1.0376 -1.8713  1.6453
 9397SOL     OW39649   1.761   1.950   4.351  0.0123  0.2106  0.5234
 9397SOL    HW139650   1.824   1.881   4.369 -0.5110 -1.1737 -2.8791
 9397SOL    HW239651   1.744   1.942   4.257  2.1066 -2.2206  0.3378
 9398SOL     OW39652   1.407   0.308   9.446  0.7455 -0.3571 -0.4505
 9398SOL    HW139653   1.345   0.313   9.520  1.5585  0.6990  0.1588
 9398SOL    HW239654   1.358   0.370   9.391  0.7522 -0.2924 -0.3835
 9399SOL     OW39655   4.076   2.262   3.353 -0.4694 -0.0170 -0.0144
 9399SOL    HW139656   4.067   2.354   3.329  0.9358  0.1785  0.2489
 9399SOL    HW239657   4.093   2.231   3.264 -0.6612  1.5848 -0.6045
 9400SOL     OW39658   1.844   2.779   6.525  0.1095 -0.3238  0.2969
 9400SOL    HW139659   1.882   2.742   6.445  0.8998  0.9349  0.0927
 9400SOL    HW239660   1.920   2.821   6.564  0.5757  0.6515 -1.6382
 9401SOL     OW39661   3.087   1.730  10.865  0.5439 -0.6724 -0.4640
 9401SOL    HW139662   3.100   1.765  10.953 -2.9987 -0.1750 -0.1559
 9401SOL    HW239663   2.993   1.742  10.854  0.7220 -0.0126 -1.3284
 9402SOL     OW39664   3.331   0.601  15.270 -0.3605 -0.1109 -0.0429
 9402SOL    HW139665   3.348   0.622  15.179 -0.8550 -1.4616 -0.4441
 9402SOL    HW239666   3.418   0.566  15.290  0.5102  0.4484 -2.8606
 9403SOL     OW39667   2.493   1.612   7.486 -0.2698  0.4114 -0.0076
 9403SOL    HW139668   2.455   1.693   7.520  0.0420 -0.1232  1.6257
 9403SOL    HW239669   2.513   1.563   7.565 -0.3881 -0.5391 -0.5727
 9404SOL     OW39670   3.320   4.560   2.380 -0.0663 -0.0024 -0.1841
 9404SOL    HW139671   3.394   4.546   2.439  0.5185  0.2639 -0.8623
 9404SOL    HW239672   3.252   4.516   2.432 -1.2226 -0.7491 -2.3511
 9405SOL     OW39673   1.950   4.039   6.653  0.0404 -0.9872  0.3668
 9405SOL    HW139674   1.965   3.955   6.610 -0.5849 -1.1837  0.5288
 9405SOL    HW239675   1.989   4.030   6.740 -1.4856 -0.9684  1.0554
 9406SOL     OW39676   1.174   3.291  16.400  0.1606  0.0020 -0.0579
 9406SOL    HW139677   1.173   3.386  16.384  0.7712  0.4664  2.5324
 9406SOL    HW239678   1.199   3.291  16.493 -0.2797 -0.1440  0.0579
 9407SOL     OW39679   0.346   4.322  16.818 -0.1497  0.0908  0.1323
 9407SOL    HW139680   0.335   4.311  16.913 -0.1893  1.4106  0.2897
 9407SOL    HW239681   0.439   4.300  16.813  0.0611  1.5390 -2.1185
 9408SOL     OW39682   2.278   2.512   2.338 -0.0826  0.6192 -0.1529
 9408SOL    HW139683   2.317   2.588   2.294  0.3682  0.2380 -0.4135
 9408SOL    HW239684   2.255   2.544   2.425  1.9686  0.0960  0.5962
 9409SOL     OW39685   0.203   0.030   9.352 -0.1907 -0.1126  0.1172
 9409SOL    HW139686   0.107   0.039   9.355 -0.1910 -0.5650  1.3434
 9409SOL    HW239687   0.212   4.695   9.278 -1.2803 -0.0576 -0.0709
 9410SOL     OW39688   0.647   1.601   6.705 -0.6832  0.0462  0.0803
 9410SOL    HW139689   0.664   1.656   6.629  2.2200 -0.6111  0.2815
 9410SOL    HW239690   0.647   1.514   6.665  4.1451  0.7926 -1.5036
 9411SOL     OW39691   1.568   1.733   5.167  0.0021  0.2897  0.1065
 9411SOL    HW139692   1.518   1.812   5.144 -0.5236 -0.1011 -0.0980
 9411SOL    HW239693   1.526   1.656   5.127  0.9724  0.0878 -0.5348
 9412SOL     OW39694   2.155   3.338  15.526  0.6718  0.0296 -0.0928
 9412SOL    HW139695   2.171   3.418  15.576 -0.8602 -0.5689  1.3495
 9412SOL    HW239696   2.063   3.350  15.502  1.2291  2.7150 -0.9527
 9413SOL     OW39697   2.527   3.568   4.166  0.4115 -0.1959 -0.0361
 9413SOL    HW139698   2.561   3.494   4.216  0.7554  1.5641  2.3579
 9413SOL    HW239699   2.435   3.566   4.195 -0.4215 -0.3097 -2.6634
 9414SOL     OW39700   1.799   2.357   1.893  0.0637 -0.1924 -0.2990
 9414SOL    HW139701   1.819   2.341   1.800 -0.5185 -2.9076  0.0220
 9414SOL    HW239702   1.874   2.412   1.914  0.8728 -1.9082  1.3255
 9415SOL     OW39703   0.087   2.029  11.939 -0.1751  0.1130 -0.3441
 9415SOL    HW139704   0.021   1.961  11.951 -0.4735  0.2284 -1.2506
 9415SOL    HW239705   0.161   1.983  11.979 -0.0670 -0.0346 -0.7132
 9416SOL     OW39706   0.495   3.500   6.120  0.1037 -0.2764 -0.4511
 9416SOL    HW139707   0.402   3.487   6.102  0.0660  0.4028 -0.7706
 9416SOL    HW239708   0.508   3.572   6.059  1.0561 -0.4942 -0.5015
 9417SOL     OW39709   2.750   1.143   3.469  0.5575  0.0679  0.3638
 9417SOL    HW139710   2.657   1.119   3.471  0.6400 -0.3032 -0.9164
 9417SOL    HW239711   2.750   1.194   3.551  0.0450 -2.1438  1.7304
 9418SOL     OW39712   0.518   1.053   5.391  0.9524 -0.3073 -0.2876
 9418SOL    HW139713   0.577   1.084   5.459  1.1429 -0.3197 -0.4481
 9418SOL    HW239714   0.522   1.129   5.332  0.0279 -1.7401 -2.1937
 9419SOL     OW39715   2.060   2.246   2.823  0.5502 -0.1664  0.1783
 9419SOL    HW139716   2.136   2.188   2.819  1.7935  1.3852  1.4497
 9419SOL    HW239717   2.013   2.229   2.742 -0.8942 -0.8177  1.1412
 9420SOL     OW39718   2.108   1.267   7.379  0.1924 -0.0552 -0.5546
 9420SOL    HW139719   2.119   1.333   7.448  0.8205  0.5664 -1.2586
 9420SOL    HW239720   2.117   1.329   7.307  1.9524  0.0635 -0.2538
 9421SOL     OW39721   2.771   4.528  10.120  0.1253  0.1619  0.7572
 9421SOL    HW139722   2.761   4.574  10.203  1.6623  1.4120  0.2487
 9421SOL    HW239723   2.686   4.483  10.117 -1.0967  2.6062 -1.3129
 9422SOL     OW39724   0.708   2.897   4.737  0.0611  0.3301 -0.0920
 9422SOL    HW139725   0.752   2.817   4.708  0.1637  0.5639 -0.5814
 9422SOL    HW239726   0.643   2.859   4.796 -0.4278 -0.4569 -1.1361
 9423SOL     OW39727   2.768   1.108   4.661  0.1337 -0.0421  0.4067
 9423SOL    HW139728   2.828   1.059   4.605 -1.3634  0.9303 -2.0181
 9423SOL    HW239729   2.703   1.142   4.600 -2.4957 -1.7227  2.2642
 9424SOL     OW39730   4.510   1.044   8.231 -0.0717  0.4289 -0.8585
 9424SOL    HW139731   4.440   1.003   8.181  0.0054 -0.4212 -0.2729
 9424SOL    HW239732   4.481   1.053   8.322  0.4942 -3.0187 -0.3434
 9425SOL     OW39733   0.384   1.376   6.270 -0.4604  0.0771  0.5683
 9425SOL    HW139734   0.362   1.397   6.180  1.0938 -1.9035 -0.2734
 9425SOL    HW239735   0.318   1.431   6.313 -0.9829  1.0256 -1.4607
 9426SOL     OW39736   3.616   2.403  13.294 -0.2052  0.1279  0.3435
 9426SOL    HW139737   3.565   2.450  13.229  0.0368  1.5525  1.1752
 9426SOL    HW239738   3.551   2.342  13.329  1.1251 -0.6801  1.4103
 9427SOL     OW39739   1.475   0.519  15.873 -0.0693 -0.9955 -0.1395
 9427SOL    HW139740   1.537   0.446  15.875  0.3281 -0.6161  1.1710
 9427SOL    HW239741   1.531   0.586  15.833 -1.8720  0.1707 -0.7129
 9428SOL     OW39742   2.540   4.613   2.353  0.0933 -0.1958  0.3042
 9428SOL    HW139743   2.551   4.604   2.259 -0.6048  0.4859  0.1622
 9428SOL    HW239744   2.492   4.695   2.366  2.3165  1.0429  0.6229
 9429SOL     OW39745   1.712   3.067  13.435 -0.2156  0.5603  0.4813
 9429SOL    HW139746   1.696   3.025  13.519  0.7296 -1.0154 -0.1457
 9429SOL    HW239747   1.626   3.050  13.397  0.4059 -1.0631 -0.1878
 9430SOL     OW39748   2.870   2.403  13.008  0.4795 -0.1256  0.2718
 9430SOL    HW139749   2.950   2.353  13.020 -0.3497 -0.9393  2.4267
 9430SOL    HW239750   2.899   2.491  13.033 -0.8290  0.7236 -1.1597
 9431SOL     OW39751   3.671   3.743  17.371  0.0517 -0.4759  0.0832
 9431SOL    HW139752   3.763   3.768  17.381  0.6570 -1.7528 -2.3281
 9431SOL    HW239753   3.658   3.722  17.463 -3.2275 -0.9190 -0.4854
 9432SOL     OW39754   3.147   3.833   6.039  0.5807  0.6294  0.5104
 9432SOL    HW139755   3.219   3.812   5.979 -0.4393  1.0335 -0.8360
 9432SOL    HW239756   3.111   3.755   6.081 -4.1218  2.5032 -0.1172
 9433SOL     OW39757   2.745   1.927  12.333 -0.0224  0.5785 -0.5386
 9433SOL    HW139758   2.739   1.929  12.428 -0.8005  1.9737 -0.6185
 9433SOL    HW239759   2.793   1.846  12.318  0.6725  0.7933  0.5528
 9434SOL     OW39760   2.378   3.071   6.366 -0.1928 -0.3954 -0.4964
 9434SOL    HW139761   2.335   3.054   6.282  1.6455  0.5894 -1.6358
 9434SOL    HW239762   2.306   3.115   6.412  0.9156  0.1359  0.7181
 9435SOL     OW39763   2.129   2.797   2.130 -0.4050  0.0888  0.0141
 9435SOL    HW139764   2.220   2.791   2.162 -0.6206  0.3862  0.6966
 9435SOL    HW239765   2.132   2.887   2.097  1.1899  0.5098  1.2747
 9436SOL     OW39766   1.027   1.899   7.658  0.2749 -0.1171  0.4468
 9436SOL    HW139767   0.990   1.813   7.636 -0.5095  0.3342  0.0008
 9436SOL    HW239768   1.002   1.947   7.579 -1.5958  2.2595  2.4714
 9437SOL     OW39769   2.825   4.216   5.054  0.1259  0.4150 -0.2820
 9437SOL    HW139770   2.843   4.194   4.963  1.0823  1.7345 -0.4038
 9437SOL    HW239771   2.908   4.231   5.099 -0.8130  1.6232  1.0443
 9438SOL     OW39772   4.362   1.028   9.218 -0.0787 -0.3329  0.4104
 9438SOL    HW139773   4.358   0.988   9.132 -0.3500  1.0194 -0.2038
 9438SOL    HW239774   4.299   0.975   9.266  1.0068 -0.1247  2.0804
 9439SOL     OW39775   3.845   3.806   3.641  0.2508 -0.2483  0.2675
 9439SOL    HW139776   3.771   3.816   3.581 -0.7445  1.0662  1.6991
 9439SOL    HW239777   3.886   3.888   3.614 -1.3499 -0.6656 -3.3723
 9440SOL     OW39778   3.370   4.195   4.449  0.7052  0.0569  0.3978
 9440SOL    HW139779   3.426   4.200   4.527 -0.4636 -0.1909  1.2528
 9440SOL    HW239780   3.424   4.215   4.372  0.1952 -1.6238 -0.4070
 9441SOL     OW39781   4.706   4.668   2.358  0.3668 -0.7328  0.6338
 9441SOL    HW139782   4.716   0.024   2.308  1.2814 -0.4996  1.1922
 9441SOL    HW239783   0.040   4.614   2.304 -0.5009  0.5684 -1.6371
 9442SOL     OW39784   0.216   2.090   8.348 -0.1169  0.2259 -0.1953
 9442SOL    HW139785   0.256   2.154   8.406  0.5540  0.6081 -1.0822
 9442SOL    HW239786   0.296   2.063   8.304 -0.1660  0.6973 -0.5679
 9443SOL     OW39787   3.598   0.046   8.100 -0.2402 -0.4633  0.3487
 9443SOL    HW139788   3.587   4.693   8.044  0.7078 -0.0466 -0.4104
 9443SOL    HW239789   3.603   0.005   8.186  1.3510 -2.3943 -0.6697
 9444SOL     OW39790   1.635   4.432   6.204 -0.5213 -0.0278  0.7980
 9444SOL    HW139791   1.662   4.348   6.241  3.0184  0.5311 -0.4415
 9444SOL    HW239792   1.713   4.447   6.150 -0.5543 -2.3272  0.1175
 9445SOL     OW39793   4.074   4.041   6.668 -0.4801  0.4646  0.2705
 9445SOL    HW139794   4.128   3.964   6.688 -0.8752 -0.0303 -0.5948
 9445SOL    HW239795   4.048   4.063   6.758  2.1473 -2.1715  1.6701
 9446SOL     OW39796   1.902   3.599   1.869  0.3439 -0.1098 -0.3776
 9446SOL    HW139797   1.834   3.665   1.884  0.8857  0.1616  0.8359
 9446SOL    HW239798   1.845   3.525   1.847 -0.0165 -0.6690  2.3986
 9447SOL     OW39799   3.578   2.886   5.852 -0.2044 -0.1651 -0.5510
 9447SOL    HW139800   3.626   2.946   5.795  1.7154 -1.5517 -0.3658
 9447SOL    HW239801   3.493   2.930   5.862  1.6164  3.7010 -2.0829
 9448SOL     OW39802   3.360   3.621  10.210  0.0285  0.2504 -0.3315
 9448SOL    HW139803   3.357   3.712  10.241 -1.8641 -0.2583  0.9326
 9448SOL    HW239804   3.403   3.635  10.125 -2.1646 -2.5874 -1.8848
 9449SOL     OW39805   4.539   0.177   8.197  0.3584  0.6625  0.2995
 9449SOL    HW139806   4.456   0.189   8.244 -0.4159 -2.5151 -0.2555
 9449SOL    HW239807   4.520   0.228   8.118  0.5335 -0.6999 -0.6187
 9450SOL     OW39808   0.887   4.337   5.940  0.2282 -0.2932  0.4740
 9450SOL    HW139809   0.825   4.410   5.947 -0.3162 -0.7878  0.8327
 9450SOL    HW239810   0.970   4.384   5.945  0.9044 -1.4534 -0.1152
 9451SOL     OW39811   4.209   2.683  16.055  0.1152  0.0057  0.0759
 9451SOL    HW139812   4.262   2.760  16.037  1.3676 -0.4038  1.9509
 9451SOL    HW239813   4.203   2.695  16.150  2.1116 -1.1058  0.3489
 9452SOL     OW39814   2.455   2.058   6.101 -0.1725 -0.0188  0.4721
 9452SOL    HW139815   2.398   2.133   6.121  2.1151  1.5964  0.9144
 9452SOL    HW239816   2.397   1.983   6.115 -0.4678 -0.1088 -1.1760
 9453SOL     OW39817   4.326   3.386   7.422 -0.7254 -0.2830 -0.3514
 9453SOL    HW139818   4.290   3.374   7.509  1.0278 -1.3915  0.2242
 9453SOL    HW239819   4.299   3.476   7.404 -0.0092  0.2275  1.1673
 9454SOL     OW39820   0.258   3.754  14.121 -0.1876  0.2000 -0.3769
 9454SOL    HW139821   0.334   3.726  14.172 -1.2755 -0.0467  1.0971
 9454SOL    HW239822   0.265   3.694  14.047  0.9546 -1.0455  0.7326
 9455SOL     OW39823   1.938   0.228  10.408 -0.4437  0.2741 -0.2361
 9455SOL    HW139824   1.982   0.174  10.474 -0.4201 -0.1187 -0.5742
 9455SOL    HW239825   1.879   0.271  10.469  0.9285 -0.0944  1.3574
 9456SOL     OW39826   1.513   3.959  12.587 -0.5771  0.0631  0.3179
 9456SOL    HW139827   1.527   3.874  12.629  1.7330 -0.2632 -1.0822
 9456SOL    HW239828   1.420   3.968  12.606 -1.6710 -3.0472 -3.6348
 9457SOL     OW39829   1.070   0.870   3.342  0.3720  0.2679 -0.4941
 9457SOL    HW139830   1.005   0.927   3.383  1.6208 -1.3956  3.7457
 9457SOL    HW239831   1.123   0.923   3.282  2.1075 -1.2372 -0.2769
 9458SOL     OW39832   2.162   1.941   3.705 -0.4763  0.2396 -0.1524
 9458SOL    HW139833   2.133   2.029   3.729 -0.4008  0.3808 -0.5719
 9458SOL    HW239834   2.202   1.925   3.790 -0.9692  0.3172  0.0940
 9459SOL     OW39835   3.473   0.785   6.005 -0.2497  0.4780  0.2611
 9459SOL    HW139836   3.392   0.807   5.960  0.5722  1.2937 -0.8233
 9459SOL    HW239837   3.507   0.716   5.948  3.3600  1.4186  1.2869
 9460SOL     OW39838   3.583   3.099  13.984 -0.2674 -0.6947  0.3386
 9460SOL    HW139839   3.603   3.138  13.899  0.6390 -1.6861  0.1019
 9460SOL    HW239840   3.645   3.151  14.035 -0.3233 -0.8393  0.5555
 9461SOL     OW39841   4.513   0.684   7.919  0.4640  0.1444 -0.6771
 9461SOL    HW139842   4.454   0.734   7.976  1.2601  1.5156 -1.0436
 9461SOL    HW239843   4.517   0.601   7.965  2.6386  1.3083  1.2685
 9462SOL     OW39844   4.636   2.573   0.887  0.1416 -0.3743  0.0512
 9462SOL    HW139845   4.558   2.616   0.924  0.8087 -0.2293  1.2871
 9462SOL    HW239846   4.700   2.589   0.956 -0.2418  0.2066  0.2787
 9463SOL     OW39847   0.726   2.705   8.592 -0.3791  0.1277 -0.3520
 9463SOL    HW139848   0.663   2.674   8.527  0.2084  1.9712 -1.7787
 9463SOL    HW239849   0.691   2.677   8.677 -3.5466  1.5874 -1.1740
 9464SOL     OW39850   0.450   1.137   0.832  0.1943 -0.0005 -0.5449
 9464SOL    HW139851   0.421   1.217   0.790 -1.2222 -1.7604 -2.9211
 9464SOL    HW239852   0.369   1.085   0.836 -0.2827  1.0100  3.5464
 9465SOL     OW39853   1.230   0.659   6.626 -0.3570  0.6059 -0.0884
 9465SOL    HW139854   1.265   0.571   6.637 -1.0488  0.1460 -1.6021
 9465SOL    HW239855   1.176   0.667   6.705  0.3146 -0.5807  0.4726
 9466SOL     OW39856   2.101   0.358   8.382  0.1161 -0.1232 -0.4393
 9466SOL    HW139857   2.111   0.452   8.365 -0.8885 -0.3497 -2.1858
 9466SOL    HW239858   2.192   0.329   8.379  0.3386  0.6325 -0.9510
 9467SOL     OW39859   2.191   4.564   7.541 -0.1873  0.1530 -0.6214
 9467SOL    HW139860   2.149   4.480   7.561  0.8036  0.8499  4.3413
 9467SOL    HW239861   2.281   4.558   7.572 -0.3579  1.5475  0.1866
 9468SOL     OW39862   1.326   0.635  13.717  0.3029  0.3020 -0.4521
 9468SOL    HW139863   1.317   0.709  13.778  0.4133  0.5312 -0.7105
 9468SOL    HW239864   1.352   0.566  13.778 -1.7561 -1.6112 -1.7727
 9469SOL     OW39865   0.043   1.629   7.740  0.2123 -0.7208 -0.1122
 9469SOL    HW139866   0.137   1.647   7.744 -0.0085  0.2813  0.5475
 9469SOL    HW239867   0.020   1.653   7.650 -0.5440 -0.6309  0.1102
 9470SOL     OW39868   3.958   4.214   4.263  0.4887 -0.0980 -0.0257
 9470SOL    HW139869   4.007   4.292   4.240 -2.2784  1.7331  0.2906
 9470SOL    HW239870   3.866   4.235   4.248 -0.1649 -2.2947  0.8000
 9471SOL     OW39871   1.493   4.601   5.907 -0.0597 -0.0033 -0.3206
 9471SOL    HW139872   1.531   4.538   5.845 -0.1452  0.6403 -1.0312
 9471SOL    HW239873   1.491   4.548   5.986  1.1095  0.0871 -0.2261
 9472SOL     OW39874   2.155   4.174   6.492 -0.3089 -0.4027  0.0992
 9472SOL    HW139875   2.095   4.178   6.567 -0.5495  0.0444 -0.1191
 9472SOL    HW239876   2.091   4.144   6.428  0.7070  1.1187 -1.6380
 9473SOL     OW39877   2.591   3.666  12.256  0.4781 -0.4112  0.1952
 9473SOL    HW139878   2.592   3.648  12.162  0.0057 -2.3146  0.5568
 9473SOL    HW239879   2.594   3.577  12.291  0.8758 -0.7353 -0.6726
 9474SOL     OW39880   2.911   1.007   8.627  0.6306  0.2049 -0.2014
 9474SOL    HW139881   2.994   1.009   8.675 -0.0400 -0.1391  0.9714
 9474SOL    HW239882   2.867   0.935   8.673  0.8689 -0.1373 -0.5066
 9475SOL     OW39883   4.118   0.492   7.257  0.5190 -0.0643 -0.3743
 9475SOL    HW139884   4.025   0.515   7.267  0.3208 -1.1159  0.1977
 9475SOL    HW239885   4.145   0.560   7.195 -0.6333  0.2958 -0.4842
 9476SOL     OW39886   0.818   0.056   5.144 -0.4684  0.0688  0.0644
 9476SOL    HW139887   0.849   4.699   5.106  0.3539  0.7677 -0.7482
 9476SOL    HW239888   0.894   0.113   5.149 -1.9400  1.9502  1.2773
 9477SOL     OW39889   3.051   1.280   4.675  0.0227  0.1763  0.5949
 9477SOL    HW139890   3.060   1.292   4.770  1.4974 -1.3497  0.6547
 9477SOL    HW239891   3.059   1.186   4.659  0.1669  0.3638 -0.4267
 9478SOL     OW39892   3.061   0.341  10.670  0.0858 -0.1223  0.1980
 9478SOL    HW139893   3.013   0.347  10.587 -0.6038  0.8204  0.6640
 9478SOL    HW239894   3.141   0.385  10.642 -0.5164  1.2144  0.5758
 9479SOL     OW39895   4.073   3.863   5.897  0.4952 -0.7182 -0.6517
 9479SOL    HW139896   4.011   3.794   5.875  0.0676 -1.0182  1.5081
 9479SOL    HW239897   4.127   3.829   5.967  2.3396  1.5408 -0.9585
 9480SOL     OW39898   0.526   3.896   3.456 -0.2318 -0.1753 -0.8483
 9480SOL    HW139899   0.511   3.960   3.387  0.2577 -1.9972 -2.6492
 9480SOL    HW239900   0.557   3.953   3.527 -0.0952 -1.7967  0.3939
 9481SOL     OW39901   3.441   2.372   5.417  0.9928  0.3695  0.0342
 9481SOL    HW139902   3.479   2.288   5.389 -2.1916 -1.4514  1.2123
 9481SOL    HW239903   3.525   2.409   5.446  0.1700  0.4832  2.2690
 9482SOL     OW39904   3.073   3.451   3.709 -0.0405 -0.7219 -0.2155
 9482SOL    HW139905   3.041   3.372   3.753 -1.3506  0.7183  1.4108
 9482SOL    HW239906   3.121   3.495   3.780 -0.5592  0.2900 -0.5019
 9483SOL     OW39907   1.482   3.514   8.866  0.2405 -0.2349 -0.6016
 9483SOL    HW139908   1.399   3.493   8.909 -0.1051  3.2914  0.4821
 9483SOL    HW239909   1.464   3.489   8.775 -0.2483 -0.4773 -0.4360
 9484SOL     OW39910   3.096   4.089  11.376 -0.0475 -0.0648  0.3885
 9484SOL    HW139911   3.130   4.083  11.465  1.1019  1.3171  0.0393
 9484SOL    HW239912   3.110   4.003  11.337 -0.1925  0.0024  0.1877
 9485SOL     OW39913   0.216   3.630  13.831  0.4774 -0.0341 -0.3879
 9485SOL    HW139914   0.307   3.641  13.859 -0.4702 -1.0580  3.0661
 9485SOL    HW239915   0.236   3.596  13.744 -0.1575 -2.4321  0.4237
 9486SOL     OW39916   0.601   1.297   5.263  0.1148  0.0422 -0.1315
 9486SOL    HW139917   0.608   1.359   5.335 -0.0275 -1.7213  1.4113
 9486SOL    HW239918   0.535   1.349   5.218  1.2977  1.1051 -0.6349
 9487SOL     OW39919   2.283   2.347   4.435  0.4245 -0.4090 -0.0777
 9487SOL    HW139920   2.206   2.391   4.472  0.6085 -0.0488 -0.1322
 9487SOL    HW239921   2.350   2.390   4.488 -0.8473  0.5849  0.7405
 9488SOL     OW39922   0.862   2.091  10.032  0.2078  0.3695  0.3023
 9488SOL    HW139923   0.906   2.023   9.980 -2.9840 -0.9962 -0.5990
 9488SOL    HW239924   0.916   2.094  10.110  1.2869  1.0504 -0.4696
 9489SOL     OW39925   3.507   0.592  10.455  0.2440 -0.6658 -0.0524
 9489SOL    HW139926   3.566   0.537  10.506  1.5742  1.9302  1.2318
 9489SOL    HW239927   3.570   0.656  10.423 -1.3793  0.5000 -0.9333
 9490SOL     OW39928   4.320   2.835   8.086 -0.2505  0.2151  0.5502
 9490SOL    HW139929   4.237   2.800   8.055 -0.3421  1.0888 -0.1962
 9490SOL    HW239930   4.314   2.809   8.178  1.4953 -1.0501  0.3177
 9491SOL     OW39931   2.529   3.932   8.564 -0.4582  0.1296 -0.0579
 9491SOL    HW139932   2.538   3.988   8.487 -0.1581 -1.6813 -1.3543
 9491SOL    HW239933   2.619   3.899   8.571 -0.1513  0.4984 -2.1084
 9492SOL     OW39934   0.065   4.654   3.500  0.1648 -0.4103  0.1022
 9492SOL    HW139935   0.109   4.648   3.415  0.5038  3.3505 -0.0098
 9492SOL    HW239936   4.702   4.622   3.483  0.3758 -1.3525  0.7876
 9493SOL     OW39937   1.762   2.455   3.363  0.2815  0.1377  0.8381
 9493SOL    HW139938   1.814   2.455   3.283 -1.4228  0.5967 -0.2860
 9493SOL    HW239939   1.688   2.410   3.322  0.0824  1.4386 -0.2061
 9494SOL     OW39940   1.336   1.737  10.502 -0.4539  0.6898  0.2356
 9494SOL    HW139941   1.341   1.792  10.424 -1.8831 -0.7004 -0.8304
 9494SOL    HW239942   1.370   1.657  10.463  0.0165  0.5550  0.9241
 9495SOL     OW39943   0.939   0.828   4.676 -0.1999  0.4438 -0.1218
 9495SOL    HW139944   0.957   0.886   4.602 -0.2771  0.1800 -0.3462
 9495SOL    HW239945   0.885   0.884   4.731 -0.7550  0.4390 -0.6725
 9496SOL     OW39946   1.529   2.709   5.795 -0.3509 -0.2664  0.0429
 9496SOL    HW139947   1.440   2.689   5.769 -0.0968 -0.4598 -0.6708
 9496SOL    HW239948   1.510   2.794   5.834  0.9512  0.5864 -1.1642
 9497SOL     OW39949   3.254   4.411  14.452 -0.6179  0.4696 -0.1080
 9497SOL    HW139950   3.323   4.380  14.511 -2.2972  0.9177  2.1006
 9497SOL    HW239951   3.195   4.444  14.521  1.3662  0.1938  1.7404
 9498SOL     OW39952   3.416   2.744   3.011 -0.3591  0.1092  0.0572
 9498SOL    HW139953   3.329   2.732   3.049 -1.3222  0.4943 -1.9841
 9498SOL    HW239954   3.473   2.790   3.073 -0.7175 -0.0103  0.4724
 9499SOL     OW39955   1.651   1.179   7.847 -0.1386 -0.1247 -0.0074
 9499SOL    HW139956   1.595   1.116   7.802 -2.0607  1.0741  0.7199
 9499SOL    HW239957   1.740   1.144   7.840  0.0044  0.1275  0.6329
 9500SOL     OW39958   0.637   3.020   5.981 -0.2602 -0.2945 -0.1723
 9500SOL    HW139959   0.646   3.091   6.045 -2.8183  0.5830 -0.7535
 9500SOL    HW239960   0.577   3.060   5.917  1.9203  1.7735 -0.8979
 9501SOL     OW39961   3.163   2.986  14.229 -0.1683  0.4761 -0.0785
 9501SOL    HW139962   3.210   3.026  14.156  0.0756 -2.0726 -1.3202
 9501SOL    HW239963   3.183   2.893  14.215 -1.5269  0.3329 -1.0258
 9502SOL     OW39964   3.066   3.854   1.421  0.1248  0.1469 -0.1357
 9502SOL    HW139965   3.048   3.837   1.328 -0.7575  0.4355 -0.0175
 9502SOL    HW239966   2.980   3.885   1.450 -0.2444 -0.8896 -0.1214
 9503SOL     OW39967   0.026   2.079   6.306  0.1163 -0.9672 -0.0556
 9503SOL    HW139968   4.718   2.004   6.355 -0.4952 -0.7011 -0.0540
 9503SOL    HW239969   4.691   2.146   6.338  0.3544 -0.1335 -1.3419
 9504SOL     OW39970   1.030   4.029  17.391 -0.2851  0.3913 -0.0288
 9504SOL    HW139971   1.048   4.119  17.364 -2.4300  0.6393 -0.6811
 9504SOL    HW239972   1.103   3.980  17.353  0.8638  1.9269  0.2359
 9505SOL     OW39973   3.748   3.824  16.660 -0.1202  0.2113  0.0058
 9505SOL    HW139974   3.665   3.867  16.681 -0.8352 -0.5581 -1.2701
 9505SOL    HW239975   3.712   3.757  16.603  0.7194 -0.5578  0.3823
 9506SOL     OW39976   4.478   2.643   5.085  0.0446  0.5398 -0.4775
 9506SOL    HW139977   4.406   2.588   5.054  1.6425 -1.8973  0.2250
 9506SOL    HW239978   4.557   2.599   5.057  1.6572  1.1311  3.1683
 9507SOL     OW39979   3.201   2.163   6.182  0.4491  0.1103  0.1849
 9507SOL    HW139980   3.202   2.067   6.183 -0.2312  0.0990 -0.8581
 9507SOL    HW239981   3.285   2.186   6.222 -0.0206  0.6732  0.8558
 9508SOL     OW39982   2.838   4.569   8.274 -0.2423 -0.3018  0.6546
 9508SOL    HW139983   2.923   4.526   8.287  0.9882  0.8452 -3.6664
 9508SOL    HW239984   2.786   4.491   8.255  0.9784 -1.4665  2.0825
 9509SOL     OW39985   2.492   0.111   3.850  0.5416 -0.1274  0.0354
 9509SOL    HW139986   2.423   0.177   3.855  1.5638  0.7440  2.5760
 9509SOL    HW239987   2.483   0.057   3.929 -1.2722 -1.0327 -0.7791
 9510SOL     OW39988   1.330   0.502   5.088 -0.2951  0.1202 -0.9423
 9510SOL    HW139989   1.399   0.532   5.148 -0.6492  0.3976 -0.6763
 9510SOL    HW239990   1.373   0.526   5.006  3.3321  0.8262  1.1367
 9511SOL     OW39991   2.790   3.069   3.963  0.1715  0.3133  0.1667
 9511SOL    HW139992   2.760   3.009   3.894  0.2230 -2.5167  2.6081
 9511SOL    HW239993   2.775   3.006   4.033 -2.1376  2.6317  1.7480
 9512SOL     OW39994   1.868   3.537   4.394 -0.9189  0.3180  0.0593
 9512SOL    HW139995   1.932   3.607   4.409  0.7293 -1.0947 -0.4030
 9512SOL    HW239996   1.868   3.527   4.299  0.7889 -0.5589  0.1433
 9513SOL     OW39997   3.693   1.781  12.079 -0.0561 -0.1450 -0.4566
 9513SOL    HW139998   3.605   1.752  12.106  0.1042  0.4344  0.7105
 9513SOL    HW239999   3.658   1.831  12.006 -1.7855  1.4095  1.4190
 9514SOL     OW40000   2.548   3.345   2.088  0.2200 -0.5740  0.0371
 9514SOL    HW140001   2.624   3.377   2.039  0.2052 -0.3035  0.1929
 9514SOL    HW240002   2.521   3.261   2.052 -2.4735 -0.4567  1.8262
 9515SOL     OW40003   0.356   1.187  13.187 -0.4746  0.1996 -0.2877
 9515SOL    HW140004   0.358   1.276  13.224 -0.1147  0.2480 -0.4242
 9515SOL    HW240005   0.313   1.145  13.262 -2.0614  1.8437 -0.2782
 9516SOL     OW40006   3.761   1.637   6.385  0.4305  0.1054  0.2074
 9516SOL    HW140007   3.819   1.562   6.396 -1.3335 -0.8373  3.1212
 9516SOL    HW240008   3.825   1.684   6.332  2.4235 -1.0020  1.6145
 9517SOL     OW40009   3.130   3.316  10.229 -0.1154 -0.1952  0.1787
 9517SOL    HW140010   3.163   3.260  10.299 -2.2464  1.4641  2.4913
 9517SOL    HW240011   3.037   3.292  10.221 -0.0793 -0.5610  0.8880
 9518SOL     OW40012   1.910   2.313   5.001 -0.5605  0.2163  0.4469
 9518SOL    HW140013   1.944   2.245   4.942  2.4354  0.7626  1.5688
 9518SOL    HW240014   1.840   2.352   4.948  0.1088  1.7691  0.7073
 9519SOL     OW40015   4.663   4.211   7.452 -0.2543  0.2986  0.1404
 9519SOL    HW140016   4.613   4.150   7.505  1.0540  0.4697  1.5514
 9519SOL    HW240017   4.607   4.224   7.375  1.3815 -2.6426 -1.5496
 9520SOL     OW40018   1.767   3.684   6.935 -0.3154 -0.0043 -0.0262
 9520SOL    HW140019   1.716   3.679   6.854 -0.2469  0.9416 -0.1278
 9520SOL    HW240020   1.852   3.709   6.898 -0.5438  0.3015 -0.3431
 9521SOL     OW40021   0.270   1.520  14.529  0.7106  0.4340  0.5219
 9521SOL    HW140022   0.261   1.614  14.546 -1.1187  0.1443  1.1477
 9521SOL    HW240023   0.362   1.495  14.521  0.3927 -1.1842  1.8835
 9522SOL     OW40024   1.739   0.028   9.879 -0.3490  0.3005  0.3098
 9522SOL    HW140025   1.717   0.104   9.933 -0.7781  0.8386 -0.6272
 9522SOL    HW240026   1.834   0.037   9.880 -0.6177  3.2135 -0.6544
 9523SOL     OW40027   1.093   3.994   5.461  0.1937  0.4755 -0.3095
 9523SOL    HW140028   1.043   3.918   5.490  1.3202 -0.1382  0.0372
 9523SOL    HW240029   1.072   4.062   5.526 -2.1915  0.1445 -0.7362
 9524SOL     OW40030   4.379   2.673  15.106  0.1754 -0.3257 -0.6264
 9524SOL    HW140031   4.435   2.739  15.066 -2.8137  2.1562 -0.7396
 9524SOL    HW240032   4.297   2.722  15.104  1.7613  2.3564  1.1136
 9525SOL     OW40033   3.992   0.027   3.590 -0.2781  0.0225 -0.0062
 9525SOL    HW140034   4.040   4.680   3.551 -0.8018 -1.2608  1.7075
 9525SOL    HW240035   4.063   0.090   3.601  0.8805 -0.9858 -1.9458
 9526SOL     OW40036   2.483   1.965   7.914 -0.3170  0.9111 -0.1625
 9526SOL    HW140037   2.555   1.917   7.873  1.3273  2.1984  1.2423
 9526SOL    HW240038   2.474   1.924   8.000 -0.9286  0.0951 -0.6075
 9527SOL     OW40039   1.271   3.638   9.138  0.4724  0.0010 -0.0280
 9527SOL    HW140040   1.349   3.689   9.157  0.4281 -0.5448  1.6991
 9527SOL    HW240041   1.210   3.670   9.205  0.2472 -1.1640  0.3311
 9528SOL     OW40042   0.245   0.872   4.587  0.1926 -0.1578  0.1434
 9528SOL    HW140043   0.183   0.813   4.629  0.0071  0.0829  0.2012
 9528SOL    HW240044   0.306   0.804   4.556 -1.0431 -0.4769 -1.6088
 9529SOL     OW40045   0.491   3.238   3.676  0.3841 -0.1149  0.1852
 9529SOL    HW140046   0.552   3.233   3.750 -1.8422 -3.2606  1.8164
 9529SOL    HW240047   0.547   3.198   3.610  1.7490 -1.7038  2.2895
 9530SOL     OW40048   3.367   1.368  15.206 -0.2029 -0.3568  0.3466
 9530SOL    HW140049   3.321   1.404  15.130  0.8521  1.8670  0.7623
 9530SOL    HW240050   3.311   1.299  15.240  0.5652 -1.0833  0.1331
 9531SOL     OW40051   1.259   1.063   8.741 -0.2707  0.0510 -0.2819
 9531SOL    HW140052   1.248   1.010   8.820  0.7859  0.1069 -0.1060
 9531SOL    HW240053   1.171   1.101   8.737  0.4336  1.4798 -2.1516
 9532SOL     OW40054   2.624   4.219  13.088 -0.3261  0.4961 -0.0625
 9532SOL    HW140055   2.649   4.271  13.165 -0.8522  1.0771 -0.2898
 9532SOL    HW240056   2.610   4.279  13.015 -0.1664 -1.1128 -1.4337
 9533SOL     OW40057   1.786   2.926   3.940  0.3253  0.0042  0.3933
 9533SOL    HW140058   1.739   2.937   4.022  1.5548 -3.4592  1.5582
 9533SOL    HW240059   1.749   3.002   3.895  0.0979 -1.9288 -2.6600
 9534SOL     OW40060   0.368   0.142   5.091 -0.3187 -0.7699 -0.1684
 9534SOL    HW140061   0.443   0.133   5.149  1.9167 -3.7241 -3.4730
 9534SOL    HW240062   0.308   0.186   5.152 -1.2221  0.8307 -2.1838
 9535SOL     OW40063   1.909   0.553  10.249 -0.5217 -0.3313  0.4106
 9535SOL    HW140064   1.968   0.574  10.322 -0.6630 -0.8124  0.6607
 9535SOL    HW240065   1.826   0.583  10.286 -0.5563 -0.8280  0.7462
 9536SOL     OW40066   2.210   0.837   6.605  0.6319 -0.0297 -0.1549
 9536SOL    HW140067   2.119   0.825   6.634  1.4522 -0.3810  2.2159
 9536SOL    HW240068   2.254   0.862   6.686  0.3158  1.3776 -0.4070
 9537SOL     OW40069   2.148   2.678   9.051 -0.0990  0.4300  0.1369
 9537SOL    HW140070   2.228   2.709   9.008  0.7607 -0.8599  0.8246
 9537SOL    HW240071   2.175   2.663   9.142 -1.7923 -1.4701  0.3247
 9538SOL     OW40072   1.315   4.173  15.608  0.3170 -0.0232 -0.2453
 9538SOL    HW140073   1.250   4.199  15.674  2.1040  2.5080  0.5151
 9538SOL    HW240074   1.262   4.128  15.542 -1.6217 -1.1451  2.0630
 9539SOL     OW40075   3.348   3.758   2.316  0.6805  0.2095 -0.4764
 9539SOL    HW140076   3.391   3.841   2.334 -1.5779  1.0358  1.1516
 9539SOL    HW240077   3.363   3.705   2.394 -0.8417 -0.1545 -0.4305
 9540SOL     OW40078   2.053   3.705   3.630 -0.4457 -0.1719 -0.6838
 9540SOL    HW140079   2.022   3.727   3.718 -2.6368 -0.9984 -1.2423
 9540SOL    HW240080   2.059   3.786   3.579  2.9520 -1.1113 -1.7490
 9541SOL     OW40081   3.514   2.688   5.352 -0.1556 -0.1011  0.1687
 9541SOL    HW140082   3.526   2.743   5.429  0.7041 -0.9789  0.6533
 9541SOL    HW240083   3.586   2.626   5.361  1.4011  1.4369 -1.5462
 9542SOL     OW40084   3.232   1.613  15.123 -0.3213 -0.1605 -0.2147
 9542SOL    HW140085   3.291   1.601  15.049  0.0712 -0.6704  0.1787
 9542SOL    HW240086   3.145   1.623  15.085 -0.7020  0.5216  0.8362
 9543SOL     OW40087   3.348   4.273  15.056  0.5134  0.6798  0.1140
 9543SOL    HW140088   3.303   4.270  14.972  1.4147  1.3812 -0.4038
 9543SOL    HW240089   3.439   4.261  15.028  0.1406 -1.8408  0.0251
 9544SOL     OW40090   2.210   2.866   7.962 -0.6782  0.1164 -0.1239
 9544SOL    HW140091   2.260   2.946   7.951  0.0453 -0.3348 -0.1408
 9544SOL    HW240092   2.130   2.890   7.915 -0.9534 -0.2241  0.1657
 9545SOL     OW40093   3.393   3.857   3.344  0.0537 -0.2901  0.0858
 9545SOL    HW140094   3.380   3.948   3.315 -0.4239 -1.0083 -2.0121
 9545SOL    HW240095   3.310   3.841   3.389 -0.2734  0.7975 -0.1291
 9546SOL     OW40096   3.396   0.807  14.194 -0.2678 -0.0814  0.1826
 9546SOL    HW140097   3.308   0.803  14.157 -0.5990  1.5018  0.7986
 9546SOL    HW240098   3.397   0.901  14.211 -0.0770 -0.0490 -0.0158
 9547SOL     OW40099   1.406   3.177   8.618  0.1688  0.1661  0.2075
 9547SOL    HW140100   1.446   3.138   8.696 -0.2858 -0.4591  0.1344
 9547SOL    HW240101   1.446   3.122   8.550 -4.0958 -2.4701 -0.1394
 9548SOL     OW40102   0.579   0.786  17.425 -0.1132  0.7666  0.4419
 9548SOL    HW140103   0.585   0.832  17.509  1.5058 -0.7988  1.1703
 9548SOL    HW240104   0.650   0.723  17.433 -0.1885  0.5224 -0.7794
 9549SOL     OW40105   0.054   2.236   2.419  0.5619 -0.2560  0.1296
 9549SOL    HW140106   0.015   2.215   2.335  0.4746 -1.1221  0.3808
 9549SOL    HW240107   0.064   2.329   2.399  0.5891 -0.6198 -1.5184
 9550SOL     OW40108   3.626   0.374   5.627 -0.8068  0.5407 -0.1289
 9550SOL    HW140109   3.546   0.358   5.577 -1.3306  1.7960  0.3046
 9550SOL    HW240110   3.650   0.282   5.634  0.8280  1.0031  0.3466
 9551SOL     OW40111   1.986   1.272   8.767  0.3482 -0.0257 -0.1716
 9551SOL    HW140112   2.008   1.208   8.700  0.8874  0.6040 -0.5925
 9551SOL    HW240113   2.057   1.254   8.829 -0.7759  1.1127  1.4535
 9552SOL     OW40114   2.234   1.136  11.602 -0.1072  0.0547 -0.1222
 9552SOL    HW140115   2.152   1.088  11.604 -0.7129  1.0816 -0.5770
 9552SOL    HW240116   2.247   1.153  11.695 -0.8356 -1.4020  0.2313
 9553SOL     OW40117   0.407   0.803   5.430  0.0127  1.0327 -0.2003
 9553SOL    HW140118   0.443   0.892   5.422  2.4589 -0.0828 -1.2984
 9553SOL    HW240119   0.459   0.759   5.363  1.1201  0.3700  1.0950
 9554SOL     OW40120   3.887   1.427   8.764 -0.6392 -0.0147 -0.1434
 9554SOL    HW140121   3.962   1.393   8.715 -1.1228 -2.0815  0.5558
 9554SOL    HW240122   3.931   1.462   8.841 -1.1658  0.2951  0.0151
 9555SOL     OW40123   3.407   1.655   8.876 -0.0499  0.0338  0.2298
 9555SOL    HW140124   3.435   1.746   8.886 -1.3732  0.3638  0.9494
 9555SOL    HW240125   3.490   1.609   8.893  0.5439  0.2991 -1.9663
 9556SOL     OW40126   3.367   3.194   5.497  0.0745 -0.5953 -0.3367
 9556SOL    HW140127   3.456   3.201   5.462  0.4526  0.5892  0.8971
 9556SOL    HW240128   3.369   3.247   5.576  1.8050  1.6403 -1.8882
 9557SOL     OW40129   0.071   1.073   6.058  0.4131  0.1951 -0.6697
 9557SOL    HW140130   4.701   1.077   6.073 -0.2993 -1.7808 -4.6868
 9557SOL    HW240131   0.087   1.165   6.041 -0.7124  0.6341  0.6546
 9558SOL     OW40132   4.106   2.388   9.433 -0.1467 -0.3121 -0.2009
 9558SOL    HW140133   4.099   2.479   9.403  0.0217  0.6836  2.7161
 9558SOL    HW240134   4.170   2.343   9.378  0.1422  0.1807 -0.2737
 9559SOL     OW40135   4.170   4.128   2.758  0.6484 -0.0340  0.0307
 9559SOL    HW140136   4.260   4.148   2.733  0.2195 -0.1999 -1.6452
 9559SOL    HW240137   4.132   4.066   2.696 -0.6257 -0.1031  0.8859
 9560SOL     OW40138   3.953   3.363  13.223 -0.4537  0.2827 -0.3700
 9560SOL    HW140139   3.869   3.338  13.263 -0.8240  0.4462 -1.0489
 9560SOL    HW240140   3.995   3.280  13.199 -0.4387  0.4740 -0.9901
 9561SOL     OW40141   0.522   3.252   6.530  0.0552  0.0114 -0.2762
 9561SOL    HW140142   0.535   3.157   6.522 -2.6572 -0.4992  1.2835
 9561SOL    HW240143   0.525   3.262   6.625 -0.0623  2.2235 -0.5068
 9562SOL     OW40144   3.198   2.354   3.998  0.4487  0.4219  0.0637
 9562SOL    HW140145   3.249   2.283   4.037 -0.0061  0.5203  0.8325
 9562SOL    HW240146   3.113   2.342   4.040 -0.5820  1.4028 -1.7752
 9563SOL     OW40147   2.481   1.537   6.783  0.1912  0.3847  0.0926
 9563SOL    HW140148   2.455   1.619   6.741 -0.3236  0.3355  0.3162
 9563SOL    HW240149   2.392   1.506   6.797 -0.4513  2.6384  1.0290
 9564SOL     OW40150   4.132   1.778   8.936  0.8846 -0.3774 -0.0670
 9564SOL    HW140151   4.046   1.763   8.975  0.5901  1.2236 -0.0902
 9564SOL    HW240152   4.184   1.705   8.968  0.9533 -0.4729 -0.4019
 9565SOL     OW40153   1.401   2.986   8.206 -0.6613  0.1957 -0.1746
 9565SOL    HW140154   1.424   2.894   8.223  4.3253  1.6603  0.8701
 9565SOL    HW240155   1.335   2.999   8.274  1.0882  1.1594  1.3532
   4.72497   4.72497  17.70130
