Membrane in water
40155
    1TCq1    O1    1   0.235   1.778  10.160 -0.7131  0.1600 -0.0550
    1TCq1    C1    2   0.201   1.679  10.248  0.0308 -1.1525 -0.0549
    1TCq1    O2    3   0.101   1.608  10.249  0.0017  0.0718  0.7185
    1TCq1    C2    4   0.299   1.682  10.354  0.2183  0.3095 -0.0079
    1TCq1    C3    5   0.422   1.741  10.339 -0.5923  0.2589 -0.7958
    1TCq1    C4    6   0.497   1.764  10.455 -0.2257  0.3950 -0.1717
    1TCq1    C5    7   0.449   1.732  10.576  0.6589 -0.1012 -0.2135
    1TCq1    C6    8   0.322   1.683  10.584  0.1967 -0.0454 -1.2742
    1TCq1    C7    9   0.243   1.659  10.476 -0.6180 -0.9436  0.3358
    1TCq1    C8   10   0.272   1.636  10.714 -0.0120  0.3154  0.5705
    1TCq1    O4   11   0.318   1.693  10.812 -0.1335  0.5351  0.5791
    1TCq1    C9   12   0.628   1.815  10.446  0.4295 -0.0940 -0.2992
    1TCq1    O5   13   0.674   1.858  10.554 -0.4873 -0.4764  0.5519
    1TCq1    O6   14   0.681   1.811  10.332  0.3229  0.0607 -0.2820
    1TCq1    H1   15   0.313   1.828  10.192 -0.2532 -1.6651  1.6432
    1TCq1    H2   16   0.464   1.772  10.244  0.8544 -0.5201 -0.4119
    1TCq1    H3   17   0.515   1.747  10.661  2.0004  0.8605 -1.4410
    1TCq1    H4   18   0.140   1.634  10.496 -1.1658 -1.2224 -2.8630
    2MPD2     C   19   0.009   1.291  11.016 -0.4484 -0.2892 -0.7247
    2MPD2    C1   20   0.082   1.404  11.053 -0.3977 -0.6677  0.0372
    2MPD2    C2   21   0.147   1.488  10.954  0.0616 -0.4784 -0.1232
    2MPD2    C3   22   0.129   1.459  10.820 -0.3672  0.4537 -0.4043
    2MPD2    C4   23   0.037   1.355  10.783 -0.2444  0.6834  0.1936
    2MPD2    C5   24   4.709   1.278  10.880  0.0564  0.3357  0.1480
    2MPD2     H   25   0.213   1.566  10.989  2.6365 -1.5350 -2.6624
    2MPD2    H1   26   0.009   1.338  10.680 -1.2334  0.7385  0.4585
    2MPD2    H2   27   4.672   1.225  11.076  0.9198 -0.0248  0.9414
    2MPD2    H3   28   4.651   1.190  10.857  1.6812  0.3215 -3.8254
    2MPD2     N   29   0.188   1.527  10.711  0.6110 -0.6272 -0.0148
    2MPD2    H5   30   0.173   1.485  10.620  1.4705  0.6899 -0.7665
    2MPD2    N1   31   0.109   1.442  11.187 -0.0416  0.3046 -0.0901
    2MPD2    H7   32   0.175   1.518  11.201 -0.1367  0.9407 -3.0856
    3TCq1    O1   33   0.519   2.389  10.710 -0.2371  0.1568  0.0146
    3TCq1    C1   34   0.506   2.415  10.843 -0.1457 -0.3591  0.4220
    3TCq1    O2   35   0.456   2.333  10.917 -0.1943  0.5546  0.1692
    3TCq1    C2   36   0.435   2.537  10.854  0.1198  0.3315  0.1532
    3TCq1    C3   37   0.504   2.649  10.830  0.4910 -0.4267  0.2153
    3TCq1    C4   38   0.433   2.765  10.843  0.0170  0.3575 -0.0517
    3TCq1    C5   39   0.298   2.773  10.875 -0.4221  0.0254  0.2626
    3TCq1    C6   40   0.235   2.654  10.893  0.1399 -0.1232  0.0138
    3TCq1    C7   41   0.301   2.537  10.884  0.8701  0.5385  0.5137
    3TCq1    C8   42   0.114   2.650  10.976 -0.6995  0.7136 -0.4285
    3TCq1    O4   43   0.049   2.545  10.966 -0.4110  1.1566  0.2795
    3TCq1    C9   44   0.500   2.887  10.806 -0.4615 -0.5639 -0.2261
    3TCq1    O5   45   0.447   2.994  10.843  0.0340  0.6375 -0.1035
    3TCq1    O6   46   0.578   2.870  10.706  0.2844  0.1445  0.4346
    3TCq1    H1   47   0.555   2.460  10.652 -1.0687 -1.2279 -2.2365
    3TCq1    H2   48   0.609   2.637  10.807  0.5163 -1.1660  0.7226
    3TCq1    H3   49   0.255   2.873  10.874  1.4195  0.8099 -1.7584
    3TCq1    H4   50   0.249   2.443  10.903 -0.8813  1.4405  0.1936
    4MPD2     C   51   4.501   2.879  11.292 -0.6205  0.3942 -0.0218
    4MPD2    C1   52   4.586   2.977  11.253 -0.3017  0.1325 -0.6028
    4MPD2    C2   53   4.688   2.941  11.166 -0.3777 -0.0748 -0.4754
    4MPD2    C3   54   4.700   2.809  11.114 -0.5981  0.4423  0.2697
    4MPD2    C4   55   4.622   2.710  11.164 -0.4290  0.0328  0.7075
    4MPD2    C5   56   4.520   2.750  11.250 -0.9785  0.5446 -0.5566
    4MPD2     H   57   0.035   3.018  11.137  0.9723 -0.1634  2.5737
    4MPD2    H1   58   4.625   2.607  11.132 -0.0922  0.1378  0.4040
    4MPD2    H2   59   4.416   2.896  11.356 -2.5681 -0.7857 -2.3050
    4MPD2    H3   60   4.445   2.683  11.290 -1.6557  1.4747 -0.2855
    4MPD2     N   61   0.089   2.778  11.032 -0.9777  0.4358 -0.0966
    4MPD2    H5   62   0.159   2.850  11.017  1.5775 -1.4941  2.5825
    4MPD2    N1   63   4.589   3.103  11.304 -0.0404  0.7835 -0.9215
    4MPD2    H7   64   4.673   3.158  11.290  0.2968  1.1439  2.4343
    5TCq1    O1   65   1.064   4.641  11.745  0.4006  0.3018 -0.4019
    5TCq1    C1   66   0.981   4.590  11.660 -0.1669  0.9580  0.9936
    5TCq1    O2   67   1.001   4.486  11.604  0.1593  0.3765 -0.3748
    5TCq1    C2   68   0.874   4.680  11.632  0.4204  0.1734 -0.0440
    5TCq1    C3   69   0.795   4.715  11.740 -0.0404 -0.4537  0.3947
    5TCq1    C4   70   0.668   0.030  11.708  0.0273  0.3455  0.8004
    5TCq1    C5   71   0.626   0.057  11.581 -0.3031 -0.8604  0.4842
    5TCq1    C6   72   0.703   0.006  11.476 -0.7493 -0.0682  0.2620
    5TCq1    C7   73   0.830   4.678  11.501  0.0163 -0.0699 -0.0057
    5TCq1    C8   74   0.648   4.703  11.339  0.5102 -0.5496  0.2050
    5TCq1    O4   75   0.728   4.657  11.261 -0.1348 -0.2334  0.3692
    5TCq1    C9   76   0.585   0.077  11.815 -0.6436 -0.1054  0.2399
    5TCq1    O5   77   0.627   0.071  11.932  0.2843 -0.0561  0.0336
    5TCq1    O6   78   0.473   0.130  11.787  0.6969  0.2122  0.8178
    5TCq1    H1   79   1.025   0.000  11.781  0.2609  0.3367 -0.6322
    5TCq1    H2   80   0.830   4.711  11.842 -1.9796  0.9872  1.1068
    5TCq1    H3   81   0.523   0.088  11.572  0.7326  2.4367 -0.1353
    5TCq1    H4   82   0.901   4.647  11.425 -0.3119 -1.7939  0.4000
    6MPD2     C   83   0.331   0.081  11.187 -0.3039  0.0132  0.4787
    6MPD2    C1   84   0.457   0.022  11.196  0.2684  0.1400 -0.0770
    6MPD2    C2   85   0.490   4.653  11.094 -0.8116 -0.1232  0.6020
    6MPD2    C3   86   0.425   4.652  10.971  0.4786 -1.0168  0.2162
    6MPD2    C4   87   0.307   0.006  10.960 -0.7568  0.8079  0.4188
    6MPD2    C5   88   0.259   0.078  11.066  0.1794  0.3367  0.6081
    6MPD2     H   89   0.574   4.587  11.115 -1.4332 -0.3016  2.4931
    6MPD2    H1   90   0.244   4.720  10.872 -0.1404 -1.5807  0.2191
    6MPD2    H2   91   0.280   0.110  11.278  1.6462 -0.0850  1.5999
    6MPD2    H3   92   0.163   0.127  11.061 -0.2456 -0.3107  2.5047
    6MPD2     N   93   0.486   4.570  10.882 -0.3397  0.2110 -0.4622
    6MPD2    H5   94   0.574   4.530  10.914 -0.3849 -0.6070 -1.3673
    6MPD2    N1   95   0.526   0.033  11.318 -0.7008  0.0165 -0.2366
    6MPD2    H7   96   0.484   0.098  11.384 -0.6728  1.6181 -1.8247
    7TCq1    O1   97   2.085   4.003  13.356 -0.1729  0.2000 -0.2093
    7TCq1    C1   98   2.007   3.891  13.346  0.4529 -0.2501  0.3348
    7TCq1    O2   99   1.907   3.882  13.278  0.1496 -0.0732 -0.1102
    7TCq1    C2  100   2.088   3.777  13.372  0.2688  0.8465  0.3492
    7TCq1    C3  101   2.075   3.662  13.294 -0.1606  1.4434 -0.1501
    7TCq1    C4  102   2.163   3.555  13.309  0.0566 -0.3502 -0.1313
    7TCq1    C5  103   2.262   3.562  13.406 -1.3043 -0.3362  0.3317
    7TCq1    C6  104   2.272   3.678  13.482 -1.1598  0.2335 -0.7330
    7TCq1    C7  105   2.179   3.780  13.474  0.1128 -0.9362  0.6436
    7TCq1    C8  106   2.352   3.663  13.600  0.1960  0.4286  0.3975
    7TCq1    O4  107   2.426   3.567  13.602 -0.0414 -0.0878  0.3286
    7TCq1    C9  108   2.150   3.442  13.220  0.2123  0.3248 -0.2580
    7TCq1    O5  109   2.243   3.358  13.227 -0.0776  0.0162 -0.2726
    7TCq1    O6  110   2.070   3.454  13.123  0.1586  0.2973 -0.2244
    7TCq1    H1  111   2.176   3.985  13.386 -1.0722 -0.4200  2.0671
    7TCq1    H2  112   1.994   3.649  13.223 -0.1933  2.3572 -0.2854
    7TCq1    H3  113   2.331   3.479  13.419 -0.7283 -0.0287 -0.7581
    7TCq1    H4  114   2.176   3.869  13.535 -3.2078 -1.1034  0.6737
    8MPD2     C  115   2.535   3.831  14.046 -0.1638  0.3621  0.0788
    8MPD2    C1  116   2.564   3.718  13.974  0.4661 -0.2091  0.4312
    8MPD2    C2  117   2.502   3.697  13.852  0.1866 -0.0884  0.0392
    8MPD2    C3  118   2.398   3.775  13.816 -0.0820  0.3451 -0.0969
    8MPD2    C4  119   2.363   3.883  13.894 -0.3569 -0.2377 -0.8031
    8MPD2    C5  120   2.428   3.902  14.010 -0.1664 -0.1418 -0.3396
    8MPD2     H  121   2.523   3.608  13.793  2.9449  1.3212 -1.1318
    8MPD2    H1  122   2.281   3.949  13.867  1.3958  1.9463 -0.8567
    8MPD2    H2  123   2.581   3.852  14.142  0.1133 -0.1208  0.0532
    8MPD2    H3  124   2.409   3.989  14.073  0.6929  0.0228 -0.3164
    8MPD2     N  125   2.330   3.760  13.697  0.2387  0.3596 -0.0846
    8MPD2    H5  126   2.249   3.820  13.683 -0.1170 -0.8105 -2.8668
    8MPD2    N1  127   2.664   3.633  14.018  0.1566 -0.0331  0.3563
    8MPD2    H7  128   2.692   3.648  14.115 -0.5785 -2.5483  0.9587
    9TCq1    O1  129   1.154   2.679  10.915 -0.0693  0.4938 -0.2694
    9TCq1    C1  130   1.187   2.564  10.848 -0.8490 -0.1746  0.0586
    9TCq1    O2  131   1.269   2.479  10.883 -0.0075  0.2458 -0.2247
    9TCq1    C2  132   1.059   2.517  10.789 -0.0868 -1.1107  0.3833
    9TCq1    C3  133   0.977   2.603  10.711  0.2469  0.3008  0.0767
    9TCq1    C4  134   0.874   2.535  10.641 -0.8735  0.0117  0.8243
    9TCq1    C5  135   0.850   2.393  10.658 -0.0336 -0.6894 -0.2758
    9TCq1    C6  136   0.924   2.323  10.745 -0.2345 -0.8515 -0.3364
    9TCq1    C7  137   1.034   2.384  10.803 -0.1929 -0.2125 -0.3846
    9TCq1    C8  138   0.859   2.221  10.821 -0.3876  0.7912 -0.8031
    9TCq1    O4  139   0.820   2.109  10.776  0.2786  0.1066 -0.5413
    9TCq1    C9  140   0.772   2.606  10.573 -0.3300  0.7099  0.0022
    9TCq1    O5  141   0.663   2.542  10.560 -0.0742 -0.2738 -0.0331
    9TCq1    O6  142   0.780   2.732  10.564  0.7403 -0.4121  0.1381
    9TCq1    H1  143   1.068   2.725  10.900 -0.8240 -0.0728  2.4506
    9TCq1    H2  144   0.994   2.710  10.707  0.8787  0.2321  0.8318
    9TCq1    H3  145   0.758   2.345  10.626  0.2155 -2.6836  1.9675
    9TCq1    H4  146   1.088   2.322  10.873  0.4707 -0.2319 -0.9133
   10MPD2     C  147   0.745   2.074  11.053 -0.1630 -0.1954  0.0057
   10MPD2    C1  148   0.763   2.210  11.050 -0.5819  0.2092 -0.6336
   10MPD2    C2  149   0.698   2.289  11.144 -0.1305  0.6670  0.2442
   10MPD2    C3  150   0.631   2.234  11.257  0.4302 -1.1413 -0.4207
   10MPD2    C4  151   0.620   2.099  11.249  0.6403  0.7462  0.2248
   10MPD2    C5  152   0.675   2.023  11.151 -1.0883  0.0086  0.0104
   10MPD2     H  153   0.702   2.397  11.136 -2.7738  0.7958  0.5755
   10MPD2    H1  154   0.567   2.052  11.331  0.7604  0.7178  0.2854
   10MPD2    H2  155   0.798   2.008  10.985  2.1641  0.4620  1.1742
   10MPD2    H3  156   0.672   1.915  11.159 -0.7755  0.1253  1.8435
   10MPD2     N  157   0.583   2.311  11.371 -0.5644 -0.2020 -0.1810
   10MPD2    H5  158   0.515   2.265  11.431  1.0870  2.0063  3.4041
   10MPD2    N1  159   0.834   2.272  10.947 -0.0220 -0.5877 -0.1269
   10MPD2    H7  160   0.863   2.369  10.944 -0.3683 -0.4684  0.3470
   11TCq1    O1  161   1.782   2.905  14.031 -0.4961  0.5359 -0.2152
   11TCq1    C1  162   1.645   2.928  13.999  0.3473  0.2853  0.4062
   11TCq1    O2  163   1.593   2.942  13.886 -0.3936  0.2950 -0.6064
   11TCq1    C2  164   1.566   2.927  14.121  0.6770 -0.3635  0.3399
   11TCq1    C3  165   1.624   2.970  14.237  0.0289  0.4673 -0.0499
   11TCq1    C4  166   1.552   2.954  14.350  0.0032 -0.5703 -0.3609
   11TCq1    C5  167   1.420   2.907  14.353 -0.9724  0.6782  0.0816
   11TCq1    C6  168   1.358   2.879  14.230  0.7222 -0.3622 -0.1988
   11TCq1    C7  169   1.436   2.884  14.113  0.4959  0.3502 -0.6443
   11TCq1    C8  170   1.212   2.856  14.225  0.3478  0.3524 -1.0029
   11TCq1    O4  171   1.160   2.805  14.325  0.3482 -0.1869  0.1078
   11TCq1    C9  172   1.621   2.992  14.474 -0.0070 -0.2821  0.3406
   11TCq1    O5  173   1.736   3.042  14.473 -0.1796  0.3233 -0.0165
   11TCq1    O6  174   1.582   2.919  14.571  0.0578  0.1726  0.1123
   11TCq1    H1  175   1.801   2.879  14.124  1.8096 -0.5904 -0.9912
   11TCq1    H2  176   1.725   3.008  14.249  0.0378  0.7363 -0.9681
   11TCq1    H3  177   1.361   2.914  14.444 -0.5532  1.7346  0.2702
   11TCq1    H4  178   1.394   2.857  14.017  0.3034 -1.9143  0.0687
   12MPD2     C  179   0.929   2.902  14.183 -0.1429  0.1283  0.0634
   12MPD2    C1  180   1.025   2.900  14.080  0.3796 -0.0401  0.0437
   12MPD2    C2  181   0.985   2.904  13.950  0.3508 -0.1490  0.7700
   12MPD2    C3  182   0.849   2.918  13.913 -0.0858 -0.5680  0.0534
   12MPD2    C4  183   0.758   2.918  14.016 -0.0407 -0.5151  0.4259
   12MPD2    C5  184   0.801   2.907  14.140  0.4322  0.0240 -0.1138
   12MPD2     H  185   1.065   2.900  13.878  2.1955  0.6286  2.7875
   12MPD2    H1  186   0.652   2.927  13.993  0.2448 -0.9077 -1.0510
   12MPD2    H2  187   0.941   2.903  14.290 -1.4381  0.1100  0.2054
   12MPD2    H3  188   0.719   2.913  14.212  1.5219 -1.8131  1.2705
   12MPD2     N  189   0.800   2.916  13.779  0.2569 -0.4555  0.2097
   12MPD2    H5  190   0.707   2.878  13.766 -1.0768  1.8607  3.2048
   12MPD2    N1  191   1.161   2.896  14.103  0.3307 -0.3242  0.1628
   12MPD2    H7  192   1.222   2.927  14.029  0.0325  0.8037  0.3910
   13TCq1    O1  193   0.531   3.254  10.820  0.0421 -0.3864 -0.0911
   13TCq1    C1  194   0.613   3.307  10.913 -0.7866 -1.0714  0.1819
   13TCq1    O2  195   0.673   3.412  10.908  0.1729 -0.5896  0.1754
   13TCq1    C2  196   0.670   3.191  10.976 -0.1077 -0.4655 -0.2331
   13TCq1    C3  197   0.766   3.121  10.913 -0.8466 -0.0629 -0.0027
   13TCq1    C4  198   0.788   2.990  10.952 -0.2072  0.2314  0.4130
   13TCq1    C5  199   0.723   2.946  11.060  0.0972  0.2059  0.4069
   13TCq1    C6  200   0.616   3.016  11.124  1.0654 -0.5061  0.1969
   13TCq1    C7  201   0.582   3.144  11.071 -0.1762  0.0097 -0.2424
   13TCq1    C8  202   0.508   2.951  11.192 -0.2188  0.0714  0.1850
   13TCq1    O4  203   0.426   3.028  11.242  1.4025  0.7194  0.8883
   13TCq1    C9  204   0.898   2.919  10.883 -0.1645 -0.3257  0.3509
   13TCq1    O5  205   0.937   2.815  10.931  0.1018  0.0754 -0.4638
   13TCq1    O6  206   0.924   2.963  10.764  0.0100 -0.3652 -0.5602
   13TCq1    H1  207   0.505   3.161  10.837 -1.7347 -0.1034 -1.2901
   13TCq1    H2  208   0.831   3.157  10.834  0.6308  0.3519  1.4081
   13TCq1    H3  209   0.740   2.843  11.089  0.2659 -0.1632 -0.9889
   13TCq1    H4  210   0.495   3.200  11.105 -1.8915 -2.2794 -0.8096
   14MPD2     C  211   0.415   2.588  11.199 -0.3587 -0.9560  1.0804
   14MPD2    C1  212   0.416   2.726  11.230 -0.3366  0.1446  0.8676
   14MPD2    C2  213   0.320   2.763  11.328  0.4826  0.0858  0.1952
   14MPD2    C3  214   0.219   2.675  11.372  0.2305 -0.5224  0.4539
   14MPD2    C4  215   0.223   2.543  11.330  0.4974  0.6259 -0.1568
   14MPD2    C5  216   0.317   2.503  11.241 -0.1059  0.3436  0.1693
   14MPD2     H  217   0.310   2.865  11.361 -2.0586  0.2859 -1.1539
   14MPD2    H1  218   0.158   2.468  11.374 -0.2345  0.1783 -2.0337
   14MPD2    H2  219   0.498   2.547  11.142 -0.9845 -1.1588  0.3214
   14MPD2    H3  220   0.335   2.399  11.214  0.0844  0.2422  0.6849
   14MPD2     N  221   0.121   2.729  11.462  0.5302  0.2961 -0.2869
   14MPD2    H5  222   0.139   2.825  11.489 -1.2830  0.5731 -0.0223
   14MPD2    N1  223   0.511   2.817  11.181 -0.0975  0.5140  0.3677
   14MPD2    H7  224   0.582   2.793  11.113  1.2993  0.4752  1.8450
   15TCq1    O1  225   2.048   2.143   1.788  0.5830  0.0109  0.3272
   15TCq1    C1  226   1.918   2.114   1.747  0.3198 -0.7006  0.0749
   15TCq1    O2  227   1.813   2.118   1.813  0.2816  0.3777  0.3214
   15TCq1    C2  228   1.911   2.105   1.601 -0.0371 -0.6837  0.0249
   15TCq1    C3  229   1.821   2.185   1.542  0.1562  1.2586 -0.0486
   15TCq1    C4  230   1.818   2.198   1.406  0.3949 -0.1106  0.4939
   15TCq1    C5  231   1.891   2.108   1.330 -0.3048  0.1165  0.3701
   15TCq1    C6  232   1.979   2.020   1.395  0.1160  0.5776 -0.3819
   15TCq1    C7  233   2.001   2.028   1.530 -0.0725 -0.7050  0.1247
   15TCq1    C8  234   2.050   1.910   1.328  0.3096 -0.0928 -0.6542
   15TCq1    O4  235   2.137   1.857   1.400 -0.4802 -0.2333 -0.2930
   15TCq1    C9  236   1.735   2.299   1.346 -0.5275 -0.0156  0.3115
   15TCq1    O5  237   1.667   2.367   1.426  0.1319  0.5002  0.5329
   15TCq1    O6  238   1.752   2.324   1.228 -0.2615  0.0093 -0.5249
   15TCq1    H1  239   2.098   2.164   1.706 -0.0663  1.1700  0.2215
   15TCq1    H2  240   1.776   2.263   1.603  1.0899  0.8668  1.1332
   15TCq1    H3  241   1.877   2.119   1.223 -0.7061  3.0348  0.7309
   15TCq1    H4  242   2.053   1.951   1.585 -1.4454 -1.4021  0.4436
   16MPD2     C  243   2.021   1.751   0.997 -0.5175  0.7860 -0.1434
   16MPD2    C1  244   2.077   1.788   1.116  0.2326 -0.1544  0.2459
   16MPD2    C2  245   2.190   1.722   1.150  0.4293  0.1045 -0.3656
   16MPD2    C3  246   2.233   1.601   1.094  0.2059 -0.0862  0.3784
   16MPD2    C4  247   2.169   1.562   0.976  0.5223 -0.0591 -0.2287
   16MPD2    C5  248   2.061   1.638   0.937 -0.5292  0.0484 -0.5490
   16MPD2     H  249   2.255   1.758   1.228 -1.4039  0.9022  0.7831
   16MPD2    H1  250   2.193   1.475   0.917  0.5851 -1.4327  1.8320
   16MPD2    H2  251   1.926   1.788   0.960 -0.2730  0.1139 -1.4564
   16MPD2    H3  252   2.021   1.629   0.837 -1.4515  2.4005 -0.3844
   16MPD2     N  253   2.341   1.535   1.160 -0.9631  0.2392  0.3863
   16MPD2    H5  254   2.367   1.559   1.255  1.6961  0.1148 -0.3198
   16MPD2    N1  255   2.021   1.888   1.193 -0.3208  0.0924  0.4239
   16MPD2    H7  256   1.945   1.937   1.146 -0.4859 -2.0745 -1.5522
   17TCq1    O1  257   4.657   1.480  10.098 -0.1735  0.2303  0.2233
   17TCq1    C1  258   4.715   1.385  10.019 -0.8429  0.1882 -0.7979
   17TCq1    O2  259   4.695   1.365   9.898  0.2950 -0.2120  0.0315
   17TCq1    C2  260   0.116   1.346  10.077 -0.1431 -0.2478  0.6734
   17TCq1    C3  261   0.206   1.305   9.983  0.6396  0.0499 -0.2079
   17TCq1    C4  262   0.323   1.248  10.024 -0.1533  0.5717 -0.1542
   17TCq1    C5  263   0.351   1.249  10.157  0.7865 -0.5448  0.0162
   17TCq1    C6  264   0.258   1.281  10.249 -0.7943  0.3294 -0.2944
   17TCq1    C7  265   0.138   1.329  10.212 -0.2339  0.1417  0.4449
   17TCq1    C8  266   0.300   1.321  10.383  0.2741  0.5013 -0.6300
   17TCq1    O4  267   0.223   1.363  10.465  0.1096 -0.1662 -0.3013
   17TCq1    C9  268   0.429   1.215   9.941  0.2363 -0.6300  0.4230
   17TCq1    O5  269   0.506   1.118   9.971 -0.2445 -0.1440  0.0721
   17TCq1    O6  270   0.469   1.308   9.861 -0.0505  0.3376  0.1101
   17TCq1    H1  271   4.714   1.493  10.177  0.3404  1.1417 -0.2984
   17TCq1    H2  272   0.192   1.327   9.878 -3.3298  1.0544  0.5394
   17TCq1    H3  273   0.445   1.199  10.178  2.0624  1.7287 -0.3256
   17TCq1    H4  274   0.065   1.351  10.290  1.4137 -1.3316  2.3966
   18MPD2     C  275   0.459   1.379  10.624 -0.6128  0.4383 -0.6760
   18MPD2    C1  276   0.512   1.380  10.496 -0.1512  0.0763 -0.5877
   18MPD2    C2  277   0.643   1.420  10.489 -0.9890  0.9994  0.4651
   18MPD2    C3  278   0.714   1.462  10.597  0.3262 -0.5458 -0.0739
   18MPD2    C4  279   0.657   1.461  10.725 -0.3948 -0.1721 -0.1684
   18MPD2    C5  280   0.528   1.407  10.737  0.3064  0.1832  0.5639
   18MPD2     H  281   0.681   1.434  10.388 -1.0676 -1.0210  0.1478
   18MPD2    H1  282   0.708   1.504  10.810 -2.1946 -2.0762  1.8940
   18MPD2    H2  283   0.358   1.343  10.637  0.1063 -1.9908 -1.6841
   18MPD2    H3  284   0.476   1.415  10.832  0.1715 -1.5280  0.6309
   18MPD2     N  285   0.843   1.515  10.587  0.2129  0.2402  0.0526
   18MPD2    H5  286   0.878   1.550  10.675  0.0644 -4.1275  1.8055
   18MPD2    N1  287   0.432   1.350  10.383  0.0806  0.8691 -0.4208
   18MPD2    H7  288   0.482   1.365  10.296  0.6101  0.0081 -0.2635
   19TMC2    C1  289   1.522   1.802  14.307 -0.1405  0.2485 -0.4424
   19TMC2    C2  290   1.401   1.758  14.276 -0.9549  0.9200 -0.5843
   19TMC2    C3  291   1.382   1.653  14.195  0.4941 -0.7680  0.0314
   19TMC2    C4  292   1.634   1.745  14.252 -0.6629  0.2432  0.2891
   19TMC2    C5  293   1.615   1.646  14.169 -0.1223 -0.8797  0.7256
   19TMC2    C6  294   1.489   1.598  14.136 -0.2504 -0.2385  0.1510
   19TMC2     C  295   1.533   1.944  14.345 -0.4567 -0.2293  0.4438
   19TMC2     O  296   1.432   2.010  14.327 -0.6842 -0.8426  0.5407
   19TMC2     H  297   1.320   1.815  14.321 -0.0246  0.7430  1.3201
   19TMC2    H1  298   1.736   1.781  14.266 -0.8118  0.3240  1.1864
   19TMC2    H2  299   1.480   1.522  14.060 -0.4955  1.9807 -2.0337
   19TMC2    C7  300   1.696   1.651  14.047  0.3628 -0.2784 -0.0180
   19TMC2    C8  301   1.258   1.652  14.131 -0.2649  0.3474 -0.2124
   19TMC2    O1  302   1.635   1.647  13.940 -0.1035 -0.2081  0.3163
   19TMC2    O2  303   1.170   1.740  14.116  0.0526 -0.5486  0.2967
   19TMC2    O5  304   1.246   1.529  14.082 -0.4028 -0.0580 -0.0524
   19TMC2    H5  305   1.308   1.461  14.115  0.9509  0.4292 -1.5745
   20MPD2     C  306   1.639   2.222  14.388  0.7784  0.3723  0.0427
   20MPD2    C1  307   1.716   2.106  14.411  0.2050  0.1786  0.0140
   20MPD2    C2  308   1.845   2.123  14.452 -0.2659  0.1744 -0.2017
   20MPD2    C3  309   1.901   2.244  14.469  0.2099 -0.2593 -1.1190
   20MPD2    C4  310   1.830   2.358  14.458  0.1236 -0.2266  0.5584
   20MPD2    C5  311   1.698   2.345  14.412  0.5223  0.0892  0.4831
   20MPD2     H  312   1.900   2.029  14.461  1.5326  1.1395 -1.1366
   20MPD2    H1  313   1.871   2.458  14.468  0.0424 -0.3059  1.6478
   20MPD2    H2  314   1.542   2.224  14.340 -0.4838 -1.2236  2.5393
   20MPD2    H3  315   1.638   2.435  14.406 -0.1526 -0.3077  1.2569
   20MPD2     N  316   2.031   2.263  14.525  0.0444  0.1099 -0.2566
   20MPD2    H5  317   2.055   2.361  14.537 -0.8235  0.1316  1.3691
   20MPD2    N1  318   1.660   1.975  14.391  0.5046 -0.2686 -0.3022
   20MPD2    H7  319   1.731   1.903  14.393  3.8454  3.0425  1.3784
   21MPD2     C  320   4.472   2.940  14.381 -0.2332 -0.0066 -0.3130
   21MPD2    C1  321   4.508   2.852  14.476  0.2661  0.5799  0.3733
   21MPD2    C2  322   4.481   2.891  14.606 -0.2405  0.0015 -0.6620
   21MPD2    C3  323   4.419   3.013  14.641 -0.4111  0.5094  0.0964
   21MPD2    C4  324   4.374   3.093  14.543 -0.0571 -1.2147  0.0071
   21MPD2    C5  325   4.396   3.051  14.414  0.1763 -0.2489 -0.2676
   21MPD2     H  326   4.503   2.829  14.693 -1.0808  1.0037  0.2703
   21MPD2    H1  327   4.321   3.186  14.558 -0.3137 -0.8573 -3.1114
   21MPD2    H2  328   4.480   2.932  14.273  2.3325  1.4042 -0.2343
   21MPD2    H3  329   4.358   3.113  14.333 -1.2441  0.5682  1.0263
   21MPD2     N  330   4.393   3.050  14.777 -0.3944  0.2107  0.3254
   21MPD2    H5  331   4.343   3.138  14.787 -0.6480  0.2327 -1.2178
   21MPD2    N1  332   4.567   2.720  14.455  0.2107  0.0668  0.6388
   21MPD2    H7  333   4.584   2.662  14.536  0.1252 -3.0638 -1.5774
   22TCq2    C1  334   4.415   2.980  14.893 -0.8678  0.6779 -0.4796
   22TCq2    O2  335   4.487   2.886  14.916  0.0487 -0.3621  0.5607
   22TCq2    C2  336   4.381   3.048  15.014  0.5608  0.2110 -0.5863
   22TCq2    C3  337   4.461   3.043  15.125  0.1815  0.4705  0.0710
   22TCq2    C4  338   4.414   3.088  15.243  0.0888  0.1969  0.0385
   22TCq2    C5  339   4.283   3.110  15.258  0.0084  0.7693 -0.1751
   22TCq2    C6  340   4.196   3.122  15.148  0.1679  0.3319  0.4757
   22TCq2    C7  341   4.248   3.088  15.026 -0.1520  0.2296 -0.0074
   22TCq2    C8  342   4.049   3.142  15.159  0.0412  0.0488 -0.2347
   22TCq2    O4  343   3.996   3.087  15.251  0.3204  0.2333 -0.0542
   22TCq2    C9  344   4.511   3.118  15.354 -0.1200  0.5191  0.5960
   22TCq2    O5  345   4.633   3.085  15.343  0.3593 -0.7886  0.3701
   22TCq2    O6  346   4.460   3.171  15.459  0.0009  0.0292 -0.2492
   22TCq2    H2  347   4.565   3.016  15.114  0.3603  0.6466  1.3988
   22TCq2    H3  348   4.243   3.124  15.358  1.1962  1.6818  0.1748
   22TCq2    H4  349   4.176   3.090  14.945  0.9243 -0.2513 -0.9891
   23MPD2     C  350   1.122   3.599  14.435  0.1475  0.6799  0.8255
   23MPD2    C1  351   1.076   3.700  14.514  0.0384 -0.4129  0.1410
   23MPD2    C2  352   1.000   3.797  14.454 -0.0545 -0.1893  0.0558
   23MPD2    C3  353   0.968   3.779  14.323 -0.5416 -0.2673 -0.3009
   23MPD2    C4  354   1.020   3.676  14.244 -0.7131 -0.0225  0.5327
   23MPD2    C5  355   1.106   3.585  14.298  0.1592 -0.8265 -0.5252
   23MPD2     H  356   0.968   3.874  14.522 -0.8785  0.6753 -1.3085
   23MPD2    H1  357   1.009   3.661  14.137  0.8799 -0.1044  0.3797
   23MPD2    H2  358   1.190   3.523  14.471 -0.6652  0.3882  1.7504
   23MPD2    H3  359   1.162   3.512  14.241  3.0152  1.2170 -0.3593
   23MPD2     N  360   0.883   3.876  14.256  0.5584 -0.4419  0.6454
   23MPD2    H5  361   0.866   3.861  14.157  1.8061  0.2020  0.3372
   23MPD2    N1  362   1.096   3.712  14.652 -0.2863  0.1628 -0.5297
   23MPD2    H7  363   1.050   3.786  14.703  0.2963  0.8514 -1.0023
   24TCq2    C1  364   0.817   3.984  14.308 -0.1465  0.0511 -0.0326
   24TCq2    O2  365   0.825   4.035  14.422  0.0797 -0.3718 -0.0525
   24TCq2    C2  366   0.739   4.056  14.208  0.2188 -0.1422 -1.0887
   24TCq2    C3  367   0.669   3.988  14.112 -0.3714 -0.2984  0.5604
   24TCq2    C4  368   0.571   4.056  14.041 -0.4179  0.0787  0.0560
   24TCq2    C5  369   0.555   4.192  14.056 -0.0242 -0.9043 -0.0824
   24TCq2    C6  370   0.628   4.252  14.158 -0.0547 -0.1540  0.1012
   24TCq2    C7  371   0.716   4.188  14.238 -0.6397  0.0953 -0.3377
   24TCq2    C8  372   0.613   4.389  14.190  0.1561  0.4807 -0.6574
   24TCq2    O4  373   0.689   4.442  14.265  0.6403 -0.5678 -0.2062
   24TCq2    C9  374   0.506   3.993  13.930 -0.3860 -0.5364  0.5166
   24TCq2    O5  375   0.448   4.061  13.846 -0.3667  0.4412 -0.3367
   24TCq2    O6  376   0.534   3.871  13.908 -0.0033  0.4955 -0.8277
   24TCq2    H2  377   0.682   3.882  14.090 -2.3301  0.0922 -2.5952
   24TCq2    H3  378   0.485   4.240  13.989  0.5973 -1.2245 -0.9527
   24TCq2    H4  379   0.761   4.239  14.323 -0.9183 -1.4310  0.7337
   25TMC2    C1  380   4.566   0.729  11.477 -0.2885  0.2373 -0.6615
   25TMC2    C2  381   4.687   0.772  11.432  0.7845  0.4521 -0.2311
   25TMC2    C3  382   4.714   0.899  11.469  0.4985  0.1778  0.1075
   25TMC2    C4  383   4.481   0.797  11.565 -0.2614 -0.0200 -0.4642
   25TMC2    C5  384   4.518   0.920  11.599 -0.0094  0.2482 -0.3128
   25TMC2    C6  385   4.627   0.984  11.542 -0.1172 -0.2766  0.9378
   25TMC2     C  386   4.507   0.611  11.422 -0.2119  0.6738 -0.3964
   25TMC2     O  387   4.423   0.555  11.487 -0.4422 -0.0391  0.1312
   25TMC2     H  388   0.029   0.704  11.377  0.8830  0.3057  0.0679
   25TMC2    H1  389   4.388   0.754  11.599  0.2157 -0.1007  0.7569
   25TMC2    H2  390   4.656   1.084  11.571  0.0936 -0.7334  2.2678
   25TMC2    C7  391   4.423   0.992  11.678  0.4454 -0.4089  0.2187
   25TMC2    C8  392   0.113   0.958  11.426 -0.0663 -0.6630 -0.7627
   25TMC2    O1  393   4.363   0.938  11.769 -0.3445  0.2948  0.1471
   25TMC2    O2  394   0.150   0.959  11.313  0.4150  0.5765 -0.0676
   25TMC2    O5  395   0.182   0.911  11.531 -0.4893 -0.2810 -0.2866
   25TMC2    H5  396   0.130   0.928  11.612  0.6113 -1.6725  0.7219
   26MPD2     C  397   4.493   0.225  11.080  0.7302 -0.4781 -0.6928
   26MPD2    C1  398   4.409   0.251  11.189 -0.1083 -0.2937  0.5196
   26MPD2    C2  399   4.428   0.370  11.260  0.5386  0.2881 -0.3992
   26MPD2    C3  400   4.539   0.448  11.243  0.0625  0.6521  0.1689
   26MPD2    C4  401   4.627   0.413  11.138  0.3213  0.2991  0.4243
   26MPD2    C5  402   4.605   0.302  11.058 -0.1384 -0.1119  0.1402
   26MPD2     H  403   4.365   0.408  11.340 -0.5712 -1.9778 -0.2268
   26MPD2    H1  404   4.718   0.470  11.120  2.2285 -3.5442 -2.0664
   26MPD2    H2  405   4.485   0.138  11.016  0.0312 -1.4832  0.7638
   26MPD2    H3  406   4.679   0.279  10.982 -0.5068 -0.5366 -0.0867
   26MPD2     N  407   4.572   0.563  11.309  0.4843  0.5225  0.4005
   26MPD2    H5  408   4.654   0.617  11.285 -0.6633  1.4527 -1.4182
   26MPD2    N1  409   4.294   0.170  11.206  0.2965 -0.1893 -0.1004
   26MPD2    H7  410   4.268   0.106  11.131  1.7963 -0.0713 -0.7268
   27TMC2    C1  411   3.613   3.298  12.097  0.1653  0.1967 -0.5667
   27TMC2    C2  412   3.576   3.283  11.971  0.1761 -0.1041  0.1610
   27TMC2    C3  413   3.504   3.381  11.908 -0.1271 -0.2368 -0.6918
   27TMC2    C4  414   3.572   3.409  12.162 -0.1798  0.2611 -0.2169
   27TMC2    C5  415   3.502   3.507  12.103  0.2810 -0.2441  0.0351
   27TMC2    C6  416   3.463   3.498  11.972  0.3718  0.2826 -0.1756
   27TMC2     C  417   3.615   3.179  12.179  0.5080 -1.2029 -0.1853
   27TMC2     O  418   3.651   3.075  12.123  0.5276  0.0839 -0.1801
   27TMC2     H  419   3.597   3.191  11.919 -1.6275  0.6156 -1.8691
   27TMC2    H1  420   3.628   3.438  12.250 -1.5240 -0.9314  1.0285
   27TMC2    H2  421   3.387   3.566  11.935  0.6790  1.1771  0.8035
   27TMC2    C7  422   3.431   3.587  12.206  0.1151 -0.0425  0.7616
   27TMC2    C8  423   3.500   3.378  11.764  0.1710  0.9794 -0.8617
   27TMC2    O1  424   3.445   3.546  12.321 -0.0299  0.5410 -0.2777
   27TMC2    O2  425   3.411   3.427  11.701  0.1288  1.2047 -0.2159
   27TMC2    O5  426   3.615   3.329  11.715  0.2637 -0.3382 -0.2441
   27TMC2    H5  427   3.681   3.307  11.785  0.3304 -0.5791 -0.3822
   28MPD2     C  428   3.428   2.947  12.599 -0.8756 -0.1399  0.6379
   28MPD2    C1  429   3.368   3.070  12.599 -0.6045  0.1940  0.4468
   28MPD2    C2  430   3.401   3.152  12.493  0.1391 -0.2284 -0.0150
   28MPD2    C3  431   3.500   3.117  12.392 -0.3496 -0.1509 -0.2309
   28MPD2    C4  432   3.550   2.991  12.399 -0.0986 -0.7306  0.1452
   28MPD2    C5  433   3.519   2.910  12.507 -0.3394 -0.7058  0.0388
   28MPD2     H  434   3.355   3.249  12.482 -0.7111 -0.6067  0.1719
   28MPD2    H1  435   3.620   2.952  12.325 -1.4587 -0.0998 -1.4502
   28MPD2    H2  436   3.405   2.871  12.673 -1.1105  0.3213  1.0378
   28MPD2    H3  437   3.568   2.814  12.515 -0.8840 -0.8283  1.9310
   28MPD2     N  438   3.537   3.207  12.287 -0.8319  0.2541  0.5642
   28MPD2    H5  439   3.494   3.298  12.290  0.6040  0.8789  2.2687
   28MPD2    N1  440   3.270   3.111  12.698 -0.2943 -0.4365 -0.1736
   28MPD2    H7  441   3.263   3.050  12.778  1.4185  0.4898  0.6721
   29MPD2     C  442   2.780   0.968  13.964 -0.3319  0.4333 -0.1431
   29MPD2    C1  443   2.854   0.907  14.071 -0.1481 -0.3487 -0.5680
   29MPD2    C2  444   2.888   0.991  14.175 -1.0480 -0.4129  0.7505
   29MPD2    C3  445   2.841   1.123  14.183  0.4049  0.0509 -0.5387
   29MPD2    C4  446   2.762   1.175  14.084  0.5788 -0.0486 -0.1894
   29MPD2    C5  447   2.724   1.097  13.978  0.2263 -0.0995 -0.5398
   29MPD2     H  448   2.950   0.950  14.254  0.2741 -3.2090 -1.7360
   29MPD2    H1  449   2.717   1.274  14.086 -1.1130 -0.7883 -1.2656
   29MPD2    H2  450   2.753   0.920  13.871 -0.0892 -0.0113  0.0185
   29MPD2    H3  451   2.654   1.129  13.901 -0.1619  0.9048  0.2213
   29MPD2     N  452   2.870   1.205  14.294  0.2289 -0.4630 -0.1220
   29MPD2    H5  453   2.829   1.298  14.289  0.8230 -0.2522 -1.0964
   29MPD2    N1  454   2.899   0.771  14.068  0.1023  0.1754  0.0886
   29MPD2    H7  455   2.949   0.737  14.150  1.8017  1.3223 -0.4681
   30TCq2    C1  456   2.924   1.169  14.411  0.4218 -0.9701  0.2753
   30TCq2    O2  457   2.935   1.058  14.464 -0.1014  0.0211 -0.0758
   30TCq2    C2  458   2.943   1.281  14.495  0.1931 -0.2610 -0.1530
   30TCq2    C3  459   2.975   1.254  14.626 -0.8724  0.1041  0.5074
   30TCq2    C4  460   3.039   1.348  14.694  0.0235 -0.2186 -0.3924
   30TCq2    C5  461   3.063   1.474  14.645  0.7397  0.5140  0.8886
   30TCq2    C6  462   3.037   1.497  14.515 -0.6688  0.0457 -0.1316
   30TCq2    C7  463   2.979   1.399  14.436  0.5496  1.0201  0.1818
   30TCq2    C8  464   3.068   1.622  14.451 -0.6141  0.0723  0.4749
   30TCq2    O4  465   3.046   1.641  14.333  0.0700  0.4763  0.0112
   30TCq2    C9  466   3.083   1.326  14.830  0.2029  0.3075  0.0860
   30TCq2    O5  467   3.173   1.396  14.880 -0.2503 -0.3592 -0.2236
   30TCq2    O6  468   3.031   1.229  14.883  0.5452  0.1611 -0.0978
   30TCq2    H2  469   2.965   1.156  14.670 -0.9846  0.2294  0.7556
   30TCq2    H3  470   3.115   1.540  14.714 -0.3205  1.5026  0.7412
   30TCq2    H4  471   2.961   1.427  14.333  0.2820  0.1954  0.0088
   31MPD2     C  472   1.006   0.669  15.215  0.9043 -0.4496 -0.1768
   31MPD2    C1  473   0.945   0.593  15.116 -0.0762  0.5285 -0.6916
   31MPD2    C2  474   0.931   0.454  15.130 -0.6237 -0.4999 -0.4624
   31MPD2    C3  475   0.973   0.390  15.246  1.1151  0.0430  0.0538
   31MPD2    C4  476   1.025   0.468  15.349 -0.1579  0.1099  0.2513
   31MPD2    C5  477   1.044   0.604  15.329 -0.2586  0.3215 -0.2603
   31MPD2     H  478   0.894   0.402  15.042 -1.0048 -0.5769 -0.2579
   31MPD2    H1  479   1.054   0.423  15.443  0.2730 -2.1189 -0.9590
   31MPD2    H2  480   1.020   0.776  15.210 -0.1536 -0.2175  2.2290
   31MPD2    H3  481   1.073   0.662  15.416  0.8633 -0.7188  0.0661
   31MPD2     N  482   0.965   0.249  15.260 -0.3103 -0.2645 -0.4844
   31MPD2    H5  483   0.994   0.223  15.353  0.2624  4.1827  0.5749
   31MPD2    N1  484   0.900   0.666  14.995 -0.3735  0.0851  0.0174
   31MPD2    H7  485   0.939   0.755  14.968 -2.0071  0.7221 -0.2205
   32TCq2    C1  486   0.961   0.160  15.150 -0.3681 -0.5492  0.2172
   32TCq2    O2  487   0.977   0.184  15.030 -0.3703 -0.2570  0.3083
   32TCq2    C2  488   0.955   0.022  15.184  0.1299 -0.0314 -0.1804
   32TCq2    C3  489   1.005   4.667  15.087 -1.4056 -0.8034  0.4153
   32TCq2    C4  490   1.086   4.566  15.125  0.0014  0.3213  0.4195
   32TCq2    C5  491   1.094   4.526  15.255  0.2048  0.0711  0.0542
   32TCq2    C6  492   1.016   4.589  15.348 -0.0058  0.4031 -0.2441
   32TCq2    C7  493   0.945   4.703  15.316 -0.0718 -0.2139  0.5694
   32TCq2    C8  494   1.030   4.532  15.476 -0.5265 -0.3846  0.1729
   32TCq2    O4  495   1.128   4.464  15.497 -0.1679 -0.9146  0.2479
   32TCq2    C9  496   1.163   4.496  15.025 -0.2383  0.4031  0.1718
   32TCq2    O5  497   1.107   4.490  14.913 -0.0080 -0.3617  0.2902
   32TCq2    O6  498   1.281   4.451  15.047 -0.5098 -0.2581  0.0598
   32TCq2    H2  499   1.005   4.692  14.981  1.4041  3.1174  1.3498
   32TCq2    H3  500   1.149   4.435  15.276 -0.9751 -0.9601 -1.3489
   32TCq2    H4  501   0.887   0.037  15.387 -1.5985 -2.0713  0.8057
   33MPD2     C  502   1.358   2.202  10.621  0.0238  0.0409  0.0675
   33MPD2    C1  503   1.261   2.153  10.546 -0.4025 -0.3574 -0.8541
   33MPD2    C2  504   1.195   2.243  10.466  0.5510  0.2566  0.2415
   33MPD2    C3  505   1.225   2.381  10.468 -0.0533  0.1049  1.0221
   33MPD2    C4  506   1.321   2.422  10.552  0.3996 -0.4815 -0.6947
   33MPD2    C5  507   1.391   2.334  10.630 -0.2942 -0.0134  0.6208
   33MPD2     H  508   1.117   2.204  10.402  0.0996  3.4562 -1.1558
   33MPD2    H1  509   1.356   2.524  10.554 -0.0180 -0.3405 -0.5393
   33MPD2    H2  510   1.418   2.138  10.686  1.5641 -0.1882 -1.5912
   33MPD2    H3  511   1.472   2.377  10.688 -0.1105 -1.5246  1.4842
   33MPD2     N  512   1.171   2.478  10.383  0.1856  0.2881 -0.4253
   33MPD2    H5  513   1.213   2.570  10.389 -0.6921  0.7044 -0.7334
   33MPD2    N1  514   1.247   2.010  10.539 -0.5781  0.3654  0.4584
   33MPD2    H7  515   1.320   1.954  10.582 -0.7910  0.5101  0.9971
   34TCq2    C1  516   1.050   2.458  10.311  0.1163  0.7574 -0.4671
   34TCq2    O2  517   0.973   2.369  10.332  0.6027  0.0990  0.8481
   34TCq2    C2  518   0.998   2.577  10.242  0.0399 -0.4468  0.7022
   34TCq2    C3  519   0.865   2.598  10.243 -0.3015  0.2062  0.4678
   34TCq2    C4  520   0.810   2.713  10.190 -0.0667 -0.3786  0.2951
   34TCq2    C5  521   0.889   2.803  10.136 -0.1854 -0.8752  0.6306
   34TCq2    C6  522   1.024   2.779  10.125  0.2432  0.1609 -0.1710
   34TCq2    C7  523   1.086   2.675  10.197 -0.6299  0.0067 -0.6801
   34TCq2    C8  524   1.101   2.874  10.045  0.2411  0.5056 -1.3551
   34TCq2    O4  525   1.214   2.890  10.084 -0.7192  0.4029  0.8777
   34TCq2    C9  526   0.670   2.732  10.201  0.0202  0.1589 -0.0108
   34TCq2    O5  527   0.606   2.659  10.279  0.1944 -0.7217  0.0806
   34TCq2    O6  528   0.625   2.845  10.168  0.0359  0.0338  0.1569
   34TCq2    H2  529   0.800   2.525  10.291  0.7854 -0.5852  0.7394
   34TCq2    H3  530   0.846   2.896  10.101 -2.3389 -1.9906  0.3243
   34TCq2    H4  531   1.194   2.671  10.196 -0.6185 -0.7877  1.6141
   35MPD2     C  532   3.129   3.585  11.748 -0.3958  0.6485 -0.3215
   35MPD2    C1  533   3.084   3.479  11.826 -0.2799  0.3947  0.1068
   35MPD2    C2  534   2.947   3.471  11.863 -0.0670 -0.2709 -1.0373
   35MPD2    C3  535   2.864   3.575  11.827  0.5962 -0.4643  0.1238
   35MPD2    C4  536   2.912   3.679  11.748 -0.2408 -0.5797 -0.3495
   35MPD2    C5  537   3.042   3.683  11.704  0.3308 -0.8586  0.5611
   35MPD2     H  538   2.912   3.386  11.920  0.2755  0.8586  0.8619
   35MPD2    H1  539   2.845   3.757  11.715  1.2049  1.3319  1.2523
   35MPD2    H2  540   3.229   3.592  11.708 -1.1953  0.5347 -2.3784
   35MPD2    H3  541   3.074   3.774  11.654 -0.9697 -0.5724  0.2348
   35MPD2     N  542   2.723   3.560  11.856  0.6872 -0.2782  0.2927
   35MPD2    H5  543   2.693   3.472  11.897  0.0272 -0.3836 -0.4285
   35MPD2    N1  544   3.175   3.380  11.855 -0.2624  0.0296  0.1714
   35MPD2    H7  545   3.245   3.373  11.782 -0.8290  3.3843 -0.6782
   36TCq2    C1  546   2.636   3.664  11.846 -0.9086  0.7306  0.3370
   36TCq2    O2  547   2.656   3.785  11.840 -0.0770  0.2914  0.6219
   36TCq2    C2  548   2.506   3.612  11.882 -0.1511 -0.2748 -0.2519
   36TCq2    C3  549   2.404   3.698  11.899  0.4458 -0.3057  0.3067
   36TCq2    C4  550   2.285   3.654  11.949 -0.7060 -0.5096 -0.8183
   36TCq2    C5  551   2.265   3.519  11.956  0.7053  0.2363 -0.2951
   36TCq2    C6  552   2.369   3.436  11.932  1.1414 -0.5766 -0.2222
   36TCq2    C7  553   2.494   3.479  11.903  0.7461 -0.6966 -0.3756
   36TCq2    C8  554   2.343   3.297  11.963  0.6634  0.0500  0.2859
   36TCq2    O4  555   2.229   3.262  11.976  0.3362  0.3709  0.2134
   36TCq2    C9  556   2.191   3.751  11.988 -0.0389 -0.1816  0.7261
   36TCq2    O5  557   2.231   3.863  12.030 -0.3153  0.8013  0.4125
   36TCq2    O6  558   2.078   3.702  12.003  0.6277  0.2540 -0.1181
   36TCq2    H2  559   2.417   3.804  11.882  0.1376 -0.4780 -0.9308
   36TCq2    H3  560   2.173   3.484  12.001  1.3155  1.0345  1.5660
   36TCq2    H4  561   2.552   3.400  11.857 -0.2533 -2.3453  1.2072
   37TMC2    C1  562   0.278   4.026  11.573  0.3257 -0.0443  0.1245
   37TMC2    C2  563   0.343   4.026  11.454  0.4735 -0.4401 -0.0981
   37TMC2    C3  564   0.481   4.030  11.452  0.0958  0.2422 -0.3193
   37TMC2    C4  565   0.339   4.032  11.687  0.1530 -0.2049 -0.2588
   37TMC2    C5  566   0.477   4.030  11.687 -0.9778  0.4152 -0.7259
   37TMC2    C6  567   0.551   4.032  11.568  0.5844  0.2443 -0.3172
   37TMC2     C  568   0.128   4.026  11.573 -0.0485  0.6654  0.6330
   37TMC2     O  569   0.079   4.031  11.461 -0.0508  0.0847 -0.0152
   37TMC2     H  570   0.286   4.013  11.363  1.7558 -1.7606 -0.7038
   37TMC2    H1  571   0.296   4.046  11.786 -1.7750  0.1911 -1.1344
   37TMC2    H2  572   0.657   4.051  11.572  0.6810 -0.5174  0.9257
   37TMC2    C7  573   0.543   4.038  11.817 -0.1339 -0.4025 -0.1553
   37TMC2    C8  574   0.538   3.945  11.347  0.3577  0.2397  0.0479
   37TMC2    O1  575   0.471   4.075  11.914  0.1828 -0.4329  0.3275
   37TMC2    O2  576   0.480   3.930  11.243 -0.1063 -0.1021  0.2365
   37TMC2    O5  577   0.667   3.911  11.374 -0.0182 -0.1042  0.2256
   37TMC2    H5  578   0.706   3.925  11.463  0.0412 -1.6163  0.4320
   38MPD2     C  579   4.389   3.948  11.769  0.0201 -0.1466  0.5776
   38MPD2    C1  580   4.484   3.923  11.874  0.2394  0.3484 -0.4591
   38MPD2    C2  581   4.612   3.925  11.840 -0.7011  0.3838  0.5886
   38MPD2    C3  582   4.660   3.969  11.719  0.1903  0.5656  0.1556
   38MPD2    C4  583   4.571   3.992  11.616  0.1039 -0.8733 -0.4836
   38MPD2    C5  584   4.437   3.980  11.649 -0.1728  0.7521  0.4757
   38MPD2     H  585   4.688   3.906  11.915 -0.0404  1.0095  0.0768
   38MPD2    H1  586   4.594   4.039  11.521  0.3865  1.6380  0.8130
   38MPD2    H2  587   4.283   3.961  11.784  0.1969 -1.4030  2.9404
   38MPD2    H3  588   4.357   4.004  11.579 -1.0531 -0.5066  1.0503
   38MPD2     N  589   0.075   3.990  11.697  0.5777 -0.1804  0.0860
   38MPD2    H5  590   0.139   3.969  11.773 -0.2900 -1.1682  0.5560
   38MPD2    N1  591   4.449   3.893  12.007 -0.4022 -0.3979  0.0161
   38MPD2    H7  592   4.525   3.884  12.074 -0.0513  1.2589 -0.1646
   39MPD2     C  593   3.086   1.081   1.543 -0.2207 -0.9528 -0.5238
   39MPD2    C1  594   3.013   1.196   1.569 -0.4799  0.1612 -1.2114
   39MPD2    C2  595   2.874   1.203   1.553  0.0621  0.2399  0.3095
   39MPD2    C3  596   2.810   1.084   1.514 -0.4833 -0.3426 -0.4711
   39MPD2    C4  597   2.883   0.969   1.500  0.1731  0.4804  0.2135
   39MPD2    C5  598   3.018   0.963   1.514 -0.2609  0.4131 -0.2922
   39MPD2     H  599   2.817   1.295   1.567  2.2604  1.7863 -1.1065
   39MPD2    H1  600   2.834   0.872   1.496 -0.9933  1.0021  1.8063
   39MPD2    H2  601   3.194   1.070   1.551 -0.1855 -0.2151 -0.0178
   39MPD2    H3  602   3.067   0.867   1.503 -0.4789  0.1139  1.3089
   39MPD2     N  603   2.667   1.077   1.492 -0.6193 -0.0787  0.2245
   39MPD2    H5  604   2.623   0.987   1.475 -1.6952  0.2179  1.4152
   39MPD2    N1  605   3.087   1.306   1.624  0.3266 -0.1652  0.1416
   39MPD2    H7  606   3.186   1.293   1.645  0.3479 -1.3475 -0.6572
   40TCq2    C1  607   3.034   1.414   1.685  1.2873 -0.4718 -0.1493
   40TCq2    O2  608   2.922   1.454   1.711 -0.4475  0.2386  0.0669
   40TCq2    C2  609   3.143   1.488   1.745  0.4743 -0.1901  0.7446
   40TCq2    C3  610   3.106   1.549   1.866 -0.1990 -0.0896 -0.5609
   40TCq2    C4  611   3.199   1.619   1.934 -0.1598 -0.0103 -0.0457
   40TCq2    C5  612   3.314   1.649   1.868 -0.8615 -0.2172  0.0647
   40TCq2    C6  613   3.343   1.596   1.745  1.1101 -0.8374 -0.6863
   40TCq2    C7  614   3.267   1.508   1.685  0.6499 -0.3776  0.4435
   40TCq2    C8  615   3.476   1.619   1.689 -0.0297 -0.5319  0.2090
   40TCq2    O4  616   3.521   1.539   1.608  0.5492  0.2237 -0.0418
   40TCq2    C9  617   3.169   1.675   2.067  0.1985  0.0106 -0.3389
   40TCq2    O5  618   3.216   1.790   2.082 -0.1697 -0.0049 -0.0079
   40TCq2    O6  619   3.087   1.619   2.143  0.2622 -1.0419  0.0429
   40TCq2    H2  620   3.010   1.531   1.912 -0.2966  0.6620 -0.4636
   40TCq2    H3  621   3.378   1.712   1.929  0.8583 -1.4443 -0.4902
   40TCq2    H4  622   3.279   1.468   1.585 -1.7244  1.7232 -0.6726
   41TMC2    C1  623   2.027   4.359  13.927 -0.5390 -0.0652  0.2690
   41TMC2    C2  624   2.116   4.439  13.867 -0.1305 -0.8676 -0.4864
   41TMC2    C3  625   2.080   4.503  13.752 -0.1482 -0.7495  0.3299
   41TMC2    C4  626   1.896   4.351  13.890 -0.0204  0.2114  0.0162
   41TMC2    C5  627   1.867   4.412  13.773 -0.4636 -0.5382 -0.6688
   41TMC2    C6  628   1.951   4.489  13.701  0.2173 -0.5660  0.3890
   41TMC2     C  629   2.076   4.248  14.005  0.9235  0.4237  0.9055
   41TMC2     O  630   2.168   4.186  13.957 -0.0586  0.1794  0.3331
   41TMC2     H  631   2.220   4.422  13.892  0.6702  0.7865 -2.7161
   41TMC2    H1  632   1.830   4.276  13.934 -0.0693 -0.3202 -0.9640
   41TMC2    H2  633   1.924   4.530  13.605 -2.6044  0.6828  1.7368
   41TMC2    C7  634   1.747   4.377  13.703 -0.5040 -0.1302 -0.0524
   41TMC2    C8  635   2.187   4.554  13.661 -0.0275  0.2194 -0.0489
   41TMC2    O1  636   1.754   4.361  13.582  0.1842 -0.7557 -1.3196
   41TMC2    O2  637   2.290   4.581  13.717 -0.3210 -0.1183 -0.4391
   41TMC2    O5  638   2.177   4.478  13.551 -0.3119  0.3248 -0.6035
   41TMC2    H5  639   2.101   4.421  13.526 -0.8100  0.4587  0.6002
   42MPD2     C  640   2.153   4.051  14.223  0.7031 -0.2677  0.4292
   42MPD2    C1  641   2.053   4.149  14.231 -0.3016 -0.2931  0.5553
   42MPD2    C2  642   1.994   4.174  14.358 -0.5020  0.0548 -0.2327
   42MPD2    C3  643   2.025   4.085  14.458  0.6699 -0.7681 -0.1349
   42MPD2    C4  644   2.115   3.977  14.442 -0.3147 -0.4575  0.2129
   42MPD2    C5  645   2.183   3.965  14.322 -1.0540  0.0930 -0.0506
   42MPD2     H  646   1.914   4.244  14.380 -0.6653  0.1980 -1.2826
   42MPD2    H1  647   2.123   3.904  14.522 -0.9292  0.4794  1.1446
   42MPD2    H2  648   2.196   4.041  14.125  0.8068 -0.4741  0.4967
   42MPD2    H3  649   2.252   3.883  14.310 -2.6382 -1.3380  0.5533
   42MPD2     N  650   1.959   4.090  14.581  0.3162 -1.0516 -0.3870
   42MPD2    H5  651   2.006   4.035  14.652 -3.8352  0.0937  3.2695
   42MPD2    N1  652   2.015   4.242  14.128  0.3867  0.4241 -0.0274
   42MPD2    H7  653   1.945   4.312  14.148  0.8398  0.9424 -0.2640
   43MPD2     C  654   4.050   2.716   1.044 -0.2778  0.7250 -0.5054
   43MPD2    C1  655   4.048   2.608   1.127 -0.6413  0.4921  0.7838
   43MPD2    C2  656   3.930   2.574   1.192 -1.1914  0.0055 -0.3207
   43MPD2    C3  657   3.814   2.648   1.170  0.1664  0.0614  0.2084
   43MPD2    C4  658   3.819   2.753   1.080  0.4014 -0.0594  0.0290
   43MPD2    C5  659   3.935   2.787   1.017 -0.8873 -0.1151 -0.1760
   43MPD2     H  660   3.926   2.503   1.274 -0.1498  0.4461  0.1196
   43MPD2    H1  661   3.730   2.808   1.054  0.3624  0.4009  1.1725
   43MPD2    H2  662   4.143   2.741   0.995  0.4975  1.2816  1.2485
   43MPD2    H3  663   3.952   2.864   0.943  1.3666 -0.8095 -0.3618
   43MPD2     N  664   3.691   2.623   1.236  0.0652 -0.2366 -0.1901
   43MPD2    H5  665   3.609   2.675   1.207 -0.8227 -1.5878 -0.0951
   43MPD2    N1  666   4.164   2.522   1.140  0.4171  0.3958 -0.3491
   43MPD2    H7  667   4.148   2.454   1.214 -0.4631 -0.5302 -1.3977
   44TCq2    C1  668   3.411   2.500   1.734 -0.0182  0.1679 -0.5800
   44TCq2    O2  669   3.504   2.561   1.782  0.6643 -0.4984  0.0120
   44TCq2    C2  670   3.422   2.476   1.592  0.1118 -0.2711  0.0125
   44TCq2    C3  671   3.306   2.492   1.515 -0.0564 -0.4980 -0.0040
   44TCq2    C4  672   3.314   2.524   1.380 -0.0888  0.2466  0.6390
   44TCq2    C5  673   3.437   2.536   1.322 -0.6045  0.1840 -0.0083
   44TCq2    C6  674   3.548   2.537   1.398  0.3547  0.2050 -0.0218
   44TCq2    C7  675   3.542   2.501   1.531 -0.3457 -0.1476 -0.5830
   44TCq2    C8  676   3.680   2.534   1.344 -0.1319  0.8482 -0.1193
   44TCq2    O4  677   3.760   2.465   1.406  0.5822  0.0244 -0.2225
   44TCq2    C9  678   3.197   2.516   1.300  0.6079  0.5507  0.3552
   44TCq2    O5  679   3.195   2.541   1.177  0.0892 -0.0281 -0.1975
   44TCq2    O6  680   3.087   2.497   1.360  0.1406  0.4562 -0.2774
   44TCq2    H2  681   3.207   2.479   1.558 -0.9979  2.2772 -1.3131
   44TCq2    H3  682   3.431   2.547   1.214  1.7645  0.5324 -0.1216
   44TCq2    H4  683   3.627   2.506   1.599 -0.4590  0.4793 -0.4947
   45TMC2    C1  684   3.966   3.535   9.714  0.0822  0.5037  0.4588
   45TMC2    C2  685   4.018   3.645   9.642  0.1365 -1.1531  0.0815
   45TMC2    C3  686   4.069   3.751   9.714 -0.3721  0.4219  0.4194
   45TMC2    C4  687   3.980   3.524   9.853 -0.9458 -0.0423 -0.1621
   45TMC2    C5  688   4.032   3.634   9.916 -0.6764 -0.8677  0.6907
   45TMC2    C6  689   4.073   3.751   9.849  0.5168 -0.2205  0.0175
   45TMC2     C  690   3.900   3.427   9.637 -0.5600 -0.2289  0.2527
   45TMC2     O  691   3.859   3.327   9.700  0.2793 -0.2847  0.0945
   45TMC2     H  692   4.041   3.638   9.537  1.8234  1.1826  0.3099
   45TMC2    H1  693   3.941   3.437   9.905 -0.0042 -0.8453 -0.7964
   45TMC2    H2  694   4.132   3.829   9.896 -0.6839  0.5627  0.2120
   45TMC2    C7  695   4.020   3.643  10.057  0.2462 -0.0966  0.0467
   45TMC2    C8  696   4.128   3.860   9.643 -0.3326  0.3366 -0.5447
   45TMC2    O1  697   4.006   3.537  10.114  0.0190 -0.6216 -0.7330
   45TMC2    O2  698   4.191   3.845   9.537  0.9845 -0.1048 -0.2871
   45TMC2    O5  699   4.087   3.979   9.694  0.4660 -0.0531  0.2834
   45TMC2    H5  700   4.041   3.977   9.781 -0.2786 -3.2010 -0.1838
   46MPD2     C  701   3.788   3.259   9.423 -0.7214  0.1396  0.1995
   46MPD2    C1  702   3.779   3.398   9.428  0.7203 -0.8206  0.2968
   46MPD2    C2  703   3.690   3.452   9.344 -0.2733  0.1328  0.3515
   46MPD2    C3  704   3.600   3.378   9.272 -0.0903  0.7323 -0.0014
   46MPD2    C4  705   3.605   3.243   9.268 -0.2617  0.0251  0.3774
   46MPD2    C5  706   3.709   3.185   9.343 -0.2632  0.4605  0.0226
   46MPD2     H  707   3.688   3.559   9.333 -0.2047 -0.0318 -1.1949
   46MPD2    H1  708   3.542   3.177   9.210 -3.2171  2.2645  1.0442
   46MPD2    H2  709   3.856   3.201   9.484 -1.1952 -0.5860  0.0506
   46MPD2    H3  710   3.716   3.077   9.353  0.0345  0.3992 -0.8771
   46MPD2     N  711   3.486   3.451   9.220 -0.0990  0.3944 -0.4790
   46MPD2    H5  712   3.490   3.552   9.212  1.3921  0.1900 -2.2424
   46MPD2    N1  713   3.858   3.473   9.518  0.1062 -0.1253 -0.1295
   46MPD2    H7  714   3.877   3.570   9.493  0.3639 -0.0842  0.2244
   47TMC2    C1  715   1.412   0.486   9.033  0.5853  0.0059 -0.5720
   47TMC2    C2  716   1.398   0.615   9.003  0.1507 -0.1151  0.9598
   47TMC2    C3  717   1.300   0.685   9.074 -0.7449  0.4351  0.3215
   47TMC2    C4  718   1.330   0.421   9.123  0.1464  0.7648 -0.4819
   47TMC2    C5  719   1.236   0.497   9.187 -0.2378 -0.0219 -0.6858
   47TMC2    C6  720   1.218   0.630   9.165  0.0045 -0.0508 -0.2486
   47TMC2     C  721   1.513   0.405   8.970 -0.0699 -0.6853 -0.6482
   47TMC2     O  722   1.565   0.455   8.871  0.3206 -0.0072  0.1495
   47TMC2     H  723   1.476   0.665   8.946  0.7255 -1.3467  0.6540
   47TMC2    H1  724   1.317   0.313   9.123  1.4525  0.6141 -0.5708
   47TMC2    H2  725   1.156   0.692   9.228  0.9692 -0.9846  1.6282
   47TMC2    C7  726   1.147   0.436   9.286  0.1312  0.0079  0.2240
   47TMC2    C8  727   1.304   0.835   9.080 -0.3499  0.1225  0.7331
   47TMC2    O1  728   1.058   0.511   9.327  0.0804  0.1050  0.3617
   47TMC2    O2  729   1.299   0.900   9.183 -0.1260  0.5311  0.4520
   47TMC2    O5  730   1.361   0.866   8.961 -0.4722 -0.1103  0.1591
   47TMC2    H5  731   1.325   0.802   8.896 -1.7409  1.1882 -0.4107
   48MPD2     C  732   1.669   0.166   8.873  0.5658 -0.5237  0.1336
   48MPD2    C1  733   1.631   0.184   8.999  0.5046 -0.5463  0.1843
   48MPD2    C2  734   1.672   0.088   9.093  0.0006 -0.7926  0.2933
   48MPD2    C3  735   1.754   4.702   9.061 -1.0080 -0.2873  1.5244
   48MPD2    C4  736   1.780   4.684   8.925  0.5713 -0.0077 -0.1943
   48MPD2    C5  737   1.732   0.052   8.830 -0.6759 -0.6409  0.3559
   48MPD2     H  738   1.647   0.102   9.197 -0.6711 -1.3295  0.2056
   48MPD2    H1  739   1.824   4.590   8.893  1.8462  0.2585  0.7695
   48MPD2    H2  740   1.633   0.233   8.796  0.9363 -0.3987  0.0710
   48MPD2    H3  741   1.755   0.037   8.726 -2.3862  0.4259 -0.1725
   48MPD2     N  742   1.796   4.609   9.164 -0.2274  0.6862 -0.1728
   48MPD2    H5  743   1.766   4.627   9.259 -1.0154 -0.8209 -0.1417
   48MPD2    N1  744   1.550   0.292   9.041  0.3451 -0.0721  0.3277
   48MPD2    H7  745   1.513   0.290   9.135 -1.7448 -0.4852 -0.4844
   49MPD2     C  746   4.363   1.285  10.497 -0.3445 -0.3958  0.2375
   49MPD2    C1  747   4.408   1.389  10.412 -0.0992  0.0687  0.4129
   49MPD2    C2  748   4.469   1.496  10.469  0.2414 -0.6012 -0.3515
   49MPD2    C3  749   4.496   1.502  10.611  0.0288 -0.0332  0.4503
   49MPD2    C4  750   4.440   1.399  10.686 -0.9919  0.1156 -0.1003
   49MPD2    C5  751   4.372   1.300  10.635 -0.2097 -0.2250 -0.2560
   49MPD2     H  752   4.511   1.571  10.404  1.9897  0.7512  2.3660
   49MPD2    H1  753   4.443   1.406  10.794 -0.8571 -0.9500 -0.0388
   49MPD2    H2  754   4.307   1.198  10.463 -0.7781  0.8390 -2.1747
   49MPD2    H3  755   4.334   1.216  10.692 -1.9858  0.1985 -0.8058
   49MPD2     N  756   4.554   1.615  10.672  0.3045 -0.2652  0.2287
   49MPD2    H5  757   4.566   1.623  10.772 -1.5927 -2.8815  0.6729
   49MPD2    N1  758   4.383   1.399  10.274 -0.3623  0.3764 -0.5255
   49MPD2    H7  759   4.422   1.478  10.223  1.0532 -0.8283 -1.2837
   50TCq2    C1  760   4.333   1.291  10.202  0.0578  0.3462 -0.0955
   50TCq2    O2  761   4.301   1.179  10.237  0.2567 -0.8890 -0.4602
   50TCq2    C2  762   4.300   1.326  10.067 -0.1868  0.4165 -0.0154
   50TCq2    C3  763   4.214   1.237  10.008 -0.3516  0.1888 -0.5487
   50TCq2    C4  764   4.167   1.259   9.880  0.2703  0.1669  0.3705
   50TCq2    C5  765   4.204   1.378   9.815  0.5460 -0.1859  0.3093
   50TCq2    C6  766   4.288   1.467   9.874 -0.2569 -0.1373  0.5813
   50TCq2    C7  767   4.328   1.447  10.006 -0.1885 -0.0708  0.8438
   50TCq2    C8  768   4.348   1.583   9.804  0.2440  0.0969  0.8197
   50TCq2    O4  769   4.352   1.575   9.684  0.1054  0.1899  0.1508
   50TCq2    C9  770   4.089   1.159   9.807  0.1759  0.1837  0.3441
   50TCq2    O5  771   4.072   1.052   9.868 -0.0963  0.4659  0.0147
   50TCq2    O6  772   4.071   1.179   9.682 -0.0408  0.5304 -0.1442
   50TCq2    H2  773   4.186   1.144  10.055  1.0455  0.3353  0.5662
   50TCq2    H3  774   4.164   1.400   9.716  0.6142  2.0647  0.7944
   50TCq2    H4  775   4.392   1.515  10.061  0.3573 -0.2825  0.4724
   51MPD2     C  776   0.139   0.045   1.513  0.6808 -0.1122  0.3603
   51MPD2    C1  777   0.116   0.150   1.428 -0.4766  0.2157  0.5982
   51MPD2    C2  778   0.159   0.274   1.461  0.1799 -0.0628 -0.3847
   51MPD2    C3  779   0.238   0.302   1.579  0.6099  1.0206  0.3010
   51MPD2    C4  780   0.247   0.192   1.666 -0.2492  0.6355  0.3557
   51MPD2    C5  781   0.193   0.072   1.638  0.3672 -0.4632 -0.9261
   51MPD2     H  782   0.141   0.350   1.385 -1.4167  3.0866  3.1495
   51MPD2    H1  783   0.299   0.203   1.760  0.5823  1.1074 -0.1616
   51MPD2    H2  784   0.099   4.669   1.498 -1.8919  0.5375  2.9350
   51MPD2    H3  785   0.186   4.719   1.715  1.6166 -1.0329 -1.3831
   51MPD2     N  786   0.304   0.419   1.620  0.0685  0.2717  0.4786
   51MPD2    H5  787   0.342   0.418   1.714 -0.3924 -2.7888  0.6386
   51MPD2    N1  788   0.060   0.129   1.299  0.2458 -0.1101 -0.2901
   51MPD2    H7  789   0.078   0.205   1.233  1.4170  0.9867  1.2800
   52TCq2    C1  790   0.310   0.537   1.549 -0.3470  0.8104 -0.2666
   52TCq2    O2  791   0.274   0.562   1.440 -0.3247  0.1117 -0.0033
   52TCq2    C2  792   0.392   0.636   1.611 -0.1300  0.7810  0.3214
   52TCq2    C3  793   0.472   0.599   1.714 -0.1873  0.0485 -0.4015
   52TCq2    C4  794   0.525   0.695   1.794  0.0384  0.3296  0.0341
   52TCq2    C5  795   0.480   0.824   1.778  0.1245 -0.5370  0.3352
   52TCq2    C6  796   0.398   0.854   1.673  0.3916  0.7945 -0.4166
   52TCq2    C7  797   0.353   0.765   1.584 -0.1506  0.0169  0.0868
   52TCq2    C8  798   0.389   0.999   1.653 -0.0207 -0.3740 -0.2311
   52TCq2    O4  799   0.438   1.080   1.735  0.1797 -0.1475 -0.0563
   52TCq2    C9  800   0.608   0.650   1.900  0.0333 -0.9642  0.0698
   52TCq2    O5  801   0.626   0.522   1.915 -0.0959 -0.7924  0.0492
   52TCq2    O6  802   0.636   0.739   1.987  0.7516 -0.8700  0.2154
   52TCq2    H2  803   0.524   0.504   1.724 -0.1069  0.0844 -0.4845
   52TCq2    H3  804   0.517   0.905   1.840 -0.7987  0.1273  0.0188
   52TCq2    H4  805   0.293   0.789   1.497 -0.4482  2.6152  1.0383
   53TMC2    C1  806   0.779   4.207  12.493  0.0376  0.2582 -0.4101
   53TMC2    C2  807   0.857   4.224  12.603 -0.2637 -0.5004 -0.1645
   53TMC2    C3  808   0.795   4.297  12.704  0.0953 -0.0754  0.3004
   53TMC2    C4  809   0.656   4.248  12.481  0.4758 -0.0728 -0.3228
   53TMC2    C5  810   0.596   4.311  12.585 -0.0733  0.3874 -0.2722
   53TMC2    C6  811   0.664   4.341  12.700  0.4480  0.6429 -0.1855
   53TMC2     C  812   0.850   4.157  12.375 -0.0167 -0.3336  0.1193
   53TMC2     O  813   0.973   4.145  12.392  0.7677  0.5598 -1.0150
   53TMC2     H  814   0.961   4.193  12.608 -0.6939 -1.7346  1.1512
   53TMC2    H1  815   0.597   4.223  12.393 -0.7691 -0.2965  0.5782
   53TMC2    H2  816   0.624   4.409  12.775 -0.4295  1.1454 -1.1134
   53TMC2    C7  817   0.449   4.306  12.585  0.8493 -0.0473 -0.3281
   53TMC2    C8  818   0.873   4.361  12.803  0.0902 -0.3013  0.0380
   53TMC2    O1  819   0.399   4.272  12.479 -0.2665 -0.3994 -0.2329
   53TMC2    O2  820   0.891   4.482  12.798  0.5068 -0.5153  0.3639
   53TMC2    O5  821   0.956   4.264  12.841  0.0228  0.3508 -0.2865
   53TMC2    H5  822   0.930   4.172  12.818 -0.4900  0.5106 -0.3463
   54MPD2     C  823   0.934   3.990  12.144  0.0319 -0.1296  0.1700
   54MPD2    C1  824   0.819   4.069  12.150  0.7574  0.5016  0.0282
   54MPD2    C2  825   0.729   4.071  12.045 -0.2537  0.0901 -0.6825
   54MPD2    C3  826   0.752   3.996  11.933 -0.1195 -0.1328  0.5752
   54MPD2    C4  827   0.877   3.927  11.922 -0.2517 -0.3552  0.2939
   54MPD2    C5  828   0.960   3.929  12.032 -0.1243 -0.0199  0.1715
   54MPD2     H  829   0.653   4.148  12.036 -0.7497 -0.0924  2.2225
   54MPD2    H1  830   0.903   3.871  11.833  4.8518  3.1496 -0.3799
   54MPD2    H2  831   1.015   3.987  12.216  0.2209 -0.3350 -0.0521
   54MPD2    H3  832   1.050   3.869  12.020 -1.4667 -2.3601  1.7398
   54MPD2     N  833   0.670   3.991  11.815 -0.6142  0.1624  0.8302
   54MPD2    H5  834   0.706   3.951  11.729  1.3792  1.5498  1.0323
   54MPD2    N1  835   0.780   4.144  12.257 -0.2609  0.4470  0.3529
   54MPD2    H7  836   0.686   4.183  12.255 -0.0189  1.1896  2.6618
   55MPD2     C  837   1.227   2.085   0.550 -0.0805 -0.5388  0.4620
   55MPD2    C1  838   1.175   1.978   0.620 -0.5666 -0.0394 -0.6912
   55MPD2    C2  839   1.064   2.007   0.696  0.1555 -0.0350  0.6407
   55MPD2    C3  840   1.000   2.133   0.699 -0.3033 -1.5509  0.4581
   55MPD2    C4  841   1.058   2.236   0.625 -0.7889 -0.0515 -0.5781
   55MPD2    C5  842   1.173   2.208   0.556  0.0650  0.2793  0.6326
   55MPD2     H  843   1.020   1.934   0.763 -0.1530  1.7342  2.3727
   55MPD2    H1  844   1.026   2.339   0.622 -0.3305  0.1292  0.6726
   55MPD2    H2  845   1.326   2.081   0.508 -0.6890 -2.5550 -0.7673
   55MPD2    H3  846   1.228   2.294   0.518 -0.9021 -0.0219 -1.4530
   55MPD2     N  847   0.874   2.149   0.774 -0.2378  0.2858 -0.4660
   55MPD2    H5  848   0.833   2.060   0.801 -1.3060  0.9219 -0.0052
   55MPD2    N1  849   1.233   1.855   0.606  0.2122  0.1883 -0.2389
   55MPD2    H7  850   1.309   1.851   0.538  0.2994 -1.8191 -0.0351
   56TCq2    C1  851   1.172   1.741   0.648 -0.3946  0.2779 -0.2236
   56TCq2    O2  852   1.086   1.719   0.728  0.7206 -0.4174  0.3759
   56TCq2    C2  853   1.248   1.627   0.599  0.0713  1.0889 -0.1178
   56TCq2    C3  854   1.282   1.631   0.462 -0.9947  0.3437  0.0358
   56TCq2    C4  855   1.338   1.511   0.412 -0.5793 -0.5976  0.6093
   56TCq2    C5  856   1.358   1.406   0.491 -0.5721  0.3192 -0.4988
   56TCq2    C6  857   1.314   1.402   0.620 -0.1616  0.6601  0.4533
   56TCq2    C7  858   1.262   1.512   0.678 -0.2682  0.2552 -0.3015
   56TCq2    C8  859   1.278   1.273   0.669  0.6365 -0.1716  0.2190
   56TCq2    O4  860   1.354   1.180   0.653 -0.0605  0.1787 -0.5487
   56TCq2    C9  861   1.388   1.507   0.273 -0.4140  0.5908 -0.0746
   56TCq2    O5  862   1.339   1.591   0.191 -0.2719 -0.1274 -0.7745
   56TCq2    O6  863   1.471   1.416   0.250 -0.5672  0.4708 -0.0028
   56TCq2    H2  864   1.282   1.719   0.399 -0.1034  0.8757  0.7681
   56TCq2    H3  865   1.394   1.314   0.446  0.8526  1.4818 -1.7228
   56TCq2    H4  866   1.227   1.509   0.781 -1.1436 -2.6389 -0.6698
   57TMC2    C1  867   4.514   3.314  13.188 -0.0758 -0.2804 -0.1684
   57TMC2    C2  868   4.396   3.367  13.150  1.1595 -0.0928 -0.4465
   57TMC2    C3  869   4.382   3.392  13.013  0.1836  0.1229  0.5566
   57TMC2    C4  870   4.620   3.291  13.101 -0.1935  0.1951 -0.2155
   57TMC2    C5  871   4.601   3.332  12.975 -0.1278  0.2517  0.3530
   57TMC2    C6  872   4.487   3.379  12.924 -0.0150 -0.5576 -0.3422
   57TMC2     C  873   4.539   3.305  13.333 -0.0391 -0.1223 -0.9530
   57TMC2     O  874   4.437   3.306  13.410  0.4158  0.0656  0.2191
   57TMC2     H  875   4.319   3.386  13.223  0.2413 -0.6789 -1.2633
   57TMC2    H1  876   4.719   3.260  13.131 -0.1227  0.2823 -0.3584
   57TMC2    H2  877   4.469   3.415  12.824 -0.3398 -0.1225 -0.1286
   57TMC2    C7  878   4.707   3.302  12.880  0.2701  0.4217  0.4288
   57TMC2    C8  879   4.259   3.459  12.985  0.0753  0.5856  0.1614
   57TMC2    O1  880   0.016   3.386  12.797  1.0415 -0.0968  0.3290
   57TMC2    O2  881   4.151   3.422  13.029 -0.3841  0.1170  0.4803
   57TMC2    O5  882   4.292   3.573  12.921 -0.2102  0.2020  0.8519
   57TMC2    H5  883   4.377   3.608  12.956 -1.4227  2.4887  1.4998
   58MPD2     C  884   0.130   3.300  13.738 -0.6377  0.0025  0.0470
   58MPD2    C1  885   4.715   3.294  13.738  1.3978  0.7727 -0.2682
   58MPD2    C2  886   4.656   3.297  13.609  0.0101 -0.1964  0.3180
   58MPD2    C3  887   0.010   3.304  13.492  0.0962 -0.1252 -0.2091
   58MPD2    C4  888   0.147   3.306  13.501 -0.2179  0.6526 -0.3579
   58MPD2    C5  889   0.210   3.295  13.626 -0.6237  0.3591 -0.0348
   58MPD2     H  890   4.550   3.320  13.603 -0.5378 -2.3578  1.5591
   58MPD2    H1  891   0.219   3.306  13.421  0.6859  0.4552  0.4526
   58MPD2    H2  892   0.177   3.285  13.834  0.8737 -0.0629 -0.7142
   58MPD2    H3  893   0.317   3.296  13.639 -0.6298  1.7872 -0.1151
   58MPD2     N  894   4.674   3.314  13.366  0.0521 -0.2474 -0.2937
   58MPD2    H5  895   0.013   3.312  13.285  0.8243 -1.6230  0.3213
   58MPD2    N1  896   4.634   3.306  13.853  0.2529  0.0729 -0.3451
   58MPD2    H7  897   4.535   3.287  13.841 -0.1307  1.6176  0.3659
   59MPD2     C  898   3.040   2.561  13.535 -0.2209  0.0282 -0.1188
   59MPD2    C1  899   3.061   2.647  13.423 -0.2636  0.2392  0.1867
   59MPD2    C2  900   3.056   2.784  13.439 -0.1371 -0.2198  0.5967
   59MPD2    C3  901   3.042   2.838  13.573  0.7424  0.2255 -0.1207
   59MPD2    C4  902   3.028   2.753  13.680  1.1418  0.9749  1.0273
   59MPD2    C5  903   3.026   2.615  13.660  0.5815 -0.0822  1.2902
   59MPD2     H  904   3.076   2.842  13.350  2.3181  0.7366  1.7778
   59MPD2    H1  905   3.046   2.789  13.781 -0.8786 -0.2915  1.8394
   59MPD2    H2  906   3.058   2.454  13.529  1.2764  0.2437  0.4184
   59MPD2    H3  907   3.025   2.544  13.741 -2.3940 -0.1375  1.2398
   59MPD2     N  908   3.058   2.975  13.601 -0.4443  0.4109  0.2769
   59MPD2    H5  909   3.081   3.004  13.695  0.1997  1.2084 -0.1216
   59MPD2    N1  910   3.103   2.591  13.297 -0.4613  0.6112 -0.0444
   59MPD2    H7  911   3.117   2.663  13.228  0.1838  1.7296  1.2624
   60TCq2    C1  912   3.099   2.461  13.264 -0.5499 -0.4335 -0.7275
   60TCq2    O2  913   3.068   2.358  13.319  0.2725 -0.1832 -0.5726
   60TCq2    C2  914   3.135   2.450  13.127  0.3226 -0.5542  0.1515
   60TCq2    C3  915   3.263   2.486  13.110  0.9880 -1.0049 -0.1933
   60TCq2    C4  916   3.293   2.563  12.999 -0.1729  0.1990 -0.3640
   60TCq2    C5  917   3.194   2.622  12.921  0.1014 -0.2395  0.5139
   60TCq2    C6  918   3.064   2.594  12.946 -0.4944  0.2147 -0.0424
   60TCq2    C7  919   3.035   2.504  13.045 -0.2315 -0.1240 -0.1320
   60TCq2    C8  920   2.957   2.669  12.879  0.7561 -0.1348 -0.0655
   60TCq2    O4  921   2.848   2.655  12.929  0.2070 -0.4697 -0.1567
   60TCq2    C9  922   3.431   2.597  12.984  0.9948  0.2971  0.0316
   60TCq2    O5  923   3.507   2.567  13.080 -0.2495  0.2801 -0.6730
   60TCq2    O6  924   3.461   2.690  12.897  0.0505 -0.5415  0.0498
   60TCq2    H2  925   3.331   2.453  13.187  0.7751 -2.0278 -0.4369
   60TCq2    H3  926   3.228   2.683  12.839 -0.3214 -2.2036 -1.1245
   60TCq2    H4  927   2.934   2.483  13.077  0.5080 -0.3063  2.0796
   61MPD2     C  928   2.225   4.263  14.781 -0.4754 -0.0397  0.1004
   61MPD2    C1  929   2.266   4.346  14.889  0.0894 -0.1549 -0.4988
   61MPD2    C2  930   2.308   4.475  14.870  0.2421 -0.3224 -0.1081
   61MPD2    C3  931   2.299   4.537  14.744  0.5306  0.4931  0.4565
   61MPD2    C4  932   2.255   4.456  14.644  0.3958  0.1352 -0.1464
   61MPD2    C5  933   2.221   4.326  14.660  0.0900  0.0824 -0.2790
   61MPD2     H  934   2.350   4.539  14.947  2.9603 -0.0368 -1.8203
   61MPD2    H1  935   2.255   4.507  14.548 -0.8779  2.7253  1.2025
   61MPD2    H2  936   2.198   4.159  14.796 -1.0484  0.0160 -0.5609
   61MPD2    H3  937   2.181   4.267  14.577  1.8376 -2.0341  0.3818
   61MPD2     N  938   2.355   4.665  14.712 -0.0291 -0.3724 -0.1485
   61MPD2    H5  939   2.320   4.709  14.627 -1.9838 -1.9774 -0.1880
   61MPD2    N1  940   2.273   4.293  15.017 -0.0255  0.1344  0.3030
   61MPD2    H7  941   2.273   4.364  15.089 -2.0682  1.4039 -0.9322
   62TCq2    C1  942   2.263   4.155  15.046  0.0358 -0.0052 -0.3266
   62TCq2    O2  943   2.268   4.053  14.976  0.0864 -0.3570  0.2484
   62TCq2    C2  944   2.287   4.151  15.186  0.2274 -0.6465  0.2099
   62TCq2    C3  945   2.392   4.071  15.220 -0.9113  0.2974 -0.5034
   62TCq2    C4  946   2.453   4.095  15.340 -0.3178 -0.8898 -0.1777
   62TCq2    C5  947   2.415   4.193  15.430 -0.0515  0.0288 -0.7298
   62TCq2    C6  948   2.305   4.264  15.394  0.2071  0.0346  0.9274
   62TCq2    C7  949   2.250   4.250  15.267  0.0970  1.3920  0.3827
   62TCq2    C8  950   2.290   4.394  15.450  0.2022 -0.1404  0.0081
   62TCq2    O4  951   2.187   4.448  15.430  0.4460 -0.4790  0.1763
   62TCq2    C9  952   2.543   3.989  15.379  0.2856 -0.7535  0.0756
   62TCq2    O5  953   2.581   3.987  15.498  0.1134  0.0870 -0.1016
   62TCq2    O6  954   2.601   3.914  15.287  0.5277 -0.2195  0.6682
   62TCq2    H2  955   2.425   3.989  15.156 -0.6141 -1.6771  2.1823
   62TCq2    H3  956   2.458   4.187  15.530 -1.8602  0.3382  0.0607
   62TCq2    H4  957   2.154   4.296  15.246  1.1281  2.6522 -1.5299
   63TMC2    C1  958   1.984   4.183  11.269  1.0021  0.5928  0.6630
   63TMC2    C2  959   2.046   4.212  11.390 -0.7441  0.1414  0.0791
   63TMC2    C3  960   2.177   4.246  11.382  0.0487 -0.1316 -0.0068
   63TMC2    C4  961   2.036   4.201  11.148 -0.2401  0.6575  1.0190
   63TMC2    C5  962   2.163   4.249  11.147 -0.3067 -0.6085 -0.2190
   63TMC2    C6  963   2.240   4.270  11.262 -0.8391  0.7679 -0.1363
   63TMC2     C  964   1.838   4.157  11.271  0.6173  0.0553 -0.4590
   63TMC2     O  965   1.762   4.205  11.355  0.2925 -0.1674 -0.5362
   63TMC2     H  966   1.988   4.214  11.482 -1.5535 -0.4621 -0.4149
   63TMC2    H1  967   1.972   4.198  11.060  1.2962 -0.1918 -0.0587
   63TMC2    H2  968   2.348   4.278  11.254 -0.8097  0.1784 -0.3531
   63TMC2    C7  969   2.186   4.337  11.037 -0.2957 -0.6255  0.5569
   63TMC2    C8  970   2.253   4.264  11.504 -0.0790  0.7833 -0.6408
   63TMC2    O1  971   2.123   4.301  10.932 -0.3736  0.6971 -0.5101
   63TMC2    O2  972   2.338   4.352  11.510  0.0120 -0.2011 -0.7736
   63TMC2    O5  973   2.189   4.231  11.616  0.1949  0.0400  0.2244
   63TMC2    H5  974   2.121   4.162  11.605  1.0439 -0.6277 -0.8391
   64MPD2     C  975   1.437   3.932  11.025  0.7028  0.0567  0.4404
   64MPD2    C1  976   1.557   3.867  10.987  0.4617  0.0833 -0.0275
   64MPD2    C2  977   1.672   3.918  11.039 -0.3066  0.2364  0.4858
   64MPD2    C3  978   1.684   4.022  11.129 -0.0146 -0.3402  0.0350
   64MPD2    C4  979   1.562   4.089  11.172 -0.3203 -0.4409 -0.1551
   64MPD2    C5  980   1.443   4.043  11.110  0.6970 -0.4194  0.2446
   64MPD2     H  981   1.767   3.876  11.008  0.9316  1.2874  2.8704
   64MPD2    H1  982   1.561   4.171  11.242 -0.1847 -1.0135  0.5194
   64MPD2    H2  983   1.339   3.908  10.985  0.5330  0.7674  0.4238
   64MPD2    H3  984   1.354   4.093  11.149 -0.4757 -1.6027 -0.9454
   64MPD2     N  985   1.811   4.059  11.172 -0.6410 -0.3078 -0.3289
   64MPD2    H5  986   1.892   4.011  11.135 -0.3358  1.0086 -1.3800
   64MPD2    N1  987   1.563   3.761  10.887 -0.0044  0.4808  0.2243
   64MPD2    H7  988   1.656   3.727  10.868 -1.0798 -2.3845  0.0407
   65MPD2     C  989   2.904   4.114  16.190 -0.3092  0.5241 -0.1491
   65MPD2    C1  990   2.938   4.081  16.059  0.1510 -0.3430 -0.5008
   65MPD2    C2  991   2.914   3.961  16.002  0.1654  0.1039  0.2704
   65MPD2    C3  992   2.847   3.869  16.080 -0.5507  0.1689 -0.5715
   65MPD2    C4  993   2.811   3.903  16.210 -0.4721 -0.3070  0.5609
   65MPD2    C5  994   2.839   4.024  16.263 -0.2184 -0.0972 -1.2137
   65MPD2     H  995   2.943   3.940  15.900 -0.5920 -0.0196  0.0844
   65MPD2    H1  996   2.752   3.837  16.272 -2.2042  1.5434  0.8807
   65MPD2    H2  997   2.922   4.216  16.222 -1.7683  0.3612  1.2048
   65MPD2    H3  998   2.803   4.048  16.362 -1.1365 -1.9249 -1.1168
   65MPD2     N  999   2.798   3.747  16.027 -0.2315  0.4259  0.8962
   65MPD2    H5 1000   2.739   3.693  16.090  1.4362 -1.2664  0.9941
   65MPD2    N1 1001   2.989   4.177  15.973 -0.8987 -0.2058  0.1654
   65MPD2    H7 1002   2.993   4.160  15.873  1.1979 -3.9272  0.9044
   66TCq2    C1 1003   3.006   4.311  15.999  0.0234 -0.1072  0.3966
   66TCq2    O2 1004   2.981   4.377  16.096 -0.0895 -0.0651 -0.1360
   66TCq2    C2 1005   3.047   4.391  15.882  0.5712  0.4932  0.3886
   66TCq2    C3 1006   3.087   4.324  15.770 -0.5386 -0.4936 -0.1810
   66TCq2    C4 1007   3.084   4.399  15.650  0.1770  0.7550  0.1411
   66TCq2    C5 1008   3.053   4.529  15.647 -0.5635 -0.6477  0.9941
   66TCq2    C6 1009   3.033   4.596  15.766 -0.3415 -0.5126 -0.7010
   66TCq2    C7 1010   3.031   4.531  15.890  0.0314 -0.1319 -0.0184
   66TCq2    C8 1011   3.001   0.013  15.756 -0.0081  0.2457  0.3245
   66TCq2    O4 1012   3.032   0.068  15.651  0.2768  0.0396  0.5002
   66TCq2    C9 1013   3.121   4.342  15.519  0.2529 -0.2639  0.7423
   66TCq2    O5 1014   3.064   4.394  15.421  0.3476 -0.6762 -0.3401
   66TCq2    O6 1015   3.156   4.222  15.537 -0.6742  0.3156  0.2186
   66TCq2    H2 1016   3.127   4.224  15.770 -0.1919 -0.3545  0.8189
   66TCq2    H3 1017   3.063   4.586  15.555  0.0964 -0.7264  1.0170
   66TCq2    H4 1018   3.036   4.581  15.986 -0.0085  2.5635 -1.4327
   67MPD2     C 1019   2.750   3.151  14.496  0.1506  0.0342  0.3491
   67MPD2    C1 1020   2.723   3.285  14.527  0.2783 -0.2856 -0.1889
   67MPD2    C2 1021   2.634   3.363  14.448  0.0294 -0.3407  0.3608
   67MPD2    C3 1022   2.568   3.306  14.336 -0.7426 -0.1790 -0.2351
   67MPD2    C4 1023   2.593   3.176  14.307 -0.2978  0.2008  0.9098
   67MPD2    C5 1024   2.683   3.104  14.383 -0.0917 -0.0010 -0.3401
   67MPD2     H 1025   2.612   3.465  14.475  0.4045 -0.4786  1.1960
   67MPD2    H1 1026   2.547   3.128  14.222 -1.2412  0.6618  1.1595
   67MPD2    H2 1027   2.820   3.087  14.549 -0.3988 -0.9757 -0.1376
   67MPD2    H3 1028   2.703   3.005  14.343 -1.1583 -0.6720  0.8108
   67MPD2     N 1029   2.467   3.369  14.257 -0.2744  0.5166  0.5719
   67MPD2    H5 1030   2.408   3.313  14.196 -1.5202  2.3301  0.0997
   67MPD2    N1 1031   2.780   3.353  14.640 -0.0730  0.0747  0.2876
   67MPD2    H7 1032   2.741   3.446  14.655  0.6055 -0.1345  3.2232
   68TCq2    C1 1033   2.868   3.306  14.735 -0.1800  0.1324  0.1298
   68TCq2    O2 1034   2.918   3.195  14.736  0.6146 -0.1340  0.4632
   68TCq2    C2 1035   2.908   3.398  14.843 -1.0110  0.5883 -0.0003
   68TCq2    C3 1036   2.823   3.493  14.889  0.6657  0.5363  0.3056
   68TCq2    C4 1037   2.838   3.566  15.000  0.1579 -0.6536  0.2848
   68TCq2    C5 1038   2.952   3.551  15.071  0.0336 -0.0238  0.6322
   68TCq2    C6 1039   3.040   3.451  15.029  1.0046 -0.2662  0.8526
   68TCq2    C7 1040   3.018   3.372  14.922  0.6900  0.3329 -0.1856
   68TCq2    C8 1041   3.178   3.468  15.056 -0.3763  0.1529  0.5376
   68TCq2    O4 1042   3.260   3.441  14.970 -0.5571 -0.7359  0.1748
   68TCq2    C9 1043   2.750   3.680  15.026 -0.4464  0.5622  0.1170
   68TCq2    O5 1044   2.758   3.736  15.136  0.4806  0.1026  0.7074
   68TCq2    O6 1045   2.665   3.703  14.940  0.1517  0.5624 -0.0902
   68TCq2    H2 1046   2.732   3.504  14.830 -0.0440 -0.8577  1.1370
   68TCq2    H3 1047   2.988   3.623  15.144 -0.4679  0.8256  0.0493
   68TCq2    H4 1048   3.094   3.299  14.897  0.2962  0.1955 -1.0045
   69TMC2    C1 1049   4.406   4.679  11.981 -0.1672 -0.2348 -0.6072
   69TMC2    C2 1050   4.288   4.616  11.946 -0.0891  0.3425 -0.4768
   69TMC2    C3 1051   4.237   4.640  11.818 -0.5063  0.1312 -0.3940
   69TMC2    C4 1052   4.481   0.030  11.896  0.8328  0.0028  0.0274
   69TMC2    C5 1053   4.430   0.043  11.766  0.7336  0.5330 -0.0432
   69TMC2    C6 1054   4.315   4.708  11.730  0.5678  0.0829  0.3834
   69TMC2     C 1055   4.473   4.623  12.090  0.2262  0.5698  0.5123
   69TMC2     O 1056   4.408   4.594  12.189  0.2181  0.4799 -0.1257
   69TMC2     H 1057   4.243   4.540  12.010  0.5586 -1.3456 -2.0064
   69TMC2    H1 1058   4.563   0.089  11.934 -0.1491  1.4988 -0.2020
   69TMC2    H2 1059   4.288   4.707  11.625  2.6448  0.6157 -0.1693
   69TMC2    C7 1060   4.541   0.043  11.676  0.2039  0.0347 -0.2069
   69TMC2    C8 1061   4.121   4.561  11.764  0.0254  1.1600  0.3762
   69TMC2    O1 1062   4.654   0.051  11.720  0.3157  0.2370  0.2335
   69TMC2    O2 1063   4.105   4.536  11.648 -0.6224 -0.3171 -0.2965
   69TMC2    O5 1064   4.027   4.574  11.860  0.0526 -0.2030  0.3595
   69TMC2    H5 1065   4.051   4.600  11.951  0.1113  0.6591  0.0966
   70MPD2     C 1066   0.112   4.540  12.114 -0.5312 -0.0092  0.9921
   70MPD2    C1 1067   4.706   4.578  12.160  0.3922  0.5129 -0.0143
   70MPD2    C2 1068   4.683   4.575  12.299 -0.9096  0.2594  0.9901
   70MPD2    C3 1069   0.064   4.542  12.386 -0.2028 -0.4457  0.6052
   70MPD2    C4 1070   0.192   4.536  12.341 -0.2352 -0.4082 -0.0067
   70MPD2    C5 1071   0.215   4.541  12.203  0.4208  0.2271  0.5101
   70MPD2     H 1072   4.584   4.605  12.332 -1.9924 -1.0797 -1.0475
   70MPD2    H1 1073   0.269   4.519  12.416  1.1373 -2.5465 -1.9113
   70MPD2    H2 1074   0.127   4.532  12.007  1.1267  0.4250  1.2077
   70MPD2    H3 1075   0.314   4.527  12.160  0.5108 -0.1094  0.8344
   70MPD2     N 1076   0.045   4.537  12.527 -0.4140  0.3616  0.1595
   70MPD2    H5 1077   0.125   4.536  12.589 -1.3393 -2.8157  1.3397
   70MPD2    N1 1078   4.611   4.609  12.063 -0.3939  0.5415 -0.4740
   70MPD2    H7 1079   4.630   4.612  11.963 -0.5572  1.1337 -0.4844
   71TMC2    C1 1080   2.388   4.510   1.156 -0.0738 -0.0946 -0.8263
   71TMC2    C2 1081   2.269   4.524   1.084  0.4566 -0.0379 -0.0317
   71TMC2    C3 1082   2.154   4.504   1.150 -0.3711  0.6563  0.0536
   71TMC2    C4 1083   2.383   4.489   1.293  0.6552 -0.3905  0.1240
   71TMC2    C5 1084   2.264   4.464   1.347 -0.5105 -0.2182 -0.2413
   71TMC2    C6 1085   2.150   4.455   1.280  0.3686 -0.1676  0.1213
   71TMC2     C 1086   2.511   4.538   1.075 -0.1017 -0.5723  0.0441
   71TMC2     O 1087   2.492   4.582   0.963 -0.1171 -0.2234 -0.0259
   71TMC2     H 1088   2.269   4.564   0.983  0.3711  1.2938  0.4879
   71TMC2    H1 1089   2.467   4.483   1.361 -0.1313  3.3085  1.4449
   71TMC2    H2 1090   2.057   4.413   1.317  0.2406  0.1550  0.1697
   71TMC2    C7 1091   2.269   4.496   1.492  0.6142 -0.1185  0.2820
   71TMC2    C8 1092   2.024   4.511   1.081 -0.4228  0.3195  0.1851
   71TMC2    O1 1093   2.336   4.424   1.562  0.4010  0.6777  0.7785
   71TMC2    O2 1094   2.006   4.480   0.964 -0.2520 -0.1261 -0.2170
   71TMC2    O5 1095   1.932   4.576   1.157 -0.4790  0.9994 -0.2382
   71TMC2    H5 1096   1.965   4.636   1.227 -1.3592  0.9046  0.2635
   72MPD2     C 1097   3.003   4.679   1.033  0.1689  0.0392 -0.3560
   72MPD2    C1 1098   2.893   4.698   0.948  0.1154  0.3104  0.4425
   72MPD2    C2 1099   2.776   4.639   0.984 -0.3771 -0.0559  0.5441
   72MPD2    C3 1100   2.754   4.583   1.110  0.3997  0.1527 -0.2092
   72MPD2    C4 1101   2.861   4.572   1.195  0.5407 -0.6073  0.2445
   72MPD2    C5 1102   2.977   4.619   1.150  0.0841  0.1476  0.1228
   72MPD2     H 1103   2.703   4.640   0.904 -0.0025 -0.9196  0.1880
   72MPD2    H1 1104   2.856   4.514   1.287  0.0385 -0.5624  0.2486
   72MPD2    H2 1105   3.101   4.722   1.015 -0.1929 -0.4994 -3.6914
   72MPD2    H3 1106   3.068   4.609   1.208  0.0841  0.1387  0.1213
   72MPD2     N 1107   2.624   4.542   1.156 -0.0298  0.1661 -0.2531
   72MPD2    H5 1108   2.607   4.510   1.251  0.4705 -2.7622 -1.1561
   72MPD2    N1 1109   2.884   0.066   0.847 -0.2549  0.4443 -0.1041
   72MPD2    H7 1110   2.796   0.066   0.797  0.7875 -0.6486 -1.9118
   73TMC2    C1 1111   2.205   1.894  14.253  0.8588 -0.6332 -0.3837
   73TMC2    C2 1112   2.082   1.869  14.325 -0.6456 -0.2069  0.3220
   73TMC2    C3 1113   2.091   1.774  14.429 -0.6728  0.1896 -0.5201
   73TMC2    C4 1114   2.320   1.836  14.301  0.5795 -0.2786  0.0947
   73TMC2    C5 1115   2.324   1.763  14.413 -0.2816  0.4900 -0.0961
   73TMC2    C6 1116   2.210   1.736  14.491 -0.2702 -0.0979 -0.1575
   73TMC2     C 1117   2.244   2.022  14.223 -0.1133 -0.1543  0.0334
   73TMC2     O 1118   2.353   2.063  14.269  0.5571  0.6162  0.1338
   73TMC2     H 1119   1.984   1.895  14.284 -0.4823 -3.3939 -2.1409
   73TMC2    H1 1120   2.409   1.849  14.239  0.4141  0.3174 -0.0214
   73TMC2    H2 1121   2.213   1.673  14.580  0.5244 -0.3549 -0.3672
   73TMC2    C7 1122   2.442   1.786  14.492 -0.4314 -0.1066  0.2151
   73TMC2    C8 1123   1.963   1.723  14.475  0.4320 -0.1468 -0.2379
   73TMC2    O1 1124   2.480   1.701  14.570 -0.0540 -0.1966 -0.6058
   73TMC2    O2 1125   1.862   1.786  14.462  0.4133 -0.3957  0.5111
   73TMC2    O5 1126   1.971   1.594  14.447 -0.1787 -0.6974 -0.2181
   73TMC2    H5 1127   2.059   1.564  14.415 -0.7553 -0.5762 -1.8921
   74MPD2     C 1128   2.145   2.522  14.172  0.4082 -0.1540 -0.8154
   74MPD2    C1 1129   2.268   2.451  14.180 -0.0602  0.5580  0.2791
   74MPD2    C2 1130   2.259   2.310  14.181 -1.0171  0.3824  0.0460
   74MPD2    C3 1131   2.138   2.240  14.178 -0.0618 -0.1099  0.7598
   74MPD2    C4 1132   2.027   2.319  14.164 -0.6675 -0.3011 -0.3640
   74MPD2    C5 1133   2.031   2.451  14.160 -0.1163  0.2273 -0.2978
   74MPD2     H 1134   2.355   2.261  14.171 -0.5503  1.4999 -0.9067
   74MPD2    H1 1135   1.929   2.275  14.180  0.6471 -3.0876  0.0865
   74MPD2    H2 1136   2.147   2.631  14.173  0.8933 -0.1807  1.6830
   74MPD2    H3 1137   1.935   2.501  14.160  1.0871  2.5156 -1.0712
   74MPD2     N 1138   2.134   2.103  14.193  0.0839  0.7302 -0.0844
   74MPD2    H5 1139   2.043   2.064  14.169  0.1243 -1.2410  2.8660
   74MPD2    N1 1140   2.388   2.524  14.193  0.4324  0.5511  0.3671
   74MPD2    H7 1141   2.390   2.625  14.180  0.6136  0.2971 -1.6052
   75TCq2    C1 1142   2.442   3.508  14.272  0.1423 -0.2524  0.5320
   75TCq2    O2 1143   2.496   3.596  14.339 -0.4855  0.3598  0.9639
   75TCq2    C2 1144   2.332   3.553  14.190 -0.8307 -0.0060 -1.1077
   75TCq2    C3 1145   2.233   3.626  14.250  0.2114 -0.7917 -0.1961
   75TCq2    C4 1146   2.116   3.647  14.182 -0.1541 -0.3815  0.2957
   75TCq2    C5 1147   2.106   3.601  14.056 -0.3534  0.2435 -0.7002
   75TCq2    C6 1148   2.205   3.527  14.001  0.3206  0.0268 -0.8303
   75TCq2    C7 1149   2.316   3.495  14.070 -0.5287  0.1781  0.3212
   75TCq2    C8 1150   2.184   3.484  13.864 -0.2435 -0.0598  0.9019
   75TCq2    O4 1151   2.258   3.394  13.822 -0.0981  0.1700  0.6102
   75TCq2    C9 1152   1.995   3.708  14.237 -0.4555  0.0551 -0.4054
   75TCq2    O5 1153   1.924   3.777  14.157  0.4937  0.1184  0.1062
   75TCq2    O6 1154   1.969   3.694  14.356  0.0004 -0.0997  0.7140
   75TCq2    H2 1155   2.249   3.665  14.350 -0.7217 -1.3549  0.1744
   75TCq2    H3 1156   2.010   3.604  14.007  0.1094 -0.5312 -1.6438
   75TCq2    H4 1157   2.397   3.445  14.018 -0.4974  1.7776 -1.1600
   76MPD2     C 1158   0.817   4.481  12.035  0.3096 -0.5337  0.0829
   76MPD2    C1 1159   0.838   4.370  11.957 -0.3952 -0.2412 -0.2254
   76MPD2    C2 1160   0.963   4.307  11.969  0.7839  0.6369 -0.8652
   76MPD2    C3 1161   1.058   4.350  12.064  0.1443 -0.0643 -0.5574
   76MPD2    C4 1162   1.020   4.444  12.155  0.0978 -0.0619 -0.6357
   76MPD2    C5 1163   0.904   4.511  12.137  0.5657 -0.3703 -0.2637
   76MPD2     H 1164   0.991   4.234  11.894  0.2286 -0.2272 -0.2226
   76MPD2    H1 1165   1.088   4.474  12.234 -0.3470  1.5179 -0.8457
   76MPD2    H2 1166   0.729   4.544  12.030  1.2398  0.8338  0.8947
   76MPD2    H3 1167   0.888   4.590  12.209  0.8253 -1.0069  0.5015
   76MPD2     N 1168   1.190   4.293  12.081  0.4840  0.6008  0.3624
   76MPD2    H5 1169   1.248   4.320  12.159 -0.2119  0.2267  1.0169
   76MPD2    N1 1170   0.752   4.342  11.857  0.6979  0.6235 -0.0333
   76MPD2    H7 1171   0.787   4.276  11.788  0.9126  1.1951 -0.4702
   77TCq2    C1 1172   1.251   4.213  11.989  0.5066  0.1891 -0.3067
   77TCq2    O2 1173   1.219   4.183  11.874 -0.1007  0.0009 -0.2075
   77TCq2    C2 1174   1.393   4.171  12.031 -0.1540 -0.1223  0.5228
   77TCq2    C3 1175   1.465   4.133  11.918 -0.2783 -0.8522 -0.1941
   77TCq2    C4 1176   1.602   4.134  11.928  0.0836  0.1245  0.1823
   77TCq2    C5 1177   1.655   4.174  12.047 -1.1399  0.6787  0.0508
   77TCq2    C6 1178   1.583   4.202  12.156 -0.6534  0.2731 -0.0423
   77TCq2    C7 1179   1.444   4.194  12.157  0.5946  0.5648  0.2098
   77TCq2    C8 1180   1.650   4.237  12.280  0.6913 -0.0839  0.4355
   77TCq2    O4 1181   1.763   4.284  12.275  0.1793  0.2056 -0.2108
   77TCq2    C9 1182   1.690   4.101  11.818 -0.2264 -0.2963 -0.6932
   77TCq2    O5 1183   1.637   4.053  11.715  0.2492  0.2227 -0.7262
   77TCq2    O6 1184   1.815   4.123  11.844  0.6646 -0.0374 -0.1057
   77TCq2    H2 1185   1.415   4.116  11.824  1.9885  1.7101 -1.8407
   77TCq2    H3 1186   1.761   4.163  12.068 -1.3326 -0.4697  0.4004
   77TCq2    H4 1187   1.384   4.198  12.248 -3.2718 -0.2238 -2.3068
   78MPD1     C 1188   1.702   0.948   1.541 -0.3361  0.1218  0.5220
   78MPD1    C1 1189   1.785   0.917   1.653  0.1243 -0.6500  0.3831
   78MPD1    C2 1190   1.868   0.803   1.641 -0.0156 -0.3027 -0.5137
   78MPD1    C3 1191   1.845   0.718   1.531  0.2130 -0.6871 -0.4620
   78MPD1    C4 1192   1.761   0.757   1.427  0.5534  0.6524 -0.3408
   78MPD1    C5 1193   1.685   0.870   1.433  0.0141  0.0909  0.4915
   78MPD1     H 1194   1.944   0.784   1.715 -0.9029 -0.8647  0.2475
   78MPD1    H1 1195   1.744   0.700   1.336 -2.4017 -0.1597  0.7149
   78MPD1    H2 1196   1.650   1.043   1.549 -2.5847 -0.9680 -1.3268
   78MPD1    H3 1197   1.605   0.886   1.362  0.8251  0.3139 -0.3750
   78MPD1     N 1198   1.906   0.594   1.510 -0.1126 -0.2655 -0.3986
   78MPD1    H5 1199   1.898   0.542   1.423  1.7906 -0.5247 -0.4231
   78MPD1    N1 1200   1.800   1.018   1.754 -0.2624 -0.0303 -0.2449
   78MPD1    H6 1201   1.710   1.061   1.771 -1.5608 -1.9909 -2.2021
   78MPD1    H7 1202   1.832   0.976   1.842  0.5075  0.0373 -0.4895
   79TCq2    C1 1203   1.986   0.530   1.608 -0.1543 -0.2855 -0.2637
   79TCq2    O2 1204   2.016   0.571   1.720  0.0634 -0.4829 -0.2361
   79TCq2    C2 1205   2.058   0.408   1.558  0.0724 -0.2751 -0.0150
   79TCq2    C3 1206   2.006   0.346   1.450 -0.5668 -0.0876  0.1906
   79TCq2    C4 1207   2.069   0.235   1.403 -0.0919 -0.3825 -0.0705
   79TCq2    C5 1208   2.182   0.197   1.464 -0.0451  0.6339  0.3600
   79TCq2    C6 1209   2.234   0.254   1.575 -0.0169 -0.4334  0.1558
   79TCq2    C7 1210   2.171   0.362   1.618  0.4702  0.5889 -0.1420
   79TCq2    C8 1211   2.358   0.214   1.631 -0.0688  1.0438  0.5199
   79TCq2    O4 1212   2.415   0.122   1.567 -0.1816 -0.7886 -0.2859
   79TCq2    C9 1213   2.007   0.150   1.304  0.0213  0.7550  0.1296
   79TCq2    O5 1214   2.036   0.034   1.310 -0.1781 -0.7724  0.3433
   79TCq2    O6 1215   1.934   0.207   1.212  0.6271  0.1720  0.1300
   79TCq2    H2 1216   1.902   0.358   1.421 -0.9220 -2.4626  0.5266
   79TCq2    H3 1217   2.230   0.108   1.426  1.4867  1.4141  0.4707
   79TCq2    H4 1218   2.182   0.403   1.718  2.7337 -0.0687 -0.1397
   80MPD2     C 1219   0.184   3.822  12.857  0.6913  0.2126  0.1518
   80MPD2    C1 1220   0.216   3.857  12.729 -0.3246  0.2403 -0.7394
   80MPD2    C2 1221   0.109   3.867  12.642 -0.6453  0.5597 -0.5111
   80MPD2    C3 1222   4.703   3.835  12.680  0.1827  0.2083 -0.4152
   80MPD2    C4 1223   4.677   3.804  12.816 -0.0340  0.3725  0.3716
   80MPD2    C5 1224   0.055   3.808  12.904 -0.5547  0.6672 -0.0522
   80MPD2     H 1225   0.145   3.894  12.543  0.4584  1.5771  0.1652
   80MPD2    H1 1226   4.576   3.773  12.841  0.3599 -0.9551  0.3350
   80MPD2    H2 1227   0.272   3.817  12.919  1.4272 -1.3957 -1.0000
   80MPD2    H3 1228   0.038   3.791  13.010  0.8614  1.3710  0.2812
   80MPD2     N 1229   4.594   3.824  12.594  0.2130 -0.4598  0.2698
   80MPD2    H5 1230   4.503   3.794  12.629 -0.2254 -1.0031 -1.3435
   80MPD2    N1 1231   0.345   3.864  12.675  0.4018  0.0606  0.6138
   80MPD2    H7 1232   0.336   3.899  12.580  0.5253  1.7174  1.2174
   81TCq2    C1 1233   0.462   3.852  12.740 -0.2009 -0.3454  0.5637
   81TCq2    O2 1234   0.488   3.821  12.853  0.3710 -0.2205 -0.8629
   81TCq2    C2 1235   0.575   3.858  12.654 -0.0109  0.3994 -0.5124
   81TCq2    C3 1236   0.692   3.898  12.713  0.7014 -0.1865 -0.2767
   81TCq2    C4 1237   0.809   3.884  12.649 -0.5510  1.0452  0.4583
   81TCq2    C5 1238   0.817   3.826  12.522 -0.1218 -0.2356  0.2690
   81TCq2    C6 1239   0.697   3.787  12.467 -0.5606 -0.0365 -0.7294
   81TCq2    C7 1240   0.573   3.807  12.525 -0.1835 -0.4320  0.8791
   81TCq2    C8 1241   0.711   3.711  12.342 -0.3508 -0.0378  0.9978
   81TCq2    O4 1242   0.814   3.720  12.277 -0.3475 -0.2347 -0.0621
   81TCq2    C9 1243   0.924   3.938  12.715  0.3326 -0.2778  0.1636
   81TCq2    O5 1244   1.034   3.883  12.688 -0.1120 -0.5872 -0.9326
   81TCq2    O6 1245   0.913   4.010  12.816 -0.1474 -0.2306 -0.0183
   81TCq2    H2 1246   0.707   3.936  12.813  0.7427 -1.0084  0.0288
   81TCq2    H3 1247   0.915   3.822  12.475  0.2136  0.2654  0.9236
   81TCq2    H4 1248   0.484   3.782  12.468 -0.4894 -1.3990  1.7862
   82MPD2     C 1249   3.260   2.961  11.104  0.4248 -0.0751 -0.1319
   82MPD2    C1 1250   3.258   2.859  11.013 -0.2422 -1.1398 -0.2026
   82MPD2    C2 1251   3.330   2.743  11.041 -0.2232 -0.0036 -0.7584
   82MPD2    C3 1252   3.391   2.728  11.165  0.0826  0.3549 -0.3572
   82MPD2    C4 1253   3.395   2.837  11.247 -1.5122 -0.4535 -0.4841
   82MPD2    C5 1254   3.329   2.947  11.224  0.4226  0.2485 -0.1728
   82MPD2     H 1255   3.333   2.660  10.971  1.3784  0.8566 -1.6923
   82MPD2    H1 1256   3.453   2.836  11.338 -0.3760 -3.0543 -1.2159
   82MPD2    H2 1257   3.212   3.057  11.093 -2.8195 -1.3091  3.0660
   82MPD2    H3 1258   3.330   3.031  11.292 -1.8172 -1.7163  2.2563
   82MPD2     N 1259   3.456   2.604  11.193  0.4964  0.6448 -0.2638
   82MPD2    H5 1260   3.443   2.522  11.135 -0.6000  0.8419 -0.3080
   82MPD2    N1 1261   3.198   2.884  10.891  0.3445 -0.2122 -0.3604
   82MPD2    H7 1262   3.148   2.973  10.894 -1.5589 -1.3492  1.9407
   83TCq2    C1 1263   3.537   2.582  11.303  0.3124 -0.0216 -0.3285
   83TCq2    O2 1264   3.580   2.661  11.386 -0.2694 -0.0107  0.5418
   83TCq2    C2 1265   3.554   2.440  11.339  0.2767  0.4705  0.8257
   83TCq2    C3 1266   3.656   2.416  11.424  0.1217  0.2807  0.0833
   83TCq2    C4 1267   3.663   2.303  11.495 -0.5182  0.1133 -0.0385
   83TCq2    C5 1268   3.554   2.220  11.495 -0.2309 -0.7476  0.3937
   83TCq2    C6 1269   3.452   2.244  11.413 -0.4126 -0.0091 -0.3134
   83TCq2    C7 1270   3.441   2.354  11.333 -0.2107  0.1484  0.2652
   83TCq2    C8 1271   3.327   2.171  11.442  0.3610  0.1400  0.0388
   83TCq2    O4 1272   3.308   2.133  11.556 -0.0645  0.4080  0.0977
   83TCq2    C9 1273   3.757   2.306  11.605 -0.2044 -0.3491 -0.0211
   83TCq2    O5 1274   3.749   2.213  11.691  0.3836 -0.0891  0.1824
   83TCq2    O6 1275   3.814   2.416  11.628  0.5448  0.5763 -0.1048
   83TCq2    H2 1276   3.736   2.487  11.413  0.7432 -0.6637 -1.5175
   83TCq2    H3 1277   3.543   2.149  11.577 -0.0867 -1.9804 -0.6445
   83TCq2    H4 1278   3.349   2.367  11.278 -0.0511 -2.9717 -0.7253
   84TCq2    C1 1279   4.617   1.717  10.603 -0.4382 -0.8071  1.1069
   84TCq2    O2 1280   4.619   1.740  10.483 -0.1389 -0.1154  0.1608
   84TCq2    C2 1281   4.670   1.821  10.690 -0.5513 -0.2161 -0.2103
   84TCq2    C3 1282   0.048   1.900  10.629  0.0189  0.3575 -0.0401
   84TCq2    C4 1283   0.099   1.999  10.706 -0.0086 -0.1000  0.2417
   84TCq2    C5 1284   0.054   2.017  10.836 -0.3537 -0.4146 -0.2349
   84TCq2    C6 1285   4.677   1.943  10.890 -0.1371  0.2635  0.0120
   84TCq2    C7 1286   4.628   1.833  10.820  0.6876 -0.0497 -0.0717
   84TCq2    C8 1287   4.633   1.972  11.024  0.1193  0.3926 -0.3197
   84TCq2    O4 1288   4.672   2.069  11.083  0.3511  0.2132 -0.0825
   84TCq2    C9 1289   0.207   2.081  10.662  0.4425  0.1826 -1.0353
   84TCq2    O5 1290   0.216   2.110  10.539 -0.2752 -0.4316  0.7649
   84TCq2    O6 1291   0.285   2.126  10.750 -0.4065  0.1207 -0.1723
   84TCq2    H2 1292   0.081   1.890  10.526  1.3886 -1.4966  0.5827
   84TCq2    H3 1293   0.091   2.095  10.901 -0.4093 -0.2799 -0.3668
   84TCq2    H4 1294   4.543   1.772  10.846  1.4609 -1.1213 -0.0418
   85MPD2     C 1295   0.297   0.184  16.570  0.4748  0.1550  0.3048
   85MPD2    C1 1296   0.204   0.225  16.477  0.0802  0.6391  0.1554
   85MPD2    C2 1297   0.221   0.339  16.405 -0.0580  0.0446 -0.2818
   85MPD2    C3 1298   0.333   0.425  16.420  1.0878  0.0500 -0.4111
   85MPD2    C4 1299   0.406   0.397  16.533  0.5340 -0.2182 -0.0613
   85MPD2    C5 1300   0.389   0.279  16.602 -1.0240 -0.0708  0.0067
   85MPD2     H 1301   0.149   0.359  16.327 -0.2264  2.1342  0.4133
   85MPD2    H1 1302   0.487   0.460  16.566  0.7473 -0.9545  0.8128
   85MPD2    H2 1303   0.280   0.092  16.625  0.6074  1.0369  1.8115
   85MPD2    H3 1304   0.460   0.254  16.681 -0.8923 -0.7865 -0.3456
   85MPD2     N 1305   0.343   0.533  16.326 -0.0863  0.5133 -0.0970
   85MPD2    H5 1306   0.298   0.534  16.235  0.9217 -0.0737 -0.6023
   85MPD2    N1 1307   0.089   0.144  16.448 -0.5158 -0.5323 -0.1621
   85MPD2    H7 1308   0.035   0.178  16.369 -0.9044  0.1208  0.3843
   86TCq2    C1 1309   0.433   0.636  16.340 -0.0839  0.3311  0.2668
   86TCq2    O2 1310   0.507   0.663  16.434 -0.0506  0.3726  0.4761
   86TCq2    C2 1311   0.440   0.712  16.214 -0.0331  0.1731  0.3219
   86TCq2    C3 1312   0.463   0.846  16.221  0.1873  0.3676  0.1610
   86TCq2    C4 1313   0.455   0.911  16.100  0.0745 -0.5723 -0.4817
   86TCq2    C5 1314   0.446   0.848  15.974 -0.1486  0.1524 -0.2932
   86TCq2    C6 1315   0.439   0.715  15.979  1.0840 -0.5235  0.5994
   86TCq2    C7 1316   0.426   0.643  16.093  0.5382  0.2265 -0.6207
   86TCq2    C8 1317   0.480   0.638  15.870 -0.5794 -0.2523  0.2798
   86TCq2    O4 1318   0.544   0.538  15.899 -0.5065 -0.2385  0.0399
   86TCq2    C9 1319   0.457   1.054  16.095  0.1809 -1.2089  0.2995
   86TCq2    O5 1320   0.471   1.103  15.979 -0.0388  0.4836 -0.1578
   86TCq2    O6 1321   0.443   1.111  16.208 -0.2572 -0.2793 -0.2906
   86TCq2    H2 1322   0.464   0.901  16.315  0.9697  2.4500 -1.0579
   86TCq2    H3 1323   0.445   0.903  15.881 -2.2522 -0.7185 -0.8048
   86TCq2    H4 1324   0.416   0.535  16.089 -0.8831  0.4140 -2.1803
   87MPD2     C 1325   1.842   3.345   1.468 -0.0571 -0.0954  0.2600
   87MPD2    C1 1326   1.967   3.384   1.432  0.1491 -0.9677  0.5066
   87MPD2    C2 1327   1.978   3.506   1.375 -0.8316 -0.2686 -0.8046
   87MPD2    C3 1328   1.871   3.574   1.325  0.1902  0.6560  0.5597
   87MPD2    C4 1329   1.739   3.540   1.361 -0.0186 -0.1416 -0.2170
   87MPD2    C5 1330   1.735   3.421   1.430 -0.1781 -0.4708  0.8167
   87MPD2     H 1331   2.080   3.534   1.350 -0.4713 -0.4385  0.4797
   87MPD2    H1 1332   1.648   3.598   1.352 -0.2309 -0.4219  0.1331
   87MPD2    H2 1333   1.822   3.243   1.498 -0.9024 -0.5171 -1.7853
   87MPD2    H3 1334   1.637   3.384   1.457  0.2647 -1.9149  0.4225
   87MPD2     N 1335   1.888   3.694   1.253  0.1796  0.5007  0.1949
   87MPD2    H5 1336   1.805   3.736   1.212  0.9752  2.0681  0.2035
   87MPD2    N1 1337   2.074   3.300   1.455  0.0073  0.0988 -0.0317
   87MPD2    H7 1338   2.068   3.217   1.513 -2.3545  0.2058 -0.1177
   88TCq2    C1 1339   2.188   3.301   1.380 -0.3750  0.0350  0.7887
   88TCq2    O2 1340   2.223   3.364   1.281 -0.1252 -0.0608  0.0486
   88TCq2    C2 1341   2.290   3.207   1.430 -0.9116 -0.5903  0.5186
   88TCq2    C3 1342   2.293   3.160   1.555  0.1755 -0.8715  0.5767
   88TCq2    C4 1343   2.412   3.104   1.600 -0.2736 -0.2255 -0.4040
   88TCq2    C5 1344   2.515   3.081   1.511  0.2846  0.1425 -0.4927
   88TCq2    C6 1345   2.500   3.126   1.380  0.5146  0.0935  0.3678
   88TCq2    C7 1346   2.397   3.205   1.344 -0.4348  0.1378  0.3206
   88TCq2    C8 1347   2.595   3.081   1.273 -0.5710  0.0072  0.1480
   88TCq2    O4 1348   2.566   3.093   1.156  0.3141 -0.4820  0.4191
   88TCq2    C9 1349   2.409   3.030   1.725 -0.2605  0.1084  0.2534
   88TCq2    O5 1350   2.299   3.014   1.779  0.2575  0.6111 -0.1947
   88TCq2    O6 1351   2.520   2.992   1.768 -0.2206  0.1124  0.3617
   88TCq2    H2 1352   2.219   3.177   1.632 -0.1804  2.2195 -0.4559
   88TCq2    H3 1353   2.594   3.013   1.541  0.3545  1.0162  1.3012
   88TCq2    H4 1354   2.389   3.231   1.239 -1.1172 -1.2059  0.0477
   89MPD2     C 1355   3.731   1.728   1.605 -1.0400  0.4251  0.0757
   89MPD2    C1 1356   3.641   1.802   1.680 -0.3927 -0.6643  0.1340
   89MPD2    C2 1357   3.673   1.931   1.710  0.4819  0.4861 -0.5969
   89MPD2    C3 1358   3.781   2.003   1.668 -0.0895  0.1127  0.5914
   89MPD2    C4 1359   3.873   1.928   1.595  0.8853  0.4515  0.3506
   89MPD2    C5 1360   3.854   1.794   1.565 -0.6580 -0.3859 -0.2613
   89MPD2     H 1361   3.596   1.983   1.766 -0.4473 -0.6022 -0.8621
   89MPD2    H1 1362   3.965   1.978   1.565  0.6126  1.1348  0.6380
   89MPD2    H2 1363   3.717   1.623   1.584  0.9125 -0.0673  1.1820
   89MPD2    H3 1364   3.932   1.739   1.514  0.9424  2.1441 -0.5466
   89MPD2     N 1365   3.798   2.144   1.697  0.6763  0.2394  1.0251
   89MPD2    H5 1366   3.732   2.192   1.757  1.0066 -0.2851  1.8108
   89MPD2    N1 1367   3.519   1.745   1.719 -0.1292  0.2543 -0.4592
   89MPD2    H7 1368   3.452   1.798   1.774  0.9659 -0.9714  2.0653
   90TCq2    C1 1369   3.892   2.227   1.641  0.3607  0.2842 -0.0408
   90TCq2    O2 1370   3.964   2.215   1.539 -0.5115  0.0527  0.1414
   90TCq2    C2 1371   3.886   2.360   1.709 -0.0060  0.0040  0.2740
   90TCq2    C3 1372   3.814   2.381   1.825  0.1505 -0.1112 -0.1004
   90TCq2    C4 1373   3.805   2.507   1.872 -0.6777 -0.5510 -1.1631
   90TCq2    C5 1374   3.847   2.616   1.805  0.5213  0.5744 -0.0616
   90TCq2    C6 1375   3.915   2.593   1.692  0.0285  0.3767  0.1643
   90TCq2    C7 1376   3.948   2.465   1.646 -0.3173  0.5263 -0.4339
   90TCq2    C8 1377   3.923   2.707   1.603 -0.1686 -0.4597 -0.2929
   90TCq2    O4 1378   3.838   2.794   1.602 -0.2822 -0.0267  0.4741
   90TCq2    C9 1379   3.735   2.525   1.998  0.1314  0.2537 -0.4467
   90TCq2    O5 1380   3.684   2.419   2.047  0.2177 -0.3938  0.3325
   90TCq2    O6 1381   3.758   2.635   2.055  1.1208  0.1476 -0.0409
   90TCq2    H2 1382   3.787   2.297   1.889  0.7136  1.0369  1.6411
   90TCq2    H3 1383   3.818   2.714   1.840 -1.5652  0.6340 -2.0168
   90TCq2    H4 1384   3.992   2.453   1.547  0.3453 -0.7208  0.0065
   91TMC2    C1 1385   0.688   1.595  16.813  0.4850 -0.4409 -0.1678
   91TMC2    C2 1386   0.703   1.701  16.735  0.3859 -0.4041 -0.1661
   91TMC2    C3 1387   0.586   1.763  16.706 -0.4619  0.2845 -0.5043
   91TMC2    C4 1388   0.564   1.539  16.848  0.7410 -1.0151 -0.3106
   91TMC2    C5 1389   0.454   1.600  16.804 -0.5363 -0.4034  0.3232
   91TMC2    C6 1390   0.463   1.717  16.735  0.2036  0.1357  0.1650
   91TMC2     C 1391   0.810   1.516  16.851 -0.7369 -0.9243  0.8015
   91TMC2     O 1392   0.799   1.428  16.935  0.1138 -0.0377  0.3310
   91TMC2     H 1393   0.797   1.754  16.723 -0.0219  0.4447  0.3501
   91TMC2    H1 1394   0.555   1.449  16.907  1.3061 -0.6753  0.2921
   91TMC2    H2 1395   0.381   1.788  16.732  1.1886  1.3681  2.6466
   91TMC2    C7 1396   0.331   1.522  16.809  0.7161  0.0359  0.5720
   91TMC2    C8 1397   0.596   1.897  16.644 -0.4349 -0.0455 -0.4875
   91TMC2    O1 1398   0.339   1.421  16.876  0.0748 -0.2112 -0.0419
   91TMC2    O2 1399   0.701   1.921  16.583 -0.0894 -0.1303 -0.2320
   91TMC2    O5 1400   0.534   1.983  16.719 -0.5040  0.6147 -0.3523
   91TMC2    H5 1401   0.470   1.955  16.788 -1.4232  1.0796 -1.0171
   92MPD2     C 1402   1.072   1.365  16.832 -0.1876  0.0845 -0.1409
   92MPD2    C1 1403   1.051   1.491  16.782 -0.1116  0.6311  0.2675
   92MPD2    C2 1404   1.153   1.552  16.709 -0.5313 -0.3271 -0.0737
   92MPD2    C3 1405   1.279   1.502  16.701  0.0290 -0.9631 -0.4726
   92MPD2    C4 1406   1.289   1.372  16.753 -0.5854 -0.6937  0.0653
   92MPD2    C5 1407   1.188   1.306  16.819 -0.1132 -0.2474  0.3460
   92MPD2     H 1408   1.127   1.649  16.670  1.0260  0.9544  2.1288
   92MPD2    H1 1409   1.389   1.332  16.741 -1.2577 -2.6715  0.9881
   92MPD2    H2 1410   0.995   1.319  16.892  0.1689 -1.9266 -1.2405
   92MPD2    H3 1411   1.207   1.205  16.853  2.1362 -0.4581 -1.4879
   92MPD2     N 1412   1.377   1.575  16.622 -0.2205 -0.4157  0.4577
   92MPD2    H5 1413   1.360   1.674  16.605  1.0735 -0.1411  0.7926
   92MPD2    N1 1414   0.923   1.555  16.780  0.9209 -0.0023 -0.2328
   92MPD2    H7 1415   0.928   1.638  16.721 -0.0107  0.0427 -0.2478
   93MPD2     C 1416   2.139   1.586  13.623 -0.4990 -0.5137 -0.1798
   93MPD2    C1 1417   2.125   1.515  13.743  0.6900  0.3712 -0.4947
   93MPD2    C2 1418   1.997   1.463  13.775 -0.4515  0.3034  0.1938
   93MPD2    C3 1419   1.889   1.484  13.688 -0.0853 -0.4566  0.1971
   93MPD2    C4 1420   1.909   1.550  13.570  0.6624 -0.2960  0.4830
   93MPD2    C5 1421   2.031   1.595  13.536  0.7422  0.1247  0.9627
   93MPD2     H 1422   1.989   1.404  13.865  2.5298 -2.5652 -1.4388
   93MPD2    H1 1423   1.822   1.554  13.505  1.3802  1.7977 -0.3569
   93MPD2    H2 1424   2.229   1.636  13.589 -0.2232 -1.9735 -1.6045
   93MPD2    H3 1425   2.051   1.634  13.437 -2.0179 -0.3978  0.1798
   93MPD2     N 1426   1.752   1.430  13.712  0.6423  0.0228 -0.0823
   93MPD2    H5 1427   1.682   1.458  13.643  0.1521 -0.1720  0.3346
   93MPD2    N1 1428   2.224   1.491  13.836  0.0392 -0.1527  0.1571
   93MPD2    H7 1429   2.195   1.437  13.916 -0.7573  0.7793  0.4986
   94TCq2    C1 1430   2.355   1.539  13.822 -0.3687  0.5297  0.5459
   94TCq2    O2 1431   2.413   1.609  13.741  0.4995 -0.1174  0.7093
   94TCq2    C2 1432   2.417   1.546  13.947  0.4428 -0.5358 -0.2674
   94TCq2    C3 1433   2.347   1.510  14.060 -0.2733 -0.0593  0.2550
   94TCq2    C4 1434   2.413   1.485  14.172  0.4062 -0.0250  0.3038
   94TCq2    C5 1435   2.548   1.483  14.178 -0.1418  0.2076 -1.0608
   94TCq2    C6 1436   2.615   1.519  14.070 -0.4472  0.3628  0.3366
   94TCq2    C7 1437   2.556   1.549  13.946 -0.6934 -0.4853 -0.3981
   94TCq2    C8 1438   2.762   1.513  14.079  0.8252 -0.6516 -0.2129
   94TCq2    O4 1439   2.820   1.473  14.178  1.2426  0.0808 -0.4343
   94TCq2    C9 1440   2.343   1.469  14.297  0.0208 -0.6454 -0.6233
   94TCq2    O5 1441   2.414   1.464  14.399  0.5928  0.2462 -0.2368
   94TCq2    O6 1442   2.223   1.502  14.292  0.9062 -0.0474  0.3026
   94TCq2    H2 1443   2.239   1.511  14.058 -0.3046 -2.7771 -0.5079
   94TCq2    H3 1444   2.602   1.467  14.271  1.0112 -1.1653 -1.9517
   94TCq2    H4 1445   2.614   1.563  13.855 -0.2199 -0.0578 -0.0275
   95TMC2    C1 1446   1.832   3.442  16.283  0.6031 -0.6238  0.3310
   95TMC2    C2 1447   1.735   3.494  16.198 -0.0277  0.4782  0.6051
   95TMC2    C3 1448   1.632   3.565  16.255 -0.5988  0.0229  0.3106
   95TMC2    C4 1449   1.828   3.454  16.420  0.2214 -0.8674 -0.2654
   95TMC2    C5 1450   1.730   3.537  16.464  0.0793 -0.1793  0.4004
   95TMC2    C6 1451   1.627   3.588  16.385 -0.7691  0.1604  1.1911
   95TMC2     C 1452   1.951   3.407  16.208  0.8558  0.0939  0.3009
   95TMC2     O 1453   2.055   3.441  16.263 -0.0742  0.4499 -0.2523
   95TMC2     H 1454   1.741   3.485  16.090 -1.8984  1.8353  0.3835
   95TMC2    H1 1455   1.912   3.409  16.474  1.7437 -0.2042 -2.0812
   95TMC2    H2 1456   1.544   3.639  16.433 -1.4186 -0.1922  0.4443
   95TMC2    C7 1457   1.757   3.594  16.592 -0.3570  0.1478 -0.3470
   95TMC2    C8 1458   1.524   3.611  16.171 -0.1756 -0.4031 -0.1475
   95TMC2    O1 1459   1.841   3.534  16.654  0.0872 -0.1487  0.1965
   95TMC2    O2 1460   1.441   3.683  16.217 -0.0882  0.5446  1.0424
   95TMC2    O5 1461   1.489   3.486  16.123  0.4717  0.0056  0.2716
   95TMC2    H5 1462   1.524   3.410  16.175 -1.0669 -1.3535 -0.6766
   96MPD2     C 1463   2.209   3.165  15.838 -0.4043  0.0521  0.0621
   96MPD2    C1 1464   2.251   3.268  15.919 -0.5770 -0.8462  0.0130
   96MPD2    C2 1465   2.155   3.329  16.003 -0.7880  0.5524  0.4877
   96MPD2    C3 1466   2.022   3.287  16.004  0.1070  0.9786 -0.4176
   96MPD2    C4 1467   1.983   3.185  15.921 -0.1044 -0.2017 -0.9122
   96MPD2    C5 1468   2.074   3.124  15.836 -0.1468  0.8997  0.1825
   96MPD2     H 1469   2.192   3.408  16.068 -2.1135 -0.3861  2.3832
   96MPD2    H1 1470   1.878   3.160  15.930 -0.0247 -0.5492 -0.9520
   96MPD2    H2 1471   2.267   3.110  15.765  0.7075 -1.7426  2.3193
   96MPD2    H3 1472   2.044   3.044  15.770 -3.3446  1.7858  0.5188
   96MPD2     N 1473   1.923   3.329  16.094  0.8306  0.4779 -1.3147
   96MPD2    H5 1474   1.826   3.310  16.071  0.3431  1.7078 -0.2543
   96MPD2    N1 1475   2.388   3.304  15.891  0.8346  0.0690 -0.1530
   96MPD2    H7 1476   2.445   3.234  15.845  1.3117  0.2660  0.1417
   97MPD2     C 1477   3.784   0.293   0.644  0.1393 -0.0212  0.3919
   97MPD2    C1 1478   3.901   0.360   0.659 -0.6316 -0.2062 -0.1270
   97MPD2    C2 1479   3.981   0.397   0.556  0.5734  0.5433 -0.5280
   97MPD2    C3 1480   3.937   0.368   0.429  0.7196 -0.4150  0.5675
   97MPD2    C4 1481   3.819   0.295   0.407  0.3436 -0.0279  0.0795
   97MPD2    C5 1482   3.746   0.257   0.518 -0.6453 -0.3127  0.6810
   97MPD2     H 1483   4.064   0.466   0.574  0.7336  0.1772  0.1449
   97MPD2    H1 1484   3.806   0.255   0.307  1.0453 -0.2943  0.1023
   97MPD2    H2 1485   3.722   0.277   0.732  2.0499 -0.0973  1.7065
   97MPD2    H3 1486   3.658   0.200   0.490 -1.2492  0.2799  1.3710
   97MPD2     N 1487   4.004   0.415   0.315 -0.1924 -0.3820 -0.3040
   97MPD2    H5 1488   3.956   0.412   0.226 -0.3836  0.7033 -0.2426
   97MPD2    N1 1489   3.926   0.396   0.795 -0.2191  0.4053  1.0482
   97MPD2    H7 1490   3.860   0.358   0.862 -0.1756 -0.2856  0.6904
   98TCq2    C1 1491   4.132   0.477   0.312 -0.3747  0.8466 -0.4316
   98TCq2    O2 1492   4.215   0.499   0.401  0.0449 -0.1379 -0.8046
   98TCq2    C2 1493   4.171   0.507   0.176  0.9575  0.3014 -0.1458
   98TCq2    C3 1494   4.122   0.437   0.067  0.0916 -0.3273  0.3037
   98TCq2    C4 1495   4.178   0.468  17.638  0.0107  0.5110  0.0535
   98TCq2    C5 1496   4.282   0.549  17.622 -0.2289  0.6466 -0.4912
   98TCq2    C6 1497   4.331   0.616   0.043  0.0604 -0.3670  0.7514
   98TCq2    C7 1498   4.282   0.585   0.171  0.7231  0.3953  0.1750
   98TCq2    C8 1499   4.403   0.743   0.029  0.5660 -0.1073  0.1311
   98TCq2    O4 1500   4.468   0.779   0.124  0.5404 -0.1190  0.2766
   98TCq2    C9 1501   4.139   0.398  17.512  0.3799  0.2527  0.0213
   98TCq2    O5 1502   4.172   0.448  17.403  0.0542 -0.3055  0.2894
   98TCq2    O6 1503   4.067   0.292  17.523  0.4420  0.0761  0.0098
   98TCq2    H2 1504   4.034   0.373   0.067  0.4016 -0.7442  0.1071
   98TCq2    H3 1505   4.321   0.569  17.523  0.5138  0.9442 -0.1355
   98TCq2    H4 1506   4.323   0.641   0.254 -4.6595  1.2468  2.2503
   99MPD2     C 1507   3.175   2.537   2.187 -0.5078  0.1614  0.5868
   99MPD2    C1 1508   3.090   2.467   2.099 -0.0345  0.3138  0.3588
   99MPD2    C2 1509   3.133   2.439   1.967 -0.3160 -0.5377  0.8197
   99MPD2    C3 1510   3.255   2.482   1.922 -0.2872  0.4378 -0.3721
   99MPD2    C4 1511   3.332   2.548   2.011  0.2394  0.5540 -0.5218
   99MPD2    C5 1512   3.296   2.571   2.138 -0.4717  0.4979  0.5638
   99MPD2     H 1513   3.073   2.380   1.899  0.1280 -0.9024  0.7445
   99MPD2    H1 1514   3.429   2.585   1.982  0.2849  1.4043  0.7181
   99MPD2    H2 1515   3.157   2.550   2.293 -0.7564  0.3173  0.5263
   99MPD2    H3 1516   3.374   2.612   2.200  0.4782 -1.5467  0.7138
   99MPD2     N 1517   3.295   2.454   1.790  0.0593 -0.3042  0.1888
   99MPD2    H5 1518   3.225   2.425   1.722 -0.1335  0.0659  0.2277
   99MPD2    N1 1519   2.961   2.425   2.125 -0.4071 -0.0899  0.1715
   99MPD2    H7 1520   2.903   2.376   2.058 -0.9608  2.7638 -1.4332
  100TCq2    C1 1521   2.895   2.448   2.246 -0.4669 -0.0952 -0.0742
  100TCq2    O2 1522   2.944   2.500   2.348 -0.3633  0.0131 -0.5611
  100TCq2    C2 1523   2.772   2.377   2.260  0.4440 -1.2079 -0.3761
  100TCq2    C3 1524   2.710   2.371   2.383  0.1762 -0.0735 -0.0171
  100TCq2    C4 1525   2.636   2.257   2.420  0.0983  0.1261  0.3135
  100TCq2    C5 1526   2.628   2.146   2.344  0.3565 -0.1264  0.4684
  100TCq2    C6 1527   2.693   2.153   2.220 -0.2725 -0.4229 -0.2280
  100TCq2    C7 1528   2.756   2.268   2.177 -0.6716 -0.2450 -0.1978
  100TCq2    C8 1529   2.701   2.019   2.151 -0.2742 -0.3848  0.4270
  100TCq2    O4 1530   2.684   1.909   2.207  1.0483 -0.3913 -0.0598
  100TCq2    C9 1531   2.577   2.261   2.553 -0.2578 -0.5805 -0.3971
  100TCq2    O5 1532   2.500   2.163   2.575  0.3818  0.0230  0.3939
  100TCq2    O6 1533   2.610   2.362   2.626  0.2924  0.2118  0.1090
  100TCq2    H2 1534   2.719   2.456   2.449  0.0492 -0.2285  0.1994
  100TCq2    H3 1535   2.576   2.056   2.374  0.1427  0.0792  0.7076
  100TCq2    H4 1536   2.806   2.266   2.081  1.7819  2.5475  0.9861
  101MPD2     C 1537   3.711   3.768  13.236 -0.0360  0.9630 -0.6669
  101MPD2    C1 1538   3.585   3.823  13.242  0.0287  0.3274  0.3308
  101MPD2    C2 1539   3.483   3.757  13.306 -0.1114  0.2880  0.5320
  101MPD2    C3 1540   3.502   3.627  13.355  0.4852  0.1808 -0.3004
  101MPD2    C4 1541   3.626   3.567  13.345  0.1311  0.9254  0.8373
  101MPD2    C5 1542   3.733   3.644  13.289  0.0290 -0.3893  0.0823
  101MPD2     H 1543   3.384   3.801  13.314 -2.2069 -4.1212 -1.0671
  101MPD2    H1 1544   3.664   3.478  13.393 -0.2053  0.2712 -0.1171
  101MPD2    H2 1545   3.794   3.823  13.194  1.3421 -0.4264  0.2168
  101MPD2    H3 1546   3.837   3.615  13.303 -0.2400 -1.2014  0.4311
  101MPD2     N 1547   3.400   3.561  13.426 -0.2823  0.5267  0.3473
  101MPD2    H5 1548   3.314   3.612  13.444 -0.1613  0.9910 -0.3696
  101MPD2    N1 1549   3.574   3.948  13.173 -0.1660 -0.1176 -0.5392
  101MPD2    H7 1550   3.659   3.985  13.133  0.0042  0.5333  0.4301
  102TCq2    C1 1551   3.627   4.137  12.733 -0.0975  0.3258  0.5408
  102TCq2    O2 1552   3.732   4.072  12.754 -0.2570 -0.7434  0.3447
  102TCq2    C2 1553   3.538   4.180  12.841  0.0540  0.4106  0.5732
  102TCq2    C3 1554   3.428   4.253  12.823  0.4559  0.3941 -0.1321
  102TCq2    C4 1555   3.345   4.275  12.929 -0.5044  0.2894  0.3574
  102TCq2    C5 1556   3.368   4.209  13.044  0.1263  0.4040 -0.5420
  102TCq2    C6 1557   3.478   4.139  13.068  0.6026 -0.1092  0.2399
  102TCq2    C7 1558   3.578   4.128  12.967 -0.6436 -0.1073 -0.8636
  102TCq2    C8 1559   3.462   4.023  13.158  0.7206 -0.5539  0.1180
  102TCq2    O4 1560   3.356   4.008  13.218 -0.4457  0.1594  0.6715
  102TCq2    C9 1561   3.215   4.336  12.908  0.1690  0.4028  0.5292
  102TCq2    O5 1562   3.206   4.433  12.824 -0.4775  0.4689 -0.3317
  102TCq2    O6 1563   3.113   4.289  12.969  0.7360 -0.1949  0.7419
  102TCq2    H2 1564   3.403   4.296  12.727  4.0406  2.3850 -0.1574
  102TCq2    H3 1565   3.297   4.221  13.126 -1.2029 -1.6577 -1.3786
  102TCq2    H4 1566   3.671   4.073  12.977 -0.9969 -0.4081  0.7527
  103TMC2    C1 1567   1.311   4.097  12.995  0.4553  0.0874 -0.4743
  103TMC2    C2 1568   1.194   4.030  12.997 -1.0930 -0.3759  0.3104
  103TMC2    C3 1569   1.126   4.006  13.116 -0.7431 -0.1211  0.7168
  103TMC2    C4 1570   1.364   4.148  13.114  0.7501  0.0668 -0.2295
  103TMC2    C5 1571   1.296   4.128  13.232  0.1436  0.0731 -0.1471
  103TMC2    C6 1572   1.179   4.053  13.232 -0.1772 -0.2436 -0.1090
  103TMC2     C 1573   1.376   4.112  12.863  0.0502  0.5191  0.4879
  103TMC2     O 1574   1.311   4.081  12.762  0.4474  0.2552  0.3719
  103TMC2     H 1575   1.164   3.994  12.899  0.5284  0.0227 -0.3364
  103TMC2    H1 1576   1.451   4.213  13.114 -0.2813  1.4478 -1.9507
  103TMC2    H2 1577   1.132   4.023  13.325 -0.3541  2.1067  0.5616
  103TMC2    C7 1578   1.378   4.160  13.354  0.3940  0.3868  0.5140
  103TMC2    C8 1579   1.012   3.907  13.132 -0.4075  0.5495 -0.3827
  103TMC2    O1 1580   1.497   4.168  13.337  0.3584 -0.0384  0.0811
  103TMC2    O2 1581   0.977   3.852  13.236  0.1018  0.2109 -0.2731
  103TMC2    O5 1582   0.991   3.852  13.008  0.2062 -0.1797 -0.2916
  103TMC2    H5 1583   1.003   3.918  12.937  3.2449  1.2558  1.5345
  104MPD2     C 1584   1.708   4.242  12.787 -0.3336 -0.1794  0.5624
  104MPD2    C1 1585   1.586   4.183  12.756 -0.9005 -0.4186 -0.5931
  104MPD2    C2 1586   1.555   4.154  12.624 -0.1676 -0.5079  0.1770
  104MPD2    C3 1587   1.632   4.211  12.523  0.2019  0.5111  0.1313
  104MPD2    C4 1588   1.750   4.275  12.556 -0.7093 -0.2060  1.0899
  104MPD2    C5 1589   1.786   4.287  12.686 -1.2350  1.0976  0.6677
  104MPD2     H 1590   1.458   4.112  12.602  0.1427 -0.3829 -1.5035
  104MPD2    H1 1591   1.818   4.320  12.484 -2.7477 -0.4323 -0.9849
  104MPD2    H2 1592   1.732   4.243  12.893  0.8321 -2.3095  0.3186
  104MPD2    H3 1593   1.883   4.324  12.714 -0.4476  0.3709 -1.0935
  104MPD2     N 1594   1.587   4.196  12.392 -0.0509 -0.5937 -0.0134
  104MPD2    H5 1595   1.502   4.140  12.379  0.1323 -1.5599  3.1192
  104MPD2    N1 1596   1.503   4.161  12.868 -0.2007  0.0567  0.1738
  104MPD2    H7 1597   1.539   4.182  12.961  0.4104  0.4413 -0.1551
  105MPD2     C 1598   3.553   2.940  17.669 -0.1766  0.3850 -0.3538
  105MPD2    C1 1599   3.443   3.029  17.657 -0.5747 -0.3293  0.7086
  105MPD2    C2 1600   3.363   3.057   0.071  0.1976  0.1943 -0.1918
  105MPD2    C3 1601   3.392   2.994   0.192  1.0786  0.2383 -0.4452
  105MPD2    C4 1602   3.500   2.912   0.209 -0.0870 -0.5263 -0.3183
  105MPD2    C5 1603   3.588   2.907   0.109  0.4859 -0.1601 -0.1767
  105MPD2     H 1604   3.282   3.129   0.068  0.2156  0.1912 -0.7307
  105MPD2    H1 1605   3.531   2.869   0.303 -0.2032 -2.0040 -0.9623
  105MPD2    H2 1606   3.626   2.924  17.591 -0.4786  0.0393 -0.5672
  105MPD2    H3 1607   3.676   2.845   0.124 -0.4080 -1.2176  0.7174
  105MPD2     N 1608   3.299   3.021   0.298  0.1601 -0.3954  0.1141
  105MPD2    H5 1609   3.228   3.090   0.277  0.9161 -0.0617 -1.3761
  105MPD2    N1 1610   3.409   3.096  17.537  0.1126  0.2778  1.3121
  105MPD2    H7 1611   3.335   3.164  17.548 -2.2309 -1.6675 -2.3890
  106TCq2    C1 1612   3.285   2.955   0.416 -0.5883  0.3554  0.1376
  106TCq2    O2 1613   3.357   2.866   0.454 -0.5101  0.8610  0.1755
  106TCq2    C2 1614   3.199   3.019   0.515 -0.1007  0.3163 -0.4190
  106TCq2    C3 1615   3.126   3.130   0.473  0.0670 -0.0983 -0.1395
  106TCq2    C4 1616   3.045   3.192   0.567  0.5391  0.4082 -0.5100
  106TCq2    C5 1617   3.036   3.142   0.697 -0.5159 -0.3411 -0.2750
  106TCq2    C6 1618   3.106   3.028   0.730  0.6400  0.8371  0.1988
  106TCq2    C7 1619   3.190   2.965   0.645  0.0830 -0.5057 -0.0533
  106TCq2    C8 1620   3.110   2.997   0.873  0.0324  0.1148 -0.2644
  106TCq2    O4 1621   3.190   2.915   0.914  0.1409 -0.0308 -0.2448
  106TCq2    C9 1622   2.960   3.295   0.521  0.9143  0.2005  0.2895
  106TCq2    O5 1623   2.875   3.322   0.609  0.3270 -0.5798  0.1928
  106TCq2    O6 1624   2.953   3.338   0.397  0.4771  0.3941  0.2916
  106TCq2    H2 1625   3.119   3.175   0.375 -0.7185 -0.2070 -0.1328
  106TCq2    H3 1626   2.993   3.213   0.768 -2.1705 -0.7289 -0.8981
  106TCq2    H4 1627   3.251   2.879   0.670  1.0364  0.1797 -0.0221
  107TMC2    C1 1628   4.169   2.306  11.806 -0.4656  0.4609 -0.3670
  107TMC2    C2 1629   4.119   2.404  11.715 -0.3786  0.2568 -0.6263
  107TMC2    C3 1630   4.136   2.381  11.582  0.4603  0.5508  0.1656
  107TMC2    C4 1631   4.238   2.200  11.756  0.2258  0.2945  0.0144
  107TMC2    C5 1632   4.277   2.195  11.629 -0.3164 -0.4841 -0.0259
  107TMC2    C6 1633   4.219   2.281  11.540 -0.3309 -0.3540 -0.2730
  107TMC2     C 1634   4.170   2.322  11.952 -0.0912 -0.2898  0.1117
  107TMC2     O 1635   4.247   2.252  12.013 -0.4478 -0.3049  0.0774
  107TMC2     H 1636   4.058   2.490  11.741  0.8342  1.0424 -0.3831
  107TMC2    H1 1637   4.281   2.130  11.827  0.2328 -1.2080 -1.4760
  107TMC2    H2 1638   4.239   2.273  11.434  0.8984  0.7220 -0.1254
  107TMC2    C7 1639   4.321   2.065  11.592  0.8318 -0.2817  1.1077
  107TMC2    C8 1640   4.128   2.482  11.483 -0.1825 -0.2338  0.1029
  107TMC2    O1 1641   4.313   1.972  11.666  0.0214 -0.0222 -0.2245
  107TMC2    O2 1642   4.199   2.506  11.385  0.0614  0.3388 -0.7694
  107TMC2    O5 1643   4.005   2.530  11.497  0.4929 -0.4436 -0.2467
  107TMC2    H5 1644   3.961   2.476  11.566  0.1809 -2.8934 -2.3544
  108MPD2     C 1645   4.143   2.382  12.236 -0.2366 -0.0665 -0.5146
  108MPD2    C1 1646   4.038   2.381  12.156  0.1927 -0.0383 -0.1623
  108MPD2    C2 1647   3.911   2.387  12.206 -0.5852  0.7923 -0.4701
  108MPD2    C3 1648   3.891   2.401  12.342 -0.1996 -0.5996 -0.0038
  108MPD2    C4 1649   3.997   2.397  12.425  0.2624 -0.3450  0.2153
  108MPD2    C5 1650   4.125   2.382  12.377 -0.4681 -0.1830  0.6885
  108MPD2     H 1651   3.827   2.377  12.138 -1.6839 -0.6317  1.0970
  108MPD2    H1 1652   3.981   2.421  12.529  1.2654 -0.1131  0.3126
  108MPD2    H2 1653   4.242   2.400  12.196 -0.5463  2.2261 -0.2216
  108MPD2    H3 1654   4.204   2.410  12.445 -0.5498  0.7676  0.3887
  108MPD2     N 1655   3.768   2.411  12.408 -0.2733 -0.4695 -0.3184
  108MPD2    H5 1656   3.772   2.400  12.509 -0.3253  2.7094  0.0442
  108MPD2    N1 1657   4.059   2.372  12.014  0.4884  0.4832  0.1987
  108MPD2    H7 1658   3.973   2.395  11.965  1.3584  2.1320 -0.5503
  109MPD2     C 1659   3.366   0.017   2.159  0.1900 -0.2800  0.2480
  109MPD2    C1 1660   3.405   0.060   2.041  0.2320 -0.1764 -0.5936
  109MPD2    C2 1661   3.518   0.143   2.039  0.0242 -0.3959 -0.0857
  109MPD2    C3 1662   3.609   0.150   2.146  0.0569  0.0238  1.2842
  109MPD2    C4 1663   3.565   0.102   2.266 -0.2542  0.6327 -0.7987
  109MPD2    C5 1664   3.442   0.039   2.274 -0.1120 -0.5099  0.3917
  109MPD2     H 1665   3.543   0.194   1.946  0.6094 -1.4434 -0.4995
  109MPD2    H1 1666   3.619   0.112   2.359 -0.1590  0.8354 -0.8757
  109MPD2    H2 1667   3.265   4.703   2.172  0.2598 -0.8651 -0.8756
  109MPD2    H3 1668   3.411   0.008   2.373  2.2474  0.9545  1.5742
  109MPD2     N 1669   3.729   0.223   2.133 -0.2003  0.4787  0.4407
  109MPD2    H5 1670   3.736   0.277   2.047 -0.3306  1.6230  1.1443
  109MPD2    N1 1671   3.320   0.023   1.932 -0.7938 -0.0095 -1.0236
  109MPD2    H7 1672   3.236   4.690   1.941 -0.1780 -1.1354 -2.1437
  110TCq2    C1 1673   3.830   0.238   2.227 -0.7435  0.8803 -0.0612
  110TCq2    O2 1674   3.829   0.203   2.346 -0.4685  0.4171  0.2219
  110TCq2    C2 1675   3.948   0.305   2.176 -0.1959  0.2375  0.1308
  110TCq2    C3 1676   4.050   0.335   2.257  0.0760 -1.2221  0.3797
  110TCq2    C4 1677   4.174   0.370   2.220 -0.2757  0.3537 -0.9907
  110TCq2    C5 1678   4.201   0.374   2.086  0.1280  0.3796  0.4450
  110TCq2    C6 1679   4.110   0.323   1.995 -0.4837  0.7723  0.3642
  110TCq2    C7 1680   3.976   0.293   2.033  0.3540  0.6041  0.4938
  110TCq2    C8 1681   4.135   0.308   1.858  0.1384 -0.0332  0.3551
  110TCq2    O4 1682   4.039   0.333   1.784 -0.3803  0.5916  0.4279
  110TCq2    C9 1683   4.273   0.410   2.307 -0.1450  0.6000 -0.7995
  110TCq2    O5 1684   4.395   0.430   2.271 -0.0939  0.1489  0.0835
  110TCq2    O6 1685   4.223   0.465   2.407 -0.1780 -0.3952  0.6670
  110TCq2    H2 1686   4.032   0.338   2.364  0.1991 -0.3533  0.3754
  110TCq2    H3 1687   4.300   0.403   2.053 -0.6535  1.3706 -1.0256
  110TCq2    H4 1688   3.899   0.254   1.968  1.1568 -1.0277  0.5172
  111TMC2    C1 1689   4.295   4.392  11.301 -0.0955 -0.4014 -0.0550
  111TMC2    C2 1690   4.389   4.360  11.209 -0.9441  0.7996 -0.0375
  111TMC2    C3 1691   4.512   4.304  11.248 -0.1044  1.0595  0.4570
  111TMC2    C4 1692   4.322   4.387  11.435 -0.7039  0.2527 -0.3288
  111TMC2    C5 1693   4.451   4.346  11.471 -0.3047 -0.0512 -0.0214
  111TMC2    C6 1694   4.546   4.306  11.379  0.6734 -0.4705  0.3888
  111TMC2     C 1695   4.168   4.444  11.249 -0.0825 -0.4933 -0.3115
  111TMC2     O 1696   4.162   4.452  11.129 -0.6016  0.1590  0.3737
  111TMC2     H 1697   4.365   4.345  11.104  1.7892  2.6857 -0.9454
  111TMC2    H1 1698   4.250   4.421  11.507 -0.7268 -0.7941  0.1505
  111TMC2    H2 1699   4.648   4.284  11.410  1.2252 -1.5544 -2.1573
  111TMC2    C7 1700   4.481   4.345  11.612 -0.4006  0.4476 -0.5594
  111TMC2    C8 1701   4.607   4.266  11.136 -0.0289 -0.2460 -0.3168
  111TMC2    O1 1702   4.382   4.345  11.680 -0.1610 -0.6108 -0.4736
  111TMC2    O2 1703   4.632   4.352  11.053  0.2028 -0.2232  0.2594
  111TMC2    O5 1704   4.689   4.167  11.185  0.4788  0.0014 -0.2030
  111TMC2    H5 1705   4.648   4.118  11.259  2.0770  0.9287  1.3206
  112MPD2     C 1706   3.663   4.591  11.279  0.1735 -0.0843  0.2450
  112MPD2    C1 1707   3.762   4.605  11.176 -0.0284  0.4954 -0.2361
  112MPD2    C2 1708   3.896   4.559  11.194 -0.0582 -0.3117 -1.1743
  112MPD2    C3 1709   3.934   4.503  11.317  0.3918 -0.0160  0.4001
  112MPD2    C4 1710   3.838   4.489  11.425  0.1156 -0.1927  0.2968
  112MPD2    C5 1711   3.706   4.537  11.398 -0.3121 -0.1410 -0.0228
  112MPD2     H 1712   3.965   4.556  11.111  0.8593  2.5712 -0.5316
  112MPD2    H1 1713   3.864   4.436  11.516  1.6182 -0.7537 -0.4528
  112MPD2    H2 1714   3.556   4.593  11.266  0.3389  2.4026 -0.7754
  112MPD2    H3 1715   3.631   4.517  11.473 -1.3524  1.6651 -0.5942
  112MPD2     N 1716   4.069   4.460  11.342 -0.5124  0.1230  0.4403
  112MPD2    H5 1717   4.092   4.446  11.440 -0.6386  0.9973  0.5899
  112MPD2    N1 1718   3.729   4.673  11.058 -0.2860  0.1119 -0.1272
  112MPD2    H7 1719   3.798   4.672  10.983  1.4472  3.1625  1.4638
  113MPD2     C 1720   2.737   2.151   1.044 -0.0931  0.2668  0.2232
  113MPD2    C1 1721   2.639   2.251   1.020  0.7610  0.4625 -0.4105
  113MPD2    C2 1722   2.544   2.226   0.926 -0.0085  0.5336  0.9502
  113MPD2    C3 1723   2.558   2.113   0.842 -0.4002 -0.5101  0.2639
  113MPD2    C4 1724   2.660   2.023   0.861 -0.0907 -0.9789  0.6022
  113MPD2    C5 1725   2.745   2.040   0.966 -0.0370  0.4126 -0.3606
  113MPD2     H 1726   2.458   2.291   0.924 -1.1209 -1.0089 -1.6896
  113MPD2    H1 1727   2.679   1.945   0.789 -0.1043 -0.9126  0.5273
  113MPD2    H2 1728   2.815   2.166   1.119  1.1849 -0.7324 -0.9198
  113MPD2    H3 1729   2.830   1.973   0.968 -1.1270 -0.9044  0.9662
  113MPD2     N 1730   2.477   2.101   0.732 -0.1868  0.0914  0.4264
  113MPD2    H5 1731   2.482   2.013   0.682  2.5147  1.3128 -1.4335
  113MPD2    N1 1732   2.622   2.356   1.106  0.1098  0.3480  0.2864
  113MPD2    H7 1733   2.570   2.433   1.067 -1.1269  0.0489  1.3206
  114TCq2    C1 1734   2.378   2.187   0.692 -0.1230 -0.1502 -0.3958
  114TCq2    O2 1735   2.330   2.282   0.750 -0.0868 -0.5228  0.7986
  114TCq2    C2 1736   2.309   2.140   0.572  0.6917 -0.8827  0.1108
  114TCq2    C3 1737   2.358   2.032   0.506  0.0909 -0.9205  0.5715
  114TCq2    C4 1738   2.271   1.960   0.433 -0.4111  0.9411  0.7190
  114TCq2    C5 1739   2.137   1.989   0.418  0.4376 -0.5957  0.6851
  114TCq2    C6 1740   2.092   2.096   0.489  0.3528  0.1304 -0.2180
  114TCq2    C7 1741   2.173   2.170   0.565  0.4362 -0.3208 -0.0041
  114TCq2    C8 1742   1.950   2.107   0.503 -0.2401  0.5242 -0.1846
  114TCq2    O4 1743   1.879   2.086   0.409 -0.0197  0.0386  0.1703
  114TCq2    C9 1744   2.323   1.841   0.380  0.0864 -0.4935 -0.4922
  114TCq2    O5 1745   2.449   1.839   0.366  0.5996  0.3863  0.0210
  114TCq2    O6 1746   2.244   1.750   0.346  0.0882  0.0742  0.0268
  114TCq2    H2 1747   2.465   2.017   0.503  0.2267  0.3748 -0.8530
  114TCq2    H3 1748   2.072   1.932   0.352  1.7702  1.3473 -2.2821
  114TCq2    H4 1749   2.132   2.262   0.606  0.5633 -0.1377 -0.2842
  115TMC2    C1 1750   2.966   0.724   0.306  0.0064  0.4304 -0.0653
  115TMC2    C2 1751   2.881   0.825   0.273  0.6698 -0.0501 -0.1186
  115TMC2    C3 1752   2.926   0.949   0.287  0.0705  0.9098  0.6353
  115TMC2    C4 1753   3.095   0.746   0.348 -0.1939 -0.2920  0.4429
  115TMC2    C5 1754   3.143   0.880   0.347 -0.4179  0.1521 -0.0270
  115TMC2    C6 1755   3.055   0.984   0.318  0.2126  0.2451 -0.1036
  115TMC2     C 1756   2.919   0.594   0.293 -0.3554  0.0864  0.5812
  115TMC2     O 1757   2.800   0.578   0.263  0.1522  0.2885 -0.4944
  115TMC2     H 1758   2.780   0.813   0.235  1.5079 -0.6546 -2.1554
  115TMC2    H1 1759   3.171   0.671   0.365 -0.8522 -1.0734 -0.0740
  115TMC2    H2 1760   3.075   1.088   0.336 -2.3511  0.7817 -0.3603
  115TMC2    C7 1761   3.277   0.913   0.385 -0.1702  0.1401  0.1947
  115TMC2    C8 1762   2.844   1.051   0.236 -0.0728 -0.0310  0.6070
  115TMC2    O1 1763   3.343   0.837   0.454 -0.6904  0.2807  0.0612
  115TMC2    O2 1764   2.896   1.158   0.192  0.6357  0.2730  0.2794
  115TMC2    O5 1765   2.743   1.047   0.328 -0.1846  0.2797 -0.8827
  115TMC2    H5 1766   2.724   0.959   0.366 -0.6720 -0.4634 -2.8147
  116MPD2     C 1767   2.973   0.096   0.395 -0.1412 -0.6424 -0.3185
  116MPD2    C1 1768   2.883   0.162   0.316 -0.5661  0.0340 -0.3245
  116MPD2    C2 1769   2.900   0.297   0.284  0.3162  0.0890  0.8272
  116MPD2    C3 1770   3.009   0.364   0.340 -0.1490  0.4774 -0.0571
  116MPD2    C4 1771   3.111   0.299   0.401  0.2603 -0.1278  1.0015
  116MPD2    C5 1772   3.087   0.163   0.433  0.2625  0.5275  0.7193
  116MPD2     H 1773   2.825   0.352   0.228  2.7270  1.0262 -1.4413
  116MPD2    H1 1774   3.209   0.343   0.405 -1.0105  2.7127  0.7671
  116MPD2    H2 1775   2.959   4.716   0.426  4.2782 -1.4028 -0.9117
  116MPD2    H3 1776   3.165   0.104   0.480  0.1975  0.1501  0.3447
  116MPD2     N 1777   3.017   0.504   0.335  0.0877  0.2372 -0.1636
  116MPD2    H5 1778   3.111   0.540   0.349 -0.0538  1.2520 -1.8486
  116MPD2    N1 1779   2.772   0.092   0.264 -0.3548 -0.2731 -0.1076
  116MPD2    H7 1780   2.713   0.142   0.198  0.4669 -1.9646 -2.1400
  117TMC2    C1 1781   1.579   2.134  13.504 -0.1324  0.0214  0.1787
  117TMC2    C2 1782   1.602   2.247  13.577 -0.4841  0.1724  0.5287
  117TMC2    C3 1783   1.728   2.256  13.625 -0.3166 -0.3627 -0.0882
  117TMC2    C4 1784   1.677   2.041  13.478 -0.4120  0.1886  0.5083
  117TMC2    C5 1785   1.793   2.055  13.540  0.0465 -0.0646 -0.8324
  117TMC2    C6 1786   1.823   2.162  13.616  0.9946  0.0202 -0.2051
  117TMC2     C 1787   1.443   2.101  13.466  0.0483  0.1303  0.1596
  117TMC2     O 1788   1.428   1.993  13.419  0.0901  0.0160 -0.1300
  117TMC2     H 1789   1.523   2.313  13.611 -0.5506 -0.2938  1.2824
  117TMC2    H1 1790   1.643   1.947  13.437  1.2714 -1.3372  2.6091
  117TMC2    H2 1791   1.910   2.173  13.680  1.1622 -1.6117 -0.1734
  117TMC2    C7 1792   1.830   1.926  13.602 -0.0699 -0.0546  0.4927
  117TMC2    C8 1793   1.764   2.376  13.707 -0.2282  0.0216  0.6458
  117TMC2    O1 1794   1.737   1.851  13.623 -0.0923 -0.5332  0.4484
  117TMC2    O2 1795   1.882   2.404  13.727 -1.0546 -0.5910  0.2215
  117TMC2    O5 1796   1.649   2.430  13.764  0.0652  0.1471 -0.3237
  117TMC2    H5 1797   1.564   2.381  13.759  0.5097 -0.5504 -0.9761
  118MPD2     C 1798   2.098   1.863  13.830  0.5370 -0.4999 -0.0856
  118MPD2    C1 1799   1.974   1.858  13.791  0.6567 -0.1136  0.9602
  118MPD2    C2 1800   1.883   1.785  13.866 -0.1091  0.1312 -0.5766
  118MPD2    C3 1801   1.918   1.716  13.984 -1.1326 -0.3987 -0.5199
  118MPD2    C4 1802   2.058   1.720  14.023 -0.5336 -0.9036  0.2419
  118MPD2    C5 1803   2.143   1.800  13.946  0.0286  0.9807  0.4188
  118MPD2     H 1804   1.778   1.791  13.838 -1.0560 -4.1892  2.0085
  118MPD2    H1 1805   2.095   1.658  14.104  0.9834  1.1224  1.1065
  118MPD2    H2 1806   2.179   1.923  13.790 -0.4673  0.3652 -0.8275
  118MPD2    H3 1807   2.245   1.808  13.984 -0.0598 -0.0998  0.8886
  118MPD2     N 1808   1.828   1.667  14.073  0.0297  0.5433 -0.5095
  118MPD2    H5 1809   1.866   1.650  14.165 -0.5270  1.7951 -0.0542
  118MPD2    N1 1810   1.949   1.933  13.675  0.1809  0.7082  0.3233
  118MPD2    H7 1811   2.023   1.996  13.643 -0.6002  2.0396  1.1468
  119MPD2     C 1812   0.010   3.883  14.237 -0.3945  0.1993  0.3368
  119MPD2    C1 1813   4.637   3.784  14.236 -0.2592 -0.1316  0.1500
  119MPD2    C2 1814   4.566   3.761  14.122  0.6981 -0.6552  0.3871
  119MPD2    C3 1815   4.596   3.816  13.997  0.4941  0.2739  0.2581
  119MPD2    C4 1816   4.695   3.914  14.002  0.0632  0.5503  0.3187
  119MPD2    C5 1817   0.027   3.953  14.123  0.7345 -0.3577 -0.2844
  119MPD2     H 1818   4.488   3.686  14.121  0.6588 -0.6066 -0.7500
  119MPD2    H1 1819   0.003   3.974  13.917 -1.1000 -0.8310 -1.0900
  119MPD2    H2 1820   0.066   3.908  14.326  2.5700 -3.7518 -0.4205
  119MPD2    H3 1821   0.099   4.034  14.122 -1.0286  1.2047 -1.5164
  119MPD2     N 1822   4.539   3.780  13.872  0.2789 -0.2087 -0.4253
  119MPD2    H5 1823   4.580   3.814  13.785 -0.8383  2.4771  0.0987
  119MPD2    N1 1824   4.621   3.714  14.355  0.1316  0.0241  0.1078
  119MPD2    H7 1825   4.655   3.750  14.444  2.1503  1.9454 -1.4392
  120TCq2    C1 1826   4.463   3.666  13.848 -0.0845 -0.1992 -0.5011
  120TCq2    O2 1827   4.408   3.587  13.924 -0.0142 -1.0144  0.2486
  120TCq2    C2 1828   4.412   3.648  13.709 -0.7357 -0.4260 -0.1827
  120TCq2    C3 1829   4.458   3.732  13.615  0.1213 -0.1605 -0.2329
  120TCq2    C4 1830   4.420   3.693  13.487  0.2835  0.5650 -0.2016
  120TCq2    C5 1831   4.334   3.593  13.464  0.1428  0.3696  0.3474
  120TCq2    C6 1832   4.300   3.501  13.556  0.1110 -0.3124  0.7644
  120TCq2    C7 1833   4.331   3.540  13.680  0.6922 -0.2368  0.5163
  120TCq2    C8 1834   4.176   3.421  13.540 -0.2905 -0.0056  0.1801
  120TCq2    O4 1835   4.114   3.430  13.435 -0.0798 -0.0551 -0.1215
  120TCq2    C9 1836   4.452   3.790  13.378  0.1470 -0.2738 -0.1342
  120TCq2    O5 1837   4.391   3.776  13.269 -0.2851 -0.1629  0.5016
  120TCq2    O6 1838   4.548   3.867  13.398  0.2337  0.3999 -0.3478
  120TCq2    H2 1839   4.531   3.811  13.625  0.8946 -0.9372  0.2735
  120TCq2    H3 1840   4.286   3.587  13.367  1.1478  0.5665 -0.1607
  120TCq2    H4 1841   4.293   3.481  13.763 -0.9345 -1.0811 -0.8155
  121TMC2    C1 1842   1.284   0.329  14.030  0.0499 -0.4122  0.2668
  121TMC2    C2 1843   1.218   0.418  14.113  0.4832  0.3856  0.2187
  121TMC2    C3 1844   1.095   0.383  14.157  0.1709  0.1366  0.2737
  121TMC2    C4 1845   1.231   0.204  13.998 -0.1820  0.2674 -0.3943
  121TMC2    C5 1846   1.108   0.176  14.053 -0.2847 -0.5995  0.5015
  121TMC2    C6 1847   1.030   0.268  14.123 -0.3268  0.3580 -0.0542
  121TMC2     C 1848   1.426   0.340  14.028  0.2540  0.2125  0.7124
  121TMC2     O 1849   1.478   0.394  14.127 -0.2845 -0.1278 -0.0504
  121TMC2     H 1850   1.268   0.506  14.152 -1.2115  2.9887 -3.5027
  121TMC2    H1 1851   1.283   0.132  13.935 -0.0489 -0.8513  0.9931
  121TMC2    H2 1852   0.939   0.245  14.176 -0.4538 -1.1269 -0.9121
  121TMC2    C7 1853   1.026   0.087  13.977 -0.0506  0.2770  0.1877
  121TMC2    C8 1854   1.017   0.471  14.241  0.2510 -0.3455 -0.6700
  121TMC2    O1 1855   1.066   4.696  13.942  0.0371 -0.1684 -0.4709
  121TMC2    O2 1856   1.009   0.595  14.231 -0.4046 -0.3295  0.0458
  121TMC2    O5 1857   1.028   0.419  14.366  0.5253 -0.1458  0.0062
  121TMC2    H5 1858   1.064   0.329  14.355  0.2842 -0.0925 -1.2898
  122MPD2     C 1859   1.704   0.396  13.930  0.7308 -1.6100 -0.1367
  122MPD2    C1 1860   1.600   0.350  13.856 -0.4280 -0.2000  0.3705
  122MPD2    C2 1861   1.607   0.362  13.723  0.2777 -0.1345  0.2200
  122MPD2    C3 1862   1.726   0.407  13.661  0.8991 -0.2314  1.2030
  122MPD2    C4 1863   1.839   0.438  13.737 -0.1961 -0.0530 -0.1552
  122MPD2    C5 1864   1.824   0.432  13.873 -0.1167 -0.6572 -0.5971
  122MPD2     H 1865   1.524   0.321  13.666  1.2809  1.4373 -2.3978
  122MPD2    H1 1866   1.930   0.456  13.682 -1.3666  2.5210 -1.2455
  122MPD2    H2 1867   1.688   0.401  14.037  1.6058 -1.6249 -0.0104
  122MPD2    H3 1868   1.907   0.451  13.940 -0.0097  0.0120 -0.9075
  122MPD2     N 1869   1.743   0.432  13.524  0.6349  0.9389  0.1873
  122MPD2    H5 1870   1.838   0.447  13.490  0.1154 -0.1170 -1.7819
  122MPD2    N1 1871   1.477   0.304  13.907 -0.6625 -0.0043 -0.0949
  122MPD2    H7 1872   1.406   0.271  13.841 -2.6376 -0.7659  2.4232
  123MPD2     C 1873   3.865   2.799  11.057 -0.4392  0.2746  0.2959
  123MPD2    C1 1874   3.973   2.823  10.979 -0.0184  0.2653 -0.0652
  123MPD2    C2 1875   4.044   2.943  10.993  0.0759  0.1710  0.1165
  123MPD2    C3 1876   4.009   3.039  11.086  0.0144 -0.1806  0.0622
  123MPD2    C4 1877   3.904   3.010  11.173  0.0180 -0.1205  0.1605
  123MPD2    C5 1878   3.832   2.894  11.156  0.2563 -0.4124 -0.1060
  123MPD2     H 1879   4.133   2.968  10.938  0.2057  1.0372  0.7321
  123MPD2    H1 1880   3.879   3.077  11.255  0.7533 -1.1262  1.2151
  123MPD2    H2 1881   3.799   2.713  11.059  0.2997 -0.2547  2.1969
  123MPD2    H3 1882   3.744   2.879  11.216  1.5437  1.9670  2.3650
  123MPD2     N 1883   4.098   3.144  11.103 -0.4647  0.0925  0.0082
  123MPD2    H5 1884   4.181   3.142  11.044 -0.9753  2.6124 -0.7878
  123MPD2    N1 1885   4.004   2.732  10.877 -0.5034 -0.2071 -0.0748
  123MPD2    H7 1886   3.940   2.654  10.864 -1.7206  1.0523 -1.6302
  124TCq2    C1 1887   4.093   3.250  11.193  0.6627 -0.5202  0.2282
  124TCq2    O2 1888   4.000   3.291  11.267 -0.4778  0.0130  0.2656
  124TCq2    C2 1889   4.219   3.331  11.182  0.1358 -0.1342 -0.6033
  124TCq2    C3 1890   4.208   3.469  11.177  0.5922  0.1128 -0.3348
  124TCq2    C4 1891   4.294   3.533  11.089  0.2708 -0.2741  0.6024
  124TCq2    C5 1892   4.389   3.466  11.014  0.6635  0.2411 -0.1155
  124TCq2    C6 1893   4.392   3.334  11.032 -0.1011 -0.1454  0.0692
  124TCq2    C7 1894   4.316   3.260  11.114 -0.7302  0.0108  0.1549
  124TCq2    C8 1895   4.484   3.254  10.956  0.1084  0.0523  0.1848
  124TCq2    O4 1896   4.439   3.143  10.935 -0.4774 -0.2747  0.7861
  124TCq2    C9 1897   4.303   3.675  11.080  0.3390 -0.0621  0.3559
  124TCq2    O5 1898   4.221   3.733  11.154  0.5227 -0.6891  0.3343
  124TCq2    O6 1899   4.390   3.732  11.004  0.0903  0.5552  0.4404
  124TCq2    H2 1900   4.133   3.515  11.240  2.0262  0.5747  1.0388
  124TCq2    H3 1901   4.440   3.516  10.932 -1.9065 -0.0724 -1.8916
  124TCq2    H4 1902   4.340   3.157  11.137 -2.8800 -0.4671  0.2936
  125TMC2    C1 1903   0.348   0.305   9.696  0.3683 -0.0808 -0.1364
  125TMC2    C2 1904   0.299   0.370   9.585  1.0160  0.2392  0.0294
  125TMC2    C3 1905   0.377   0.372   9.473  0.2140  0.6954  0.5575
  125TMC2    C4 1906   0.453   0.220   9.699  0.2502  0.1757  0.2251
  125TMC2    C5 1907   0.529   0.225   9.580 -0.2116  0.2888 -0.8496
  125TMC2    C6 1908   0.496   0.306   9.472 -0.7636 -0.3082  0.0899
  125TMC2     C 1909   0.246   0.277   9.792  0.3772 -0.5654 -0.1408
  125TMC2     O 1910   0.133   0.303   9.756  0.4695  0.6611  0.2914
  125TMC2     H 1911   0.206   0.425   9.588  1.1492  0.5051 -1.0288
  125TMC2    H1 1912   0.485   0.158   9.781 -0.0079 -0.8887 -0.4755
  125TMC2    H2 1913   0.555   0.320   9.382 -0.8056  0.0748  0.1215
  125TMC2    C7 1914   0.656   0.167   9.589 -0.3234  0.1304  0.4139
  125TMC2    C8 1915   0.389   0.505   9.411  0.5612 -0.2078  0.6758
  125TMC2    O1 1916   0.666   0.074   9.666  0.0313 -0.7048 -0.3440
  125TMC2    O2 1917   0.341   0.607   9.456 -0.5693  0.7179  0.4155
  125TMC2    O5 1918   0.432   0.495   9.281 -0.1182  0.7926 -0.5539
  125TMC2    H5 1919   0.437   0.404   9.245  0.8786  0.1302  1.2036
  126MPD1     C 1920   0.060   0.088  10.223 -0.2812  0.5399 -0.7348
  126MPD1    C1 1921   0.196   0.064  10.224  1.1565  0.1949  0.9992
  126MPD1    C2 1922   0.276   0.116  10.125 -0.3771  0.4904  1.0094
  126MPD1    C3 1923   0.211   0.183  10.021 -0.4891 -0.3051  0.0896
  126MPD1    C4 1924   0.076   0.204  10.023  1.1426  0.3335 -0.8018
  126MPD1    C5 1925   0.000   0.153  10.123 -0.5030 -0.3175  0.1202
  126MPD1     H 1926   0.383   0.098  10.120 -0.2874  0.4541  2.9178
  126MPD1    H1 1927   0.029   0.261   9.943 -0.7149  2.8643  2.0911
  126MPD1    H2 1928   4.719   0.056  10.304 -0.0223  0.6270 -0.4912
  126MPD1    H3 1929   4.620   0.185  10.134 -0.3582 -0.0027  0.5910
  126MPD1     N 1930   0.293   0.230   9.913  0.0465 -0.2229  0.7920
  126MPD1    H5 1931   0.393   0.228   9.932 -0.1278  0.8393  1.8075
  126MPD1    N1 1932   0.239   4.675  10.304  0.3967 -0.1710  0.7002
  126MPD1    H6 1933   0.333   4.692  10.339  0.6475 -2.7255  1.2533
  126MPD1    H7 1934   0.178   4.658  10.384 -1.5630  1.0342 -0.5280
  127MPD2     C 1935   2.051   3.590   9.392  0.0941  0.0011  0.2156
  127MPD2    C1 1936   1.973   3.648   9.487  0.1355 -0.5680 -0.0826
  127MPD2    C2 1937   1.952   3.781   9.495  0.7707  0.1191 -0.4986
  127MPD2    C3 1938   2.006   3.871   9.397  0.0451 -0.7768 -0.3019
  127MPD2    C4 1939   2.099   3.818   9.307  0.0643  0.2074 -0.5072
  127MPD2    C5 1940   2.130   3.680   9.314  0.3482 -1.0560 -0.2842
  127MPD2     H 1941   1.889   3.829   9.569 -0.2139  0.1790 -1.3706
  127MPD2    H1 1942   2.154   3.891   9.249  0.7603 -2.2095 -2.8922
  127MPD2    H2 1943   2.077   3.485   9.387  0.3346  0.0766 -0.1578
  127MPD2    H3 1944   2.204   3.647   9.243  0.3218 -1.6617 -0.0315
  127MPD2     N 1945   1.973   4.006   9.403  1.2007 -0.8987 -0.2610
  127MPD2    H5 1946   1.916   4.035   9.482 -0.4922 -3.7498 -0.4504
  127MPD2    N1 1947   1.910   3.561   9.578  0.1457  0.1990 -0.3910
  127MPD2    H7 1948   1.934   3.463   9.564 -0.0479 -0.0214  0.8528
  128TCq2    C1 1949   1.839   3.591   9.691  0.9551 -0.0431 -0.4839
  128TCq2    O2 1950   1.820   3.699   9.744 -0.0342 -0.1885  0.0302
  128TCq2    C2 1951   1.801   3.468   9.752  0.2089  0.5397 -0.4178
  128TCq2    C3 1952   1.818   3.466   9.887 -0.0338  0.1681 -0.5788
  128TCq2    C4 1953   1.759   3.364   9.951 -0.1963 -0.3015 -0.5271
  128TCq2    C5 1954   1.683   3.270   9.886  0.3764  0.6933 -0.2354
  128TCq2    C6 1955   1.663   3.288   9.754  0.6522 -0.7656 -0.0719
  128TCq2    C7 1956   1.722   3.381   9.678  0.3020 -0.1737  0.2139
  128TCq2    C8 1957   1.534   3.236   9.696  0.0286 -0.5770 -0.3170
  128TCq2    O4 1958   1.525   3.267   9.578 -0.1436 -0.9944  0.2281
  128TCq2    C9 1959   1.767   3.363  10.100 -0.2720 -0.0838 -0.4841
  128TCq2    O5 1960   1.850   3.442  10.153  0.3608  0.1234 -0.3014
  128TCq2    O6 1961   1.703   3.272  10.158  0.7517 -0.2540 -0.0843
  128TCq2    H2 1962   1.861   3.547   9.945  0.4264 -0.8204  0.4662
  128TCq2    H3 1963   1.623   3.202   9.946  1.4976 -0.7643 -0.7621
  128TCq2    H4 1964   1.708   3.400   9.572  2.1976 -2.4870 -0.4612
  129MPD2     C 1965   4.017   0.068   0.817  0.4147 -1.1979  0.7988
  129MPD2    C1 1966   4.063   0.064   0.947 -0.0697 -0.9485 -0.2787
  129MPD2    C2 1967   4.198   0.040   0.976  0.1257  0.5608 -0.3971
  129MPD2    C3 1968   4.283   0.007   0.873  0.3370 -0.4908 -0.5491
  129MPD2    C4 1969   4.235   4.720   0.745 -0.3768 -0.3535  0.2688
  129MPD2    C5 1970   4.100   0.026   0.718 -0.2654 -0.6072  0.0499
  129MPD2     H 1971   4.235   0.040   1.078  0.2865 -2.4818 -0.4438
  129MPD2    H1 1972   4.308   4.682   0.674 -0.1784 -1.7546  1.2116
  129MPD2    H2 1973   3.914   0.092   0.793  0.5328 -2.6572 -1.0771
  129MPD2    H3 1974   4.060   0.011   0.618  1.7408 -0.1553 -0.8288
  129MPD2     N 1975   4.417   4.715   0.915 -0.8261  0.1625  0.1843
  129MPD2    H5 1976   4.437   0.013   1.012  0.1565  0.1410 -0.0128
  129MPD2    N1 1977   3.980   0.092   1.058 -0.2737  0.1124 -0.2209
  129MPD2    H7 1978   4.021   0.083   1.150 -0.9290 -1.2359 -0.0639
  130TCq2    C1 1979   3.859   0.161   1.061  0.0084  0.8078 -0.4206
  130TCq2    O2 1980   3.804   0.227   0.974  0.4829  0.9281  0.1573
  130TCq2    C2 1981   3.819   0.172   1.196 -0.4214  0.0350  0.3616
  130TCq2    C3 1982   3.758   0.295   1.223 -0.1402  0.7021 -0.5512
  130TCq2    C4 1983   3.690   0.310   1.336 -0.3861 -0.1235 -0.0093
  130TCq2    C5 1984   3.690   0.207   1.429  0.6280  0.8272 -0.4771
  130TCq2    C6 1985   3.730   0.081   1.389  0.3948 -0.1204  0.2015
  130TCq2    C7 1986   3.801   0.059   1.270  0.4140 -0.3219  0.1094
  130TCq2    C8 1987   3.713   4.684   1.468  0.7353  0.1611  0.2250
  130TCq2    O4 1988   3.727   4.575   1.417 -0.6421 -0.0454  0.6807
  130TCq2    C9 1989   3.637   0.434   1.368  0.5384 -0.9459  0.3012
  130TCq2    O5 1990   3.594   0.498   1.266  0.0875  0.0802 -0.6122
  130TCq2    O6 1991   3.643   0.473   1.489 -0.8996 -0.2557  0.2446
  130TCq2    H2 1992   3.779   0.381   1.160 -0.1222  0.1262 -1.3273
  130TCq2    H3 1993   3.642   0.223   1.525 -0.4324 -1.3880 -0.6189
  130TCq2    H4 1994   3.858   4.694   1.245 -1.2157 -1.3971  0.1936
  131MPD2     C 1995   0.031   2.757  10.210 -0.1759  0.5639  0.0121
  131MPD2    C1 1996   4.695   2.847  10.295 -0.1238  0.2091 -0.1021
  131MPD2    C2 1997   4.583   2.806  10.373 -0.4240 -0.2118 -0.3628
  131MPD2    C3 1998   4.541   2.678  10.362 -0.8320 -0.0454  0.0035
  131MPD2    C4 1999   4.605   2.586  10.275 -0.4231  0.1403 -0.4990
  131MPD2    C5 2000   4.713   2.630  10.206 -0.5814  0.5799  0.3630
  131MPD2     H 2001   4.541   2.870  10.450 -0.5144 -0.8254  0.0882
  131MPD2    H1 2002   4.589   2.479  10.283  1.1697 -0.1471 -1.0843
  131MPD2    H2 2003   0.123   2.793  10.165  0.6099 -1.3300  0.0991
  131MPD2    H3 2004   0.042   2.544  10.164  0.0894  0.9565  0.4377
  131MPD2     N 2005   4.434   2.644  10.450  0.5544 -0.9483  0.9383
  131MPD2    H5 2006   4.401   2.717  10.512 -1.0055  1.4891 -2.7289
  131MPD2    N1 2007   0.028   2.971  10.306 -0.3940 -0.4875  0.1854
  131MPD2    H7 2008   0.117   2.981  10.258 -1.2462  0.7518 -1.1503
  132TCq2    C1 2009   0.027   3.535  10.454 -0.1994  0.7800  0.5438
  132TCq2    O2 2010   4.643   3.541  10.517 -0.0465  0.3511 -0.7581
  132TCq2    C2 2011   0.094   3.407  10.442  0.3865 -0.0350  0.2998
  132TCq2    C3 2012   0.229   3.398  10.437  0.3901 -0.5807  0.0321
  132TCq2    C4 2013   0.287   3.281  10.400  1.0741  0.1848 -0.5224
  132TCq2    C5 2014   0.200   3.173  10.361  0.2011  0.3156  0.8799
  132TCq2    C6 2015   0.066   3.196  10.365 -0.0273 -0.2778  0.1605
  132TCq2    C7 2016   0.015   3.307  10.419  0.0666 -0.2587  0.3602
  132TCq2    C8 2017   4.700   3.077  10.381 -0.3258 -0.4376  0.1169
  132TCq2    O4 2018   4.600   3.092  10.454 -0.8731  0.1662 -0.2949
  132TCq2    C9 2019   0.429   3.259  10.396 -0.0367  0.2184 -0.2269
  132TCq2    O5 2020   0.469   3.141  10.370  0.1842  0.0367 -0.4882
  132TCq2    O6 2021   0.496   3.359  10.437  0.1270 -0.0000 -0.3614
  132TCq2    H2 2022   0.287   3.483  10.474 -0.6828  0.1410  0.0519
  132TCq2    H3 2023   0.248   3.081  10.329  0.9493  1.1892 -0.5322
  132TCq2    H4 2024   4.632   3.321  10.437  0.3655  1.0316  1.1137
  133MPD2     C 2025   3.175   4.306   8.997 -0.0947 -0.1136  0.3771
  133MPD2    C1 2026   3.262   4.231   9.070 -0.0793 -0.7984  0.1053
  133MPD2    C2 2027   3.263   4.092   9.055  0.6474  0.2257 -0.0535
  133MPD2    C3 2028   3.170   4.033   8.972 -0.2543  0.3842 -0.6236
  133MPD2    C4 2029   3.081   4.107   8.899  0.0627 -0.6694 -0.0040
  133MPD2    C5 2030   3.083   4.249   8.910 -0.2010  1.2633  0.3097
  133MPD2     H 2031   3.325   4.032   9.120 -0.0377 -0.1440  0.2594
  133MPD2    H1 2032   3.026   4.060   8.818  0.1808 -3.0646  1.3159
  133MPD2    H2 2033   3.183   4.414   9.000  1.8129 -0.2848  1.5592
  133MPD2    H3 2034   3.018   4.315   8.854  3.4208  2.3934 -2.6262
  133MPD2     N 2035   3.160   3.896   8.961 -0.1347 -0.0007  0.0455
  133MPD2    H5 2036   3.073   3.864   8.920  0.6743 -0.3669 -1.3751
  133MPD2    N1 2037   3.361   4.297   9.148  0.3364  0.1964 -0.2626
  133MPD2    H7 2038   3.357   4.399   9.145 -0.9854  0.1362 -0.2806
  134TCq2    C1 2039   3.451   4.242   9.237  0.0341 -0.1443 -0.1397
  134TCq2    O2 2040   3.500   4.132   9.253  0.5172 -0.2630  0.6720
  134TCq2    C2 2041   3.493   4.343   9.336  0.8287  0.2498 -0.2549
  134TCq2    C3 2042   3.623   4.341   9.379  0.0760  0.4818  0.4252
  134TCq2    C4 2043   3.664   4.448   9.455 -0.6967 -0.1088  0.8760
  134TCq2    C5 2044   3.583   4.559   9.478  0.1815  0.4060  0.3360
  134TCq2    C6 2045   3.460   4.556   9.423 -0.0892  0.4695 -0.0309
  134TCq2    C7 2046   3.411   4.454   9.354  0.4208 -0.1266  0.4134
  134TCq2    C8 2047   3.379   4.671   9.450  0.2189 -0.4448 -0.1033
  134TCq2    O4 2048   3.411   0.024   9.543 -0.7518 -0.0220  0.4535
  134TCq2    C9 2049   3.790   4.446   9.525 -0.5939 -0.4600  0.1195
  134TCq2    O5 2050   3.859   4.344   9.508  0.1335 -0.8195 -0.7449
  134TCq2    O6 2051   3.816   4.538   9.606 -0.0709 -0.3362  0.3974
  134TCq2    H2 2052   3.686   4.253   9.370 -1.3816 -0.7378  2.3379
  134TCq2    H3 2053   3.630   4.638   9.535  0.4856  0.7064 -0.3288
  134TCq2    H4 2054   3.305   4.462   9.336 -0.2338 -3.6085  2.7454
  135MPD2     C 2055   1.183   0.609   9.657  0.1809  0.2249  0.8587
  135MPD2    C1 2056   1.279   0.508   9.651  0.2230 -0.2864  0.4913
  135MPD2    C2 2057   1.387   0.516   9.562  0.7194  0.4122  0.5718
  135MPD2    C3 2058   1.400   0.634   9.490  0.5588  0.2626 -0.1764
  135MPD2    C4 2059   1.315   0.741   9.500 -0.4752 -0.5132 -0.3602
  135MPD2    C5 2060   1.206   0.726   9.585  0.0190  0.1784 -0.5418
  135MPD2     H 2061   1.449   0.428   9.549 -1.4073 -0.9752 -0.2525
  135MPD2    H1 2062   1.332   0.842   9.465 -0.4014 -0.4172 -0.0502
  135MPD2    H2 2063   1.090   0.601   9.711 -1.7043 -0.4085 -2.4474
  135MPD2    H3 2064   1.132   0.802   9.610  0.1234  0.3761 -0.8432
  135MPD2     N 2065   1.510   0.661   9.405 -0.2396  0.8120 -0.0473
  135MPD2    H5 2066   1.506   0.753   9.361  0.9899  0.5852 -0.6348
  135MPD2    N1 2067   1.255   0.388   9.718 -0.1865 -0.1648 -0.3599
  135MPD2    H7 2068   1.320   0.311   9.704  0.6037  0.7024 -1.4615
  136TCq2    C1 2069   1.159   0.360   9.812  0.0473  0.5317  0.1873
  136TCq2    O2 2070   1.080   0.435   9.870 -0.3900  0.4757 -0.1391
  136TCq2    C2 2071   1.185   0.230   9.877  0.5332  0.6195  0.5212
  136TCq2    C3 2072   1.226   0.122   9.800 -0.5681 -0.8083 -0.0485
  136TCq2    C4 2073   1.238   4.719   9.859 -0.0317  0.0837 -0.4757
  136TCq2    C5 2074   1.206   4.696   9.985  0.5537  0.3764 -0.2003
  136TCq2    C6 2075   1.172   0.078  10.063 -0.0022 -0.5423 -0.0379
  136TCq2    C7 2076   1.155   0.208  10.012 -0.3301  0.0605 -0.4946
  136TCq2    C8 2077   1.210   0.082  10.205  0.4349  0.2827 -0.1367
  136TCq2    O4 2078   1.220   0.181  10.278 -0.2988  0.3157 -0.3696
  136TCq2    C9 2079   1.301   4.622   9.775 -0.1573  0.3617 -0.1337
  136TCq2    O5 2080   1.383   4.666   9.692  0.6342  0.8993  0.2339
  136TCq2    O6 2081   1.306   4.501   9.809 -0.3808  0.3015 -0.3793
  136TCq2    H2 2082   1.239   0.124   9.692  0.6456 -1.5773  0.0778
  136TCq2    H3 2083   1.228   4.594  10.013 -2.6238 -0.0673  0.7384
  136TCq2    H4 2084   1.131   0.291  10.076  0.6040 -0.9461  1.1667
  137MPD2     C 2085   0.952   4.438   9.035 -0.2309  0.2125 -0.6036
  137MPD2    C1 2086   0.920   4.443   9.170 -0.5168  0.3723  0.2048
  137MPD2    C2 2087   1.003   4.392   9.269 -0.1511  0.1665 -0.3065
  137MPD2    C3 2088   1.114   4.319   9.223 -0.0805  0.0335  0.2914
  137MPD2    C4 2089   1.142   4.312   9.089  0.8196  0.1859  0.3537
  137MPD2    C5 2090   1.065   4.371   8.996 -0.4959  0.5801 -0.4848
  137MPD2     H 2091   0.988   4.403   9.376 -2.1530 -3.4409 -0.2198
  137MPD2    H1 2092   1.227   4.252   9.057 -1.0370 -1.2476 -1.8548
  137MPD2    H2 2093   0.896   4.487   8.956  1.7817  2.2193 -0.7670
  137MPD2    H3 2094   1.099   4.365   8.893  1.4641 -0.4131  0.2054
  137MPD2     N 2095   1.191   4.262   9.324  0.7249  0.4910 -0.4110
  137MPD2    H5 2096   1.162   4.267   9.421 -0.8500 -0.4269 -0.8425
  137MPD2    N1 2097   0.801   4.517   9.202 -0.4310  0.6047 -0.7286
  137MPD2    H7 2098   0.743   4.553   9.127 -0.0876  0.0939 -1.2418
  138TCq2    C1 2099   0.743   4.518   9.327  0.2499 -0.5781 -0.0485
  138TCq2    O2 2100   0.779   4.468   9.431  0.2210  0.0165 -0.8895
  138TCq2    C2 2101   0.627   4.608   9.324 -1.0166 -0.2710  0.3326
  138TCq2    C3 2102   0.627   4.701   9.226  0.0121  0.5352 -0.0456
  138TCq2    C4 2103   0.511   0.057   9.213  0.8618  0.3599 -0.3633
  138TCq2    C5 2104   0.410   0.048   9.297  0.1038 -0.4099 -0.5779
  138TCq2    C6 2105   0.417   4.681   9.399 -0.1059  0.4316  0.3420
  138TCq2    C7 2106   0.517   4.590   9.407 -0.3339  0.1829  0.5256
  138TCq2    C8 2107   0.306   4.673   9.483  0.4055 -0.1114 -0.6229
  138TCq2    O4 2108   0.214   0.031   9.460 -0.0466  0.2491  0.6268
  138TCq2    C9 2109   0.505   0.169   9.120 -0.0329  0.2661  0.0699
  138TCq2    O5 2110   0.455   0.276   9.164  0.0945  0.7961  0.4634
  138TCq2    O6 2111   0.542   0.150   9.002 -0.3150  0.0735  0.3100
  138TCq2    H2 2112   0.715   0.013   9.173  0.1124 -1.3698 -1.1412
  138TCq2    H3 2113   0.328   0.118   9.283  0.6981  0.3634 -0.1775
  138TCq2    H4 2114   0.531   4.525   9.492  1.5504 -0.4341 -0.2633
  139TMC2    C1 2115   1.859   2.786  13.621 -0.8567  0.1911 -0.0160
  139TMC2    C2 2116   1.971   2.764  13.692  0.5866 -0.3147  0.0272
  139TMC2    C3 2117   2.019   2.873  13.763 -0.0635 -0.1543  0.1104
  139TMC2    C4 2118   1.799   2.905  13.617 -0.3675 -0.0984  0.0554
  139TMC2    C5 2119   1.851   3.008  13.692 -0.0113 -0.7875  0.1844
  139TMC2    C6 2120   1.962   2.994  13.768 -0.1721  0.0014 -0.4879
  139TMC2     C 2121   1.827   2.693  13.520  0.3427 -0.0564 -0.0655
  139TMC2     O 2122   1.715   2.714  13.471 -0.1607  0.3825  0.2202
  139TMC2     H 2123   2.019   2.667  13.702 -1.6369 -1.4581 -0.2819
  139TMC2    H1 2124   1.709   2.926  13.560 -0.7223  0.1390  0.7029
  139TMC2    H2 2125   2.012   3.068  13.830  1.1926 -2.5219  1.4624
  139TMC2    C7 2126   1.778   3.140  13.690 -0.4346 -0.0318  0.0272
  139TMC2    C8 2127   2.131   2.849  13.855  0.2021 -0.6484 -0.1519
  139TMC2    O1 2128   1.678   3.139  13.623 -0.1455  0.1706  0.1374
  139TMC2    O2 2129   2.224   2.931  13.857  0.2169 -0.2605  0.3458
  139TMC2    O5 2130   2.096   2.757  13.946  0.5750 -0.2457  0.2763
  139TMC2    H5 2131   2.013   2.708  13.932  1.9889 -2.1284 -1.5467
  140MPD2     C 2132   2.028   2.425  13.389  0.0017 -0.3112  0.4084
  140MPD2    C1 2133   1.912   2.492  13.401 -0.6027 -0.2442 -0.5706
  140MPD2    C2 2134   1.798   2.463  13.327  0.2089  0.6568  0.8785
  140MPD2    C3 2135   1.794   2.345  13.257  0.1853  0.4741  0.0771
  140MPD2    C4 2136   1.912   2.273  13.246 -0.2199  0.2342  0.2095
  140MPD2    C5 2137   2.029   2.314  13.309 -0.2947  0.4071  0.3456
  140MPD2     H 2138   1.710   2.521  13.353 -0.5528  0.7759 -1.9505
  140MPD2    H1 2139   1.912   2.179  13.192 -0.5630  0.5900 -0.4000
  140MPD2    H2 2140   2.120   2.458  13.435  0.6129 -0.8101 -0.4637
  140MPD2    H3 2141   2.118   2.254  13.294 -0.6539  0.6400 -2.7500
  140MPD2     N 2142   1.671   2.300  13.211  0.0844  0.0024  0.8509
  140MPD2    H5 2143   1.599   2.371  13.204 -0.6855 -0.8337  0.2523
  140MPD2    N1 2144   1.924   2.603  13.488  0.0513  0.1173 -0.3647
  140MPD2    H7 2145   2.012   2.625  13.534 -1.4079  2.2252  1.4447
  141TCq2    C1 2146   1.851   4.177  14.612  0.8734 -0.1267  0.4121
  141TCq2    O2 2147   1.782   4.260  14.551  0.9980  0.1214  0.2365
  141TCq2    C2 2148   1.812   4.164  14.753 -0.7453 -0.4755 -0.2217
  141TCq2    C3 2149   1.836   4.045  14.817 -0.3648  0.3834  0.4455
  141TCq2    C4 2150   1.818   4.046  14.953  0.1710  0.7305  0.2999
  141TCq2    C5 2151   1.778   4.152  15.023  0.1309  0.2104 -0.0166
  141TCq2    C6 2152   1.742   4.263  14.951  0.2669  0.7328 -0.2128
  141TCq2    C7 2153   1.758   4.276  14.817 -0.3639 -0.2523  0.2805
  141TCq2    C8 2154   1.729   4.382  15.030  0.5266 -0.5323 -0.0812
  141TCq2    O4 2155   1.697   4.366  15.147 -1.3345  0.4835  0.3569
  141TCq2    C9 2156   1.839   3.920  15.019 -0.0400 -1.1838  0.0618
  141TCq2    O5 2157   1.914   3.834  14.968  0.0782  0.1227 -0.1213
  141TCq2    O6 2158   1.769   3.895  15.122  0.5326 -0.3645  0.0090
  141TCq2    H2 2159   1.857   3.957  14.757  3.5119  1.5843  0.0423
  141TCq2    H3 2160   1.776   4.155  15.131 -2.1992 -1.4024  0.0126
  141TCq2    H4 2161   1.723   4.363  14.764 -1.5294 -1.0496 -0.2597
  142MPD2     C 2162   4.284   2.149  11.005 -0.2105  0.0437 -0.0601
  142MPD2    C1 2163   4.338   2.103  10.887  0.0695 -0.4725  0.4872
  142MPD2    C2 2164   4.418   2.193  10.817  0.6150  0.2656 -1.4122
  142MPD2    C3 2165   4.444   2.327  10.859 -0.8315 -0.6025 -0.2918
  142MPD2    C4 2166   4.394   2.364  10.983 -0.0121 -0.1677  0.2420
  142MPD2    C5 2167   4.324   2.269  11.055  0.0285  0.3536  0.1106
  142MPD2     H 2168   4.464   2.162  10.724 -0.4676  0.9638 -2.1829
  142MPD2    H1 2169   4.422   2.463  11.015  2.8757 -1.7978  2.8161
  142MPD2    H2 2170   4.209   2.094  11.060 -1.6506 -0.0851 -2.1366
  142MPD2    H3 2171   4.290   2.294  11.155  2.9469  0.8233  0.9809
  142MPD2     N 2172   4.536   2.415  10.788  0.3489  0.0673  0.2624
  142MPD2    H5 2173   4.566   2.485  10.855  1.7915  0.5144 -0.8670
  142MPD2    N1 2174   4.298   1.976  10.849  0.0557 -0.2228  0.7428
  142MPD2    H7 2175   4.237   1.929  10.915  0.1275 -0.2332  0.8017
  143TCq2    C1 2176   4.618   2.387  10.686 -0.3840  0.3691  0.2742
  143TCq2    O2 2177   4.620   2.287  10.611 -0.5155  0.2581  0.3206
  143TCq2    C2 2178   4.707   2.497  10.656 -0.2581  0.3463 -0.2453
  143TCq2    C3 2179   0.097   2.459  10.593  0.3404 -0.1808 -0.2683
  143TCq2    C4 2180   0.178   2.563  10.554 -0.7625  0.2301  0.1942
  143TCq2    C5 2181   0.141   2.691  10.570 -0.5287 -0.3159  0.0924
  143TCq2    C6 2182   0.022   2.722  10.638 -0.3152  0.4374 -0.2207
  143TCq2    C7 2183   4.657   2.621  10.671  0.3941 -0.9233 -0.8011
  143TCq2    C8 2184   4.703   2.854  10.687  0.2440 -0.4275 -0.0304
  143TCq2    O4 2185   4.599   2.859  10.754  0.8758  0.2076 -0.0675
  143TCq2    C9 2186   0.310   2.541  10.497 -1.2582 -0.2092 -0.1322
  143TCq2    O5 2187   0.385   2.635  10.472 -0.3854 -0.8013 -0.4986
  143TCq2    O6 2188   0.346   2.423  10.483 -0.2441 -0.8431  0.9623
  143TCq2    H2 2189   0.132   2.357  10.581 -1.3958 -0.6625 -1.0571
  143TCq2    H3 2190   0.209   2.770  10.541 -1.1193  0.2409  0.2205
  143TCq2    H4 2191   4.558   2.641  10.713 -0.1975 -1.5194 -1.9168
  144MPD2     C 2192   1.802   1.398   0.854  0.5970 -0.4134  0.7981
  144MPD2    C1 2193   1.850   1.392   0.721  0.5975 -0.6903 -0.4557
  144MPD2    C2 2194   1.947   1.300   0.692 -0.3883 -0.6231 -0.2437
  144MPD2    C3 2195   2.014   1.236   0.799 -0.4742 -0.2402  0.3226
  144MPD2    C4 2196   1.968   1.243   0.928 -0.3422  0.4155  0.8616
  144MPD2    C5 2197   1.855   1.313   0.950 -0.1455  0.1374  0.5864
  144MPD2     H 2198   1.993   1.303   0.594 -1.4556  0.5693 -0.7209
  144MPD2    H1 2199   2.016   1.201   1.015 -2.9810 -0.1552  2.0442
  144MPD2    H2 2200   1.712   1.449   0.885  0.2637  1.1131 -2.7370
  144MPD2    H3 2201   1.811   1.312   1.049  0.5522 -1.1640  0.8824
  144MPD2     N 2202   2.137   1.169   0.780  0.7890  0.8063 -0.1112
  144MPD2    H5 2203   2.185   1.159   0.869  0.7214 -2.1912 -0.4384
  144MPD2    N1 2204   1.796   1.465   0.613  0.1622 -0.2551 -0.6403
  144MPD2    H7 2205   1.840   1.459   0.522 -0.0414 -1.2828 -0.6722
  145TCq2    C1 2206   2.192   1.122   0.666  0.2728  0.0908  0.1065
  145TCq2    O2 2207   2.137   1.103   0.561  0.0414 -0.0270  0.1543
  145TCq2    C2 2208   2.325   1.066   0.676  0.1147  0.2048 -0.0659
  145TCq2    C3 2209   2.362   0.968   0.587 -0.4229 -0.0683 -0.0070
  145TCq2    C4 2210   2.493   0.940   0.566 -0.2616  0.1966 -0.1791
  145TCq2    C5 2211   2.593   1.011   0.630  0.5358  0.5220  0.1119
  145TCq2    C6 2212   2.561   1.111   0.713 -0.7506 -0.1154  0.3363
  145TCq2    C7 2213   2.423   1.132   0.746  0.2506 -0.5594  0.0975
  145TCq2    C8 2214   2.657   1.221   0.738  0.3634 -0.0625  0.0379
  145TCq2    O4 2215   2.759   1.209   0.671  0.1833  0.6335 -0.1791
  145TCq2    C9 2216   2.542   0.833   0.481 -0.4719 -0.1966 -0.1737
  145TCq2    O5 2217   2.656   0.826   0.444 -0.3014 -0.2906  0.4313
  145TCq2    O6 2218   2.457   0.776   0.409 -0.0377  0.1341  0.2295
  145TCq2    H2 2219   2.286   0.904   0.544  0.5357 -2.7046  2.2854
  145TCq2    H3 2220   2.698   0.986   0.618  0.7057  0.3044  2.1105
  145TCq2    H4 2221   2.392   1.212   0.812  0.7573 -1.4341  1.3959
  146TMC2    C1 2222   3.062   4.697  12.264  0.1301  0.2222  0.1296
  146TMC2    C2 2223   2.977   4.681  12.161  0.6884  0.2540  0.3134
  146TMC2    C3 2224   3.013   4.600  12.061  0.0901 -0.1026 -0.3754
  146TMC2    C4 2225   3.179   4.623  12.273 -0.6559 -0.0985  0.3091
  146TMC2    C5 2226   3.199   4.530  12.173 -0.7806 -0.0412 -0.0168
  146TMC2    C6 2227   3.127   4.522  12.064 -0.3790  0.0413  0.1422
  146TMC2     C 2228   3.031   0.081  12.358 -0.4225 -0.3529 -0.1846
  146TMC2     O 2229   2.937   0.153  12.335  0.8937 -0.3931  0.1573
  146TMC2     H 2230   2.892   0.025  12.151 -1.1284 -2.1575 -0.3330
  146TMC2    H1 2231   3.260   4.648  12.341 -0.3946  0.2458 -0.1304
  146TMC2    H2 2232   3.158   4.463  11.979  2.1430  1.4383  0.1162
  146TMC2    C7 2233   3.328   4.464  12.174 -0.4135  0.2896  0.2069
  146TMC2    C8 2234   2.930   4.596  11.944 -0.1074 -0.0528 -0.3562
  146TMC2    O1 2235   3.371   4.430  12.069 -0.2157  0.3676 -0.0781
  146TMC2    O2 2236   2.961   4.553  11.836  0.4566  0.1224 -0.2661
  146TMC2    O5 2237   2.803   4.602  11.989  0.3160  0.5772  0.3988
  146TMC2    H5 2238   2.796   4.597  12.087 -0.7125  1.4519  0.3662
  147MPD2     C 2239   3.805   4.489  12.348  0.6935  0.1842 -0.3532
  147MPD2    C1 2240   3.721   4.493  12.462 -0.1956 -0.4224  0.2729
  147MPD2    C2 2241   3.587   4.488  12.433 -0.0958  0.0331 -0.6780
  147MPD2    C3 2242   3.534   4.470  12.310 -0.0747  0.5440  0.1419
  147MPD2    C4 2243   3.623   4.464  12.200 -1.7589  0.2107 -0.4441
  147MPD2    C5 2244   3.759   4.471  12.223 -0.8547 -0.0048  0.3692
  147MPD2     H 2245   3.518   4.495  12.517 -1.0187 -3.0456 -1.2073
  147MPD2    H1 2246   3.590   4.460  12.097  1.2556  1.1072 -1.4430
  147MPD2    H2 2247   3.913   4.491  12.360  0.6652 -3.3871  0.5382
  147MPD2    H3 2248   3.820   4.472  12.134 -1.2653  0.8123  0.0902
  147MPD2     N 2249   3.391   4.467  12.293  0.5789  0.0361  0.3975
  147MPD2    H5 2250   3.338   4.487  12.377 -0.5187  3.0706 -1.0106
  147MPD2    N1 2251   3.779   4.507  12.597 -0.2857 -0.2849 -0.0010
  147MPD2    H7 2252   3.880   4.518  12.605 -0.2238 -0.9861  0.1524
  148MPD2     C 2253   3.703   3.120  10.883 -0.2381 -0.7203  0.0540
  148MPD2    C1 2254   3.747   3.114  10.753  0.0394 -0.3438 -0.4261
  148MPD2    C2 2255   3.709   3.003  10.680  0.4458  0.3254 -0.0595
  148MPD2    C3 2256   3.619   2.907  10.728 -0.2448  0.4506 -0.5564
  148MPD2    C4 2257   3.568   2.926  10.858  0.2248 -0.3047  0.0291
  148MPD2    C5 2258   3.615   3.030  10.934  1.0625  1.3835 -0.4499
  148MPD2     H 2259   3.749   3.000  10.579 -1.1462 -2.4366 -0.6105
  148MPD2    H1 2260   3.500   2.855  10.902  0.2174 -0.3960 -0.1286
  148MPD2    H2 2261   3.745   3.190  10.954 -2.2226 -1.4664  1.9519
  148MPD2    H3 2262   3.577   3.036  11.035 -3.1966  0.6731 -1.9979
  148MPD2     N 2263   3.577   2.791  10.663  0.1504  0.8628  0.5593
  148MPD2    H5 2264   3.508   2.736  10.714  1.4546  0.6541  2.0976
  148MPD2    N1 2265   3.850   3.199  10.704  0.1280 -0.5546  0.4488
  148MPD2    H7 2266   3.885   3.177  10.611  0.0336  1.0255  0.0342
  149TCq2    C1 2267   3.900   3.306  10.762 -0.2782 -0.8517  0.0528
  149TCq2    O2 2268   3.867   3.367  10.859  0.1555  0.2459 -0.1550
  149TCq2    C2 2269   4.008   3.380  10.690  0.3756  0.1278  0.1364
  149TCq2    C3 2270   4.045   3.501  10.736 -0.2994 -0.1852 -0.4871
  149TCq2    C4 2271   4.150   3.562  10.680  0.2408  0.0388 -0.7881
  149TCq2    C5 2272   4.237   3.497  10.598  0.4762  0.3549 -0.6814
  149TCq2    C6 2273   4.209   3.369  10.561  0.1912 -0.0282  0.4595
  149TCq2    C7 2274   4.088   3.314  10.598 -0.7516  0.1217 -0.1323
  149TCq2    C8 2275   4.265   3.310  10.436  0.2074 -0.9014 -0.3387
  149TCq2    O4 2276   4.223   3.198  10.406 -0.2872 -0.1647  0.3047
  149TCq2    C9 2277   4.186   3.689  10.724 -0.0184  0.5075 -0.6622
  149TCq2    O5 2278   4.297   3.737  10.673 -0.2183 -0.3655 -0.2035
  149TCq2    O6 2279   4.124   3.739  10.823  0.0455 -0.6532 -0.2649
  149TCq2    H2 2280   3.986   3.559  10.807 -3.0009 -4.2008  0.5706
  149TCq2    H3 2281   4.335   3.534  10.569  0.5473  0.7833  0.1199
  149TCq2    H4 2282   4.063   3.212  10.568  0.1020  0.3088 -1.4491
  150MPD2     C 2283   0.332   3.104  11.795  0.3084 -0.0610  0.3523
  150MPD2    C1 2284   0.443   3.036  11.750  0.4447  0.1345 -1.0349
  150MPD2    C2 2285   0.560   3.115  11.731  0.3420 -0.0679 -0.9449
  150MPD2    C3 2286   0.556   3.257  11.734 -0.3167  0.5070  0.0131
  150MPD2    C4 2287   0.430   3.318  11.764 -0.2978  0.2197 -0.3111
  150MPD2    C5 2288   0.319   3.241  11.799  0.3450 -0.2555 -0.1848
  150MPD2     H 2289   0.657   3.074  11.706  1.0560  0.2693  1.3047
  150MPD2    H1 2290   0.414   3.425  11.764  0.7540  0.3709 -0.6746
  150MPD2    H2 2291   0.235   3.057  11.808  0.2643  0.1186  0.6716
  150MPD2    H3 2292   0.226   3.283  11.833 -0.2315 -0.7261 -1.1877
  150MPD2     N 2293   0.670   3.327  11.688  0.2610 -0.1626 -0.5875
  150MPD2    H5 2294   0.749   3.268  11.668 -0.1438  0.4501 -3.9548
  150MPD2    N1 2295   0.431   2.896  11.720 -0.3182 -0.1399  0.1771
  150MPD2    H7 2296   0.340   2.856  11.739 -0.6523 -0.0287 -1.1954
  151TCq2    C1 2297   0.683   3.463  11.680  0.3323 -0.3032 -0.0698
  151TCq2    O2 2298   0.589   3.545  11.680  0.0634 -0.0498 -0.1470
  151TCq2    C2 2299   0.813   3.519  11.649  1.2598  0.4915 -0.6197
  151TCq2    C3 2300   0.817   3.654  11.633 -0.1618 -0.3908  0.3616
  151TCq2    C4 2301   0.919   3.709  11.566  0.1465 -0.1186  0.8844
  151TCq2    C5 2302   1.013   3.633  11.507 -0.0145  0.4396 -0.0143
  151TCq2    C6 2303   1.014   3.498  11.532  0.1541  0.3049  0.5177
  151TCq2    C7 2304   0.916   3.438  11.607  0.3728  0.1925 -0.3259
  151TCq2    C8 2305   1.147   3.437  11.511 -0.1388  0.0465  0.5805
  151TCq2    O4 2306   1.219   3.477  11.423 -0.2288  0.1906  0.3914
  151TCq2    C9 2307   0.926   3.857  11.572  0.7251 -0.5954 -0.4079
  151TCq2    O5 2308   1.036   3.916  11.571 -0.2490 -0.4393 -0.6369
  151TCq2    O6 2309   0.817   3.912  11.598  0.4123 -0.2896 -0.3494
  151TCq2    H2 2310   0.745   3.714  11.687  0.3551  0.4486  0.1195
  151TCq2    H3 2311   1.096   3.679  11.456  0.7695 -0.8259  0.1224
  151TCq2    H4 2312   0.912   3.330  11.614  0.4524  0.2352  0.3064
  152MPD2     C 2313   0.691   2.530  12.637 -0.1731  0.0973  0.2233
  152MPD2    C1 2314   0.703   2.666  12.648  0.2470 -0.5801  0.4452
  152MPD2    C2 2315   0.595   2.740  12.598  0.0397 -0.3439 -0.4636
  152MPD2    C3 2316   0.486   2.682  12.549 -0.2191  0.3215 -0.3322
  152MPD2    C4 2317   0.470   2.546  12.541 -0.0698 -0.2316  0.2712
  152MPD2    C5 2318   0.573   2.475  12.589  0.0648  0.3788 -0.4441
  152MPD2     H 2319   0.595   2.848  12.601  0.6854 -0.3404 -0.5672
  152MPD2    H1 2320   0.384   2.491  12.506  0.3738 -1.5321  1.2423
  152MPD2    H2 2321   0.760   2.457  12.678 -0.3660 -0.8281 -1.0817
  152MPD2    H3 2322   0.574   2.367  12.582 -0.1173  0.5419 -2.8154
  152MPD2     N 2323   0.386   2.773  12.506  0.8523  0.2853 -0.1531
  152MPD2    H5 2324   0.402   2.873  12.513  1.0961  0.0911  2.0779
  152MPD2    N1 2325   0.824   2.718  12.706  0.6733  0.1925 -0.2801
  152MPD2    H7 2326   0.902   2.657  12.726  0.8547 -0.7076 -3.6678
  153TCq2    C1 2327   0.849   2.853  12.725 -0.4241  0.4859 -0.0776
  153TCq2    O2 2328   0.783   2.948  12.690 -0.7722  0.1539 -0.1874
  153TCq2    C2 2329   0.976   2.887  12.778  0.6295 -0.1815 -0.4499
  153TCq2    C3 2330   0.990   3.008  12.841 -0.2922  0.1239  0.7274
  153TCq2    C4 2331   1.115   3.047  12.883 -1.0221  1.1200  0.1773
  153TCq2    C5 2332   1.223   2.959  12.868 -0.0086 -0.6047 -0.1195
  153TCq2    C6 2333   1.211   2.843  12.799 -0.0758 -0.2789  0.3839
  153TCq2    C7 2334   1.088   2.810  12.742  0.0281  0.5537 -0.0425
  153TCq2    C8 2335   1.327   2.755  12.782 -0.0158 -0.5921  0.2376
  153TCq2    O4 2336   1.327   2.681  12.688  0.4439 -0.2988  0.4828
  153TCq2    C9 2337   1.135   3.167  12.966  0.3057  0.4392  0.7119
  153TCq2    O5 2338   1.257   3.191  12.983  0.5943  0.6459  0.6417
  153TCq2    O6 2339   1.039   3.231  13.011  0.0693 -0.5610  0.3097
  153TCq2    H2 2340   0.911   3.072  12.880 -0.5956 -0.3443  0.8867
  153TCq2    H3 2341   1.321   2.983  12.909 -0.4094  0.0667  0.4360
  153TCq2    H4 2342   1.080   2.724  12.676  0.3184 -0.3360  1.0921
  154MPD2     C 2343   2.723   2.677   0.188 -0.9246 -0.1757 -0.4635
  154MPD2    C1 2344   2.760   2.731   0.313 -0.1857  0.1576  0.2131
  154MPD2    C2 2345   2.686   2.823   0.380 -0.1657 -0.0641  0.3221
  154MPD2    C3 2346   2.571   2.873   0.316 -0.1337 -0.0628  0.4881
  154MPD2    C4 2347   2.534   2.820   0.199 -0.1655 -0.5413  0.2017
  154MPD2    C5 2348   2.610   2.730   0.127  0.2824 -0.0652 -1.3610
  154MPD2     H 2349   2.720   2.860   0.476 -2.0798 -0.6815  1.2450
  154MPD2    H1 2350   2.446   2.857   0.148  0.7674 -0.9850 -1.7120
  154MPD2    H2 2351   2.785   2.603   0.139  2.6263  0.5227  2.9829
  154MPD2    H3 2352   2.576   2.686   0.034 -0.4818 -1.5557 -0.3879
  154MPD2     N 2353   2.497   2.968   0.386  0.7170  0.0520 -0.0844
  154MPD2    H5 2354   2.552   2.992   0.468  1.1402 -1.3921  0.0590
  154MPD2    N1 2355   2.887   2.681   0.358 -0.1252  0.3984 -0.1020
  154MPD2    H7 2356   2.930   2.618   0.292  0.8129  0.9039  0.0338
  155TCq2    C1 2357   2.956   2.711   0.471  0.1843 -0.2794  0.3164
  155TCq2    O2 2358   2.919   2.779   0.564 -0.8761 -0.2726 -0.4241
  155TCq2    C2 2359   3.056   2.616   0.482 -0.3083 -0.1836  0.0926
  155TCq2    C3 2360   3.081   2.576   0.609  0.2525 -0.6069 -1.0143
  155TCq2    C4 2361   3.205   2.533   0.651  0.1009  0.3569 -0.0356
  155TCq2    C5 2362   3.305   2.524   0.557 -0.3993 -0.1516  0.3518
  155TCq2    C6 2363   3.271   2.559   0.425 -1.2009  0.1780  0.1901
  155TCq2    C7 2364   3.149   2.603   0.381 -0.5571  0.3281  0.5826
  155TCq2    C8 2365   3.394   2.574   0.335 -0.2066 -0.6737 -0.4060
  155TCq2    O4 2366   3.502   2.569   0.389 -0.2257  0.2187 -0.3640
  155TCq2    C9 2367   3.227   2.486   0.778  0.5864 -0.9739  0.4759
  155TCq2    O5 2368   3.161   2.531   0.879 -0.4823 -0.0166  0.2286
  155TCq2    O6 2369   3.321   2.404   0.784  0.2787  0.1176 -0.1737
  155TCq2    H2 2370   2.997   2.554   0.675  2.2887 -0.9989  1.4561
  155TCq2    H3 2371   3.407   2.494   0.580 -1.4231 -0.0667  4.8540
  155TCq2    H4 2372   3.137   2.631   0.277  3.5040  1.4513  0.3793
  156MPD2     C 2373   1.527   0.546  12.205  0.4967  0.6738  0.5097
  156MPD2    C1 2374   1.436   0.573  12.099 -0.0021  0.0750 -0.6087
  156MPD2    C2 2375   1.304   0.615  12.141 -0.5843 -0.4319  0.4721
  156MPD2    C3 2376   1.265   0.625  12.271 -0.4091 -0.1313  0.5373
  156MPD2    C4 2377   1.356   0.587  12.365 -0.0175 -0.2796 -0.2423
  156MPD2    C5 2378   1.491   0.560  12.335 -0.0595  0.3665  0.2421
  156MPD2     H 2379   1.223   0.630  12.070 -0.2752  0.4293  0.2994
  156MPD2    H1 2380   1.325   0.595  12.469  0.5606 -2.1660  0.0706
  156MPD2    H2 2381   1.629   0.513  12.187 -0.4838 -1.8244 -0.3832
  156MPD2    H3 2382   1.559   0.548  12.418 -0.2875  1.3740  0.5737
  156MPD2     N 2383   1.131   0.667  12.301 -0.1475 -0.2426  0.0416
  156MPD2    H5 2384   1.069   0.683  12.222 -0.8625  0.0212  0.6536
  156MPD2    N1 2385   1.471   0.532  11.968 -0.0888  0.0466 -0.1153
  156MPD2    H7 2386   1.557   0.479  11.962 -0.4982 -0.7948  1.5654
  157TCq2    C1 2387   1.380   0.538  11.856 -0.2671  0.1569  0.2926
  157TCq2    O2 2388   1.268   0.584  11.848 -0.1528  0.1462 -0.0189
  157TCq2    C2 2389   1.411   0.440  11.756 -0.1675 -0.9063  0.1945
  157TCq2    C3 2390   1.492   0.335  11.794  0.8742  0.2589 -0.0132
  157TCq2    C4 2391   1.474   0.207  11.738  0.7898 -0.1757 -0.9591
  157TCq2    C5 2392   1.357   0.187  11.670 -0.1012  0.1520 -0.4503
  157TCq2    C6 2393   1.277   0.288  11.631 -0.3449  0.4990 -0.4747
  157TCq2    C7 2394   1.308   0.419  11.669  0.0694  0.3890 -0.0772
  157TCq2    C8 2395   1.140   0.263  11.644 -0.1394 -0.4464  0.4586
  157TCq2    O4 2396   1.108   0.173  11.718  0.2481 -0.5365  0.2241
  157TCq2    C9 2397   1.546   0.100  11.789 -0.2940  0.7947  0.0467
  157TCq2    O5 2398   1.650   0.139  11.847 -0.3986  0.5147  0.2909
  157TCq2    O6 2399   1.532   4.708  11.742 -0.5993 -0.7807  0.0897
  157TCq2    H2 2400   1.579   0.342  11.859  1.6984 -2.6104 -0.8198
  157TCq2    H3 2401   1.335   0.081  11.658 -1.2951  0.3037  0.3806
  157TCq2    H4 2402   1.247   0.506  11.648  0.0274  0.6900  1.3031
  158TMC2    C1 2403   1.353   4.152  14.705 -0.7165  0.1306 -0.4332
  158TMC2    C2 2404   1.384   4.271  14.769  0.5961  0.7354  0.3043
  158TMC2    C3 2405   1.338   4.386  14.714  0.8734 -0.6390 -0.0625
  158TMC2    C4 2406   1.282   4.149  14.590  0.0763 -0.0985  1.2117
  158TMC2    C5 2407   1.247   4.265  14.533  0.5681 -0.1818  0.0292
  158TMC2    C6 2408   1.283   4.381  14.592  0.3175  0.4776  0.1474
  158TMC2     C 2409   1.413   4.036  14.755 -0.0474 -0.8994  0.3322
  158TMC2     O 2410   1.454   4.049  14.868 -0.6703  0.0843 -0.9312
  158TMC2     H 2411   1.448   4.271  14.856  1.7745  1.2100 -0.5648
  158TMC2    H1 2412   1.246   4.052  14.557 -0.8734  0.1496  1.5256
  158TMC2    H2 2413   1.248   4.474  14.549 -1.0344 -0.2535 -0.3127
  158TMC2    C7 2414   1.192   4.283  14.397  0.1503  1.0001 -1.0955
  158TMC2    C8 2415   1.405   4.515  14.746 -0.0578  0.5742 -0.7743
  158TMC2    O1 2416   1.160   4.395  14.358 -0.0658  0.2185 -0.6757
  158TMC2    O2 2417   1.469   4.560  14.648  0.7763 -0.4190  0.4419
  158TMC2    O5 2418   1.452   4.513  14.869 -0.5217  0.2787  0.1823
  158TMC2    H5 2419   1.384   4.471  14.926  0.1141  0.7446  1.2713
  159MPD2     C 2420   1.651   3.588  14.757 -0.2471  0.3268 -0.3054
  159MPD2    C1 2421   1.558   3.588  14.653  0.1595 -0.9639 -0.0237
  159MPD2    C2 2422   1.489   3.703  14.619 -0.0571 -0.5692  0.5926
  159MPD2    C3 2423   1.497   3.812  14.707 -0.1880 -0.3845  0.0237
  159MPD2    C4 2424   1.576   3.805  14.821  1.0602 -0.1082  0.0739
  159MPD2    C5 2425   1.648   3.690  14.851  0.4601  0.2431 -0.3024
  159MPD2     H 2426   1.427   3.722  14.532 -0.9444 -4.3813  0.4075
  159MPD2    H1 2427   1.599   3.880  14.896 -0.4167 -1.0814  1.5063
  159MPD2    H2 2428   1.707   3.499  14.783 -0.3565  0.0780 -0.9229
  159MPD2    H3 2429   1.715   3.685  14.935 -0.1615 -1.3538  0.0982
  159MPD2     N 2430   1.431   3.931  14.671  0.0846 -0.1218  0.0058
  159MPD2    H5 2431   1.383   3.934  14.582 -2.1967 -0.4142  1.2388
  159MPD2    N1 2432   1.554   3.470  14.580  0.3782  0.6063 -0.1717
  159MPD2    H7 2433   1.605   3.390  14.617 -0.2719  0.7725  1.0446
  160TMC2    C1 2434   0.914   2.284   1.102 -0.4250 -0.7667 -0.6045
  160TMC2    C2 2435   0.971   2.162   1.113 -0.4551 -0.1918 -0.7300
  160TMC2    C3 2436   1.096   2.149   1.054 -0.0449 -0.6607  0.0096
  160TMC2    C4 2437   0.976   2.386   1.035  0.1786  0.1945 -0.7075
  160TMC2    C5 2438   1.105   2.381   0.999 -0.6858  0.1823  0.7980
  160TMC2    C6 2439   1.164   2.255   0.997  0.4228  0.3116 -0.2441
  160TMC2     C 2440   0.777   2.287   1.137 -0.1966  0.0862 -0.2205
  160TMC2     O 2441   0.716   2.181   1.140 -0.2215 -0.5852  0.4063
  160TMC2     H 2442   0.923   2.085   1.172  0.1065  0.4053  0.5026
  160TMC2    H1 2443   0.936   2.485   1.019  1.5303  0.8353 -0.1473
  160TMC2    H2 2444   1.267   2.242   0.966  0.1286 -1.1137 -0.6321
  160TMC2    C7 2445   1.141   2.457   0.884 -1.0913 -0.2449 -0.1494
  160TMC2    C8 2446   1.173   2.031   1.068  0.1391 -0.6160  0.5770
  160TMC2    O1 2447   1.050   2.512   0.824  0.1698  0.4672 -0.0539
  160TMC2    O2 2448   1.294   2.042   1.049 -0.2454  0.3697  0.1606
  160TMC2    O5 2449   1.102   1.929   1.121  0.1677  0.4902 -0.3881
  160TMC2    H5 2450   1.006   1.934   1.102 -0.2318 -1.7436  0.9902
  161MPD2     C 2451   0.515   2.349   1.248 -0.1131  0.5841  0.2762
  161MPD2    C1 2452   0.601   2.444   1.199  0.4727 -1.0534  0.0188
  161MPD2    C2 2453   0.564   2.579   1.202  0.3970  0.2733  0.1285
  161MPD2    C3 2454   0.443   2.623   1.246 -0.3609 -0.2485  0.5474
  161MPD2    C4 2455   0.356   2.527   1.278 -0.1077  0.7084  0.3282
  161MPD2    C5 2456   0.392   2.395   1.281 -1.0850  0.0706 -0.5299
  161MPD2     H 2457   0.643   2.639   1.158  0.4483  0.9382  1.1288
  161MPD2    H1 2458   0.253   2.546   1.306 -0.0101  2.8955 -0.8750
  161MPD2    H2 2459   0.529   2.242   1.251  0.0999  0.6293  0.9908
  161MPD2    H3 2460   0.322   2.327   1.328 -0.6560  0.5219  0.7591
  161MPD2     N 2461   0.400   2.753   1.258  0.0629 -0.3709 -0.0810
  161MPD2    H5 2462   0.306   2.769   1.293  0.4580 -0.0654  0.8314
  161MPD2    N1 2463   0.731   2.415   1.147  0.2438  0.6669  0.6950
  161MPD2    H7 2464   0.797   2.490   1.130 -0.2028  0.8389 -0.2860
  162TMC2    C1 2465   2.774   3.875   0.927 -0.9487  0.3206 -0.2044
  162TMC2    C2 2466   2.642   3.868   0.886  0.4611 -0.5477  0.1684
  162TMC2    C3 2467   2.545   3.844   0.980  0.2145  0.8249  0.0171
  162TMC2    C4 2468   2.805   3.879   1.057  0.4437  0.4245 -0.1239
  162TMC2    C5 2469   2.709   3.862   1.152 -0.7834 -0.6377 -0.1077
  162TMC2    C6 2470   2.575   3.842   1.117 -0.2931  0.1472 -0.2865
  162TMC2     C 2471   2.882   3.909   0.834  0.0604 -0.7648  0.2303
  162TMC2     O 2472   2.986   3.956   0.877  0.1270  0.0970 -0.4522
  162TMC2     H 2473   2.615   3.879   0.782  1.6875  0.1182 -0.0823
  162TMC2    H1 2474   2.909   3.882   1.090 -0.2177 -1.9419  2.1646
  162TMC2    H2 2475   2.497   3.828   1.191 -2.0403 -0.4876 -2.2478
  162TMC2    C7 2476   2.731   3.879   1.291 -0.1458  0.0871 -0.4734
  162TMC2    C8 2477   2.416   3.820   0.927  0.1076  0.6169  0.1825
  162TMC2    O1 2478   2.634   3.889   1.359  0.5116 -0.2297 -0.2944
  162TMC2    O2 2479   2.368   3.899   0.843  0.1460  0.5027  0.4432
  162TMC2    O5 2480   2.350   3.757   1.033  0.1935  0.1885  0.4184
  162TMC2    H5 2481   2.413   3.714   1.095  0.3445 -0.4817 -0.1921
  163MPD2     C 2482   3.035   4.025   0.351 -0.0620  0.7704  0.6629
  163MPD2    C1 2483   3.100   4.039   0.470 -0.7681  0.3096  0.1164
  163MPD2    C2 2484   3.043   3.987   0.586  0.2124  0.5875 -0.3048
  163MPD2    C3 2485   2.917   3.940   0.587  0.5286  0.7849  0.3288
  163MPD2    C4 2486   2.853   3.924   0.469  0.4881 -0.9032 -0.0676
  163MPD2    C5 2487   2.910   3.961   0.349  0.6965 -0.4211 -0.5134
  163MPD2     H 2488   3.099   3.988   0.679  0.5463  2.9273 -0.5386
  163MPD2    H1 2489   2.749   3.893   0.466 -0.4418  2.2281 -0.3503
  163MPD2    H2 2490   3.087   4.042   0.257 -1.4628  1.2789 -0.0327
  163MPD2    H3 2491   2.858   3.950   0.255  0.9605  0.9722 -0.8224
  163MPD2     N 2492   2.852   3.885   0.700 -0.0054  0.2564  0.3193
  163MPD2    H5 2493   2.776   3.818   0.695  1.7087 -1.5320 -1.5197
  163MPD2    N1 2494   3.228   4.104   0.465 -0.2096 -0.7968  0.4285
  163MPD2    H7 2495   3.260   4.137   0.374 -1.9640  1.0098  0.4604
  164TCq2    C1 2496   4.485   3.166  11.368 -0.1970  0.0618  0.0811
  164TCq2    O2 2497   4.375   3.120  11.397  0.3096 -0.2422 -0.3451
  164TCq2    C2 2498   4.499   3.308  11.373 -0.1629 -0.0329  0.4755
  164TCq2    C3 2499   4.583   3.374  11.281  0.2142  0.0216  0.2709
  164TCq2    C4 2500   4.585   3.512  11.281 -0.0829  0.7926  0.7413
  164TCq2    C5 2501   4.492   3.580  11.352  0.0644 -0.6557 -0.3386
  164TCq2    C6 2502   4.405   3.515  11.434 -0.7492  0.8590 -0.4103
  164TCq2    C7 2503   4.409   3.378  11.442  0.1215  0.9003 -0.0728
  164TCq2    C8 2504   4.321   3.586  11.528 -0.0835 -0.3085  0.1508
  164TCq2    O4 2505   4.322   3.551  11.644 -0.4750 -0.5405 -0.4810
  164TCq2    C9 2506   4.657   3.593  11.181  0.2992 -0.0984  0.0515
  164TCq2    O5 2507   4.641   3.716  11.182  0.1721 -0.0444 -0.0359
  164TCq2    O6 2508   4.680   3.524  11.078  0.4159 -0.7060  0.3856
  164TCq2    H2 2509   4.649   3.312  11.222 -0.3166  0.7263 -1.0782
  164TCq2    H3 2510   4.507   3.686  11.368 -1.6128 -0.1534 -2.1597
  164TCq2    H4 2511   4.356   3.327  11.521  0.3557 -1.5834 -1.5162
  165MPD2     C 2512   0.210   1.176   1.374  0.1192 -0.0599 -0.2427
  165MPD2    C1 2513   0.282   1.165   1.496  0.6491  0.2584 -0.1233
  165MPD2    C2 2514   0.328   1.278   1.555 -0.1594  0.6538 -0.4724
  165MPD2    C3 2515   0.298   1.407   1.503  0.3199  0.3057  0.7760
  165MPD2    C4 2516   0.222   1.417   1.392 -0.0070  0.0393  0.2231
  165MPD2    C5 2517   0.176   1.301   1.325  0.3068  0.4518  0.5028
  165MPD2     H 2518   0.380   1.272   1.649  0.2414 -1.3892 -0.8339
  165MPD2    H1 2519   0.194   1.511   1.347 -0.3070  0.3757  1.1126
  165MPD2    H2 2520   0.165   1.091   1.324  0.3707 -0.2773 -0.0933
  165MPD2    H3 2521   0.125   1.304   1.229 -0.0106 -0.4482  0.6452
  165MPD2     N 2522   0.335   1.526   1.576 -0.3649 -0.0613  0.2269
  165MPD2    H5 2523   0.297   1.617   1.553  3.0089  0.6083 -2.6985
  165MPD2    N1 2524   0.316   1.031   1.542 -0.6142  0.0073  0.0295
  165MPD2    H7 2525   0.276   0.953   1.491 -2.0330 -0.0198  1.1844
  166TCq2    C1 2526   0.453   1.517   1.643  0.3651 -0.3068 -0.5669
  166TCq2    O2 2527   0.540   1.435   1.655  0.3834  0.3698 -0.3935
  166TCq2    C2 2528   0.487   1.644   1.693  0.8325  0.1084 -0.4811
  166TCq2    C3 2529   0.383   1.734   1.725 -0.1186  0.5741 -0.1082
  166TCq2    C4 2530   0.411   1.869   1.741 -0.1115  0.0958 -0.1137
  166TCq2    C5 2531   0.538   1.909   1.733 -0.1700 -0.3859  0.5924
  166TCq2    C6 2532   0.642   1.819   1.697 -0.1277 -0.2404  0.3171
  166TCq2    C7 2533   0.620   1.687   1.671  0.2016  0.4852 -0.4653
  166TCq2    C8 2534   0.767   1.865   1.636 -0.1225  0.6722 -0.1381
  166TCq2    O4 2535   0.867   1.791   1.649  0.0535  0.1585 -0.0937
  166TCq2    C9 2536   0.312   1.955   1.795  0.3845 -0.5146 -0.8646
  166TCq2    O5 2537   0.321   2.077   1.758  0.5801 -0.3275 -0.9199
  166TCq2    O6 2538   0.223   1.906   1.865  0.3205  0.0052 -0.3593
  166TCq2    H2 2539   0.283   1.697   1.741  0.3756 -1.3963 -1.5032
  166TCq2    H3 2540   0.565   2.007   1.772  1.3816 -0.5722  0.0055
  166TCq2    H4 2541   0.696   1.621   1.631 -1.1988 -0.5087 -1.5032
  167TMC2    C1 2542   3.220   3.914  12.801  0.3700 -0.3694  0.1169
  167TMC2    C2 2543   3.128   3.982  12.883 -0.2351 -0.8617  0.2205
  167TMC2    C3 2544   3.110   3.935  13.003  0.3059  0.3589  0.0143
  167TMC2    C4 2545   3.285   3.801  12.842  0.1906  0.6677  0.2325
  167TMC2    C5 2546   3.259   3.754  12.962 -0.1954  0.1606  0.3720
  167TMC2    C6 2547   3.173   3.819  13.047 -0.2524  0.5223 -0.2583
  167TMC2     C 2548   3.233   3.976  12.668 -0.3794  0.5346 -0.6993
  167TMC2     O 2549   3.207   4.094  12.655 -0.0077 -0.2774  0.5993
  167TMC2     H 2550   3.075   4.071  12.852 -1.5844 -0.3691  3.9546
  167TMC2    H1 2551   3.340   3.743  12.769  0.3525  0.2550  0.6793
  167TMC2    H2 2552   3.148   3.772  13.142  0.9516 -1.1488 -0.7617
  167TMC2    C7 2553   3.294   3.617  12.999  0.5913 -0.4919  0.4965
  167TMC2    C8 2554   3.033   4.001  13.112  0.0747  0.8990  0.0533
  167TMC2    O1 2555   3.223   3.561  13.083 -0.6846  0.2704 -0.5796
  167TMC2    O2 2556   2.985   3.927  13.197 -0.1816  0.3001 -0.1179
  167TMC2    O5 2557   2.971   4.110  13.063 -0.6731 -0.2018  0.1776
  167TMC2    H5 2558   3.026   4.180  13.022 -1.7005  1.4235  1.6163
  168MPD2     C 2559   3.250   4.034  12.385  0.2757 -0.2001  0.0971
  168MPD2    C1 2560   3.282   3.916  12.439 -0.1900 -0.5686 -0.0097
  168MPD2    C2 2561   3.314   3.804  12.365 -0.2201  0.2319 -0.2563
  168MPD2    C3 2562   3.338   3.816  12.234  0.2666 -0.2260 -0.1372
  168MPD2    C4 2563   3.309   3.932  12.179 -0.1305  0.7940 -0.9829
  168MPD2    C5 2564   3.277   4.049  12.257  0.0826 -0.0191 -0.0716
  168MPD2     H 2565   3.330   3.709  12.416 -0.5301 -0.6265 -1.7387
  168MPD2    H1 2566   3.324   3.944  12.072 -0.5242 -1.3554 -1.2603
  168MPD2    H2 2567   3.213   4.120  12.440 -0.1427  0.1752 -0.7728
  168MPD2    H3 2568   3.258   4.142  12.205  1.3410  0.5185  0.4172
  168MPD2     N 2569   3.382   3.704  12.154  0.7053  0.2147 -0.2490
  168MPD2    H5 2570   3.386   3.723  12.054 -2.2038 -0.1687 -0.4220
  168MPD2    N1 2571   3.276   3.885  12.577  0.5390  0.4010  0.4010
  168MPD2    H7 2572   3.288   3.789  12.607 -1.1640 -0.3074 -1.1084
  169MPD1     C 2573   0.483   2.528   9.318  0.6607  0.3366 -0.0697
  169MPD1    C1 2574   0.534   2.445   9.417  0.7060  0.6396  0.3776
  169MPD1    C2 2575   0.657   2.476   9.471 -0.8417  0.1976 -0.2533
  169MPD1    C3 2576   0.730   2.588   9.417  0.0567 -0.4101 -0.0548
  169MPD1    C4 2577   0.677   2.662   9.316 -0.0886  0.3410 -0.4168
  169MPD1    C5 2578   0.557   2.627   9.269 -0.1573 -0.8369 -0.0357
  169MPD1     H 2579   0.691   2.422   9.559  1.6018 -0.2871 -1.5034
  169MPD1    H1 2580   0.734   2.750   9.289  1.2105 -0.8927 -1.6722
  169MPD1    H2 2581   0.388   2.510   9.271 -0.1237 -1.1430  2.1095
  169MPD1    H3 2582   0.518   2.694   9.193 -1.2260 -0.4399  0.8635
  169MPD1     N 2583   0.854   2.609   9.479 -0.4567  0.7436  0.3205
  169MPD1    H5 2584   0.878   2.547   9.555  0.5731  0.7016 -0.0424
  169MPD1    N1 2585   0.471   2.327   9.453 -0.0176 -0.4238 -0.2385
  169MPD1    H6 2586   0.490   2.303   9.550  1.1896  0.1453 -0.3223
  169MPD1    H7 2587   0.370   2.321   9.447 -0.2236  4.2061 -1.0856
  170MPD1     C 2588   4.311   1.048  12.893  0.9747  0.0882 -0.0626
  170MPD1    C1 2589   4.312   1.184  12.905  0.4357 -0.1294  0.0679
  170MPD1    C2 2590   4.367   1.231  13.025  0.0090 -0.8181 -0.3161
  170MPD1    C3 2591   4.404   1.138  13.123  0.5708 -0.1618  0.5454
  170MPD1    C4 2592   4.383   1.003  13.113 -0.5652 -0.5512 -0.2095
  170MPD1    C5 2593   4.337   0.961  12.995  0.1403  0.8000  0.0561
  170MPD1     H 2594   4.367   1.336  13.049 -1.6746 -0.8933  0.0540
  170MPD1    H1 2595   4.410   0.924  13.182 -1.1854 -1.6951 -1.2994
  170MPD1    H2 2596   4.274   0.995  12.806 -0.5774 -1.8130  1.7643
  170MPD1    H3 2597   4.349   0.856  12.973  1.2762  0.7170  1.0710
  170MPD1     N 2598   4.463   1.191  13.239 -0.7460  0.0092  0.0515
  170MPD1    H5 2599   4.466   1.292  13.251 -1.3042  0.0498 -0.1215
  170MPD1    N1 2600   4.286   1.262  12.791 -0.6816  0.1792 -0.2225
  170MPD1    H6 2601   4.252   1.355  12.815  0.8433  1.1189 -1.6481
  170MPD1    H7 2602   4.199   1.221  12.757  0.8055 -2.3055 -1.0470
  171MPD1     C 2603   3.066   2.192  15.261  0.7384 -0.4807 -0.5084
  171MPD1    C1 2604   3.045   2.058  15.274  0.0614 -0.3756  0.4010
  171MPD1    C2 2605   3.099   2.005  15.384 -0.2627 -0.8344 -0.6894
  171MPD1    C3 2606   3.176   2.071  15.475  0.6366  0.0722  0.0564
  171MPD1    C4 2607   3.188   2.207  15.464 -0.2954  0.4388 -0.4889
  171MPD1    C5 2608   3.127   2.269  15.358  0.1583  0.4646  0.5443
  171MPD1     H 2609   3.077   1.901  15.407  0.8247 -0.9646 -0.2387
  171MPD1    H1 2610   3.240   2.268  15.536  1.5586 -1.0726 -0.5463
  171MPD1    H2 2611   3.037   2.258  15.180  0.4896 -1.3638 -1.1380
  171MPD1    H3 2612   3.138   2.376  15.341 -0.3943  0.6654  1.4362
  171MPD1     N 2613   3.237   2.010  15.583  1.0631  0.2352  0.0236
  171MPD1    H5 2614   3.283   2.066  15.655  2.9834 -0.7161 -0.4444
  171MPD1    N1 2615   2.981   1.979  15.172 -0.6094 -0.3514 -0.6274
  171MPD1    H6 2616   2.949   2.024  15.086 -0.6720 -0.1738 -0.5098
  171MPD1    H7 2617   2.932   1.892  15.194 -0.5998 -0.0811  0.4565
  172MPD1     C 2618   3.241   1.804   1.009 -0.8205  0.3937 -0.1695
  172MPD1    C1 2619   3.199   1.933   1.057 -1.3814 -0.3204  0.3860
  172MPD1    C2 2620   3.135   2.013   0.970  0.3199 -0.1113 -0.1495
  172MPD1    C3 2621   3.094   1.971   0.844 -0.2306  0.5757  0.1721
  172MPD1    C4 2622   3.127   1.843   0.803 -0.6677  0.0925 -0.0146
  172MPD1    C5 2623   3.199   1.765   0.887 -0.1956 -0.2285 -0.7478
  172MPD1     H 2624   3.107   2.112   1.006 -1.5389 -0.4745 -0.6257
  172MPD1    H1 2625   3.101   1.812   0.703  0.6107 -3.6080  0.7975
  172MPD1    H2 2626   3.299   1.734   1.068  1.3062  1.5917 -0.8611
  172MPD1    H3 2627   3.225   1.662   0.863  1.7647 -0.3445  1.8829
  172MPD1     N 2628   3.027   2.062   0.758 -0.7608  0.4933 -0.3194
  172MPD1    H5 2629   3.002   2.018   0.670  3.2492  0.2343 -1.3500
  172MPD1    N1 2630   3.253   1.981   1.177 -1.1423  0.1085  0.0553
  172MPD1    H6 2631   3.241   1.906   1.245 -2.2402  0.0796 -0.1647
  172MPD1    H7 2632   3.197   2.061   1.210 -2.1297 -0.4412 -0.2950
  173MPD1     C 2633   3.806   1.990  14.122 -0.8531 -0.1482 -0.4701
  173MPD1    C1 2634   3.706   1.911  14.064  0.6485 -0.3382 -0.3910
  173MPD1    C2 2635   3.621   1.846  14.154  0.2534 -0.1264 -0.8220
  173MPD1    C3 2636   3.660   1.834  14.287  0.6225  0.3689  0.1930
  173MPD1    C4 2637   3.758   1.915  14.338  0.3052  0.0772  0.8312
  173MPD1    C5 2638   3.830   1.990  14.255 -0.6713 -0.0366  0.8613
  173MPD1     H 2639   3.538   1.783  14.124  0.2762 -0.0713 -0.9990
  173MPD1    H1 2640   3.782   1.914  14.444 -0.2389  1.0575  0.9657
  173MPD1    H2 2641   3.874   2.051  14.063 -0.1248  0.2955  0.8233
  173MPD1    H3 2642   3.913   2.054  14.284 -0.3653 -0.0137 -0.0902
  173MPD1     N 2643   3.591   1.741  14.368  0.3821  0.0943  0.5722
  173MPD1    H5 2644   3.508   1.703  14.325 -0.1459  2.0020 -0.1135
  173MPD1    N1 2645   3.680   1.934  13.927  0.1090  0.2759  0.4196
  173MPD1    H6 2646   3.770   1.928  13.881 -0.6652  1.5146 -1.2628
  173MPD1    H7 2647   3.619   1.858  13.895  0.8744  0.3064 -1.1113
  174MPD1     C 2648   3.251   0.809  14.439  1.1065 -0.2342  0.0795
  174MPD1    C1 2649   3.249   0.908  14.348  0.0441 -0.2424  0.2083
  174MPD1    C2 2650   3.279   1.039  14.391  0.1089  0.4942  0.0226
  174MPD1    C3 2651   3.296   1.073  14.525 -0.2516 -0.5471  0.0161
  174MPD1    C4 2652   3.290   0.969  14.611  0.0444  0.1442  0.6049
  174MPD1    C5 2653   3.261   0.841  14.572 -0.7655  0.3440  0.4607
  174MPD1     H 2654   3.268   1.122  14.323  0.9818 -1.3835 -2.3986
  174MPD1    H1 2655   3.304   0.985  14.717  3.2648  0.1367  0.1755
  174MPD1    H2 2656   3.248   0.703  14.417 -0.2228 -0.5931  1.9643
  174MPD1    H3 2657   3.274   0.765  14.649  1.8426  2.0608  1.7286
  174MPD1     N 2658   3.330   1.200  14.571 -0.1314  0.1256 -0.0098
  174MPD1    H5 2659   3.355   1.204  14.670 -1.1020  0.3102  0.2328
  174MPD1    N1 2660   3.249   0.867  14.214  0.0764 -0.1927 -0.2061
  174MPD1    H6 2661   3.205   0.935  14.152  1.4297 -0.2138 -1.1845
  174MPD1    H7 2662   3.212   0.773  14.203 -0.7702  0.5018 -3.1513
  175MPD1     C 2663   2.595   2.453  15.788 -0.1640 -0.0471 -0.3191
  175MPD1    C1 2664   2.459   2.486  15.787  0.1955  0.6540  0.2538
  175MPD1    C2 2665   2.391   2.490  15.909  0.0796  0.5403  0.3505
  175MPD1    C3 2666   2.453   2.465  16.031 -0.4809 -0.0331  0.1090
  175MPD1    C4 2667   2.587   2.436  16.029 -0.4740 -0.4400 -1.0181
  175MPD1    C5 2668   2.656   2.425  15.911  0.3675  0.1267 -0.1700
  175MPD1     H 2669   2.287   2.519  15.905 -0.0802 -0.3389 -1.4793
  175MPD1    H1 2670   2.645   2.442  16.121 -0.4628  2.5083 -1.2182
  175MPD1    H2 2671   2.661   2.456  15.701  0.3166  1.3251  0.0865
  175MPD1    H3 2672   2.764   2.417  15.921 -0.0039 -1.5598  2.4667
  175MPD1     N 2673   2.384   2.468  16.155  0.0304 -0.6396 -0.2148
  175MPD1    H5 2674   2.437   2.425  16.231  0.4495  0.6196  0.2075
  175MPD1    N1 2675   2.390   2.487  15.666  0.4216  0.0582  0.0582
  175MPD1    H6 2676   2.447   2.531  15.594  1.4487  1.4533  1.7344
  175MPD1    H7 2677   2.309   2.548  15.678  1.1028  0.4692  2.4994
  176MPD1     C 2678   3.578   0.099  16.276  0.0481 -0.0742  0.1352
  176MPD1    C1 2679   3.459   0.072  16.329 -0.4505  0.2805 -0.2484
  176MPD1    C2 2680   3.446   4.699  16.424 -0.4521 -0.3298  0.9052
  176MPD1    C3 2681   3.556   4.630  16.465  0.4111  0.1870 -0.0101
  176MPD1    C4 2682   3.678   4.663  16.407  1.1029  0.0682 -0.2270
  176MPD1    C5 2683   3.690   0.033  16.311 -0.4258 -0.6761  0.1200
  176MPD1     H 2684   3.348   4.685  16.468 -0.5674  0.5933  0.9373
  176MPD1    H1 2685   3.768   4.611  16.441  2.4783  2.6990  0.1669
  176MPD1    H2 2686   3.591   0.181  16.206  1.5089 -1.0152 -0.7167
  176MPD1    H3 2687   3.787   0.056  16.270 -0.0401  0.4708  1.6690
  176MPD1     N 2688   3.530   4.532  16.561 -0.4738 -0.4598 -0.2426
  176MPD1    H5 2689   3.440   4.524  16.608 -2.3376  0.6686 -3.6753
  176MPD1    N1 2690   3.348   0.158  16.307  0.5791  0.4278 -0.3346
  176MPD1    H6 2691   3.342   0.205  16.216  1.0181  0.0548 -0.5571
  176MPD1    H7 2692   3.259   0.112  16.324 -0.0620  1.7198 -0.1550
  177MPD1     C 2693   2.337   4.543   9.970  0.4444 -0.2152  0.2174
  177MPD1    C1 2694   2.384   4.445   9.892  0.3226  1.0063 -0.8146
  177MPD1    C2 2695   2.313   4.404   9.778 -0.1424 -0.5108  0.2122
  177MPD1    C3 2696   2.192   4.471   9.743 -0.4144  0.2687 -0.4747
  177MPD1    C4 2697   2.147   4.571   9.823 -0.0511 -0.2995 -0.0094
  177MPD1    C5 2698   2.218   4.610   9.937  0.5015  0.5788 -0.1862
  177MPD1     H 2699   2.358   4.323   9.721  0.1469 -1.2496  1.4986
  177MPD1    H1 2700   2.066   4.640   9.799 -0.7635 -1.7569 -1.7476
  177MPD1    H2 2701   2.382   4.562  10.067 -1.5923  3.2442  0.5062
  177MPD1    H3 2702   2.185   4.690  10.002 -3.9641  0.8709 -2.8367
  177MPD1     N 2703   2.129   4.422   9.627  0.0135  0.0220  0.3557
  177MPD1    H5 2704   2.165   4.335   9.588 -2.3693 -1.7935  2.1628
  177MPD1    N1 2705   2.496   4.378   9.932 -0.0498 -0.4709 -0.2346
  177MPD1    H6 2706   2.560   4.365   9.854 -1.2190  0.5529 -1.3541
  177MPD1    H7 2707   2.546   4.432  10.002  1.1080 -1.2935 -0.4339
  178MPD1     C 2708   4.204   0.055   0.327  0.3205  0.0530  0.4498
  178MPD1    C1 2709   4.280   0.163   0.357  0.1579 -0.4984  0.6103
  178MPD1    C2 2710   4.369   0.216   0.262 -0.1297 -0.4583 -0.3549
  178MPD1    C3 2711   4.367   0.164   0.133 -0.1579  0.1230 -0.3084
  178MPD1    C4 2712   4.276   0.066   0.098  0.3604  0.0117 -0.3530
  178MPD1    C5 2713   4.204   0.016   0.199 -0.3418  0.4576  0.4473
  178MPD1     H 2714   4.435   0.298   0.287 -2.4941  0.6308  2.2899
  178MPD1    H1 2715   4.256   0.035  17.690 -0.6593 -0.4980 -0.0095
  178MPD1    H2 2716   4.135   0.021   0.403  0.3209 -1.2950 -0.1553
  178MPD1    H3 2717   4.140   4.655   0.173 -0.6309  0.9827 -0.5041
  178MPD1     N 2718   4.439   0.216   0.026  0.3431 -0.4317 -0.1358
  178MPD1    H5 2719   4.413   0.201  17.623  0.8071  1.6146 -0.5943
  178MPD1    N1 2720   4.293   0.209   0.489 -0.5319  0.8655 -0.0840
  178MPD1    H6 2721   4.198   0.207   0.525 -0.6126 -2.1146 -0.4353
  178MPD1    H7 2722   4.312   0.308   0.480 -0.6168  0.9240  0.3937
  179MPD1     C 2723   4.150   3.535  16.498  0.5610 -0.6157 -0.1114
  179MPD1    C1 2724   4.015   3.578  16.475  0.2051 -0.3315  0.5818
  179MPD1    C2 2725   3.968   3.578  16.347  0.4196 -0.5067 -0.7475
  179MPD1    C3 2726   4.046   3.536  16.238 -0.6658 -0.0416  0.0413
  179MPD1    C4 2727   4.178   3.508  16.263 -1.0988 -0.3296  0.4058
  179MPD1    C5 2728   4.229   3.502  16.389  0.0413 -0.1518 -1.0091
  179MPD1     H 2729   3.862   3.593  16.328  0.7117  2.7681  0.1689
  179MPD1    H1 2730   4.249   3.488  16.183 -1.0364  1.1404  0.0853
  179MPD1    H2 2731   4.194   3.527  16.596 -0.3882 -2.5215  0.1724
  179MPD1    H3 2732   4.333   3.475  16.398  0.5191  1.7366 -0.8871
  179MPD1     N 2733   4.006   3.505  16.110  0.5298 -0.5194  0.2408
  179MPD1    H5 2734   4.073   3.473  16.041 -0.8277 -0.3865 -1.1439
  179MPD1    N1 2735   3.929   3.587  16.582  0.4771 -0.2755  0.0431
  179MPD1    H6 2736   3.857   3.655  16.560  1.0849  0.7809  1.3480
  179MPD1    H7 2737   3.968   3.600  16.675  1.5824  1.6150 -0.6849
  180MPD1     C 2738   0.222   0.697  15.064  0.8467  0.0171  0.4354
  180MPD1    C1 2739   0.103   0.736  15.011 -0.1890 -0.7662  0.1884
  180MPD1    C2 2740   0.028   0.630  14.957 -0.3707  0.6822 -0.0108
  180MPD1    C3 2741   0.074   0.500  14.957 -0.2206  0.1201 -0.1530
  180MPD1    C4 2742   0.197   0.471  15.011 -0.0156 -0.2620  0.1108
  180MPD1    C5 2743   0.266   0.571  15.073 -0.5582 -0.4056  0.4927
  180MPD1     H 2744   4.646   0.643  14.931 -0.1633  3.5167  0.5355
  180MPD1    H1 2745   0.241   0.372  15.018 -0.2736 -0.3606  0.2947
  180MPD1    H2 2746   0.278   0.780  15.107 -0.0769  1.8848 -1.9580
  180MPD1    H3 2747   0.363   0.547  15.116  0.7103  0.5910 -1.8174
  180MPD1     N 2748   4.712   0.412  14.891 -0.2190 -0.2439  0.1604
  180MPD1    H5 2749   4.617   0.435  14.866  0.4834  2.1082 -0.2789
  180MPD1    N1 2750   0.079   0.868  14.978 -0.3565 -0.5169  0.5273
  180MPD1    H6 2751   0.116   0.935  15.045  0.8032 -1.9613  1.3036
  180MPD1    H7 2752   4.701   0.881  14.976 -0.3712 -0.6155  0.6516
  181MPD1     C 2753   0.850   0.874   9.837  0.2105  1.1024  0.0759
  181MPD1    C1 2754   0.805   0.997   9.858  0.0166  0.3625 -0.1405
  181MPD1    C2 2755   0.884   1.090   9.927 -0.4203 -0.6255  0.1057
  181MPD1    C3 2756   1.002   1.043   9.982  0.1526 -0.0892 -0.2102
  181MPD1    C4 2757   1.042   0.913   9.967  0.6616  0.2390 -0.0552
  181MPD1    C5 2758   0.967   0.827   9.893  0.5334 -0.0390  0.0062
  181MPD1     H 2759   0.858   1.195   9.921 -0.3983 -0.7139 -1.5013
  181MPD1    H1 2760   1.135   0.877  10.010  1.2019 -0.0394 -1.4520
  181MPD1    H2 2761   0.785   0.812   9.777 -0.1871  2.6943 -1.1439
  181MPD1    H3 2762   1.007   0.727   9.878  2.1648  1.2126 -4.0993
  181MPD1     N 2763   1.106   1.125  10.038  0.1023 -0.6808  0.2763
  181MPD1    H5 2764   1.189   1.083  10.078  1.3610  1.4848 -0.0625
  181MPD1    N1 2765   0.684   1.036   9.791 -0.0741  0.0375  0.2245
  181MPD1    H6 2766   0.617   0.970   9.754 -0.1169  1.3584 -2.0328
  181MPD1    H7 2767   0.629   1.104   9.843  1.5798 -0.1594  2.2675
  182MPD1     C 2768   2.745   0.281   1.258  0.2941  0.2063  0.0606
  182MPD1    C1 2769   2.662   0.313   1.146 -0.1813  0.2949  0.2025
  182MPD1    C2 2770   2.563   0.405   1.170 -0.1530 -0.3660  0.1808
  182MPD1    C3 2771   2.526   0.450   1.296  0.1898 -0.0742  0.2103
  182MPD1    C4 2772   2.612   0.416   1.398  0.8108 -0.2949  0.7218
  182MPD1    C5 2773   2.715   0.337   1.380  0.0172  0.0557  0.1042
  182MPD1     H 2774   2.510   0.442   1.083 -0.2000 -1.2858 -0.1874
  182MPD1    H1 2775   2.583   0.454   1.495 -2.6484 -3.4376  0.9059
  182MPD1    H2 2776   2.823   0.206   1.256  0.4620  0.3360  1.4881
  182MPD1    H3 2777   2.773   0.312   1.468 -0.6666  1.3796  0.9117
  182MPD1     N 2778   2.412   0.534   1.318 -0.2445  0.2857  0.9580
  182MPD1    H5 2779   2.416   0.597   1.398  0.4970 -0.7377  1.7191
  182MPD1    N1 2780   2.695   0.266   1.018  0.7652 -0.8205 -0.3455
  182MPD1    H6 2781   2.760   0.189   1.027 -0.9689 -2.1774  0.4949
  182MPD1    H7 2782   2.609   0.250   0.965  0.0827 -0.5218  0.6656
  183MPD1     C 2783   3.109   1.039   9.015 -0.8371  0.6277  0.2647
  183MPD1    C1 2784   3.151   0.999   9.139  0.3343  0.9638 -0.5204
  183MPD1    C2 2785   3.065   1.014   9.242  0.0433 -0.6664  0.0908
  183MPD1    C3 2786   2.933   1.049   9.216  0.7536 -0.0102  0.8409
  183MPD1    C4 2787   2.887   1.073   9.085  0.5729 -0.2252 -0.1750
  183MPD1    C5 2788   2.979   1.073   8.985  0.0563 -0.4647  0.1651
  183MPD1     H 2789   3.090   0.996   9.346  1.9435  0.7617 -0.1243
  183MPD1    H1 2790   2.784   1.097   9.061  0.6075  0.7390  0.6576
  183MPD1    H2 2791   3.181   1.026   8.935 -0.8507  0.7961  0.2269
  183MPD1    H3 2792   2.946   1.090   8.883  1.3254 -0.6554 -0.2867
  183MPD1     N 2793   2.842   1.066   9.327  0.1786  0.5985 -0.1692
  183MPD1    H5 2794   2.884   1.059   9.419  0.7564 -0.3210 -0.4915
  183MPD1    N1 2795   3.286   0.968   9.158 -0.6060 -0.3878 -0.4406
  183MPD1    H6 2796   3.343   0.952   9.075  0.7580  0.4984  0.3201
  183MPD1    H7 2797   3.296   0.892   9.225 -1.9003  1.7025  2.1538
  184MPD1     C 2798   1.040   3.130  10.256 -0.1238  0.6992  0.0844
  184MPD1    C1 2799   1.144   3.188  10.330 -0.5530  0.3443  0.4108
  184MPD1    C2 2800   1.227   3.285  10.272  0.9426 -0.0645 -0.3023
  184MPD1    C3 2801   1.203   3.333  10.144 -0.9167 -0.3564  0.6536
  184MPD1    C4 2802   1.104   3.271  10.069 -0.5004  0.5081  0.5728
  184MPD1    C5 2803   1.010   3.182  10.128 -0.3579 -0.0694  0.4535
  184MPD1     H 2804   1.312   3.325  10.326  0.1039  0.6654  0.4774
  184MPD1    H1 2805   1.083   3.297   9.966 -2.5763  2.2185  1.4182
  184MPD1    H2 2806   0.974   3.056  10.301  2.3019  0.1745  2.7895
  184MPD1    H3 2807   0.929   3.147  10.065 -0.3983  1.0547 -0.1182
  184MPD1     N 2808   1.282   3.438  10.085 -0.0604 -0.4601 -0.3847
  184MPD1    H5 2809   1.269   3.453   9.985 -1.9396  3.6193  0.5015
  184MPD1    N1 2810   1.178   3.142  10.461 -0.3933 -0.1769 -0.0272
  184MPD1    H6 2811   1.186   3.227  10.517 -2.6903 -1.7222  2.6311
  184MPD1    H7 2812   1.102   3.085  10.496  0.2946 -0.9313  0.2382
  185MPD1     C 2813   1.440   3.875   9.217 -0.6150  0.2072  0.3296
  185MPD1    C1 2814   1.337   3.829   9.300  0.1165 -0.4463  0.2507
  185MPD1    C2 2815   1.368   3.786   9.424  0.3484  0.2971  0.6921
  185MPD1    C3 2816   1.499   3.776   9.463  0.1250 -0.3592 -0.5053
  185MPD1    C4 2817   1.599   3.824   9.384  0.4515 -0.1052  0.6621
  185MPD1    C5 2818   1.568   3.866   9.254  0.8045  0.0827 -0.3249
  185MPD1     H 2819   1.290   3.764   9.496 -0.0391 -0.5693  0.0155
  185MPD1    H1 2820   1.704   3.831   9.410  0.6079  0.6363 -0.1828
  185MPD1    H2 2821   1.427   3.905   9.113  1.4165  2.7562  0.7941
  185MPD1    H3 2822   1.645   3.896   9.184  1.2538 -1.0020 -0.3095
  185MPD1     N 2823   1.532   3.747   9.596 -0.5566 -0.2459  0.4104
  185MPD1    H5 2824   1.626   3.778   9.620 -1.9595  3.2799  1.3186
  185MPD1    N1 2825   1.206   3.815   9.243 -0.5121  0.0489 -0.1185
  185MPD1    H6 2826   1.128   3.825   9.308  0.4079 -0.8173  1.1299
  185MPD1    H7 2827   1.178   3.878   9.169  0.8658 -1.4528 -1.9120
  186MPD1     C 2828   3.770   3.914  16.054  0.2416  0.2570 -0.5245
  186MPD1    C1 2829   3.879   3.882  15.979  0.4219  0.0413 -0.4393
  186MPD1    C2 2830   4.006   3.884  16.043 -0.3351  0.6465  0.6995
  186MPD1    C3 2831   4.012   3.914  16.176 -0.3417  0.3420  0.4813
  186MPD1    C4 2832   3.898   3.932  16.250  0.1704 -0.0132  0.7567
  186MPD1    C5 2833   3.778   3.931  16.193 -0.4912 -0.5857 -0.0175
  186MPD1     H 2834   4.093   3.850  15.988  0.6228  1.1332  1.9236
  186MPD1    H1 2835   3.908   3.938  16.358 -2.3838 -1.2209  1.0888
  186MPD1    H2 2836   3.673   3.910  16.007  0.2592  1.5085 -0.6620
  186MPD1    H3 2837   3.690   3.931  16.255 -0.6215 -1.3381 -0.2001
  186MPD1     N 2838   4.132   3.918  16.245 -0.0423  0.0300 -0.1490
  186MPD1    H5 2839   4.119   3.936  16.344  1.7409 -3.5821  0.7247
  186MPD1    N1 2840   3.877   3.868  15.834 -0.0094 -0.5741 -0.0314
  186MPD1    H6 2841   3.790   3.836  15.792  0.2527  1.1511 -1.8876
  186MPD1    H7 2842   3.964   3.827  15.800 -0.0577 -1.3426  0.7753
  187MPD1     C 2843   3.333   0.419   0.817  0.3880  0.3573 -0.0662
  187MPD1    C1 2844   3.363   0.334   0.715 -0.5856  0.4049 -0.3099
  187MPD1    C2 2845   3.415   0.388   0.598 -0.1185  0.0987  0.4404
  187MPD1    C3 2846   3.412   0.520   0.573  0.0320  0.0851  0.4084
  187MPD1    C4 2847   3.376   0.606   0.672  0.1622  0.4478  0.3507
  187MPD1    C5 2848   3.341   0.556   0.798 -0.0289 -0.3240  0.3118
  187MPD1     H 2849   3.436   0.318   0.518 -0.6278 -0.7883  1.0871
  187MPD1    H1 2850   3.391   0.713   0.667  2.6687 -0.0576 -2.8494
  187MPD1    H2 2851   3.314   0.382   0.917  1.2356 -2.4175 -0.9435
  187MPD1    H3 2852   3.324   0.614   0.888  2.2056 -1.0731  1.2207
  187MPD1     N 2853   3.441   0.564   0.433  0.7711  0.4709 -0.3058
  187MPD1    H5 2854   3.448   0.664   0.415  0.1264  0.6155  0.2281
  187MPD1    N1 2855   3.369   0.193   0.733 -0.1726  0.0015 -0.3610
  187MPD1    H6 2856   3.360   0.153   0.640  1.9494 -1.3831  0.0373
  187MPD1    H7 2857   3.280   0.175   0.781  0.8972 -1.8484  0.9141
  188MPD1     C 2858   3.255   0.503   9.869 -0.5482 -0.4481 -0.1264
  188MPD1    C1 2859   3.268   0.436   9.989  1.2889 -0.1315 -0.2574
  188MPD1    C2 2860   3.309   0.306   9.978  0.6148 -0.1039  0.4599
  188MPD1    C3 2861   3.326   0.237   9.861  0.2533 -0.2073  0.0639
  188MPD1    C4 2862   3.288   0.302   9.744  0.5369 -0.5489 -0.7033
  188MPD1    C5 2863   3.275   0.440   9.750 -0.0277 -0.2496  1.2684
  188MPD1     H 2864   3.331   0.257  10.072 -0.6109 -1.9574 -0.2236
  188MPD1    H1 2865   3.318   0.261   9.648  0.0087  0.3735 -1.2684
  188MPD1    H2 2866   3.243   0.611   9.868 -2.4753 -0.6253  2.7368
  188MPD1    H3 2867   3.255   0.497   9.660  1.0941  0.2279  1.3095
  188MPD1     N 2868   3.349   0.097   9.852  0.1940  0.0251 -0.2916
  188MPD1    H5 2869   3.372   0.051   9.764 -0.9423 -0.7676 -0.1826
  188MPD1    N1 2870   3.261   0.509  10.108  0.3926  0.0432  0.2117
  188MPD1    H6 2871   3.203   0.592  10.101 -0.1403 -0.2316  1.2677
  188MPD1    H7 2872   3.233   0.447  10.184 -0.5576 -2.3034 -2.0573
  189MPD1     C 2873   0.581   0.784   0.634 -0.2825  0.5984  0.3669
  189MPD1    C1 2874   0.461   0.752   0.579  0.0495  0.3423  0.2955
  189MPD1    C2 2875   0.403   0.849   0.500 -0.8113 -0.1160  0.8685
  189MPD1    C3 2876   0.468   0.967   0.474  0.3801 -0.5950  0.6726
  189MPD1    C4 2877   0.585   1.001   0.536  0.2144 -0.3437 -0.7509
  189MPD1    C5 2878   0.649   0.905   0.610 -0.9948 -0.2588 -0.4852
  189MPD1     H 2879   0.304   0.845   0.457  0.3692 -1.7941 -1.6934
  189MPD1    H1 2880   0.637   1.094   0.518 -0.1756  0.2012  0.9033
  189MPD1    H2 2881   0.621   0.720   0.712  1.9671  0.0390 -1.2462
  189MPD1    H3 2882   0.746   0.921   0.655 -0.6420 -1.0515 -0.9655
  189MPD1     N 2883   0.405   1.049   0.386  0.0615  0.3425  0.0835
  189MPD1    H5 2884   0.321   1.012   0.341  0.6047 -1.0163  0.1948
  189MPD1    N1 2885   0.389   0.638   0.628 -0.4363  0.4897 -0.0267
  189MPD1    H6 2886   0.449   0.558   0.646 -0.4003  0.3751 -0.6756
  189MPD1    H7 2887   0.309   0.615   0.569 -0.9375 -0.7183  1.1338
  190MPD1     C 2888   4.459   0.155  16.729  0.0843 -0.0317  0.7946
  190MPD1    C1 2889   4.361   0.086  16.654  0.4772  0.5538  0.3368
  190MPD1    C2 2890   4.347   0.116  16.520  0.1364 -1.2352  0.3017
  190MPD1    C3 2891   4.432   0.205  16.455  0.6508 -0.1115  0.2779
  190MPD1    C4 2892   4.523   0.273  16.528 -0.7530  0.9089  0.9245
  190MPD1    C5 2893   4.535   0.250  16.663 -0.1092 -0.1128 -0.2495
  190MPD1     H 2894   4.276   0.062  16.459  0.4035 -0.5155 -0.6557
  190MPD1    H1 2895   4.577   0.353  16.480 -1.5689  0.6996 -0.3433
  190MPD1    H2 2896   4.481   0.143  16.834  0.5462 -2.4801  0.4151
  190MPD1    H3 2897   4.613   0.304  16.715  0.4983 -0.0755 -1.1990
  190MPD1     N 2898   4.427   0.213  16.316 -0.0529 -0.4146  0.3483
  190MPD1    H5 2899   4.336   0.204  16.272 -0.8141  1.5580  1.5113
  190MPD1    N1 2900   4.301   4.689  16.693  0.0700 -0.8986  0.0899
  190MPD1    H6 2901   4.276   4.692  16.791 -0.0410 -0.1998  0.0382
  190MPD1    H7 2902   4.220   4.652  16.643 -0.4274  1.1465 -0.6323
  191MPD1     C 2903   3.526   1.604  13.352  0.4932 -0.1312 -0.0435
  191MPD1    C1 2904   3.602   1.599  13.230  1.0088  0.1041  0.5101
  191MPD1    C2 2905   3.548   1.669  13.124 -0.1601 -0.0298  0.0764
  191MPD1    C3 2906   3.422   1.727  13.126 -0.2444 -0.1623 -0.0553
  191MPD1    C4 2907   3.347   1.713  13.240  0.6647  0.1031 -0.4711
  191MPD1    C5 2908   3.395   1.648  13.353 -0.5180  0.4072  0.5377
  191MPD1     H 2909   3.614   1.684  13.039 -1.5456 -2.9279 -1.5195
  191MPD1    H1 2910   3.243   1.742  13.250  0.7930  0.0333  0.9621
  191MPD1    H2 2911   3.552   1.561  13.448  1.5281  1.0209  0.1934
  191MPD1    H3 2912   3.330   1.640  13.440  0.1473 -0.2767  0.9819
  191MPD1     N 2913   3.373   1.797  13.012  0.3767 -0.1425 -0.1070
  191MPD1    H5 2914   3.442   1.796  12.938  0.8492  1.4051  0.3037
  191MPD1    N1 2915   3.737   1.560  13.227  0.2160  0.7575 -0.4302
  191MPD1    H6 2916   3.751   1.477  13.284 -1.7222  1.0612  0.4836
  191MPD1    H7 2917   3.777   1.538  13.136 -2.6492 -1.1307 -1.2651
  192MPD1     C 2918   2.522   2.106  12.387 -0.8687 -0.7004  0.5118
  192MPD1    C1 2919   2.542   1.980  12.436 -0.6536  0.9454 -0.9503
  192MPD1    C2 2920   2.673   1.945  12.486 -0.5772  0.5762  0.0307
  192MPD1    C3 2921   2.779   2.033  12.476  0.5347 -0.4603 -0.1045
  192MPD1    C4 2922   2.752   2.153  12.423  0.2816  0.3511  0.4644
  192MPD1    C5 2923   2.628   2.189  12.378  0.5776 -0.3266  0.1648
  192MPD1     H 2924   2.684   1.854  12.544  3.1876  0.5986 -0.6458
  192MPD1    H1 2925   2.832   2.224  12.405  0.0619  0.2283 -0.9480
  192MPD1    H2 2926   2.427   2.139  12.347 -0.8028 -2.2410 -0.9168
  192MPD1    H3 2927   2.624   2.287  12.333  1.8871 -1.1605 -1.7392
  192MPD1     N 2928   2.909   2.004  12.528  0.1195  0.5887 -0.3871
  192MPD1    H5 2929   2.973   2.079  12.504 -1.9428  2.1954 -0.8809
  192MPD1    N1 2930   2.431   1.889  12.457  1.1684  0.4472  0.2298
  192MPD1    H6 2931   2.459   1.797  12.422 -1.9596  1.0047 -3.7977
  192MPD1    H7 2932   2.348   1.915  12.404 -0.0620 -0.8731  1.5059
  193MPD1     C 2933   2.873   2.173  16.488 -0.4713 -0.2404 -0.3435
  193MPD1    C1 2934   2.921   2.286  16.419 -0.3096  0.0308  0.2585
  193MPD1    C2 2935   2.994   2.379  16.484  0.2757 -0.4149 -0.3756
  193MPD1    C3 2936   3.021   2.373  16.616  0.4785 -0.6243 -0.0102
  193MPD1    C4 2937   2.971   2.265  16.694  0.3249  0.4572  0.3583
  193MPD1    C5 2938   2.909   2.166  16.622  0.0696 -0.0678 -0.4535
  193MPD1     H 2939   3.027   2.464  16.427 -0.1893 -1.2909 -1.9460
  193MPD1    H1 2940   3.004   2.250  16.796  0.2384 -5.1279 -0.3917
  193MPD1    H2 2941   2.809   2.101  16.439  1.3101 -0.7888 -1.8894
  193MPD1    H3 2942   2.884   2.079  16.682 -2.4975  1.0632  0.1177
  193MPD1     N 2943   3.124   2.457  16.673 -0.3276  0.0913 -0.1270
  193MPD1    H5 2944   3.158   2.432  16.766 -1.8292  0.6213  0.5687
  193MPD1    N1 2945   2.882   2.304  16.283  0.0330 -0.2374  0.0989
  193MPD1    H6 2946   2.956   2.354  16.233 -0.1803  0.4396  0.4503
  193MPD1    H7 2947   2.866   2.213  16.241 -2.7136 -0.1951  1.0466
  194MPD1     C 2948   1.238   0.196  16.611  0.4874  0.3888 -0.0975
  194MPD1    C1 2949   1.333   0.100  16.613 -0.0635 -0.7519 -0.5043
  194MPD1    C2 2950   1.322   0.001  16.709 -0.3444  0.0130 -0.1962
  194MPD1    C3 2951   1.203   4.706  16.776 -0.7780  0.1997  0.4684
  194MPD1    C4 2952   1.092   0.071  16.759 -0.3201  0.5306  0.1489
  194MPD1    C5 2953   1.120   0.179  16.680 -0.7542  0.0324  0.4420
  194MPD1     H 2954   1.397   4.648  16.728  0.8524  0.7955 -1.7886
  194MPD1    H1 2955   0.992   0.055  16.796 -1.2709  0.5057 -2.4487
  194MPD1    H2 2956   1.243   0.276  16.539 -0.5633  1.4165  0.9824
  194MPD1    H3 2957   1.047   0.259  16.670  0.2348  0.8558 -0.2149
  194MPD1     N 2958   1.182   4.588  16.852 -0.1967 -0.5319  0.1269
  194MPD1    H5 2959   1.092   4.585  16.900  1.0932 -1.3992  2.4569
  194MPD1    N1 2960   1.451   0.119  16.539  0.3406 -0.0253 -0.4321
  194MPD1    H6 2961   1.442   0.190  16.467  0.1717  2.1309  1.7006
  194MPD1    H7 2962   1.477   0.032  16.493 -0.6631 -1.1255  1.0980
  195MPD1     C 2963   3.059   1.024  17.607  0.3976  0.5004  0.2298
  195MPD1    C1 2964   3.159   0.962  17.669 -0.4113 -0.4240  0.4720
  195MPD1    C2 2965   3.148   0.828   0.003 -0.1998  0.0497 -0.0922
  195MPD1    C3 2966   3.035   0.760  17.655 -0.7341 -1.0026 -0.0980
  195MPD1    C4 2967   2.940   0.827  17.586  0.5141  0.3210  0.0210
  195MPD1    C5 2968   2.948   0.966  17.561 -0.0058  0.1082 -0.0355
  195MPD1     H 2969   3.233   0.775   0.044  0.3379  0.4230 -0.7250
  195MPD1    H1 2970   2.846   0.788  17.550  1.4818 -2.2511  0.2406
  195MPD1    H2 2971   3.049   1.131  17.615 -0.7680  0.3989  0.0768
  195MPD1    H3 2972   2.867   1.019  17.513 -1.2489  0.6459  2.7006
  195MPD1     N 2973   3.029   0.618  17.652 -0.4169  0.0173 -0.0271
  195MPD1    H5 2974   2.953   0.574  17.600 -0.4775  0.3930 -0.2558
  195MPD1    N1 2975   3.273   1.038   0.022 -0.5829 -0.4903  0.3583
  195MPD1    H6 2976   3.307   1.112  17.655 -0.6310 -1.3816 -0.7516
  195MPD1    H7 2977   3.351   0.973   0.020  0.0929  0.3164  0.3161
  196MPD1     C 2978   2.220   0.067   0.396  0.2291 -0.3539 -0.6098
  196MPD1    C1 2979   2.250   0.201   0.384  0.1877  0.0334 -0.4072
  196MPD1    C2 2980   2.368   0.247   0.435  0.0605  0.0705  0.3946
  196MPD1    C3 2981   2.459   0.161   0.496 -0.0222 -0.3720 -0.0164
  196MPD1    C4 2982   2.432   0.030   0.503 -0.1960 -0.2262  0.2815
  196MPD1    C5 2983   2.314   4.703   0.446 -0.2351 -0.0070 -0.5661
  196MPD1     H 2984   2.381   0.354   0.431  4.5710 -0.5148 -0.3973
  196MPD1    H1 2985   2.493   4.674   0.544 -1.9031 -2.2772 -1.1014
  196MPD1    H2 2986   2.127   0.033   0.350 -0.5270  1.4367 -0.3778
  196MPD1    H3 2987   2.292   4.597   0.451  1.3040 -0.1425  3.0676
  196MPD1     N 2988   2.579   0.202   0.553 -0.2974 -0.0222  0.5505
  196MPD1    H5 2989   2.644   0.134   0.592  0.0904  0.5029  0.8313
  196MPD1    N1 2990   2.145   0.277   0.337 -0.1058 -0.0756  0.3749
  196MPD1    H6 2991   2.171   0.373   0.311 -1.2657  0.5049  1.3630
  196MPD1    H7 2992   2.084   0.221   0.277  1.1786  0.5421 -1.5344
  197MPD1     C 2993   2.205   2.454  17.627 -0.0227 -0.5443  0.4048
  197MPD1    C1 2994   2.238   2.573  17.682 -0.2080  0.4690  0.3539
  197MPD1    C2 2995   2.184   2.694  17.620  0.0423  0.0216 -0.5678
  197MPD1    C3 2996   2.104   2.688  17.510 -0.1048  0.2019 -0.3845
  197MPD1    C4 2997   2.069   2.566  17.452  0.1502 -0.2113 -0.3028
  197MPD1    C5 2998   2.123   2.450  17.513  0.3085  0.2576 -0.6159
  197MPD1     H 2999   2.200   2.791  17.666 -1.8748  0.1409 -0.1622
  197MPD1    H1 3000   1.999   2.561  17.369 -1.0909  0.0413  0.7488
  197MPD1    H2 3001   2.236   2.363  17.678  0.0447  0.3757  2.0010
  197MPD1    H3 3002   2.087   2.356  17.474 -1.5504  0.2773  1.0163
  197MPD1     N 3003   2.054   2.806  17.441  0.6430 -0.5427  0.0208
  197MPD1    H5 3004   1.992   2.784  17.364 -1.0622  3.3325  0.3049
  197MPD1    N1 3005   2.310   2.579   0.113 -0.6584 -0.1869 -0.4513
  197MPD1    H6 3006   2.338   2.675   0.135  0.7151 -0.3201 -1.6570
  197MPD1    H7 3007   2.389   2.515   0.115 -0.7912 -0.3145  0.4542
  198MPD1     C 3008   4.134   2.325  15.939 -0.4848 -0.7584  0.1086
  198MPD1    C1 3009   4.236   2.250  15.889  0.3672 -0.7331 -0.4792
  198MPD1    C2 3010   4.258   2.126  15.945  0.3828 -0.0318  0.9761
  198MPD1    C3 3011   4.186   2.078  16.059  0.1614 -0.2892 -0.2167
  198MPD1    C4 3012   4.073   2.145  16.087  0.5513  0.3509  0.0873
  198MPD1    C5 3013   4.045   2.271  16.034 -0.0883 -0.6412  0.4296
  198MPD1     H 3014   4.335   2.059  15.908  0.0767 -0.5096  1.2142
  198MPD1    H1 3015   4.003   2.109  16.160  1.3241 -1.3173  0.0128
  198MPD1    H2 3016   4.109   2.419  15.890 -0.6406 -0.2373  1.1761
  198MPD1    H3 3017   3.951   2.318  16.061  1.2836  1.4804  1.5389
  198MPD1     N 3018   4.227   1.958  16.117  0.2799 -0.5382  0.8094
  198MPD1    H5 3019   4.317   1.918  16.092  1.2578  2.1074  0.0978
  198MPD1    N1 3020   4.325   2.304  15.797 -0.6206  0.8583  0.4557
  198MPD1    H6 3021   4.282   2.375  15.739 -0.4686  0.3014 -0.3474
  198MPD1    H7 3022   4.356   2.231  15.732  1.2144 -0.1056  2.4544
  199MPD1     C 3023   1.509   1.040   9.715  1.0393  0.0238 -0.4364
  199MPD1    C1 3024   1.542   1.172   9.710  0.5517 -0.6816  0.1776
  199MPD1    C2 3025   1.440   1.268   9.697 -0.0468  0.3501 -0.1083
  199MPD1    C3 3026   1.302   1.224   9.707 -1.1043  0.1450 -0.7853
  199MPD1    C4 3027   1.279   1.091   9.721  0.2029  0.4748 -0.2153
  199MPD1    C5 3028   1.374   1.004   9.717 -0.9177  0.1939 -0.3702
  199MPD1     H 3029   1.467   1.373   9.687 -1.8949  0.6664 -1.8035
  199MPD1    H1 3030   1.177   1.056   9.730  0.1568  0.5048 -0.6490
  199MPD1    H2 3031   1.583   0.961   9.722  1.5058  0.3412 -1.8944
  199MPD1    H3 3032   1.352   0.898   9.724 -0.4774  0.1284  0.0416
  199MPD1     N 3033   1.198   1.315   9.703 -0.1346 -0.3796 -0.2081
  199MPD1    H5 3034   1.102   1.281   9.701 -0.5874  0.9766 -1.3501
  199MPD1    N1 3035   1.677   1.208   9.675 -0.6125  0.0585 -0.1445
  199MPD1    H6 3036   1.702   1.297   9.718 -0.6855  0.2554 -0.5033
  199MPD1    H7 3037   1.752   1.144   9.700 -1.3311 -0.7874 -0.1496
  200MPD1     C 3038   1.398   1.904  13.865  0.3654  0.4204 -0.3299
  200MPD1    C1 3039   1.328   1.939  13.751 -0.5607  0.0969  0.9676
  200MPD1    C2 3040   1.230   2.036  13.749  0.2461  0.0415 -0.0154
  200MPD1    C3 3041   1.210   2.111  13.860 -0.2003  0.0213  0.2744
  200MPD1    C4 3042   1.285   2.094  13.969  0.3116 -0.0426  0.6440
  200MPD1    C5 3043   1.376   1.992  13.965 -0.1010 -0.3377  0.2680
  200MPD1     H 3044   1.174   2.063  13.660 -1.1311  0.0468  0.8449
  200MPD1    H1 3045   1.280   2.152  14.061  2.2459 -0.6820  1.1551
  200MPD1    H2 3046   1.469   1.822  13.871  0.1172  0.1666 -0.9499
  200MPD1    H3 3047   1.443   1.960  14.045  1.1034 -0.9079 -0.9609
  200MPD1     N 3048   1.117   2.219  13.851  0.5875  0.3369 -0.2157
  200MPD1    H5 3049   1.059   2.218  13.768  0.1719 -1.8678  0.0868
  200MPD1    N1 3050   1.348   1.849  13.644  0.4031  0.0827  0.3666
  200MPD1    H6 3051   1.437   1.799  13.649  0.7048  0.5643 -0.1543
  200MPD1    H7 3052   1.352   1.891  13.552 -1.4573  0.6189  0.5452
  201MPD1     C 3053   2.588   1.417  13.519  0.3713 -0.6364 -0.0566
  201MPD1    C1 3054   2.721   1.365  13.505  0.3431 -0.1429  0.1466
  201MPD1    C2 3055   2.734   1.229  13.509 -0.2514  0.2125  0.3379
  201MPD1    C3 3056   2.634   1.135  13.534  0.8662 -0.0771  0.0448
  201MPD1    C4 3057   2.508   1.185  13.526 -0.1476 -0.0265  0.5493
  201MPD1    C5 3058   2.485   1.322  13.522 -0.2419  0.4060 -0.1165
  201MPD1     H 3059   2.835   1.192  13.492 -0.4578  0.0252 -0.4670
  201MPD1    H1 3060   2.423   1.118  13.524  1.0586 -1.4709 -1.9411
  201MPD1    H2 3061   2.571   1.524  13.527  0.2757 -0.6872  0.4029
  201MPD1    H3 3062   2.382   1.356  13.514 -1.3994 -3.1631 -0.3299
  201MPD1     N 3063   2.670   0.999  13.540 -0.4889 -0.0669 -0.0554
  201MPD1    H5 3064   2.769   0.978  13.553 -0.8979 -0.7849  1.8719
  201MPD1    N1 3065   2.829   1.455  13.507  0.5080 -0.0935 -0.4010
  201MPD1    H6 3066   2.813   1.548  13.469 -0.8895  0.4819  1.5782
  201MPD1    H7 3067   2.915   1.411  13.475  0.5805  0.8483 -1.5032
  202MPD1     C 3068   2.853   4.510   9.148 -0.3802 -1.0348  0.0273
  202MPD1    C1 3069   2.809   4.643   9.176 -0.3022  0.0065  0.2390
  202MPD1    C2 3070   2.815   4.679   9.313 -0.0222  0.3064  0.2229
  202MPD1    C3 3071   2.897   4.612   9.401  0.1045 -0.3875 -0.1121
  202MPD1    C4 3072   2.946   4.493   9.364  0.3831  0.1506 -0.2740
  202MPD1    C5 3073   2.916   4.436   9.246 -0.2688  0.1899  0.0961
  202MPD1     H 3074   2.789   0.059   9.334 -0.7097 -0.0799  1.2263
  202MPD1    H1 3075   2.995   4.425   9.432  1.1310 -0.6563 -1.6097
  202MPD1    H2 3076   2.841   4.463   9.052  0.2803  1.6311 -1.3626
  202MPD1    H3 3077   2.949   4.335   9.225 -1.0433 -0.0492  0.0241
  202MPD1     N 3078   2.926   4.660   9.529  0.5890  0.5355  0.2798
  202MPD1    H5 3079   2.996   4.604   9.577 -1.0672 -1.7967 -0.0431
  202MPD1    N1 3080   2.721   4.703   9.083 -0.0941  0.2077 -0.2014
  202MPD1    H6 3081   2.762   4.692   8.990 -0.7868  1.4583 -0.6595
  202MPD1    H7 3082   2.718   0.080   9.101  2.5606 -0.0575  1.8174
  203MPD1     C 3083   0.947   1.902  12.606 -0.9168  0.5931  0.5390
  203MPD1    C1 3084   1.017   1.867  12.723 -0.0878  0.2300 -0.2558
  203MPD1    C2 3085   1.092   1.743  12.724 -0.3170  0.1977 -1.0838
  203MPD1    C3 3086   1.078   1.660  12.617 -0.6694 -0.1265  0.2649
  203MPD1    C4 3087   1.007   1.695  12.506  0.1936 -0.2744  0.4028
  203MPD1    C5 3088   0.944   1.818  12.499 -0.6612  0.7496  0.4946
  203MPD1     H 3089   1.135   1.707  12.816 -0.3582  1.9640 -0.3774
  203MPD1    H1 3090   1.009   1.630  12.419 -1.0613  0.0918  0.0976
  203MPD1    H2 3091   0.914   2.003  12.585 -1.4720  0.3565  0.2755
  203MPD1    H3 3092   0.902   1.856  12.406 -2.3572 -1.1808  0.4444
  203MPD1     N 3093   1.153   1.541  12.617 -0.4350 -0.2475  0.0823
  203MPD1    H5 3094   1.201   1.517  12.704  0.2346 -1.9329 -0.7423
  203MPD1    N1 3095   1.038   1.974  12.813  0.0093  0.7355 -0.2963
  203MPD1    H6 3096   0.953   2.028  12.827 -0.8113 -0.8037  0.6010
  203MPD1    H7 3097   1.064   1.943  12.906 -1.7933  0.0919 -0.0163
  204MPD1     C 3098   0.535   3.216   0.080  0.1309 -0.3972  1.0043
  204MPD1    C1 3099   0.632   3.249  17.688 -0.2215  0.1009  0.3796
  204MPD1    C2 3100   0.720   3.147  17.655  0.2699 -0.4440  0.1783
  204MPD1    C3 3101   0.695   3.014  17.688 -0.2243  0.2690 -0.3247
  204MPD1    C4 3102   0.595   2.987   0.085  0.5099 -0.5343 -0.6644
  204MPD1    C5 3103   0.519   3.093   0.124  0.3160  0.5304 -0.7777
  204MPD1     H 3104   0.809   3.167  17.598  0.5014  1.4058  1.1731
  204MPD1    H1 3105   0.575   2.884   0.110  1.3932 -0.4426  0.4181
  204MPD1    H2 3106   0.475   3.296   0.122 -0.6622 -0.5926  0.2555
  204MPD1    H3 3107   0.432   3.082   0.187  1.3469  0.7175  0.6838
  204MPD1     N 3108   0.788   2.915  17.639  0.6098  0.0150 -0.4529
  204MPD1    H5 3109   0.854   2.949  17.569  0.4098  1.1139 -0.1192
  204MPD1    N1 3110   0.649   3.380  17.653 -0.5436  0.2266 -0.4859
  204MPD1    H6 3111   0.555   3.421  17.656 -0.2680  0.6802  1.5634
  204MPD1    H7 3112   0.679   3.404  17.559 -0.1444  1.7407  0.0222
  205MPD1     C 3113   0.274   1.759  17.048  0.0640 -0.2302  1.0520
  205MPD1    C1 3114   0.383   1.847  17.034  0.0324  0.4194  0.5749
  205MPD1    C2 3115   0.508   1.810  17.079  0.6509  0.3188  0.3546
  205MPD1    C3 3116   0.525   1.685  17.145 -0.2298 -0.1375 -0.1956
  205MPD1    C4 3117   0.416   1.615  17.174  0.3379  0.4107 -0.0373
  205MPD1    C5 3118   0.289   1.645  17.119  0.5134 -0.5798  0.1233
  205MPD1     H 3119   0.590   1.879  17.062  0.6333  0.3581  0.4295
  205MPD1    H1 3120   0.421   1.515  17.214 -1.5108 -0.0382 -0.9291
  205MPD1    H2 3121   0.183   1.784  16.994  0.0602  1.3740  1.8248
  205MPD1    H3 3122   0.204   1.579  17.129 -0.1964  0.5595  1.4297
  205MPD1     N 3123   0.652   1.635  17.190 -0.1958  0.1448  0.4775
  205MPD1    H5 3124   0.647   1.553  17.250 -1.9445  0.6672  1.0286
  205MPD1    N1 3125   0.371   1.958  16.953 -0.5327  0.1034 -0.3040
  205MPD1    H6 3126   0.278   1.999  16.949  0.1675  1.6919 -0.1783
  205MPD1    H7 3127   0.434   2.032  16.985  1.3150 -1.3965 -0.4946
  206MPD1     C 3128   1.746   4.250  16.692  0.0224 -0.3779  0.3598
  206MPD1    C1 3129   1.612   4.263  16.720  0.8427 -1.2369 -0.1772
  206MPD1    C2 3130   1.519   4.219  16.619  0.3183 -0.7319  0.0245
  206MPD1    C3 3131   1.564   4.161  16.496  0.5463  0.0618  0.1511
  206MPD1    C4 3132   1.697   4.150  16.479 -0.2344 -0.7738 -0.1815
  206MPD1    C5 3133   1.788   4.188  16.573  0.3240  0.1060  0.7351
  206MPD1     H 3134   1.414   4.236  16.638  0.0811 -2.3079  0.1194
  206MPD1    H1 3135   1.739   4.120  16.384  1.8224  0.0626  0.4645
  206MPD1    H2 3136   1.821   4.272  16.767 -1.9115  1.9796  1.6150
  206MPD1    H3 3137   1.892   4.188  16.545  0.0272  0.5695 -0.3836
  206MPD1     N 3138   1.473   4.112  16.401 -0.2804 -0.1799 -0.3975
  206MPD1    H5 3139   1.526   4.068  16.327  0.3289  3.3234 -2.0239
  206MPD1    N1 3140   1.562   4.302  16.846  0.4364 -0.1041 -0.0153
  206MPD1    H6 3141   1.472   4.348  16.841 -0.7438 -2.5128 -0.7284
  206MPD1    H7 3142   1.630   4.358  16.896  0.8389 -0.2649 -0.3767
  207MPD1     C 3143   3.981   1.757   9.943 -0.0895  0.0562 -0.7429
  207MPD1    C1 3144   3.963   1.633   9.998  0.3567 -0.9964 -0.9822
  207MPD1    C2 3145   4.009   1.616  10.131  0.2341  0.4001  0.4873
  207MPD1    C3 3146   4.083   1.717  10.194  0.2776  0.2103 -0.4322
  207MPD1    C4 3147   4.123   1.826  10.117  0.4978  0.7967  0.0897
  207MPD1    C5 3148   4.065   1.847   9.999  0.2442 -0.6729 -0.9256
  207MPD1     H 3149   3.991   1.518  10.174 -0.1016 -0.4110 -1.4741
  207MPD1    H1 3150   4.182   1.909  10.155  0.3179  1.2622 -0.6522
  207MPD1    H2 3151   3.925   1.786   9.855 -1.2822  0.2479  0.0744
  207MPD1    H3 3152   4.071   1.946   9.956 -0.2160  0.6431  2.0421
  207MPD1     N 3153   4.128   1.717  10.323  0.1028  0.4503  0.3818
  207MPD1    H5 3154   4.179   1.799  10.353 -0.2222  0.5040  0.7927
  207MPD1    N1 3155   3.874   1.542   9.937 -0.0595  0.6646  0.2203
  207MPD1    H6 3156   3.881   1.551   9.836 -0.1481  2.2496  0.3521
  207MPD1    H7 3157   3.900   1.448   9.966  1.9988  1.1812  0.0136
  208MPD1     C 3158   2.249   1.265  17.609  0.0853  0.2974  0.2622
  208MPD1    C1 3159   2.148   1.357  17.585  0.4336  0.1030 -0.1743
  208MPD1    C2 3160   2.031   1.349  17.662  0.3052  0.1450  0.3507
  208MPD1    C3 3161   2.005   1.237   0.041 -0.2257  0.0331  0.3220
  208MPD1    C4 3162   2.101   1.132   0.037  0.2156  0.5158 -0.5801
  208MPD1    C5 3163   2.223   1.151  17.681  0.7383 -0.0375  0.6365
  208MPD1     H 3164   1.954   1.425  17.666  0.6346  0.5180 -0.3721
  208MPD1    H1 3165   2.101   1.043   0.099  0.0515  0.1682 -1.0808
  208MPD1    H2 3166   2.346   1.259  17.560  0.3112 -1.3239  0.8998
  208MPD1    H3 3167   2.299   1.074  17.683  0.1247 -0.6988 -1.0979
  208MPD1     N 3168   1.898   1.245   0.130 -0.6903 -0.3505 -0.5547
  208MPD1    H5 3169   1.825   1.314   0.116  0.7849  1.6972  1.9500
  208MPD1    N1 3170   2.172   1.477  17.521 -0.1154 -0.7630 -0.2840
  208MPD1    H6 3171   2.087   1.512  17.476  0.2092 -0.1961 -0.4551
  208MPD1    H7 3172   2.247   1.476  17.452  2.4731  4.8500  2.4761
  209MPD1     C 3173   3.999   0.511  11.672  0.0453 -0.4687 -0.5065
  209MPD1    C1 3174   4.097   0.563  11.590  0.5837 -0.1158 -0.4520
  209MPD1    C2 3175   4.117   0.695  11.581 -0.5126  0.9150 -0.1031
  209MPD1    C3 3176   4.047   0.775  11.672  0.2598 -0.4113 -0.5141
  209MPD1    C4 3177   3.968   0.714  11.770  0.3683  0.1914  0.1999
  209MPD1    C5 3178   3.943   0.581  11.768 -0.2743 -0.4968 -0.7938
  209MPD1     H 3179   4.195   0.736  11.518  0.5078  0.0633  0.6016
  209MPD1    H1 3180   3.914   0.772  11.844 -0.6503  0.1706 -0.5279
  209MPD1    H2 3181   3.987   0.403  11.669  0.8721 -0.5450 -0.9471
  209MPD1    H3 3182   3.879   0.529  11.839  1.4370  0.1219  1.1768
  209MPD1     N 3183   4.060   0.909  11.658  0.3036 -0.6056  0.3733
  209MPD1    H5 3184   4.112   0.940  11.576  0.3300  0.0075  0.6220
  209MPD1    N1 3185   4.148   0.482  11.485  0.4461 -0.8980  0.2132
  209MPD1    H6 3186   4.169   0.387  11.515  1.6314 -0.6221  0.2493
  209MPD1    H7 3187   4.228   0.530  11.443 -0.4780  0.5459  0.0847
  210MPD1     C 3188   3.850   1.712  12.229  0.0184 -0.2035 -0.1555
  210MPD1    C1 3189   3.959   1.745  12.149  0.6061  1.5507 -0.2448
  210MPD1    C2 3190   3.991   1.653  12.048 -0.6212 -0.0774 -0.1612
  210MPD1    C3 3191   3.919   1.535  12.035 -0.4563  0.0996 -0.1893
  210MPD1    C4 3192   3.822   1.495  12.123 -0.2313 -0.0614 -0.3053
  210MPD1    C5 3193   3.777   1.590  12.211  0.2102  0.5101  0.1072
  210MPD1     H 3194   4.064   1.684  11.974 -1.0284 -1.2453 -1.0600
  210MPD1    H1 3195   3.757   1.409  12.114  2.4338 -2.1404  0.2853
  210MPD1    H2 3196   3.816   1.787  12.300 -0.2994 -0.8876  0.4127
  210MPD1    H3 3197   3.681   1.576  12.259 -0.0866  0.0568 -0.6218
  210MPD1     N 3198   3.948   1.448  11.931 -0.2350 -0.1344 -0.0488
  210MPD1    H5 3199   3.895   1.362  11.925 -0.7872  0.1938  0.1701
  210MPD1    N1 3200   4.004   1.879  12.153  0.2320 -0.0679 -0.0579
  210MPD1    H6 3201   4.002   1.931  12.241 -2.6370 -1.0341  0.4343
  210MPD1    H7 3202   4.101   1.886  12.124 -0.2943  2.6868 -1.1278
  211MPD1     C 3203   2.329   1.573  16.766  0.4951  0.2012 -0.0506
  211MPD1    C1 3204   2.218   1.502  16.805  0.3208 -0.3593  0.1561
  211MPD1    C2 3205   2.104   1.518  16.725  0.3975  0.4786  0.1587
  211MPD1    C3 3206   2.098   1.593  16.613  0.0649  0.5759  0.6849
  211MPD1    C4 3207   2.204   1.666  16.578 -0.5742 -0.1028  0.1626
  211MPD1    C5 3208   2.322   1.651  16.654  0.1030  0.6739  0.2158
  211MPD1     H 3209   2.012   1.467  16.751  0.1265  0.1134 -1.5210
  211MPD1    H1 3210   2.206   1.723  16.485  0.4101 -0.0136  0.2406
  211MPD1    H2 3211   2.424   1.568  16.818 -1.4525  1.7160  3.6556
  211MPD1    H3 3212   2.406   1.713  16.625  1.3032  0.4251  3.1831
  211MPD1     N 3213   1.970   1.585  16.553  0.1347 -0.3293 -0.0396
  211MPD1    H5 3214   1.911   1.507  16.579  0.2272  0.3090  2.1075
  211MPD1    N1 3215   2.213   1.444  16.933  0.1109  0.2049  0.0727
  211MPD1    H6 3216   2.150   1.365  16.941 -0.4450  0.7598  1.2494
  211MPD1    H7 3217   2.299   1.410  16.976 -0.2248 -0.7640 -0.0109
  212MPD1     C 3218   0.773   4.718  16.506  0.2266 -0.1845 -0.3151
  212MPD1    C1 3219   0.720   0.021  16.627  0.0278 -0.1524  0.6260
  212MPD1    C2 3220   0.633   4.651  16.677 -0.0114 -0.4026  0.2854
  212MPD1    C3 3221   0.618   4.526  16.621 -0.4399 -0.6118 -0.2491
  212MPD1    C4 3222   0.700   4.492  16.512 -0.4271  0.3332 -0.4284
  212MPD1    C5 3223   0.756   4.598  16.445  0.5357 -0.0714 -0.3022
  212MPD1     H 3224   0.576   4.674  16.767  0.9390  0.1644  0.7424
  212MPD1    H1 3225   0.708   4.392  16.471 -0.2081  1.4445 -3.1430
  212MPD1    H2 3226   0.831   0.071  16.456 -1.3279  0.8331 -0.5857
  212MPD1    H3 3227   0.813   4.590  16.354 -0.5745  0.1533 -1.0148
  212MPD1     N 3228   0.550   4.413  16.681  0.0791 -0.3363  0.0947
  212MPD1    H5 3229   0.556   4.331  16.622 -0.9481 -1.7427  1.9455
  212MPD1    N1 3230   0.741   0.150  16.678 -0.5977 -0.2889  0.5559
  212MPD1    H6 3231   0.835   0.181  16.654 -0.0915 -2.1247  0.1609
  212MPD1    H7 3232   0.731   0.160  16.779 -0.1629  1.3109  0.4401
  213MPD1     C 3233   3.316   0.846  15.868  0.2488 -0.5814  0.5182
  213MPD1    C1 3234   3.286   0.711  15.835 -0.2195 -0.3522  0.2009
  213MPD1    C2 3235   3.289   0.678  15.698  0.5229  0.2862 -0.1832
  213MPD1    C3 3236   3.285   0.773  15.598 -0.4296  0.8614  0.6577
  213MPD1    C4 3237   3.283   0.906  15.632 -0.0943 -0.4819  0.5117
  213MPD1    C5 3238   3.293   0.935  15.764 -0.3468 -0.3870  0.1269
  213MPD1     H 3239   3.287   0.573  15.669  2.4708  0.0600  0.4736
  213MPD1    H1 3240   3.282   0.986  15.559  2.5024 -1.0838 -0.1760
  213MPD1    H2 3241   3.320   0.875  15.972  2.1630  1.7823 -0.2215
  213MPD1    H3 3242   3.301   1.040  15.790 -2.8080 -0.4137  1.0236
  213MPD1     N 3243   3.289   0.725  15.463 -0.0320 -0.6225  0.1137
  213MPD1    H5 3244   3.304   0.625  15.458 -2.7589 -1.1083  1.0558
  213MPD1    N1 3245   3.323   0.603  15.922 -0.0838 -0.6324  0.5028
  213MPD1    H6 3246   3.304   0.617  16.021 -1.4284  1.9463 -0.1142
  213MPD1    H7 3247   3.282   0.517  15.887  0.4429 -0.2234 -1.1042
  214MPD1     C 3248   2.900   0.056  14.867 -0.0968 -0.2424 -0.2200
  214MPD1    C1 3249   2.884   0.100  14.991  0.5016  0.0203 -0.9197
  214MPD1    C2 3250   2.981   0.192  15.040  0.5959 -0.3024  0.2588
  214MPD1    C3 3251   3.086   0.240  14.965 -0.4248 -0.1830 -0.3219
  214MPD1    C4 3252   3.093   0.189  14.842  0.5136 -0.8393  0.0190
  214MPD1    C5 3253   3.011   0.092  14.797 -0.0558 -0.3241  0.8822
  214MPD1     H 3254   2.963   0.210  15.146  0.7272 -0.2250  0.2675
  214MPD1    H1 3255   3.178   0.224  14.783  2.1802 -3.4291  0.8710
  214MPD1    H2 3256   2.826   4.718  14.816 -0.0919 -0.1076 -0.3864
  214MPD1    H3 3257   3.033   0.051  14.699 -0.6459  1.0848  0.1691
  214MPD1     N 3258   3.179   0.333  15.013  0.9252 -0.0579  0.3777
  214MPD1    H5 3259   3.251   0.365  14.948  0.3258 -0.2438 -0.3711
  214MPD1    N1 3260   2.789   0.033  15.076  0.3720 -0.3318  0.2077
  214MPD1    H6 3261   2.700   0.013  15.030  1.3761  0.0021 -1.8722
  214MPD1    H7 3262   2.756   0.085  15.157  2.1964  2.9381 -1.1647
  215MPD1     C 3263   2.894   0.737  10.565 -0.2416  0.0695  0.0227
  215MPD1    C1 3264   2.852   0.867  10.565  0.5030  0.7638 -0.0650
  215MPD1    C2 3265   2.912   0.958  10.651 -0.5941  0.2166  0.1325
  215MPD1    C3 3266   3.013   0.923  10.743 -0.0759  0.3392  0.0059
  215MPD1    C4 3267   3.044   0.789  10.743 -0.5146  0.4869 -0.1215
  215MPD1    C5 3268   2.983   0.694  10.662 -1.0299  0.7632  0.3185
  215MPD1     H 3269   2.881   1.062  10.657  4.9198  1.7319  1.8615
  215MPD1    H1 3270   3.118   0.756  10.815  1.2273  1.3888 -1.5197
  215MPD1    H2 3271   2.855   0.668  10.490  2.4530 -1.0132 -0.3787
  215MPD1    H3 3272   3.025   0.594  10.668 -0.7660  0.7638 -1.7126
  215MPD1     N 3273   3.084   1.023  10.810 -0.1225  0.3049  0.1907
  215MPD1    H5 3274   3.043   1.116  10.807  2.6040  1.4396 -1.2671
  215MPD1    N1 3275   2.757   0.917  10.470 -0.0948  0.2090  0.0849
  215MPD1    H6 3276   2.692   0.990  10.497 -0.8148 -0.4176  0.0597
  215MPD1    H7 3277   2.694   0.839  10.456  0.8564 -0.0904 -2.5257
  216MPD1     C 3278   0.684   3.943  17.192 -0.1495  0.4963 -0.3691
  216MPD1    C1 3279   0.811   3.931  17.236 -0.1519 -0.6763 -0.0354
  216MPD1    C2 3280   0.894   3.855  17.162 -0.1329 -0.2970 -0.1528
  216MPD1    C3 3281   0.859   3.811  17.032 -0.6356 -0.0071  0.1993
  216MPD1    C4 3282   0.733   3.827  16.991  0.3431  0.0995  0.0491
  216MPD1    C5 3283   0.643   3.892  17.074  0.0615 -0.3041  0.1390
  216MPD1     H 3284   0.998   3.843  17.191 -0.4897  0.2772  1.3952
  216MPD1    H1 3285   0.691   3.805  16.893  3.1251  1.2218 -1.4196
  216MPD1    H2 3286   0.601   3.976  17.253 -0.3007 -0.9807  0.2277
  216MPD1    H3 3287   0.540   3.910  17.044  0.0656 -0.6565 -0.0935
  216MPD1     N 3288   0.947   3.729  16.959  0.0150 -0.0225 -0.6980
  216MPD1    H5 3289   1.026   3.694  17.013  0.7350  0.4732 -1.4248
  216MPD1    N1 3290   0.834   3.971  17.368  0.2383 -0.5000  0.1982
  216MPD1    H6 3291   0.765   4.034  17.408  2.1582  0.9438  1.2137
  216MPD1    H7 3292   0.930   3.997  17.389  0.3714 -0.7959 -0.0473
  217MPD1     C 3293   1.851   0.827   8.449  0.0323  0.5772  0.7056
  217MPD1    C1 3294   1.781   0.902   8.540 -0.0321 -0.3276  0.0419
  217MPD1    C2 3295   1.769   0.854   8.669  0.2263  0.2851  0.0977
  217MPD1    C3 3296   1.843   0.747   8.709 -0.5635 -0.3239 -0.0208
  217MPD1    C4 3297   1.920   0.683   8.616  0.2311  0.5351 -0.0858
  217MPD1    C5 3298   1.927   0.720   8.482 -0.2769  0.1558 -0.4131
  217MPD1     H 3299   1.699   0.906   8.732  0.1771  1.1099 -0.6438
  217MPD1    H1 3300   1.973   0.594   8.647  1.5135  0.9490 -1.0931
  217MPD1    H2 3301   1.852   0.856   8.345 -0.8082 -1.6747  0.0799
  217MPD1    H3 3302   1.980   0.658   8.410  0.1043 -1.4620  1.2287
  217MPD1     N 3303   1.838   0.688   8.839 -0.4159  0.5316 -0.1868
  217MPD1    H5 3304   1.901   0.611   8.857 -1.2887  0.5264  2.7249
  217MPD1    N1 3305   1.717   1.018   8.488  0.3259 -0.1583  0.6694
  217MPD1    H6 3306   1.696   1.097   8.549  1.6962  1.2843 -0.7417
  217MPD1    H7 3307   1.775   1.065   8.418  0.6079 -0.6882  0.5471
  218MPD1     C 3308   2.392   1.186  12.693  0.0178 -0.3671 -0.1533
  218MPD1    C1 3309   2.492   1.240  12.621  0.0714  0.5456  0.2226
  218MPD1    C2 3310   2.607   1.273  12.694 -0.0199 -0.5172 -0.2530
  218MPD1    C3 3311   2.620   1.261  12.831 -0.2468 -0.0349 -0.3858
  218MPD1    C4 3312   2.521   1.201  12.893  0.3475  0.3982  0.1814
  218MPD1    C5 3313   2.410   1.163  12.828 -0.2706 -0.7689 -0.0496
  218MPD1     H 3314   2.698   1.305  12.645 -0.3576  0.5994 -0.1500
  218MPD1    H1 3315   2.530   1.185  13.000  1.3864  2.7596  0.4710
  218MPD1    H2 3316   2.320   1.124  12.641  0.8965  0.0264 -1.8662
  218MPD1    H3 3317   2.337   1.110  12.889  0.0168 -0.3250  0.6802
  218MPD1     N 3318   2.742   1.310  12.889  0.6483  0.3254 -0.1608
  218MPD1    H5 3319   2.815   1.344  12.827  0.1196  2.5422  0.4539
  218MPD1    N1 3320   2.505   1.213  12.482 -0.4783  0.6157 -0.4375
  218MPD1    H6 3321   2.565   1.282  12.436 -1.7499  1.0682 -1.4057
  218MPD1    H7 3322   2.422   1.190  12.428 -0.7722 -1.8582  1.0907
  219MPD1     C 3323   3.354   1.534  12.387 -0.3414 -0.3854 -0.2685
  219MPD1    C1 3324   3.429   1.556  12.503 -0.7803 -0.4992  0.8565
  219MPD1    C2 3325   3.360   1.540  12.622  0.6503 -0.7056  0.1058
  219MPD1    C3 3326   3.227   1.502  12.631  0.1179  0.2760 -0.2899
  219MPD1    C4 3327   3.156   1.481  12.514  0.2063 -0.1286  0.8420
  219MPD1    C5 3328   3.225   1.493  12.399 -0.5251  0.1348 -0.3562
  219MPD1     H 3329   3.408   1.574  12.713 -2.3264  1.3566  0.8977
  219MPD1    H1 3330   3.050   1.456  12.516  0.8494 -2.7393  2.4293
  219MPD1    H2 3331   3.397   1.565  12.292  0.6348  0.0403  0.3199
  219MPD1    H3 3332   3.163   1.484  12.310  1.7350 -0.2530 -1.9074
  219MPD1     N 3333   3.154   1.487  12.746  0.5123 -0.2914 -0.2793
  219MPD1    H5 3334   3.054   1.472  12.737  0.5604  0.2949 -1.8430
  219MPD1    N1 3335   3.545   1.636  12.490  0.2354  0.4833  0.8655
  219MPD1    H6 3336   3.572   1.627  12.392 -1.4587 -0.7193  0.5151
  219MPD1    H7 3337   3.611   1.630  12.568 -0.3496  0.4742  1.3558
  220MPD1     C 3338   2.401   2.255   9.707  0.1411  0.0303  0.2305
  220MPD1    C1 3339   2.420   2.292   9.837  0.3505 -0.7091  0.3064
  220MPD1    C2 3340   2.456   2.189   9.923 -0.5896 -0.6226 -0.2701
  220MPD1    C3 3341   2.461   2.054   9.882 -0.2283  0.4418  0.2690
  220MPD1    C4 3342   2.442   2.026   9.747 -0.0469  0.1521 -0.8009
  220MPD1    C5 3343   2.411   2.125   9.661  0.3065 -0.3180 -0.4649
  220MPD1     H 3344   2.471   2.220  10.025  1.7163  1.9029 -1.3998
  220MPD1    H1 3345   2.459   1.926   9.707 -0.7720 -0.5098  0.5567
  220MPD1    H2 3346   2.380   2.327   9.628  0.0226  0.4041  0.6064
  220MPD1    H3 3347   2.411   2.103   9.555 -0.4647 -2.3949 -0.0433
  220MPD1     N 3348   2.506   1.961   9.985 -0.4804  0.0608  0.2820
  220MPD1    H5 3349   2.522   1.999  10.078 -1.9522  2.5305 -0.4890
  220MPD1    N1 3350   2.432   2.427   9.872 -0.2582  0.8684 -0.5174
  220MPD1    H6 3351   2.386   2.435   9.963 -1.3806 -3.8463 -0.6633
  220MPD1    H7 3352   2.380   2.486   9.808 -0.1814  0.8797 -0.5702
  221MPD1     C 3353   1.680   1.018  15.497  0.0034 -0.1825  0.1079
  221MPD1    C1 3354   1.706   0.885  15.530 -0.6429  0.1138  1.0497
  221MPD1    C2 3355   1.657   0.843  15.654  0.1010 -0.2348  0.8500
  221MPD1    C3 3356   1.576   0.925  15.737  0.4739  0.4627 -0.2424
  221MPD1    C4 3357   1.536   1.047  15.694  0.0324 -0.2161  0.1541
  221MPD1    C5 3358   1.586   1.090  15.573 -0.5923  0.3912 -0.1584
  221MPD1     H 3359   1.667   0.742  15.690 -0.9451 -0.9560 -0.8597
  221MPD1    H1 3360   1.475   1.118  15.748 -0.5132 -0.0291 -0.6990
  221MPD1    H2 3361   1.716   1.069  15.408 -1.7424  1.8579  0.5616
  221MPD1    H3 3362   1.544   1.182  15.535 -0.7315 -0.2608 -1.5680
  221MPD1     N 3363   1.524   0.889  15.862  0.0132 -0.2928  0.3272
  221MPD1    H5 3364   1.471   0.957  15.915  0.9710  0.4440  0.3435
  221MPD1    N1 3365   1.800   0.813  15.444  0.7106 -0.2186 -0.1428
  221MPD1    H6 3366   1.885   0.803  15.498 -1.0377 -0.2863  2.6211
  221MPD1    H7 3367   1.814   0.867  15.359  0.3380 -2.2335 -1.4588
  222MPD1     C 3368   0.916   4.151  16.672 -0.5218  0.3670 -0.1823
  222MPD1    C1 3369   0.959   4.278  16.672  0.1812  1.1231  0.0593
  222MPD1    C2 3370   0.901   4.365  16.768 -0.0548 -0.0184 -0.4778
  222MPD1    C3 3371   0.820   4.315  16.873 -0.1180 -0.3015 -0.5854
  222MPD1    C4 3372   0.782   4.183  16.866  0.0671  0.1965 -0.0252
  222MPD1    C5 3373   0.836   4.102  16.768 -0.0696 -0.4244  0.9833
  222MPD1     H 3374   0.911   4.472  16.759 -2.1459  0.1436 -1.0312
  222MPD1    H1 3375   0.716   4.136  16.938 -1.0497  2.0867  0.2028
  222MPD1    H2 3376   0.944   4.080  16.595 -2.2435 -0.8749  0.3182
  222MPD1    H3 3377   0.801   4.000  16.764  0.1183 -0.3349 -2.6585
  222MPD1     N 3378   0.764   4.396  16.965 -0.7351 -0.0998  0.3414
  222MPD1    H5 3379   0.694   4.357  17.028 -0.6763  1.4242  1.3380
  222MPD1    N1 3380   1.038   4.322  16.567 -0.1934 -0.4442 -0.2201
  222MPD1    H6 3381   1.117   4.262  16.543  0.2304 -0.2364  0.6720
  222MPD1    H7 3382   1.055   4.422  16.575  2.3446 -0.9062  0.4143
  223MPD1     C 3383   4.704   4.497  17.561  0.2811 -0.3267  0.2801
  223MPD1    C1 3384   0.017   4.627  17.554 -0.1044 -0.3843 -0.2658
  223MPD1    C2 3385   0.110   4.663  17.458 -0.7190  0.2701 -0.5148
  223MPD1    C3 3386   0.185   4.572  17.392 -1.0235  0.5789 -0.0389
  223MPD1    C4 3387   0.151   4.440  17.399 -0.2742 -0.4616  0.0154
  223MPD1    C5 3388   0.049   4.408  17.480  0.0579 -0.7324 -0.0943
  223MPD1     H 3389   0.135   0.046  17.453  0.7278 -0.0223  0.4700
  223MPD1    H1 3390   0.195   4.362  17.339  3.0117  1.2749  0.1837
  223MPD1    H2 3391   4.625   4.461  17.626  1.2389  0.6385  1.9792
  223MPD1    H3 3392   0.017   4.306  17.494 -1.1405 -0.6111 -2.0314
  223MPD1     N 3393   0.305   4.620  17.330  0.6245 -0.6516 -0.0637
  223MPD1    H5 3394   0.325   4.717  17.353 -1.2941 -0.2445 -0.1463
  223MPD1    N1 3395   4.671   0.002  17.622  0.6343 -0.7168  0.2210
  223MPD1    H6 3396   0.005   0.085  17.638  0.4652 -0.3343 -1.1941
  223MPD1    H7 3397   4.635   4.699   0.019 -2.2356 -0.3276 -0.7765
  224MPD1     C 3398   2.018   1.057   8.935 -0.4532 -1.2474 -0.2272
  224MPD1    C1 3399   2.138   0.997   8.956 -0.0775 -0.2368 -0.0978
  224MPD1    C2 3400   2.170   0.960   9.086 -0.0536 -0.4181  0.2677
  224MPD1    C3 3401   2.085   0.999   9.194  0.1860 -0.2738  0.7306
  224MPD1    C4 3402   1.974   1.062   9.166  0.0823  0.1553 -0.3458
  224MPD1    C5 3403   1.937   1.096   9.036 -0.7507 -0.0873  0.2351
  224MPD1     H 3404   2.258   0.898   9.099  0.7673  0.9705  1.4231
  224MPD1    H1 3405   1.910   1.088   9.249  1.1525  1.4211  0.0918
  224MPD1    H2 3406   1.989   1.089   8.835 -3.0999 -1.4294  0.5015
  224MPD1    H3 3407   1.853   1.164   9.027  1.1067  2.1827 -0.0653
  224MPD1     N 3408   2.108   0.970   9.332  0.2540  0.2835  0.0006
  224MPD1    H5 3409   2.026   0.982   9.391 -1.3369  0.6843 -2.2521
  224MPD1    N1 3410   2.214   0.945   8.847  0.0937 -0.2528 -0.4573
  224MPD1    H6 3411   2.202   1.005   8.766  1.8472 -0.8710 -1.1814
  224MPD1    H7 3412   2.314   0.952   8.865 -0.3284  1.5877  1.2196
  225MPD1     C 3413   2.966   2.249  12.795  0.2867  0.5122 -0.4582
  225MPD1    C1 3414   2.861   2.187  12.860 -0.5722  0.0463 -0.6876
  225MPD1    C2 3415   2.733   2.216  12.832 -0.0898 -0.1466 -0.2439
  225MPD1    C3 3416   2.699   2.312  12.740  0.3134 -0.1744 -0.0116
  225MPD1    C4 3417   2.803   2.385  12.689  0.3735  0.0923 -0.1417
  225MPD1    C5 3418   2.930   2.345  12.702 -0.5267 -0.1851  0.4147
  225MPD1     H 3419   2.655   2.174  12.894  1.5653 -1.2176  1.1291
  225MPD1    H1 3420   2.793   2.469  12.621  1.5814  0.5999  0.3208
  225MPD1    H2 3421   3.071   2.232  12.814  0.8228  1.8467 -2.2182
  225MPD1    H3 3422   3.013   2.394  12.653 -0.0395  0.2513  1.6688
  225MPD1     N 3423   2.568   2.339  12.685 -0.5218  0.4326 -0.1771
  225MPD1    H5 3424   2.566   2.420  12.624  2.4586 -0.2100 -1.1242
  225MPD1    N1 3425   2.892   2.116  12.972 -0.0651  0.5652  0.0208
  225MPD1    H6 3426   2.826   2.039  12.976 -0.2030  0.6881  0.1185
  225MPD1    H7 3427   2.988   2.082  12.984 -0.6989 -1.4602 -0.6593
  226MPD1     C 3428   0.952   1.507   9.208  0.0797  0.1753 -0.5110
  226MPD1    C1 3429   1.052   1.416   9.230  0.4870  0.2027  0.2223
  226MPD1    C2 3430   1.170   1.454   9.276  0.8311 -0.0166 -0.3354
  226MPD1    C3 3431   1.181   1.590   9.314 -0.4141 -0.1344 -0.5105
  226MPD1    C4 3432   1.078   1.678   9.309 -0.3143 -0.2886 -0.6695
  226MPD1    C5 3433   0.963   1.637   9.247  0.2271 -0.9340 -0.8094
  226MPD1     H 3434   1.256   1.388   9.274 -0.1709 -1.3350 -0.0719
  226MPD1    H1 3435   1.087   1.782   9.338 -0.3731 -0.7960  1.1902
  226MPD1    H2 3436   0.858   1.475   9.164 -0.5900 -0.4150  1.3407
  226MPD1    H3 3437   0.889   1.712   9.220 -0.9982 -1.8633 -0.0280
  226MPD1     N 3438   1.297   1.617   9.379  0.5052  0.7741  0.2481
  226MPD1    H5 3439   1.367   1.544   9.375  1.4135  1.6492  0.2361
  226MPD1    N1 3440   1.037   1.286   9.162  0.2010  0.6205  0.5089
  226MPD1    H6 3441   1.095   1.219   9.211 -0.9062 -0.3825  0.4535
  226MPD1    H7 3442   0.940   1.258   9.177  0.8260 -0.5092  2.4353
  227MPD1     C 3443   1.754   2.490   9.456 -0.0079  0.0302  0.1879
  227MPD1    C1 3444   1.624   2.448   9.425 -0.9447 -0.0112  0.1196
  227MPD1    C2 3445   1.593   2.317   9.454 -0.0551  0.4312 -0.2141
  227MPD1    C3 3446   1.696   2.227   9.498 -0.5107  0.5957  1.0890
  227MPD1    C4 3447   1.820   2.273   9.535  0.0095  0.4563 -0.3394
  227MPD1    C5 3448   1.850   2.401   9.505  0.2080  0.0904  0.0233
  227MPD1     H 3449   1.494   2.282   9.430 -0.6880  0.4496  2.3430
  227MPD1    H1 3450   1.900   2.213   9.578  0.2841  0.5608 -0.7101
  227MPD1    H2 3451   1.787   2.591   9.437 -0.4772  0.3570  1.1158
  227MPD1    H3 3452   1.947   2.445   9.526 -0.0741  1.0829 -0.7330
  227MPD1     N 3453   1.664   2.090   9.502 -0.4529  0.2087 -0.0828
  227MPD1    H5 3454   1.568   2.058   9.505  0.3513 -2.0866  1.5355
  227MPD1    N1 3455   1.528   2.545   9.396  0.8393 -0.2934 -0.3784
  227MPD1    H6 3456   1.443   2.508   9.353  1.2483 -0.7235 -0.8156
  227MPD1    H7 3457   1.570   2.625   9.351 -0.5499  1.9897  2.3708
  228MPD1     C 3458   4.572   0.210  12.897  0.4454  0.4506 -0.0191
  228MPD1    C1 3459   4.509   0.222  13.016  0.4732 -0.6750  0.7318
  228MPD1    C2 3460   4.372   0.202  13.016  0.1611  0.3009  0.5886
  228MPD1    C3 3461   4.299   0.175  12.900  0.0061  0.5847  0.3439
  228MPD1    C4 3462   4.368   0.182  12.783 -0.7171  0.3597 -0.0272
  228MPD1    C5 3463   4.502   0.190  12.785 -0.0734 -0.3446  0.3348
  228MPD1     H 3464   4.320   0.199  13.111 -0.5405 -1.3645  0.1594
  228MPD1    H1 3465   4.323   0.177  12.684  0.3644 -0.0909 -0.4927
  228MPD1    H2 3466   4.677   0.236  12.902 -0.0527  2.2352  1.1736
  228MPD1    H3 3467   4.562   0.171  12.697  0.6030 -0.3745  0.7970
  228MPD1     N 3468   4.168   0.136  12.918  0.0343  0.5765 -0.2994
  228MPD1    H5 3469   4.137   0.128  13.014  0.6311 -2.1817 -0.3306
  228MPD1    N1 3470   4.577   0.276  13.124  0.2599 -0.2701  0.7928
  228MPD1    H6 3471   4.539   0.266  13.218 -2.3328 -0.1907 -0.2775
  228MPD1    H7 3472   4.672   0.239  13.130  0.6319  0.4688 -0.7325
  229MPD1     C 3473   3.814   3.536  15.462  0.0201 -0.3961 -0.5105
  229MPD1    C1 3474   3.823   3.504  15.331 -0.2368  0.4788 -0.9167
  229MPD1    C2 3475   3.947   3.501  15.270 -0.7663  0.1326  0.1893
  229MPD1    C3 3476   4.061   3.538  15.339 -0.7233  0.5835  0.2356
  229MPD1    C4 3477   4.046   3.571  15.476 -0.0004  0.1665 -0.2138
  229MPD1    C5 3478   3.924   3.577  15.533  0.8917 -0.4222 -0.1615
  229MPD1     H 3479   3.954   3.473  15.165  1.1705  0.2683  0.2915
  229MPD1    H1 3480   4.137   3.590  15.531 -1.7273  1.9337  2.0063
  229MPD1    H2 3481   3.715   3.549  15.505  1.1055  0.6308  1.7039
  229MPD1    H3 3482   3.901   3.600  15.636  0.7666 -2.7968  0.3270
  229MPD1     N 3483   4.196   3.530  15.291  0.2795 -0.1080  0.0156
  229MPD1    H5 3484   4.266   3.553  15.361  1.5893 -0.1022 -1.3254
  229MPD1    N1 3485   3.711   3.438  15.266 -0.1443 -0.2572  0.0686
  229MPD1    H6 3486   3.717   3.438  15.164  0.9594  0.2510  0.1298
  229MPD1    H7 3487   3.619   3.459  15.304 -0.1749 -0.0215 -0.1340
  230MPD1     C 3488   0.103   3.784  15.741 -0.7663  0.1680 -0.4930
  230MPD1    C1 3489   4.718   3.844  15.680  0.1897 -0.3233 -0.0589
  230MPD1    C2 3490   4.653   3.773  15.582  0.0309  0.7407 -0.3423
  230MPD1    C3 3491   4.703   3.658  15.525  0.0666  0.1391 -0.4495
  230MPD1    C4 3492   0.098   3.603  15.582  0.5302 -0.0427  0.5465
  230MPD1    C5 3493   0.142   3.671  15.693 -0.0387 -0.6129  0.4493
  230MPD1     H 3494   4.561   3.818  15.545  0.3993  2.2764  0.6290
  230MPD1    H1 3495   0.147   3.513  15.548 -0.4423 -0.7220  0.9321
  230MPD1    H2 3496   0.154   3.830  15.825 -0.5229 -2.2123  0.6483
  230MPD1    H3 3497   0.219   3.622  15.751 -1.1440 -1.0074  1.5846
  230MPD1     N 3498   4.641   3.589  15.419 -0.5725 -0.9261 -0.1754
  230MPD1    H5 3499   4.552   3.632  15.396 -0.7507 -2.4457 -2.2533
  230MPD1    N1 3500   4.654   3.960  15.736  0.8795  0.0998  0.1375
  230MPD1    H6 3501   4.606   4.008  15.660 -2.3187  0.1536  2.2092
  230MPD1    H7 3502   0.001   4.024  15.773  1.0485  0.5189 -0.9122
  231MPD1     C 3503   2.378   0.698  15.834  0.0295 -0.4122  0.3962
  231MPD1    C1 3504   2.456   0.619  15.749 -0.4086  0.7673 -0.2523
  231MPD1    C2 3505   2.547   0.684  15.674 -0.2316  0.1737  0.3217
  231MPD1    C3 3506   2.578   0.820  15.685  0.4595 -0.0656 -0.4943
  231MPD1    C4 3507   2.498   0.892  15.769  0.1213  0.3651 -0.0912
  231MPD1    C5 3508   2.400   0.830  15.841 -0.3792 -0.3889 -0.6089
  231MPD1     H 3509   2.592   0.624  15.597 -0.9660  0.6293 -0.4659
  231MPD1    H1 3510   2.510   1.000  15.767  0.9749  0.2940  0.8913
  231MPD1    H2 3511   2.287   0.666  15.883 -0.2584  0.5978  0.5336
  231MPD1    H3 3512   2.329   0.890  15.897 -1.5128  0.4265 -2.8752
  231MPD1     N 3513   2.694   0.861  15.618  0.4083 -0.2753 -0.0524
  231MPD1    H5 3514   2.743   0.794  15.559 -1.9289 -2.4491  0.4805
  231MPD1    N1 3515   2.417   0.492  15.711 -0.6942  0.8101 -0.2315
  231MPD1    H6 3516   2.479   0.428  15.663 -1.9641 -1.3735  1.0480
  231MPD1    H7 3517   2.370   0.438  15.783 -2.4223  0.7107 -1.4363
  232MPD1     C 3518   0.287   3.923  17.297  0.3044 -0.5223 -0.5163
  232MPD1    C1 3519   0.200   3.952  17.395  0.1469 -0.2288 -0.5936
  232MPD1    C2 3520   0.200   3.875  17.513  0.1113  0.1424  0.1600
  232MPD1    C3 3521   0.271   3.762  17.526 -0.3259  0.6151  0.4009
  232MPD1    C4 3522   0.372   3.737  17.431  0.1089  0.0981 -0.5241
  232MPD1    C5 3523   0.381   3.821  17.320  0.2992  0.3938 -0.4764
  232MPD1     H 3524   0.125   3.901  17.587 -1.0878 -1.8122 -0.3516
  232MPD1    H1 3525   0.440   3.655  17.447  0.5162  0.3124 -1.1721
  232MPD1    H2 3526   0.294   3.984  17.208  1.2237  0.6491  0.3423
  232MPD1    H3 3527   0.438   3.783  17.236  0.4381 -0.5124  0.0381
  232MPD1     N 3528   0.250   3.689  17.642  0.4923  0.0702  0.2258
  232MPD1    H5 3529   0.187   3.737   0.011 -0.4488 -1.6708  0.5966
  232MPD1    N1 3530   0.130   4.076  17.385  0.7938 -0.2227  0.2924
  232MPD1    H6 3531   0.037   4.077  17.427  1.1937  3.4953  1.0998
  232MPD1    H7 3532   0.112   4.101  17.288 -0.8263  1.6337  1.0716
  233MPD1     C 3533   2.266   1.883   2.557 -0.0641 -0.0585  0.2119
  233MPD1    C1 3534   2.127   1.865   2.558  0.8466 -0.0358 -0.1634
  233MPD1    C2 3535   2.086   1.755   2.484 -0.7391  0.0236  0.5613
  233MPD1    C3 3536   2.164   1.670   2.410  0.5674 -0.1820 -0.0686
  233MPD1    C4 3537   2.292   1.705   2.389 -0.1863  0.6241  0.3038
  233MPD1    C5 3538   2.341   1.810   2.467 -0.0446  0.1558 -0.0408
  233MPD1     H 3539   1.982   1.731   2.503 -1.1246  0.1425 -1.3692
  233MPD1    H1 3540   2.356   1.651   2.320 -0.5621  1.6194 -0.8293
  233MPD1    H2 3541   2.313   1.958   2.619  0.4250  0.6485 -0.9989
  233MPD1    H3 3542   2.444   1.842   2.451  0.1841 -0.1540  0.8222
  233MPD1     N 3543   2.112   1.562   2.330 -0.9279 -0.2154 -0.4218
  233MPD1    H5 3544   2.175   1.512   2.268 -0.7579 -0.1556 -0.2960
  233MPD1    N1 3545   2.039   1.923   2.647 -0.0136 -1.0722 -0.1323
  233MPD1    H6 3546   1.943   1.922   2.612 -0.0672  1.1209 -0.0812
  233MPD1    H7 3547   2.066   2.019   2.667 -1.3267 -1.0051  1.3158
  234MPD1     C 3548   2.758   3.975   9.254 -0.3317 -0.6403  0.1237
  234MPD1    C1 3549   2.702   4.066   9.166  0.2737  0.5063  0.2114
  234MPD1    C2 3550   2.652   4.184   9.217  0.7010  0.0853 -0.5348
  234MPD1    C3 3551   2.664   4.220   9.349  0.4184 -0.1920 -0.2167
  234MPD1    C4 3552   2.727   4.130   9.433  0.1145 -0.4245 -0.3485
  234MPD1    C5 3553   2.758   4.008   9.389  0.0489  0.1872  0.5269
  234MPD1     H 3554   2.585   4.246   9.159 -1.2003 -1.8569 -0.4194
  234MPD1    H1 3555   2.745   4.150   9.538 -1.1729  0.8679 -0.3728
  234MPD1    H2 3556   2.803   3.885   9.216  0.7222  0.5101 -1.3387
  234MPD1    H3 3557   2.814   3.940   9.452  0.2019 -0.3060 -0.1328
  234MPD1     N 3558   2.609   4.340   9.398 -0.0396 -0.7207  0.1366
  234MPD1    H5 3559   2.577   4.402   9.324  0.1935  0.7958  1.3050
  234MPD1    N1 3560   2.672   4.022   9.033  0.1200  0.4224  0.6622
  234MPD1    H6 3561   2.736   3.949   9.002 -0.0402 -0.0413  1.4049
  234MPD1    H7 3562   2.674   4.109   8.981 -1.6345 -0.6644 -1.2280
  235MPD1     C 3563   3.820   1.824  10.661  0.0385 -0.5096  0.1263
  235MPD1    C1 3564   3.837   1.877  10.536 -0.1017 -0.8031  0.3311
  235MPD1    C2 3565   3.907   2.005  10.532 -0.2166  0.0178 -0.0723
  235MPD1    C3 3566   3.975   2.055  10.637 -0.0934  0.4030  0.3161
  235MPD1    C4 3567   3.978   1.982  10.755  0.5333 -0.4879  0.2492
  235MPD1    C5 3568   3.905   1.868  10.762 -0.2665 -0.2499  0.0862
  235MPD1     H 3569   3.913   2.065  10.442 -1.0564 -0.3676 -0.3885
  235MPD1    H1 3570   4.042   2.004  10.840 -3.0351  1.3759  2.4259
  235MPD1    H2 3571   3.765   1.736  10.693 -1.2520 -0.1517 -1.1099
  235MPD1    H3 3572   3.885   1.820  10.857 -3.9665  1.5007  0.2067
  235MPD1     N 3573   4.047   2.178  10.621  0.6022 -0.4551 -0.4138
  235MPD1    H5 3574   4.079   2.204  10.529 -0.6926  0.7612 -0.5064
  235MPD1    N1 3575   3.756   1.836  10.434 -0.1383  0.7955 -0.3873
  235MPD1    H6 3576   3.738   1.737  10.450 -2.6538  1.8435  3.1020
  235MPD1    H7 3577   3.795   1.842  10.340  1.2079 -1.9727 -0.0261
  236MPD1     C 3578   3.022   2.469   9.794 -0.6152  0.7998  0.0297
  236MPD1    C1 3579   3.076   2.597   9.822  0.6687 -0.7304 -1.0922
  236MPD1    C2 3580   3.125   2.614   9.949 -0.5028 -0.3814 -0.2399
  236MPD1    C3 3581   3.128   2.510  10.042 -0.5889  0.2620  0.1724
  236MPD1    C4 3582   3.056   2.395  10.018 -1.1027 -0.4517  0.4546
  236MPD1    C5 3583   3.009   2.378   9.895 -0.2193 -0.1241  0.3694
  236MPD1     H 3584   3.171   2.708   9.977 -0.1091  0.0685 -2.3988
  236MPD1    H1 3585   3.055   2.314  10.090  1.9082  1.0028  2.1583
  236MPD1    H2 3586   2.985   2.444   9.695  1.0387 -0.1785 -0.3460
  236MPD1    H3 3587   2.957   2.284   9.880  0.5557 -0.4445 -0.2939
  236MPD1     N 3588   3.193   2.517  10.174 -0.3206 -0.7738 -0.7336
  236MPD1    H5 3589   3.174   2.448  10.247  1.1669  0.0382  0.4146
  236MPD1    N1 3590   3.110   2.687   9.717  0.6507  0.2441  0.2662
  236MPD1    H6 3591   3.055   2.676   9.632  0.1967  1.4233  0.4036
  236MPD1    H7 3592   3.099   2.779   9.759 -2.8364  1.0305 -2.3102
  237MPD1     C 3593   3.117   2.596  15.836  0.4618 -0.3218  0.2591
  237MPD1    C1 3594   3.051   2.584  15.715  1.0043  1.0508 -0.0427
  237MPD1    C2 3595   2.970   2.473  15.698 -0.4493  0.1233  1.1054
  237MPD1    C3 3596   2.986   2.359  15.778  0.2148 -0.2007  0.5350
  237MPD1    C4 3597   3.061   2.369  15.890  0.2238  0.3844  0.1697
  237MPD1    C5 3598   3.127   2.484  15.913  0.1282  0.5845 -0.0218
  237MPD1     H 3599   2.910   2.474  15.607  2.2183 -1.3582 -0.6605
  237MPD1    H1 3600   3.064   2.298  15.972  0.7055 -0.8647 -0.9329
  237MPD1    H2 3601   3.162   2.689  15.872  2.7638 -0.2670 -2.7556
  237MPD1    H3 3602   3.167   2.494  16.013  2.1046 -1.3249 -0.6092
  237MPD1     N 3603   2.919   2.243  15.754  0.6192  0.5012  0.7507
  237MPD1    H5 3604   2.930   2.168  15.822 -2.1006 -0.1639  0.4606
  237MPD1    N1 3605   3.033   2.692  15.632  0.0195  0.1965  0.4273
  237MPD1    H6 3606   3.000   2.657  15.542 -0.6051 -0.3502  0.8670
  237MPD1    H7 3607   3.112   2.754  15.613 -0.1207  0.4584  0.7016
  238MPD1     C 3608   4.699   4.526  15.348 -0.2716  0.8641  0.0785
  238MPD1    C1 3609   4.711   4.603  15.235  0.1301  0.0862  0.2687
  238MPD1    C2 3610   4.664   0.006  15.249  0.0784 -0.0835 -0.7390
  238MPD1    C3 3611   4.607   0.057  15.367  0.4119  0.3316  0.9870
  238MPD1    C4 3612   4.589   4.698  15.478 -0.0334  0.5880  0.5963
  238MPD1    C5 3613   4.655   4.581  15.471  0.0672 -0.6536  0.0070
  238MPD1     H 3614   4.652   0.063  15.158 -0.1107  0.6309 -0.2683
  238MPD1    H1 3615   4.539   0.003  15.570 -0.2436  0.2057  0.5995
  238MPD1    H2 3616   0.001   4.421  15.359 -1.0049  0.8880  2.1090
  238MPD1    H3 3617   4.665   4.519  15.559  0.4142  1.4415  1.4465
  238MPD1     N 3618   4.553   0.184  15.384  0.5305  0.4698  0.6002
  238MPD1    H5 3619   4.507   0.208  15.471 -2.4702 -1.7369 -0.3967
  238MPD1    N1 3620   0.025   4.545  15.111  0.6478  0.1567  0.0231
  238MPD1    H6 3621   0.067   4.615  15.051  2.0498 -1.7119 -1.1655
  238MPD1    H7 3622   0.093   4.473  15.134 -0.1261 -0.8232 -0.7368
  239MPD1     C 3623   0.155   1.221  14.835 -0.5925  0.5763 -0.5553
  239MPD1    C1 3624   0.245   1.318  14.798 -1.0468  0.3175  0.7407
  239MPD1    C2 3625   0.222   1.394  14.676  0.6873  0.1595 -0.4253
  239MPD1    C3 3626   0.103   1.370  14.606 -0.2057 -0.8303  0.3590
  239MPD1    C4 3627   4.723   1.290  14.653  0.1407  0.4243 -0.7205
  239MPD1    C5 3628   0.032   1.216  14.767  0.1689 -0.1095 -0.3639
  239MPD1     H 3629   0.291   1.472  14.648  0.6991 -0.1030 -1.1334
  239MPD1    H1 3630   4.625   1.280  14.608  0.6904  0.5887 -1.9625
  239MPD1    H2 3631   0.168   1.156  14.920  0.2652  2.1876  0.5394
  239MPD1    H3 3632   4.682   1.149  14.811 -1.6964  1.4166 -1.1143
  239MPD1     N 3633   0.070   1.432  14.486  0.5519 -0.1721  0.7842
  239MPD1    H5 3634   4.702   1.424  14.443  0.3063  0.7717  1.1346
  239MPD1    N1 3635   0.367   1.317  14.874  0.5359 -0.2722 -0.0656
  239MPD1    H6 3636   0.409   1.410  14.866  0.5183 -0.2353  0.2989
  239MPD1    H7 3637   0.352   1.297  14.973  1.1261  0.3965  0.1567
  240MPD1     C 3638   3.958   0.843  13.718  0.1237 -1.2063 -0.4530
  240MPD1    C1 3639   3.922   0.718  13.770 -0.6140  0.4059 -0.0528
  240MPD1    C2 3640   3.909   0.704  13.905 -0.2409  0.1090 -0.2555
  240MPD1    C3 3641   3.913   0.811  13.998 -0.1047  0.0695  0.0505
  240MPD1    C4 3642   3.953   0.935  13.942 -0.1771  0.0513  0.2831
  240MPD1    C5 3643   3.975   0.946  13.804 -0.2601  0.1590  0.4223
  240MPD1     H 3644   3.893   0.604  13.944  0.7053 -0.0952 -0.3777
  240MPD1    H1 3645   3.969   1.024  14.002 -1.2554  1.2142 -1.1440
  240MPD1    H2 3646   3.978   0.874  13.616 -2.2785  1.9399  0.0470
  240MPD1    H3 3647   4.015   1.044  13.781  0.8844 -0.5793 -0.7257
  240MPD1     N 3648   3.895   0.804  14.139 -0.3290 -0.5400  0.1266
  240MPD1    H5 3649   3.871   0.710  14.169  0.6096  0.5688  4.3041
  240MPD1    N1 3650   3.916   0.603  13.690  0.6430 -0.2443  0.2397
  240MPD1    H6 3651   3.964   0.519  13.722 -2.6257 -1.3051  2.3710
  240MPD1    H7 3652   3.944   0.620  13.594 -0.1308  0.4575  0.1468
  241MPD1     C 3653   4.086   0.884  15.207  0.6668 -0.2021  0.1440
  241MPD1    C1 3654   4.057   1.001  15.128  1.0642  0.0506 -0.1786
  241MPD1    C2 3655   4.030   0.979  14.993 -0.4836 -0.0988 -0.3772
  241MPD1    C3 3656   4.059   0.855  14.936 -0.4371 -0.0951  0.1060
  241MPD1    C4 3657   4.092   0.746  15.008  0.1498 -0.2276 -0.0049
  241MPD1    C5 3658   4.101   0.760  15.147  1.0697 -0.4306  0.6012
  241MPD1     H 3659   4.000   1.063  14.932 -0.3960 -0.1134 -0.4407
  241MPD1    H1 3660   4.120   0.650  14.967  0.4634 -0.3630  0.5323
  241MPD1    H2 3661   4.089   0.901  15.314 -1.0185 -0.2069  0.1799
  241MPD1    H3 3662   4.123   0.667  15.198  0.4831 -1.3183 -0.7908
  241MPD1     N 3663   4.042   0.832  14.801 -0.5114  0.0619  0.4042
  241MPD1    H5 3664   4.040   0.737  14.765 -1.4534 -0.1034  0.8953
  241MPD1    N1 3665   4.034   1.124  15.188 -0.2667  0.3190 -0.3808
  241MPD1    H6 3666   4.049   1.204  15.127 -0.7036 -0.6901 -1.8435
  241MPD1    H7 3667   4.089   1.137  15.272 -0.5436 -1.0677  0.0177
  242MPD1     C 3668   3.793   4.445  16.146  0.1016  0.6327  0.2618
  242MPD1    C1 3669   3.742   4.491  16.028  0.3834  0.2043  0.6764
  242MPD1    C2 3670   3.760   4.423  15.914 -0.3557  0.3977 -0.0229
  242MPD1    C3 3671   3.816   4.296  15.924 -0.7410  0.7354 -0.4532
  242MPD1    C4 3672   3.858   4.239  16.044  0.6925  0.3173  0.3308
  242MPD1    C5 3673   3.851   4.322  16.157 -0.4159 -0.7303  0.2234
  242MPD1     H 3674   3.718   4.453  15.819  2.0642 -2.4430 -1.9801
  242MPD1    H1 3675   3.916   4.148  16.051  3.3563  2.0197  0.6831
  242MPD1    H2 3676   3.793   4.512  16.231  1.3212  0.8028  0.1200
  242MPD1    H3 3677   3.892   4.280  16.249  0.4041  1.6684  0.9412
  242MPD1     N 3678   3.827   4.213  15.807 -0.2385  0.0469 -0.7132
  242MPD1    H5 3679   3.882   4.128  15.816 -1.3351 -0.7630 -1.7964
  242MPD1    N1 3680   3.690   4.626  16.024  0.3070  0.5191  0.1728
  242MPD1    H6 3681   3.621   4.635  15.950  2.1419 -1.5979 -1.8220
  242MPD1    H7 3682   3.657   4.667  16.111 -0.5297 -1.7828  0.9525
  243MPD1     C 3683   0.540   2.223   0.029 -0.0248 -0.2008 -0.3642
  243MPD1    C1 3684   0.633   2.118   0.003 -0.1855  0.2359  0.7312
  243MPD1    C2 3685   0.735   2.149  17.605 -0.2031 -0.7256  0.0493
  243MPD1    C3 3686   0.748   2.272  17.539  0.4957 -0.2283  0.6192
  243MPD1    C4 3687   0.650   2.369  17.564 -0.3915 -0.0769 -0.1678
  243MPD1    C5 3688   0.545   2.338  17.652 -0.0847  0.0713  0.9022
  243MPD1     H 3689   0.802   2.066  17.586  1.4032  0.3132  1.2113
  243MPD1    H1 3690   0.646   2.459  17.504 -1.6428 -0.7079 -1.0257
  243MPD1    H2 3691   0.471   2.221   0.112 -0.8956  1.0473 -1.0557
  243MPD1    H3 3692   0.476   2.420  17.673  0.7263  1.3559 -1.4369
  243MPD1     N 3693   0.845   2.279  17.439  0.0486 -0.6406  0.1290
  243MPD1    H5 3694   0.903   2.196  17.431  1.2514  0.0491  1.5964
  243MPD1    N1 3695   0.639   1.998   0.082 -0.3208  0.3225 -0.3332
  243MPD1    H6 3696   0.683   1.929   0.021 -1.1847 -0.3313 -0.2172
  243MPD1    H7 3697   0.542   1.979   0.108  0.5670 -1.4199  1.8065
  244MPD1     C 3698   1.688   2.053  17.487 -0.1929  0.2431 -0.2284
  244MPD1    C1 3699   1.569   1.994  17.510 -0.3424  0.2288 -1.2017
  244MPD1    C2 3700   1.457   2.047  17.449 -0.4016 -0.2381  1.2181
  244MPD1    C3 3701   1.461   2.162  17.369 -0.4471 -0.0734  0.3630
  244MPD1    C4 3702   1.577   2.228  17.361 -0.6553  0.0814  0.4432
  244MPD1    C5 3703   1.688   2.180  17.424  0.1515 -0.6479 -0.4714
  244MPD1     H 3704   1.360   2.000  17.457  0.3092 -1.6765  1.2506
  244MPD1    H1 3705   1.571   2.331  17.327 -1.5601  0.6277  2.2362
  244MPD1    H2 3706   1.781   2.008  17.521 -0.7533  0.2793  1.3155
  244MPD1    H3 3707   1.779   2.237  17.419 -0.1778 -0.1973 -1.3126
  244MPD1     N 3708   1.343   2.213  17.310  0.1861 -0.3782 -0.6994
  244MPD1    H5 3709   1.254   2.180  17.344  0.4297  0.9962  1.2286
  244MPD1    N1 3710   1.563   1.862  17.549 -0.5763 -0.2603  0.3147
  244MPD1    H6 3711   1.488   1.848  17.617 -0.2367  0.8930  0.9358
  244MPD1    H7 3712   1.641   1.832  17.607  0.4605  1.3071 -0.2739
  245MPD1     C 3713   2.609   2.740  13.682 -0.0088  0.4267 -0.3013
  245MPD1    C1 3714   2.520   2.844  13.700 -0.0725  1.4364  0.9402
  245MPD1    C2 3715   2.544   2.939  13.794 -0.3969 -0.6287  0.5016
  245MPD1    C3 3716   2.657   2.934  13.876  0.2423 -0.6405 -0.5717
  245MPD1    C4 3717   2.742   2.824  13.862  0.2670  0.2342 -0.1452
  245MPD1    C5 3718   2.719   2.727  13.768  0.1350 -0.1769 -0.0751
  245MPD1     H 3719   2.466   3.014  13.805 -1.1190 -1.2548 -0.4003
  245MPD1    H1 3720   2.823   2.798  13.930  0.3976 -0.5576 -0.6136
  245MPD1    H2 3721   2.590   2.676  13.597 -0.9410 -1.8366  1.6425
  245MPD1    H3 3722   2.784   2.643  13.748 -3.4291 -2.8543 -0.5190
  245MPD1     N 3723   2.688   3.050  13.957  0.1464 -0.0700 -0.4084
  245MPD1    H5 3724   2.627   3.131  13.962 -0.3947 -0.4750 -0.3165
  245MPD1    N1 3725   2.416   2.867  13.611 -0.0292  0.2285  0.3590
  245MPD1    H6 3726   2.372   2.781  13.577  1.1725  0.1564 -1.0333
  245MPD1    H7 3727   2.343   2.914  13.664  0.0064  1.0349 -0.2999
  246MPD1     C 3728   3.003   0.259   9.277 -0.1925 -0.2320  0.2672
  246MPD1    C1 3729   3.034   0.178   9.169 -0.4758  0.2369 -0.0429
  246MPD1    C2 3730   3.137   0.083   9.196 -0.3691 -0.2950  0.6210
  246MPD1    C3 3731   3.204   0.074   9.317  0.0921  0.2882 -0.0476
  246MPD1    C4 3732   3.165   0.158   9.422  0.4185 -0.2047 -0.1995
  246MPD1    C5 3733   3.066   0.245   9.395  0.6723 -0.0622 -0.0163
  246MPD1     H 3734   3.185   0.020   9.122 -2.0154  1.7475 -2.1983
  246MPD1    H1 3735   3.190   0.138   9.525  0.1280  3.0221  0.4921
  246MPD1    H2 3736   2.929   0.337   9.262 -0.3022 -0.1260  1.3350
  246MPD1    H3 3737   3.013   0.288   9.480  1.4827  0.2624  0.3216
  246MPD1     N 3738   3.294   4.696   9.343  0.4334 -0.3049 -0.2375
  246MPD1    H5 3739   3.298   4.627   9.268  0.3748 -0.6125  0.0399
  246MPD1    N1 3740   2.995   0.206   9.041 -0.1283  0.5568 -0.0472
  246MPD1    H6 3741   2.901   0.240   9.056  0.0087  1.2079 -0.6549
  246MPD1    H7 3742   2.982   0.120   8.988  4.1743 -1.8545  2.7896
  247MPD1     C 3743   1.712   3.959  16.960  0.7225  0.4891 -0.6448
  247MPD1    C1 3744   1.807   3.859  16.943 -0.1984 -0.4560  0.0706
  247MPD1    C2 3745   1.792   3.759  16.844  0.3135  1.0639  0.3682
  247MPD1    C3 3746   1.693   3.778  16.744 -0.2136 -0.1913 -0.2616
  247MPD1    C4 3747   1.616   3.889  16.758 -0.1865  0.2417  0.6309
  247MPD1    C5 3748   1.616   3.968  16.867 -0.0763  0.4983 -0.6059
  247MPD1     H 3749   1.870   3.685  16.834 -0.7422 -0.0388  0.3027
  247MPD1    H1 3750   1.539   3.911  16.685  0.2092 -1.9272 -0.4596
  247MPD1    H2 3751   1.715   4.034  17.038 -3.7512  2.5797 -2.4872
  247MPD1    H3 3752   1.538   4.042  16.884 -0.4713  0.0004 -0.2359
  247MPD1     N 3753   1.678   3.704  16.621 -0.0437 -0.8774  0.2004
  247MPD1    H5 3754   1.605   3.731  16.555 -2.2275 -2.3620  2.0053
  247MPD1    N1 3755   1.897   3.835  17.046 -0.8498 -0.4303  0.2366
  247MPD1    H6 3756   1.938   3.915  17.094 -2.4337  1.4950 -1.6083
  247MPD1    H7 3757   1.970   3.773  17.013 -0.7937 -0.4983  0.4908
  248MPD1     C 3758   3.647   2.508  17.595  0.1038 -0.5113 -0.8046
  248MPD1    C1 3759   3.520   2.544  17.560 -0.3560 -0.5804 -0.1567
  248MPD1    C2 3760   3.428   2.561  17.660  0.4351  0.0878  0.4620
  248MPD1    C3 3761   3.459   2.542   0.100  0.0360 -0.6750  0.3126
  248MPD1    C4 3762   3.584   2.502   0.131  0.4270 -0.3663  0.2300
  248MPD1    C5 3763   3.680   2.484   0.030  0.0146 -0.3363 -0.0389
  248MPD1     H 3764   3.325   2.579  17.632  0.0539 -1.3881  0.9417
  248MPD1    H1 3765   3.622   2.470   0.227 -2.3655 -2.1227  0.7556
  248MPD1    H2 3766   3.726   2.491  17.522  0.4437 -2.6155  0.0716
  248MPD1    H3 3767   3.782   2.462   0.062 -0.5705 -0.9438  1.4379
  248MPD1     N 3768   3.364   2.581   0.200  0.1708  0.0551 -0.5397
  248MPD1    H5 3769   3.268   2.598   0.175 -0.6434 -4.2927 -0.3319
  248MPD1    N1 3770   3.476   2.537  17.425 -0.1019  0.2874 -0.4544
  248MPD1    H6 3771   3.559   2.559  17.369  0.6148  1.9174  1.2695
  248MPD1    H7 3772   3.398   2.601  17.416 -1.6450 -1.8368 -2.2831
  249MPD1     C 3773   4.517   2.058   9.776  0.1163  0.8603 -0.8869
  249MPD1    C1 3774   4.488   2.024   9.909 -0.4201 -0.1619 -0.2776
  249MPD1    C2 3775   4.459   1.897   9.940 -0.2252  0.5819  0.2101
  249MPD1    C3 3776   4.429   1.811   9.836  0.0200  0.3376 -0.0362
  249MPD1    C4 3777   4.459   1.842   9.708  0.1005  0.4612 -0.0770
  249MPD1    C5 3778   4.507   1.969   9.676 -0.0949  0.3350 -0.4913
  249MPD1     H 3779   4.440   1.866  10.042  0.0357 -1.2968 -0.3250
  249MPD1    H1 3780   4.452   1.772   9.626  0.0323  0.8841 -0.4324
  249MPD1    H2 3781   4.546   2.158   9.743  0.3724  1.5601  1.4666
  249MPD1    H3 3782   4.532   1.975   9.571 -1.3045 -0.5347 -0.8256
  249MPD1     N 3783   4.384   1.690   9.880  0.4787 -0.3297 -0.0576
  249MPD1    H5 3784   4.362   1.692   9.979 -1.8290 -0.4522 -0.5493
  249MPD1    N1 3785   4.507   2.121  10.010 -0.6764 -0.7119  0.3530
  249MPD1    H6 3786   4.452   2.102  10.094 -2.0186 -0.2517 -0.4187
  249MPD1    H7 3787   4.490   2.216   9.978 -0.3468 -0.3438  1.2800
  250MPD2     C 3788   0.524   2.004  13.085  0.3251  0.1457  0.1604
  250MPD2    C1 3789   0.468   2.048  12.967  1.3426 -0.3142  0.1851
  250MPD2    C2 3790   0.406   1.961  12.876  0.3575  0.0404 -0.1911
  250MPD2    C3 3791   0.409   1.826  12.909  0.2593  0.5743  0.2063
  250MPD2    C4 3792   0.456   1.783  13.030  0.3763  0.0773 -0.2831
  250MPD2    C5 3793   0.513   1.875  13.111  0.1925  0.2115 -0.0964
  250MPD2     H 3794   0.354   1.997  12.788 -0.1590 -0.7367 -0.2016
  250MPD2    H1 3795   0.435   1.684  13.069  0.3539  1.0828  2.2647
  250MPD2    H2 3796   0.565   2.060  13.168 -0.4582  0.7157  0.1698
  250MPD2    H3 3797   0.552   1.834  13.203 -0.3961  0.8034  0.4174
  250MPD2     N 3798   0.365   1.717  12.830  0.5246  0.6466  0.1149
  250MPD2    H5 3799   0.353   1.627  12.876  0.0991  0.3870 -0.5033
  250MPD2    N1 3800   0.485   2.190  12.952 -0.1653 -0.3886  0.0734
  250MPD2    H7 3801   0.557   2.235  13.008 -0.8460 -0.0174  0.6485
  251TMC3    C1 3802   0.460   2.408  12.908 -0.7642  0.4232  1.0373
  251TMC3    C2 3803   0.365   2.508  12.904  0.4262 -0.5244  0.0981
  251TMC3    C3 3804   0.399   2.634  12.945 -0.1787  0.7216  0.4894
  251TMC3    C4 3805   0.581   2.429  12.952 -1.0899  0.7794  0.2710
  251TMC3    C5 3806   0.611   2.550  12.995 -0.1375  0.1202  0.4288
  251TMC3    C6 3807   0.527   2.658  12.989 -0.4533 -0.6679  0.6865
  251TMC3     C 3808   0.411   2.276  12.879 -0.3822 -0.7246 -0.9926
  251TMC3     O 3809   0.312   2.254  12.817  0.5349 -0.2289  0.8586
  251TMC3     H 3810   0.266   2.489  12.864  1.1271 -0.0874 -1.8537
  251TMC3    H1 3811   0.659   2.354  12.954 -0.6831  1.1579 -1.6500
  251TMC3    H2 3812   0.551   2.756  13.029  0.1724 -1.2889  1.8494
  251TMC3    C7 3813   0.728   2.564  13.077 -0.5951 -0.6484 -0.2161
  251TMC3    C8 3814   0.316   2.747  12.905 -0.3325 -0.3801  0.1817
  251TMC3    O1 3815   0.760   2.466  13.142 -0.1084 -0.0694 -0.1406
  251TMC3    O2 3816   0.196   2.729  12.886  0.2269 -0.3530  0.0317
  252TMC3    C1 3817   1.048   2.704   9.549 -0.0269 -0.3709  0.4353
  252TMC3    C2 3818   1.165   2.783   9.516 -0.2502 -0.4402  0.1886
  252TMC3    C3 3819   1.274   2.760   9.590  0.0869 -0.1271 -0.8610
  252TMC3    C4 3820   1.050   2.611   9.650 -0.4842 -0.2583 -0.5759
  252TMC3    C5 3821   1.156   2.619   9.737  0.1610  0.0311 -0.0947
  252TMC3    C6 3822   1.272   2.686   9.703 -0.0915 -0.4503  0.4779
  252TMC3     C 3823   0.940   2.708   9.454  0.4508  0.1353  0.1377
  252TMC3     O 3824   0.953   2.785   9.358 -0.0005  0.0835 -0.2198
  252TMC3     H 3825   1.161   2.857   9.437 -1.0043 -1.8843 -1.1257
  252TMC3    H1 3826   0.958   2.559   9.675  0.0747 -0.4016  1.2057
  252TMC3    H2 3827   1.350   2.665   9.775  0.2275 -0.2493  0.1910
  252TMC3    C7 3828   1.165   2.531   9.851 -0.0760 -0.2823  0.3009
  252TMC3    C8 3829   1.396   2.829   9.558 -0.6167 -0.9166 -0.2777
  252TMC3    O1 3830   1.250   2.561   9.934 -0.1077 -0.1390 -0.7115
  252TMC3    O2 3831   1.406   2.868   9.444 -0.3128  0.5056 -0.0546
  253MPD2     C 3832   2.108   1.817  15.253  0.2923 -0.1997  0.1933
  253MPD2    C1 3833   2.016   1.920  15.242  0.6199  0.0599 -0.0832
  253MPD2    C2 3834   2.039   2.039  15.304 -0.3319  0.3048  0.2240
  253MPD2    C3 3835   2.148   2.059  15.392  0.6991  0.2303 -0.6341
  253MPD2    C4 3836   2.244   1.964  15.399 -0.1215  0.1832 -0.2320
  253MPD2    C5 3837   2.224   1.845  15.325  0.3870 -0.6922  0.2902
  253MPD2     H 3838   1.958   2.111  15.294 -0.8631 -0.1027  1.6356
  253MPD2    H1 3839   2.335   1.980  15.455 -1.6532  1.1301  1.9922
  253MPD2    H2 3840   2.098   1.720  15.205  3.6599 -0.7189  0.5218
  253MPD2    H3 3841   2.294   1.762  15.324  0.9067 -0.2383 -3.3348
  253MPD2     N 3842   2.165   2.173  15.471 -0.2536  0.8050  0.0074
  253MPD2    H5 3843   2.233   2.171  15.546  0.8139  0.2271 -0.9839
  253MPD2    N1 3844   1.893   1.903  15.177 -0.0909 -0.7494  0.5557
  253MPD2    H7 3845   1.844   1.990  15.163  0.8421 -0.2001  0.6960
  254TMC3    C1 3846   2.083   2.346  15.604 -0.3558  0.6807 -0.6297
  254TMC3    C2 3847   2.011   2.463  15.611  0.7645 -0.9358 -0.0982
  254TMC3    C3 3848   1.962   2.498  15.732 -0.1965 -0.3676 -0.5649
  254TMC3    C4 3849   2.124   2.276  15.718  0.3881  0.2947  0.2732
  254TMC3    C5 3850   2.082   2.327  15.838 -0.8615  0.3053 -0.0148
  254TMC3    C6 3851   2.004   2.438  15.849  1.1096  0.6808  0.7507
  254TMC3     C 3852   2.076   2.284  15.470  0.1974  0.0565 -0.2702
  254TMC3     O 3853   1.997   2.330  15.391 -0.1866  0.2353  0.0971
  254TMC3     H 3854   1.978   2.511  15.520  0.2674  0.5665  0.8750
  254TMC3    H1 3855   2.172   2.179  15.710  2.2136  1.3753 -1.9630
  254TMC3    H2 3856   1.994   2.478  15.949 -0.9939 -0.6213  1.0531
  254TMC3    C7 3857   2.127   2.261  15.956 -0.2252  0.8955  0.0181
  254TMC3    C8 3858   1.880   2.622  15.754  0.3012  0.4756 -0.4261
  254TMC3    O1 3859   2.046   2.268  16.049 -0.6560 -0.0467 -0.3492
  254TMC3    O2 3860   1.882   2.705  15.668 -0.3385  0.4790  0.2225
  255MPD2     C 3861   1.153   3.750  10.147 -0.3250  0.1720 -0.1186
  255MPD2    C1 3862   1.204   3.874  10.184 -0.3878 -0.7639 -0.3898
  255MPD2    C2 3863   1.228   3.970  10.091 -0.2545  0.2640 -0.4416
  255MPD2    C3 3864   1.201   3.936   9.956  0.3327 -0.1615 -0.9265
  255MPD2    C4 3865   1.144   3.814   9.920 -0.1255 -0.2574 -0.7017
  255MPD2    C5 3866   1.112   3.727  10.024  0.5176  0.5463 -0.0728
  255MPD2     H 3867   1.280   4.064  10.104 -0.4887  0.3508 -0.1444
  255MPD2    H1 3868   1.111   3.786   9.820 -0.9687 -1.6118 -0.0353
  255MPD2    H2 3869   1.131   3.672  10.219  0.2402  0.5170  0.4207
  255MPD2    H3 3870   1.074   3.627  10.005  0.7153  0.4409  0.0796
  255MPD2     N 3871   1.236   4.022   9.858  0.3446  0.0584  0.1806
  255MPD2    H5 3872   1.283   4.105   9.895  0.1362 -0.0278  0.6379
  255MPD2    N1 3873   1.237   3.891  10.323 -0.0376 -0.2620 -0.2324
  255MPD2    H7 3874   1.216   3.816  10.387 -0.6578  1.0037  1.0320
  256TMC3    C1 3875   1.345   3.999  10.508  0.2026  0.6072 -0.4304
  256TMC3    C2 3876   1.465   4.068  10.522  0.0135  0.6193  0.2397
  256TMC3    C3 3877   1.484   4.145  10.632 -0.2566  0.1566 -0.1248
  256TMC3    C4 3878   1.253   3.997  10.604  0.5845  0.5962  0.9080
  256TMC3    C5 3879   1.271   4.077  10.713  0.4587  0.0585 -0.5514
  256TMC3    C6 3880   1.386   4.150  10.731 -0.1158 -0.5948 -0.0933
  256TMC3     C 3881   1.302   4.000  10.370 -0.0650  0.0045  0.3043
  256TMC3     O 3882   1.339   4.107  10.319 -0.7354  0.0216 -0.2374
  256TMC3     H 3883   1.532   4.071  10.438  0.2625  0.9209  0.4508
  256TMC3    H1 3884   1.160   3.948  10.580  1.0141  0.6995 -0.9347
  256TMC3    H2 3885   1.395   4.223  10.811  0.9038  0.3091 -1.0293
  256TMC3    C7 3886   1.156   4.164  10.715  0.2452 -0.1105 -0.0740
  256TMC3    C8 3887   1.527   4.280  10.602 -0.3084  0.6633 -0.1115
  256TMC3    O1 3888   1.051   4.109  10.692 -0.1147 -0.4292 -0.0177
  256TMC3    O2 3889   1.593   4.341  10.689 -0.2037  0.3178  0.6336
  257MPD2     C 3890   4.510   2.010  13.328 -0.3043  0.1606  0.2819
  257MPD2    C1 3891   4.500   1.908  13.238  0.3165  0.7090 -0.5384
  257MPD2    C2 3892   4.521   1.778  13.280  0.1589  0.4475  0.6639
  257MPD2    C3 3893   4.532   1.747  13.418  0.6183  0.3838  0.5463
  257MPD2    C4 3894   4.538   1.852  13.506 -0.4623  1.1946  0.5092
  257MPD2    C5 3895   4.525   1.978  13.457 -0.2030  0.1535 -0.6891
  257MPD2     H 3896   4.510   1.689  13.218  0.6908  0.8463 -0.0014
  257MPD2    H1 3897   4.566   1.829  13.609 -0.8352 -0.8889  0.1374
  257MPD2    H2 3898   4.497   2.114  13.299 -0.1386  0.1723  0.2485
  257MPD2    H3 3899   4.508   2.056  13.530 -0.8668  0.1849 -0.8762
  257MPD2     N 3900   4.549   1.614  13.447  0.0600 -0.0639  0.5181
  257MPD2    H5 3901   4.567   1.557  13.364 -0.0685  1.5225 -0.6025
  257MPD2    N1 3902   4.475   1.943  13.107  0.0131 -0.2189  0.7134
  257MPD2    H7 3903   4.478   2.042  13.082  3.1625  0.1742  2.7271
  258TMC3    C1 3904   4.566   1.416  13.573  0.1828  0.0226  0.1097
  258TMC3    C2 3905   4.511   1.337  13.467 -0.4993 -0.5651  0.2376
  258TMC3    C3 3906   4.545   1.205  13.459  0.7394 -0.0552 -0.0480
  258TMC3    C4 3907   4.619   1.354  13.681  0.1987 -0.4538  0.2028
  258TMC3    C5 3908   4.641   1.217  13.682 -0.9937 -0.3474  0.6355
  258TMC3    C6 3909   4.599   1.144  13.571 -0.0025  0.2383 -0.0148
  258TMC3     C 3910   4.554   1.556  13.576  0.6303 -0.0117  0.1387
  258TMC3     O 3911   4.553   1.599  13.689  0.3669  0.2911 -0.7214
  258TMC3     H 3912   4.461   1.384  13.383  1.5326  0.4697 -0.3901
  258TMC3    H1 3913   4.648   1.408  13.770  0.0440  0.5653 -0.3635
  258TMC3    H2 3914   4.614   1.037  13.577  0.8215  0.1937 -2.6327
  258TMC3    C7 3915   4.632   1.141  13.816 -0.4722  0.0229  0.9951
  258TMC3    C8 3916   4.516   1.123  13.347 -0.0774  0.2369  0.4625
  258TMC3    O1 3917   4.568   1.035  13.810 -0.3554  0.3351  0.3379
  258TMC3    O2 3918   4.528   1.001  13.361 -0.0979 -0.2928  0.1056
  259MPD2     C 3919   3.363   3.257   0.804 -0.6526 -0.5797 -0.4326
  259MPD2    C1 3920   3.469   3.162   0.814 -0.1170  0.4663  0.5531
  259MPD2    C2 3921   3.551   3.142   0.707  0.1171  0.1504  0.1549
  259MPD2    C3 3922   3.527   3.211   0.591  0.7113  0.3922  0.5023
  259MPD2    C4 3923   3.415   3.293   0.580 -0.3591 -0.5101  0.1087
  259MPD2    C5 3924   3.340   3.326   0.685 -0.3113  0.5480  0.6089
  259MPD2     H 3925   3.644   3.089   0.720 -0.3959 -0.8363 -0.1446
  259MPD2    H1 3926   3.389   3.337   0.484 -1.5039 -0.8075  0.2801
  259MPD2    H2 3927   3.303   3.286   0.889  0.1078  1.0430 -0.4422
  259MPD2    H3 3928   3.263   3.401   0.670  0.0033  1.1832  2.1837
  259MPD2     N 3929   3.624   3.205   0.493 -0.3562  0.6638 -0.5016
  259MPD2    H5 3930   3.703   3.141   0.503  1.5846  3.1081 -0.2376
  259MPD2    N1 3931   3.494   3.107   0.946 -0.1109  0.0402  0.6786
  259MPD2    H7 3932   3.431   3.129   1.023 -1.8744 -0.3843 -0.6203
  260TMC3    C1 3933   3.760   3.278   0.320  0.2355 -0.7439  0.1786
  260TMC3    C2 3934   3.817   3.392   0.268  0.8182  0.1746 -0.3217
  260TMC3    C3 3935   3.932   3.370   0.198  0.1697  0.6032 -0.0086
  260TMC3    C4 3936   3.813   3.158   0.285  0.4261 -0.7345  0.0282
  260TMC3    C5 3937   3.938   3.141   0.237 -0.0660 -0.1258 -0.0056
  260TMC3    C6 3938   3.995   3.252   0.179  0.7629  0.2432 -0.2374
  260TMC3     C 3939   3.647   3.304   0.402 -0.5464  0.6576 -0.1030
  260TMC3     O 3940   3.590   3.413   0.376  0.0758 -0.0404 -0.5042
  260TMC3     H 3941   3.789   3.490   0.306  0.2785 -0.6885  1.5304
  260TMC3    H1 3942   3.763   3.067   0.315  0.0499  0.3921  2.8350
  260TMC3    H2 3943   4.089   3.243   0.126  2.0651 -0.4576  2.2031
  260TMC3    C7 3944   3.985   3.010   0.196  0.2149  0.3444  0.6768
  260TMC3    C8 3945   4.010   3.492   0.180  0.4953 -0.4411  0.3961
  260TMC3    O1 3946   4.033   3.008   0.084 -0.0875  0.2955 -0.1949
  260TMC3    O2 3947   3.947   3.597   0.185  0.2173  0.1095  0.2264
  261MPD2     C 3948   4.646   1.291  12.269  0.1388 -0.0647 -0.1108
  261MPD2    C1 3949   4.700   1.417  12.254 -0.6176 -0.1594 -0.5892
  261MPD2    C2 3950   4.722   1.464  12.129  0.5275 -0.1994  0.1887
  261MPD2    C3 3951   4.687   1.386  12.016 -0.1965  0.1532 -0.0008
  261MPD2    C4 3952   4.633   1.264  12.034  0.2312  0.1928  0.0950
  261MPD2    C5 3953   4.611   1.219  12.159  0.3983 -0.2730  0.1197
  261MPD2     H 3954   0.050   1.559  12.117  0.6387 -0.3603 -0.6062
  261MPD2    H1 3955   4.608   1.203  11.948 -0.4525  1.3016 -0.5064
  261MPD2    H2 3956   4.636   1.249  12.369 -1.0746  0.5422  0.0329
  261MPD2    H3 3957   4.576   1.118  12.174 -2.8147  0.9963  1.2462
  261MPD2     N 3958   0.000   1.436  11.883  0.5332  0.1330 -0.7073
  261MPD2    H5 3959   0.028   1.533  11.876  2.3866 -0.4945 -1.9346
  261MPD2    N1 3960   0.018   1.488  12.370 -0.6049  0.0110 -0.3726
  261MPD2    H7 3961   0.095   1.553  12.357 -2.9378  2.3480 -2.4794
  262TMC3    C1 3962   0.006   1.455  11.655  0.1981  0.2983 -0.1005
  262TMC3    C2 3963   0.037   1.594  11.679  0.4102 -0.3457 -0.1352
  262TMC3    C3 3964   0.053   1.663  11.560  0.2272 -0.8703 -0.3196
  262TMC3    C4 3965   0.016   1.396  11.534  0.1387  0.0556 -0.3624
  262TMC3    C5 3966   0.051   1.468  11.426 -0.2224  0.4273  0.3366
  262TMC3    C6 3967   0.080   1.606  11.430  0.0615  0.1917 -0.1319
  262TMC3     C 3968   4.703   1.372  11.768  0.2544  0.1368  0.0178
  262TMC3     O 3969   4.698   1.251  11.757  0.3118  0.3822  0.1795
  262TMC3     H 3970   0.011   1.651  11.768  0.2578  0.4421 -0.6767
  262TMC3    H1 3971   4.708   1.293  11.522 -0.9373  0.3104  0.2480
  262TMC3    H2 3972   0.067   1.670  11.344  1.3450 -2.3958 -2.2663
  262TMC3    C7 3973   0.035   1.396  11.295  0.9694  0.1556  0.1070
  262TMC3    C8 3974   0.090   1.809  11.560  0.3084 -0.1206 -0.2513
  262TMC3    O1 3975   4.669   1.316  11.301  0.0107  0.2811  0.3541
  262TMC3    O2 3976   0.168   1.857  11.476 -0.5499  0.2991  0.3779
  263MPD2     C 3977   1.197   1.103  11.620  0.1256 -0.4877  0.4613
  263MPD2    C1 3978   1.283   1.029  11.540  0.4071  0.1393 -0.5033
  263MPD2    C2 3979   1.274   1.037  11.399 -1.0226  0.4668  0.1403
  263MPD2    C3 3980   1.189   1.128  11.338 -0.3323  0.3603 -0.1122
  263MPD2    C4 3981   1.106   1.204  11.422 -0.4341 -0.0031  0.7877
  263MPD2    C5 3982   1.111   1.188  11.558  0.1522 -0.2350  0.0148
  263MPD2     H 3983   1.350   0.988  11.339 -0.0172  1.5105  0.5531
  263MPD2    H1 3984   1.027   1.271  11.389 -0.1876 -0.0332  0.1423
  263MPD2    H2 3985   1.209   1.103  11.728  0.8618 -3.0982  0.3935
  263MPD2    H3 3986   1.047   1.241  11.628  0.8192 -0.1619  0.5666
  263MPD2     N 3987   1.195   1.149  11.192 -0.5311  1.1466  0.1812
  263MPD2    H5 3988   1.273   1.111  11.140 -1.6279 -0.1198 -0.5367
  263MPD2    N1 3989   1.381   0.957  11.606  0.3150 -0.1773 -0.1295
  263MPD2    H7 3990   1.381   0.973  11.706 -0.3074 -0.1965 -0.1275
  264TMC3    C1 3991   1.149   1.267  10.991 -0.0450  0.2675 -0.3031
  264TMC3    C2 3992   1.165   1.403  10.973  0.2451 -0.0416 -0.1465
  264TMC3    C3 3993   1.247   1.437  10.870  0.2852 -0.7144 -0.1155
  264TMC3    C4 3994   1.206   1.170  10.915 -0.2621  0.3704  0.5749
  264TMC3    C5 3995   1.287   1.211  10.820 -0.0377 -0.7962  0.5787
  264TMC3    C6 3996   1.311   1.343  10.793  0.4308  0.0610 -0.6201
  264TMC3     C 3997   1.107   1.234  11.123  0.5174  0.1797  0.2968
  264TMC3     O 3998   1.007   1.302  11.165 -0.3415 -0.4128 -0.7888
  264TMC3     H 3999   1.141   1.475  11.050 -0.8124  0.3983 -0.8884
  264TMC3    H1 4000   1.178   1.066  10.923  1.7133 -0.2303 -0.1166
  264TMC3    H2 4001   1.371   1.377  10.710 -0.6352 -0.7904 -1.7411
  264TMC3    C7 4002   1.372   1.117  10.741  0.8551  0.4532  0.2584
  264TMC3    C8 4003   1.298   1.568  10.862 -0.3332 -0.4508 -0.1983
  264TMC3    O1 4004   1.438   1.168  10.648 -0.8165  0.8199  0.0306
  264TMC3    O2 4005   1.394   1.590  10.792  0.0591  0.3603  0.3856
  265MPD2     C 4006   3.899   1.481  15.610  0.0656  0.1231  0.4404
  265MPD2    C1 4007   3.822   1.580  15.549  0.5490  0.2827  0.1336
  265MPD2    C2 4008   3.842   1.598  15.414  0.0256 -0.4195  0.2021
  265MPD2    C3 4009   3.924   1.520  15.341  0.3130  0.0645  0.9149
  265MPD2    C4 4010   3.995   1.421  15.401 -0.0941  0.1378  0.0769
  265MPD2    C5 4011   3.990   1.398  15.534 -0.4014  0.4864  0.1648
  265MPD2     H 4012   3.783   1.669  15.357  1.0614 -0.1436 -0.5275
  265MPD2    H1 4013   4.062   1.351  15.352  1.0300  1.3146 -0.0838
  265MPD2    H2 4014   3.878   1.453  15.712 -1.2804 -1.7008 -0.3381
  265MPD2    H3 4015   4.054   1.319  15.571 -1.0216 -0.0032  0.1918
  265MPD2     N 4016   3.947   1.541  15.203 -0.2444  0.2037  0.0041
  265MPD2    H5 4017   4.006   1.471  15.159  0.2402  1.1988 -0.9474
  265MPD2    N1 4018   3.719   1.653  15.614 -0.0562  0.2099 -0.0154
  265MPD2    H7 4019   3.666   1.702  15.543  1.2376 -0.6931 -1.5930
  266TMC3    C1 4020   3.563   1.726  15.778 -0.7112 -0.2504 -0.0061
  266TMC3    C2 4021   3.534   1.772  15.904 -0.5812 -0.6600  0.6685
  266TMC3    C3 4022   3.425   1.847  15.921 -0.0453 -0.4215 -0.9002
  266TMC3    C4 4023   3.481   1.765  15.669  0.0045 -0.4444 -0.3169
  266TMC3    C5 4024   3.370   1.847  15.695 -0.6567 -0.2359 -0.6535
  266TMC3    C6 4025   3.340   1.893  15.818 -0.0746  0.6939 -0.9934
  266TMC3     C 4026   3.687   1.653  15.748 -0.0223  0.4279  0.8173
  266TMC3     O 4027   3.767   1.617  15.838 -0.8739  0.2304  0.7386
  266TMC3     H 4028   3.580   1.725  15.990  1.1469  1.3451  0.8391
  266TMC3    H1 4029   3.504   1.736  15.568 -4.3109 -0.3810 -1.3227
  266TMC3    H2 4030   3.241   1.931  15.840 -0.8967 -0.5370 -2.5991
  266TMC3    C7 4031   3.287   1.882  15.580 -0.2696  0.0376  0.3386
  266TMC3    C8 4032   3.408   1.905  16.057  0.3440 -0.0710 -0.1087
  266TMC3    O1 4033   3.280   1.799  15.488  0.1646  0.6220 -0.0328
  266TMC3    O2 4034   3.442   1.826  16.144 -0.1066  0.3042 -0.5527
  267MPD2     C 4035   1.361   3.096  17.445 -0.9401 -0.2333  0.1415
  267MPD2    C1 4036   1.320   3.230  17.446 -0.2424  0.2640  0.1933
  267MPD2    C2 4037   1.285   3.292  17.333  1.3759 -0.1281  0.9707
  267MPD2    C3 4038   1.274   3.219  17.211  0.7178  0.7835 -0.5440
  267MPD2    C4 4039   1.314   3.086  17.212  0.0994 -0.4954  0.5392
  267MPD2    C5 4040   1.356   3.019  17.326  0.8438  0.7975 -0.3326
  267MPD2     H 4041   1.256   3.397  17.337  0.3304 -0.3064 -2.4670
  267MPD2    H1 4042   1.308   3.023  17.124  1.0041  1.4752 -0.9363
  267MPD2    H2 4043   1.410   3.055  17.533  0.6962  0.4812 -0.4359
  267MPD2    H3 4044   1.388   2.916  17.320  1.6252  1.0098  0.2634
  267MPD2     N 4045   1.228   3.269  17.087  0.6548 -0.8208 -0.7804
  267MPD2    H5 4046   1.212   3.203  17.011  0.6939 -0.2503 -1.2808
  267MPD2    N1 4047   1.329   3.298  17.571 -0.2069  0.3547 -0.2670
  267MPD2    H7 4048   1.365   3.251  17.653 -3.2559  0.7088  1.2699
  268TMC3    C1 4049   1.306   3.482   0.025 -0.0417  0.5861  0.2340
  268TMC3    C2 4050   1.219   3.578   0.058 -0.4945 -0.1253 -0.8460
  268TMC3    C3 4051   1.263   3.664   0.149 -0.1485  0.1299 -0.6400
  268TMC3    C4 4052   1.422   3.462   0.084  0.2647  0.4586 -0.3205
  268TMC3    C5 4053   1.455   3.535   0.195  0.6030 -0.4980 -0.4438
  268TMC3    C6 4054   1.367   3.628   0.235 -0.6169  0.1385 -0.4888
  268TMC3     C 4055   1.273   3.423  17.594 -0.5661 -0.3684 -0.6086
  268TMC3     O 4056   1.184   3.478  17.531  0.1800 -0.2396  0.1954
  268TMC3     H 4057   1.125   3.597   0.007 -2.6390 -3.9726  1.7359
  268TMC3    H1 4058   1.495   3.391   0.046  0.4182  1.2606 -1.4824
  268TMC3    H2 4059   1.392   3.694   0.317 -0.5959  0.1591 -0.5117
  268TMC3    C7 4060   1.534   3.468   0.297  0.2600 -0.4329 -0.6098
  268TMC3    C8 4061   1.249   3.807   0.133  0.5093 -1.3534 -0.3773
  268TMC3    O1 4062   1.619   3.388   0.255 -0.4532 -0.4175 -0.5357
  268TMC3    O2 4063   1.273   3.874   0.233 -0.3606 -0.2936 -0.7344
  269MPD2     C 4064   1.519   2.281  15.689 -0.4283 -0.0038 -0.9878
  269MPD2    C1 4065   1.424   2.314  15.782  0.3871  0.0979 -0.8485
  269MPD2    C2 4066   1.408   2.439  15.822  0.0161  0.0735 -0.0353
  269MPD2    C3 4067   1.464   2.544  15.748 -0.2194  0.0106 -0.4525
  269MPD2    C4 4068   1.551   2.510  15.641 -0.0784 -0.2345 -0.2175
  269MPD2    C5 4069   1.582   2.382  15.615  0.7461 -0.2723 -0.6832
  269MPD2     H 4070   1.335   2.470  15.896  0.4418 -3.7775  1.9765
  269MPD2    H1 4071   1.596   2.582  15.575  0.2755 -0.1447  0.1202
  269MPD2    H2 4072   1.533   2.178  15.658 -1.6886 -0.7337  0.8913
  269MPD2    H3 4073   1.647   2.345  15.536 -0.9035 -2.2329 -1.1356
  269MPD2     N 4074   1.429   2.673  15.778 -0.3760  0.2741 -0.5173
  269MPD2    H5 4075   1.380   2.678  15.866 -0.8387 -2.1618 -0.6436
  269MPD2    N1 4076   1.367   2.216  15.857  0.1859  0.0862  0.7678
  269MPD2    H7 4077   1.398   2.119  15.851 -0.0204  0.0900 -0.4058
  270TMC3    C1 4078   1.193   2.113  15.985  0.0846 -0.4720 -0.7618
  270TMC3    C2 4079   1.059   2.082  15.979 -0.1421  0.0652  0.3384
  270TMC3    C3 4080   1.017   1.963  16.016 -0.7761  0.1763 -0.2621
  270TMC3    C4 4081   1.282   2.011  16.024  0.4231 -0.7864  0.7291
  270TMC3    C5 4082   1.234   1.892  16.075 -0.0386  0.9911 -0.3478
  270TMC3    C6 4083   1.098   1.871  16.074 -0.1602 -0.4283 -0.1858
  270TMC3     C 4084   1.247   2.237  15.931 -0.1860  0.1316 -0.0334
  270TMC3     O 4085   1.162   2.326  15.919  0.1214  0.1610 -0.0729
  270TMC3     H 4086   0.992   2.157  15.938  0.5534  1.5719  1.9606
  270TMC3    H1 4087   1.384   2.040  16.047 -0.3904 -0.0015  3.4002
  270TMC3    H2 4088   1.052   1.780  16.110  1.8416 -0.7452  1.6033
  270TMC3    C7 4089   1.329   1.784  16.086  0.3671  0.6263 -0.3067
  270TMC3    C8 4090   0.926   1.886  15.930  0.6333  0.1781  0.4818
  270TMC3    O1 4091   1.429   1.785  16.018  0.3411  0.6353  0.0550
  270TMC3    O2 4092   0.946   1.768  15.911  0.8458 -0.2291 -0.2007
  271MPD2     C 4093   0.377   1.869  14.057  0.0064 -0.8628 -0.2332
  271MPD2    C1 4094   0.329   1.842  14.188  0.1318  0.4237  0.1709
  271MPD2    C2 4095   0.201   1.887  14.226 -0.3080 -0.2034 -0.1997
  271MPD2    C3 4096   0.109   1.940  14.132 -0.6194  0.5793 -0.5720
  271MPD2    C4 4097   0.152   1.951  14.000  0.2192 -0.2126  0.5189
  271MPD2    C5 4098   0.279   1.929  13.970 -0.2244 -0.3883  0.3053
  271MPD2     H 4099   0.167   1.871  14.328  0.2033  1.0256  0.1548
  271MPD2    H1 4100   0.090   1.994  13.922  0.5511 -0.4553  0.1233
  271MPD2    H2 4101   0.474   1.840  14.020  1.5582  2.7061  1.0669
  271MPD2    H3 4102   0.315   1.944  13.869 -0.3872 -0.4675  0.2356
  271MPD2     N 4103   4.703   1.979  14.161  0.1706 -0.0057 -0.0325
  271MPD2    H5 4104   4.648   2.007  14.081 -1.3001  1.5019  1.5058
  271MPD2    N1 4105   0.409   1.783  14.286 -0.3074  0.0910  0.0590
  271MPD2    H7 4106   0.365   1.764  14.376  0.3998  0.6839  0.5403
  272TMC3    C1 4107   0.581   1.672  14.396  0.0291 -0.4042  0.6117
  272TMC3    C2 4108   0.702   1.596  14.378 -0.2814  0.1545 -0.1653
  272TMC3    C3 4109   0.760   1.552  14.487  0.0598 -0.1098  0.3685
  272TMC3    C4 4110   0.523   1.694  14.519 -0.6826  0.2677 -0.2486
  272TMC3    C5 4111   0.593   1.649  14.629 -0.8589 -0.1325  0.5750
  272TMC3    C6 4112   0.712   1.581  14.616 -0.6616 -0.4448  0.0351
  272TMC3     C 4113   0.532   1.729  14.267  0.5412  0.2968 -0.1137
  272TMC3     O 4114   0.598   1.709  14.170  0.0730  0.5142  0.2138
  272TMC3     H 4115   0.755   1.596  14.284 -0.6301  0.9641 -0.3648
  272TMC3    H1 4116   0.436   1.754  14.542 -1.4078 -1.9579  2.7854
  272TMC3    H2 4117   0.758   1.545  14.707 -1.7996  0.9016  1.1425
  272TMC3    C7 4118   0.527   1.660  14.761  0.1914 -0.3479 -0.3707
  272TMC3    C8 4119   0.907   1.528  14.473  0.3463  0.2674  0.2490
  272TMC3    O1 4120   0.470   1.561  14.807  1.1984  0.1051 -0.0249
  272TMC3    O2 4121   0.956   1.561  14.365  0.0065 -0.1772  0.4758
  273MPD2     C 4122   2.460   4.511  12.097  0.4207  0.0151 -0.2376
  273MPD2    C1 4123   2.464   4.642  12.055  0.2285  0.1954  0.7361
  273MPD2    C2 4124   2.417   4.672  11.927  0.3937 -0.4898 -0.3821
  273MPD2    C3 4125   2.378   4.575  11.839  0.0161 -0.0694 -0.3028
  273MPD2    C4 4126   2.369   4.441  11.885 -0.6111 -0.0859 -0.1408
  273MPD2    C5 4127   2.409   4.421  12.013 -0.6266  0.4659  0.3837
  273MPD2     H 4128   2.413   0.056  11.911 -1.0778 -0.6106 -0.8012
  273MPD2    H1 4129   2.356   4.355  11.821 -1.4327  0.6163 -0.9161
  273MPD2    H2 4130   2.503   4.484  12.193  1.3946 -1.0060 -0.9652
  273MPD2    H3 4131   2.409   4.315  12.037  0.6437  1.0457  2.9694
  273MPD2     N 4132   2.345   4.602  11.702 -0.5369  0.4193  0.0048
  273MPD2    H5 4133   2.331   4.523  11.640  0.1514 -0.5991  1.1451
  273MPD2    N1 4134   2.520   0.014  12.148 -0.1519  0.0330  0.2144
  273MPD2    H7 4135   2.531   4.705  12.243 -0.1396 -0.4491  0.0519
  274TMC3    C1 4136   2.286   0.011  11.508  0.4183 -0.0790  0.6086
  274TMC3    C2 4137   2.171   4.664  11.469 -0.5752  0.0045 -0.1613
  274TMC3    C3 4138   2.092   4.718  11.380 -0.2513  0.4721  0.2326
  274TMC3    C4 4139   2.305   0.135  11.453 -1.0308  0.0955 -0.2116
  274TMC3    C5 4140   2.213   0.192  11.371  0.7767 -0.1514  0.4602
  274TMC3    C6 4141   2.103   0.123  11.328  0.1412  0.8961 -0.3822
  274TMC3     C 4142   2.325   0.008  11.650  0.3362 -0.0477 -0.2346
  274TMC3     O 4143   2.337   0.122  11.708 -0.2652  0.4573 -0.0058
  274TMC3     H 4144   2.154   4.565  11.509  0.0588  0.7662  1.9999
  274TMC3    H1 4145   2.393   0.192  11.482 -0.0560 -1.3421 -0.3089
  274TMC3    H2 4146   2.039   0.165  11.252 -1.2386 -0.3459  0.0753
  274TMC3    C7 4147   2.176   0.325  11.404  0.2763  0.0008 -1.0185
  274TMC3    C8 4148   1.995   4.627  11.330 -0.7014  0.4276 -0.3813
  274TMC3    O1 4149   2.059   0.343  11.395 -0.6012 -0.1538  0.1105
  274TMC3    O2 4150   1.960   4.532  11.401  0.3133 -0.2232  0.3830
  275MPD2     C 4151   2.230   2.248  15.012 -0.0624  0.5587  0.0638
  275MPD2    C1 4152   2.159   2.364  14.978  0.2771 -0.6603  0.0844
  275MPD2    C2 4153   2.041   2.364  14.906 -0.2571 -0.0410  0.1624
  275MPD2    C3 4154   1.982   2.241  14.882 -0.6646  0.2964 -0.1258
  275MPD2    C4 4155   2.055   2.128  14.900  0.4145  0.4378  0.4748
  275MPD2    C5 4156   2.178   2.124  14.967  0.0561 -0.6914  0.1477
  275MPD2     H 4157   1.995   2.457  14.874 -0.9981 -0.1565  0.8917
  275MPD2    H1 4158   2.014   2.030  14.879  2.5921 -0.5769  1.0694
  275MPD2    H2 4159   2.316   2.247  15.078  0.0749  1.1608 -0.1026
  275MPD2    H3 4160   2.237   2.035  14.983 -2.1663 -2.1274  0.3908
  275MPD2     N 4161   1.844   2.230  14.829 -0.1761  0.2165 -0.2537
  275MPD2    H5 4162   1.820   2.135  14.805  0.1266 -0.2534  1.3176
  275MPD2    N1 4163   2.201   2.488  15.023 -0.6113  0.0506 -0.5900
  275MPD2    H7 4164   2.138   2.568  15.019  1.1164  1.3471 -2.0926
  276TMC3    C1 4165   2.284   2.592  15.208 -0.1062 -0.0485  0.0031
  276TMC3    C2 4166   2.163   2.575  15.256 -0.8870 -0.4189 -0.3379
  276TMC3    C3 4167   2.093   2.681  15.307 -0.0382 -0.1755 -0.3430
  276TMC3    C4 4168   2.354   2.704  15.223 -0.0042 -0.1775 -0.3462
  276TMC3    C5 4169   2.277   2.812  15.258 -0.2185 -0.2529  0.6193
  276TMC3    C6 4170   2.151   2.802  15.308 -0.3652  0.2885  0.1480
  276TMC3     C 4171   2.316   2.505  15.098 -0.4811  0.2358  0.7173
  276TMC3     O 4172   2.430   2.463  15.086 -0.0691 -0.7127  0.1146
  276TMC3     H 4173   2.133   2.472  15.269 -1.4666 -0.0225  1.4547
  276TMC3    H1 4174   2.456   2.713  15.189 -0.0761  4.3558  0.5889
  276TMC3    H2 4175   2.108   2.886  15.361  1.4637  1.7460 -0.6748
  276TMC3    C7 4176   2.360   2.924  15.313  0.6468  0.5748  0.6072
  276TMC3    C8 4177   1.947   2.690  15.297 -0.1114 -0.0010 -0.3347
  276TMC3    O1 4178   2.332   2.961  15.429  0.0486 -0.2561  0.2075
  276TMC3    O2 4179   1.898   2.798  15.312  0.5026 -0.2809  0.3922
  277MPD2     C 4180   3.868   1.699  13.671  0.2092  0.0019  0.4058
  277MPD2    C1 4181   3.736   1.696  13.707  0.5290 -0.4187  0.1389
  277MPD2    C2 4182   3.686   1.608  13.802  0.0113 -0.1655  0.1393
  277MPD2    C3 4183   3.772   1.507  13.853  0.8648  0.0581 -0.5202
  277MPD2    C4 4184   3.907   1.511  13.808  0.0536 -0.2752  0.4606
  277MPD2    C5 4185   3.950   1.606  13.717 -0.6547  0.1005  0.0233
  277MPD2     H 4186   3.585   1.599  13.840 -1.1084 -0.7783 -2.9810
  277MPD2    H1 4187   3.986   1.449  13.849 -0.2360  0.8373  2.7092
  277MPD2    H2 4188   3.904   1.774  13.601  1.0082 -1.9628 -1.2676
  277MPD2    H3 4189   4.056   1.608  13.694 -0.6075  0.8156  0.3284
  277MPD2     N 4190   3.722   1.417  13.946  0.5310 -0.8957  0.4917
  277MPD2    H5 4191   3.637   1.441  13.996  0.7934 -0.2360  0.6168
  277MPD2    N1 4192   3.645   1.784  13.636  0.1543  0.7019 -0.0403
  277MPD2    H7 4193   3.669   1.837  13.553 -0.3272  0.9801 -0.0027
  278TMC3    C1 4194   3.695   1.233  14.070  0.7943  0.3719  0.7053
  278TMC3    C2 4195   3.658   1.105  14.032 -0.2573  0.3557 -0.1363
  278TMC3    C3 4196   3.525   1.073  14.032  0.0366  0.4841 -0.4903
  278TMC3    C4 4197   3.597   1.317  14.119  0.0020  0.5829  0.3884
  278TMC3    C5 4198   3.467   1.284  14.110 -0.1456  0.4371  0.0194
  278TMC3    C6 4199   3.428   1.166  14.063 -0.3215 -0.3085  0.1723
  278TMC3     C 4200   3.782   1.298  13.980  0.1259 -0.9071 -0.2640
  278TMC3     O 4201   3.863   1.231  13.926 -0.0776  0.1846 -0.0127
  278TMC3     H 4202   3.734   1.037  13.996  0.1168  0.0610  1.2220
  278TMC3    H1 4203   3.623   1.410  14.167  1.2369  0.0301  0.7823
  278TMC3    H2 4204   3.321   1.147  14.060 -0.1470 -0.7161 -2.7165
  278TMC3    C7 4205   3.396   1.402  14.053 -0.7092  1.3043  0.1133
  278TMC3    C8 4206   3.489   0.943  13.975 -0.8094 -0.7114 -0.6723
  278TMC3    O1 4207   3.463   1.500  14.023 -0.0782  0.6129  0.5299
  278TMC3    O2 4208   3.587   0.864  13.985  0.1158 -0.0463  0.2014
  279MPD2     C 4209   3.293   2.207   0.227  0.5120  0.0384  0.6473
  279MPD2    C1 4210   3.166   2.264   0.214  0.2639 -0.4841  0.5284
  279MPD2    C2 4211   3.118   2.309   0.086 -0.0059 -0.1959 -0.1518
  279MPD2    C3 4212   3.200   2.292  17.668 -0.2623 -0.0427  0.3940
  279MPD2    C4 4213   3.328   2.241  17.686 -0.5400  0.4055 -0.1327
  279MPD2    C5 4214   3.366   2.191   0.113  0.2446 -0.1411 -0.4213
  279MPD2     H 4215   3.014   2.325   0.063 -0.2334  0.7882  1.6240
  279MPD2    H1 4216   3.402   2.229  17.608 -0.0369 -0.2753  0.4407
  279MPD2    H2 4217   3.334   2.169   0.320 -0.9066 -0.9075  0.8923
  279MPD2    H3 4218   3.461   2.140   0.126  1.3539  1.9228 -0.4805
  279MPD2     N 4219   3.161   2.305  17.536  0.3931  0.4447  0.1139
  279MPD2    H5 4220   3.228   2.271  17.468  2.7028  2.2745  1.4671
  279MPD2    N1 4221   3.081   2.272   0.328 -0.2098  0.1575 -0.0352
  279MPD2    H7 4222   3.126   2.251   0.417 -1.0355 -1.8540 -0.0778
  280TMC3    C1 4223   2.883   2.292   0.447  0.6885 -0.8273 -0.3826
  280TMC3    C2 4224   2.950   2.228   0.547  0.6539 -0.7081  0.0856
  280TMC3    C3 4225   2.913   2.249   0.675  0.5673  0.2957  0.6700
  280TMC3    C4 4226   2.785   2.377   0.480 -0.2343  0.1040  0.2090
  280TMC3    C5 4227   2.767   2.416   0.608 -0.3609  0.1242  0.5582
  280TMC3    C6 4228   2.829   2.350   0.709 -0.4465  0.0710  0.9599
  280TMC3     C 4229   2.945   2.299   0.320 -0.1239 -0.3172  0.6474
  280TMC3     O 4230   2.869   2.327   0.229 -0.0067 -0.1374 -0.6669
  280TMC3     H 4231   3.024   2.149   0.537  0.6626 -0.4935 -1.4918
  280TMC3    H1 4232   2.733   2.428   0.400 -1.7484  0.3598  1.3549
  280TMC3    H2 4233   2.800   2.365   0.812 -1.4489  0.3733  0.6365
  280TMC3    C7 4234   2.651   2.508   0.643  0.4107  0.2364  0.5435
  280TMC3    C8 4235   2.990   2.196   0.785  0.6053  0.0249  0.2534
  280TMC3    O1 4236   2.659   2.549   0.757  0.5253 -0.3739  0.0349
  280TMC3    O2 4237   3.006   2.267   0.879 -0.4611 -0.1333  0.0182
  281TMC3    C1 4238   1.496   2.158  13.130  0.3287 -0.3326 -0.2089
  281TMC3    C2 4239   1.418   2.273  13.096 -0.4474 -0.2756 -0.5432
  281TMC3    C3 4240   1.287   2.243  13.076 -0.8024 -0.3055 -0.4808
  281TMC3    C4 4241   1.446   2.028  13.128  0.3775  0.2466 -0.6494
  281TMC3    C5 4242   1.319   2.010  13.089  0.3147 -0.3196 -0.4271
  281TMC3    C6 4243   1.235   2.115  13.065 -0.4326 -0.8090 -0.0885
  281TMC3     C 4244   1.641   2.177  13.153  0.1787 -0.4331  0.8038
  281TMC3     O 4245   1.707   2.071  13.163 -0.2750  0.6653  0.3055
  281TMC3     H 4246   1.463   2.366  13.063  0.6979  0.3553  2.8370
  281TMC3    H1 4247   1.517   1.946  13.135  1.1545  0.7792 -2.3619
  281TMC3    H2 4248   1.129   2.101  13.047 -0.6269  0.9676 -0.3456
  281TMC3    C7 4249   1.256   1.881  13.104 -0.8390 -0.0328 -0.1610
  281TMC3    C8 4250   1.201   2.354  13.040  1.0832 -0.2407  0.2399
  281TMC3    O1 4251   1.154   1.861  13.038  0.0094 -0.2514 -0.1134
  281TMC3    O2 4252   1.096   2.323  12.985 -0.2841  0.1323 -0.0001
  282MPD2     C 4253   3.530   3.717  15.348 -0.3560  0.3139  0.2493
  282MPD2    C1 4254   3.411   3.694  15.419 -0.2643  0.3546 -0.4214
  282MPD2    C2 4255   3.311   3.628  15.357  0.1783  0.4633  0.1441
  282MPD2    C3 4256   3.317   3.589  15.224  0.3219  0.4901  0.0076
  282MPD2    C4 4257   3.428   3.625  15.144 -0.6404 -0.6864 -0.4206
  282MPD2    C5 4258   3.534   3.681  15.214 -0.4069  0.4346  0.2675
  282MPD2     H 4259   3.224   3.596  15.413  0.9368 -1.6380  0.1109
  282MPD2    H1 4260   3.433   3.602  15.038 -2.6030  0.3760 -0.7414
  282MPD2    H2 4261   3.624   3.759  15.382 -0.4769  0.2197  0.6938
  282MPD2    H3 4262   3.627   3.689  15.159  0.7655  0.8832  2.2981
  282MPD2     N 4263   3.199   3.525  15.174  0.7482 -0.0129  0.1447
  282MPD2    H5 4264   3.116   3.516  15.231  2.2484 -0.0017  2.3165
  282MPD2    N1 4265   3.392   3.741  15.551 -0.2416 -0.1990 -0.2310
  282MPD2    H7 4266   3.297   3.720  15.582 -1.1055  0.5095 -2.3877
  283TMC3    C1 4267   3.445   3.786  15.766 -0.3718 -0.5768 -0.3759
  283TMC3    C2 4268   3.468   3.903  15.834 -0.0277  0.6540  0.6677
  283TMC3    C3 4269   3.396   3.926  15.946 -0.5593 -0.0321  0.1463
  283TMC3    C4 4270   3.360   3.693  15.809 -0.3851  0.1945 -0.7250
  283TMC3    C5 4271   3.301   3.718  15.930 -0.2218  0.5549 -0.2762
  283TMC3    C6 4272   3.317   3.833  16.003  0.3072  0.2413 -0.6839
  283TMC3     C 4273   3.495   3.784  15.632  1.1404 -0.5053  0.2449
  283TMC3     O 4274   3.606   3.823  15.606 -0.5066 -0.4098 -0.4661
  283TMC3     H 4275   3.530   3.983  15.797  0.5670  0.2801  0.8682
  283TMC3    H1 4276   3.359   3.603  15.747 -1.1349 -0.3978  0.1498
  283TMC3    H2 4277   3.271   3.843  16.101 -0.1973  2.4979 -1.1448
  283TMC3    C7 4278   3.197   3.632  15.992 -1.0631  0.3367  0.1843
  283TMC3    C8 4279   3.408   4.054  16.020 -0.1779  0.5615  0.4475
  283TMC3    O1 4280   3.142   3.664  16.101  0.3990 -0.2163  0.0721
  283TMC3    O2 4281   3.397   4.053  16.144 -0.0980  0.5455  0.1866
  284MPD2     C 4282   1.650   2.463  12.328 -0.7652 -0.2606 -0.3305
  284MPD2    C1 4283   1.636   2.489  12.198  0.3859 -0.0925 -0.2797
  284MPD2    C2 4284   1.508   2.479  12.138  0.5605  0.6237 -0.7464
  284MPD2    C3 4285   1.403   2.426  12.210  0.0600 -0.1420  0.0071
  284MPD2    C4 4286   1.426   2.372  12.334 -0.0149 -0.1353  0.0496
  284MPD2    C5 4287   1.551   2.397  12.395  0.4434 -0.5454  0.4565
  284MPD2     H 4288   1.500   2.521  12.039 -0.3321  0.9580 -0.5336
  284MPD2    H1 4289   1.339   2.322  12.376 -2.0988  0.9788 -2.9040
  284MPD2    H2 4290   1.743   2.481  12.381 -0.4023 -0.6880 -0.8167
  284MPD2    H3 4291   1.552   2.364  12.498 -0.8334  1.8760  1.2257
  284MPD2     N 4292   1.276   2.418  12.156  0.2788  0.0632 -0.1227
  284MPD2    H5 4293   1.215   2.369  12.221 -0.6592  1.5624  0.1247
  284MPD2    N1 4294   1.741   2.521  12.118  0.1664  0.6789 -1.2995
  284MPD2    H7 4295   1.707   2.558  12.030 -1.8288  1.5433 -0.1665
  285TMC3    C1 4296   1.946   2.547  12.025  0.4614  0.3507 -0.2824
  285TMC3    C2 4297   1.899   2.508  11.908  0.4213  0.0337 -0.1040
  285TMC3    C3 4298   1.955   2.550  11.793  0.3353  0.1218 -0.1817
  285TMC3    C4 4299   2.056   2.632  12.034  0.2309  0.4128  0.6264
  285TMC3    C5 4300   2.115   2.667  11.911 -0.6916  0.8682  0.0060
  285TMC3    C6 4301   2.071   2.630  11.787 -0.5444  0.0620 -0.4629
  285TMC3     C 4302   1.873   2.526  12.144 -0.1299 -0.3267  0.3497
  285TMC3     O 4303   1.932   2.513  12.251 -1.0746 -0.0855  0.3453
  285TMC3     H 4304   1.808   2.449  11.909  1.3559 -1.3721  2.2509
  285TMC3    H1 4305   2.086   2.668  12.132 -0.9660 -0.8804  1.4691
  285TMC3    H2 4306   2.118   2.661  11.695 -2.7567  2.3781 -0.8099
  285TMC3    C7 4307   2.206   2.777  11.913  0.3755 -0.0668 -0.7069
  285TMC3    C8 4308   1.905   2.502  11.661  0.5864  0.3521 -0.2551
  285TMC3    O1 4309   2.184   2.867  11.836 -1.1556 -0.1614  0.1178
  285TMC3    O2 4310   1.971   2.532  11.561 -0.5712 -0.4700  0.3024
  286MPD2     C 4311   1.865   1.710   1.704 -0.2735  0.2635  0.6422
  286MPD2    C1 4312   1.868   1.684   1.567 -0.8274 -0.3319 -0.7010
  286MPD2    C2 4313   1.967   1.594   1.529 -0.1160  0.2180 -0.4528
  286MPD2    C3 4314   2.068   1.542   1.612 -0.0876  0.1866  0.0927
  286MPD2    C4 4315   2.052   1.575   1.744 -0.2340 -0.4667 -0.2377
  286MPD2    C5 4316   1.952   1.660   1.791  0.0786  0.0258 -0.1715
  286MPD2     H 4317   1.964   1.583   1.421 -1.9571 -0.2297 -0.3474
  286MPD2    H1 4318   2.120   1.530   1.816 -0.5494  0.3840  0.5834
  286MPD2    H2 4319   1.778   1.759   1.745  0.0525  0.5416  1.0013
  286MPD2    H3 4320   1.944   1.668   1.899 -0.9637 -0.2203 -0.2258
  286MPD2     N 4321   2.157   1.445   1.560  0.0141 -0.4523 -0.1885
  286MPD2    H5 4322   2.218   1.389   1.620 -0.3777 -0.9326 -0.2326
  286MPD2    N1 4323   1.772   1.728   1.471 -0.3260 -0.0717 -0.4772
  286MPD2    H7 4324   1.786   1.706   1.373 -0.7515  0.5453 -0.6786
  287TMC3    C1 4325   2.243   1.285   1.412 -0.0653  0.5272  0.5423
  287TMC3    C2 4326   2.219   1.201   1.308  0.3021 -0.0295 -0.2810
  287TMC3    C3 4327   2.323   1.118   1.267  0.6785 -0.0123  0.2244
  287TMC3    C4 4328   2.355   1.261   1.481  0.1584 -0.0889 -0.4348
  287TMC3    C5 4329   2.446   1.168   1.447  0.4993 -0.0178 -0.0088
  287TMC3    C6 4330   2.436   1.098   1.338  0.3517 -0.3753 -0.1515
  287TMC3     C 4331   2.147   1.391   1.434 -0.0106 -0.4741 -0.1630
  287TMC3     O 4332   2.072   1.403   1.339  0.0023 -0.3771  0.7098
  287TMC3     H 4333   2.125   1.211   1.254  0.2164 -0.6849 -0.2579
  287TMC3    H1 4334   2.362   1.314   1.575  1.0514  0.1130 -0.6104
  287TMC3    H2 4335   2.503   1.019   1.308 -0.6670 -1.6239  0.9001
  287TMC3    C7 4336   2.580   1.187   1.507 -0.1581 -0.0358 -0.0158
  287TMC3    C8 4337   2.293   1.034   1.148 -0.8868 -0.6325  0.5642
  287TMC3    O1 4338   2.604   1.291   1.562 -0.0512 -0.2490 -0.5122
  287TMC3    O2 4339   2.181   1.049   1.105 -0.4273  0.3571  0.0837
  288TMC3    C1 4340   3.405   1.425  14.575  0.6203 -0.1631  0.2016
  288TMC3    C2 4341   3.406   1.420  14.709 -0.1328 -0.6155 -0.2368
  288TMC3    C3 4342   3.479   1.515  14.774 -0.0375  0.2867  1.2127
  288TMC3    C4 4343   3.471   1.520  14.501  0.1375 -0.3500 -0.7863
  288TMC3    C5 4344   3.544   1.610  14.569  0.2172  0.0642  0.2995
  288TMC3    C6 4345   3.548   1.610  14.711  0.0250  0.4739 -0.0575
  288TMC3     C 4346   3.342   1.316  14.498 -0.0934 -0.1176 -0.2804
  288TMC3     O 4347   3.321   1.336  14.377  0.4293 -0.6273 -0.1503
  288TMC3     H 4348   3.364   1.334  14.760 -2.3844 -1.2568 -3.1259
  288TMC3    H1 4349   3.479   1.524  14.393 -0.1119 -1.6711 -0.8549
  288TMC3    H2 4350   3.606   1.686  14.761  2.7633 -1.5781 -0.1462
  288TMC3    C7 4351   3.625   1.706  14.497 -0.9234  0.1366 -0.4859
  288TMC3    C8 4352   3.492   1.521  14.922 -0.0817  0.1316 -0.4937
  288TMC3    O1 4353   3.730   1.734  14.553 -0.4417  0.2518  0.9729
  288TMC3    O2 4354   3.599   1.560  14.960 -0.2816 -0.1227 -0.0207
  289MPD2     C 4355   3.576   0.319  14.498  0.2974 -0.4348  0.0874
  289MPD2    C1 4356   3.544   0.438  14.444 -0.3996  0.3376  0.1311
  289MPD2    C2 4357   3.432   0.455  14.362 -0.3860  0.3780  0.2970
  289MPD2    C3 4358   3.354   0.337  14.334  0.9235 -0.4230 -0.3065
  289MPD2    C4 4359   3.386   0.219  14.390 -0.1020  0.8402 -0.2928
  289MPD2    C5 4360   3.492   0.212  14.469  0.1778 -0.2454  0.7279
  289MPD2     H 4361   3.399   0.549  14.320 -1.4579  0.2980  0.9379
  289MPD2    H1 4362   3.334   0.128  14.364  0.1130 -0.0796  2.4079
  289MPD2    H2 4363   3.656   0.303  14.569  0.1508  1.1740  0.6205
  289MPD2    H3 4364   3.517   0.119  14.519  3.9447  0.3623 -0.0148
  289MPD2     N 4365   3.243   0.338  14.262  0.1202 -0.8615 -0.1558
  289MPD2    H5 4366   3.193   0.250  14.265  0.1222 -0.9151 -1.4001
  289MPD2    N1 4367   3.631   0.554  14.465  0.3992 -0.3598 -0.1130
  289MPD2    H7 4368   3.613   0.637  14.411 -3.4208 -0.2704  1.3022
  290TMC3    C1 4369   3.062   0.432  14.134 -0.1579 -0.0477 -0.1228
  290TMC3    C2 4370   3.025   0.538  14.055 -0.0536  0.2696 -0.4431
  290TMC3    C3 4371   2.902   0.548  14.008 -0.0181  0.3036 -0.0230
  290TMC3    C4 4372   2.973   0.341  14.175  0.0709 -0.1811  0.4499
  290TMC3    C5 4373   2.838   0.372  14.148  0.4369  0.2794  0.5433
  290TMC3    C6 4374   2.806   0.469  14.058  0.6591 -0.2421 -0.3356
  290TMC3     C 4375   3.186   0.449  14.204  0.0821 -0.4469  0.2474
  290TMC3     O 4376   3.240   0.562  14.185 -0.4912  0.0644  0.1544
  290TMC3     H 4377   3.093   0.607  14.007  0.8236 -1.1606 -1.2373
  290TMC3    H1 4378   2.997   0.293  14.269  0.8758  1.5898  1.1615
  290TMC3    H2 4379   2.702   0.490  14.032  1.1789 -0.1903 -2.4006
  290TMC3    C7 4380   2.736   0.280  14.199 -0.0917  0.3280  0.4147
  290TMC3    C8 4381   2.852   0.680  13.975 -0.3694 -0.6628 -0.0647
  290TMC3    O1 4382   2.620   0.316  14.188 -0.6908  0.3530  0.0658
  290TMC3    O2 4383   2.766   0.691  13.893 -0.4089  0.0141  0.0023
  291MPD2     C 4384   3.382   4.626   0.518  0.0200 -0.1762  0.1449
  291MPD2    C1 4385   3.285   4.589   0.435  0.0460 -0.6230  0.0816
  291MPD2    C2 4386   3.279   4.645   0.308  0.4516  0.3405  0.2716
  291MPD2    C3 4387   3.362   0.029   0.270  0.0946 -0.3156  0.0010
  291MPD2    C4 4388   3.465   0.062   0.362  0.1905  0.1140 -0.4219
  291MPD2    C5 4389   3.463   0.003   0.479 -0.1326 -0.3633 -0.1715
  291MPD2     H 4390   3.203   4.607   0.241  0.2203 -0.6230  1.0924
  291MPD2    H1 4391   3.541   0.136   0.340  0.4781  0.1615  0.7668
  291MPD2    H2 4392   3.409   4.584   0.614  1.0451  0.0579 -0.0415
  291MPD2    H3 4393   3.546   0.027   0.545 -1.9317  1.1010  1.5467
  291MPD2     N 4394   3.347   0.107   0.154  0.5270  0.4375 -0.3550
  291MPD2    H5 4395   3.389   0.199   0.163  1.0492  0.0128  1.5177
  291MPD2    N1 4396   3.189   4.494   0.469 -0.1779 -0.4440 -0.1681
  291MPD2    H7 4397   3.119   4.484   0.397 -1.4861  1.3943  0.8544
  292TMC3    C1 4398   3.040   4.373   0.620 -0.1892  0.0665  0.1582
  292TMC3    C2 4399   3.001   4.352   0.746  0.1845 -0.3410  0.7676
  292TMC3    C3 4400   2.882   4.314   0.775 -0.4729  0.0143 -0.2398
  292TMC3    C4 4401   2.956   4.350   0.520 -0.5071  0.7843  0.0005
  292TMC3    C5 4402   2.821   4.325   0.552 -0.5237 -0.0587 -0.0522
  292TMC3    C6 4403   2.781   4.301   0.675  0.1824  0.2436 -0.4359
  292TMC3     C 4404   3.175   4.423   0.588 -0.0797 -0.4350  0.8547
  292TMC3     O 4405   3.252   4.408   0.679 -0.2918 -0.2085 -0.1805
  292TMC3     H 4406   3.076   4.378   0.820 -0.3395  0.6496  0.9556
  292TMC3    H1 4407   2.988   4.364   0.417 -0.9216 -0.5185 -0.3023
  292TMC3    H2 4408   2.685   4.255   0.699  0.1266 -0.4168 -1.9687
  292TMC3    C7 4409   2.737   4.273   0.447 -0.3569  0.2557 -0.1004
  292TMC3    C8 4410   2.853   4.282   0.921 -0.7268 -0.7018 -0.1593
  292TMC3    O1 4411   2.789   4.270   0.335  0.0711 -0.3479 -0.1544
  292TMC3    O2 4412   2.945   4.289   1.001 -0.1738 -0.5932 -0.2392
  293MPD2     C 4413   4.544   1.829  12.387  0.2361 -0.2058 -0.1485
  293MPD2    C1 4414   4.504   1.747  12.482  0.0465  0.1680 -0.0219
  293MPD2    C2 4415   4.542   1.757  12.609 -0.3144  0.0751  0.3320
  293MPD2    C3 4416   4.643   1.845  12.638  0.4003  0.0857 -0.6146
  293MPD2    C4 4417   4.690   1.928  12.543  0.3955 -0.3249 -0.5994
  293MPD2    C5 4418   4.636   1.924  12.416 -0.3078 -0.4480  0.0922
  293MPD2     H 4419   4.498   1.694  12.686  1.3544 -0.8051  0.5784
  293MPD2    H1 4420   0.046   2.000  12.558 -1.2983  1.3563  0.2734
  293MPD2    H2 4421   4.517   1.819  12.282  1.1561  0.0792 -0.4170
  293MPD2    H3 4422   4.682   1.983  12.338 -0.3197  0.8156  1.0270
  293MPD2     N 4423   4.692   1.852  12.771 -0.2331 -0.2679 -0.0062
  293MPD2    H5 4424   4.647   1.782  12.830  0.3139 -1.0398 -0.5108
  293MPD2    N1 4425   4.415   1.649  12.432  0.3547 -0.2665  0.2935
  293MPD2    H7 4426   4.416   1.637  12.331 -0.5861 -0.2232  0.2807
  294TMC3    C1 4427   4.249   1.490  12.420 -0.7998 -0.0369  0.5205
  294TMC3    C2 4428   4.117   1.474  12.454 -0.4611  0.1916 -0.6854
  294TMC3    C3 4429   4.046   1.378  12.383 -0.5426  1.1577  0.3279
  294TMC3    C4 4430   4.304   1.432  12.308  0.2028  0.0032 -0.7023
  294TMC3    C5 4431   4.226   1.338  12.244  0.3772 -0.6821  0.0254
  294TMC3    C6 4432   4.106   1.307  12.279 -0.2400 -0.0341  0.7980
  294TMC3     C 4433   4.331   1.576  12.505  0.2889  0.2879 -0.0958
  294TMC3     O 4434   4.296   1.605  12.621 -0.2961 -0.1070  0.2655
  294TMC3     H 4435   4.075   1.532  12.535 -0.8222 -2.0130  0.6929
  294TMC3    H1 4436   4.405   1.448  12.272  0.8733 -3.3029 -0.3659
  294TMC3    H2 4437   4.050   1.229  12.229 -3.0411  2.5766 -0.1892
  294TMC3    C7 4438   4.276   1.284  12.119  0.0556  0.6622  0.7324
  294TMC3    C8 4439   3.903   1.359  12.422 -0.1128  0.7985 -0.1090
  294TMC3    O1 4440   4.228   1.183  12.079 -0.2242  0.2728  0.5067
  294TMC3    O2 4441   3.857   1.435  12.504  0.3929  0.3257 -0.1417
  295MPD2     C 4442   0.638   0.483   0.893 -0.0450 -0.1328 -0.4994
  295MPD2    C1 4443   0.598   0.420   0.781 -0.1383 -0.0128 -0.1057
  295MPD2    C2 4444   0.493   0.332   0.787 -0.4018  0.6534  0.2573
  295MPD2    C3 4445   0.415   0.326   0.894 -0.1847 -0.2383  0.2691
  295MPD2    C4 4446   0.442   0.407   0.995  0.9055 -0.9142  0.1311
  295MPD2    C5 4447   0.555   0.480   1.000 -0.3427 -0.1139 -0.1619
  295MPD2     H 4448   0.450   0.286   0.698  2.9211  0.6039 -1.3315
  295MPD2    H1 4449   0.394   0.402   1.092  0.6414 -1.2391 -0.0169
  295MPD2    H2 4450   0.729   0.540   0.906 -0.4701  0.7087 -1.2442
  295MPD2    H3 4451   0.581   0.527   1.094  1.2490  0.7048 -1.0138
  295MPD2     N 4452   0.296   0.260   0.911 -0.1053 -0.1396  0.4406
  295MPD2    H5 4453   0.259   0.271   1.004  0.5676  2.0723  0.4518
  295MPD2    N1 4454   0.668   0.427   0.656 -0.4022  0.4341  0.1521
  295MPD2    H7 4455   0.637   0.404   0.562  0.6294 -0.2597 -0.0151
  296TMC3    C1 4456   0.136   0.092   0.903 -0.9873 -0.1646  0.1783
  296TMC3    C2 4457   0.130   0.085   1.040  0.3557 -0.7469  0.6957
  296TMC3    C3 4458   0.030   0.016   1.103  0.0447  0.3308  0.3952
  296TMC3    C4 4459   0.041   0.031   0.827 -0.3700 -0.8397  0.4958
  296TMC3    C5 4460   4.659   4.693   0.898  0.3951  0.1031  0.0671
  296TMC3    C6 4461   4.653   4.685   1.030  0.3887  0.5439  0.0486
  296TMC3     C 4462   0.242   0.158   0.837 -0.7736 -0.8916  0.1768
  296TMC3     O 4463   0.277   0.105   0.733  0.1179 -0.2722  1.1592
  296TMC3     H 4464   0.221   0.108   1.095  1.3773 -0.7250 -0.9888
  296TMC3    H1 4465   0.056   0.034   0.719 -0.0914 -0.6641  0.5392
  296TMC3    H2 4466   4.573   4.638   1.086  3.0160 -1.8839  1.8057
  296TMC3    C7 4467   4.527   4.705   0.830 -0.2441  0.5845 -0.0733
  296TMC3    C8 4468   0.013   0.010   1.245  0.0957  0.3468  0.5505
  296TMC3    O1 4469   4.537   4.696   0.707  0.2432  0.0065 -0.2996
  296TMC3    O2 4470   4.703   4.626   1.295 -0.3684 -0.0627  0.1829
  297MPD2     C 4471   2.407   2.720  16.836 -0.7624 -0.2543 -0.5053
  297MPD2    C1 4472   2.430   2.719  16.701 -0.3297 -0.4904  0.0662
  297MPD2    C2 4473   2.511   2.818  16.648  0.3887 -0.6468  0.0933
  297MPD2    C3 4474   2.557   2.918  16.724 -0.1601 -0.0629 -0.6755
  297MPD2    C4 4475   2.524   2.925  16.855 -0.6673 -0.1208 -0.5214
  297MPD2    C5 4476   2.451   2.822  16.911  0.0940  0.5001 -0.0573
  297MPD2     H 4477   2.532   2.815  16.542  1.0312  1.6283  0.1690
  297MPD2    H1 4478   2.563   3.004  16.919  0.9973  0.9742 -2.9029
  297MPD2    H2 4479   2.361   2.635  16.885 -0.1427  0.3988  1.2070
  297MPD2    H3 4480   2.437   2.810  17.018 -0.1183 -1.9966 -0.3541
  297MPD2     N 4481   2.633   3.023  16.660  0.1465  0.5488 -0.2542
  297MPD2    H5 4482   2.664   3.102  16.716 -2.5270 -0.1049  2.1519
  297MPD2    N1 4483   2.373   2.630  16.607 -0.2874  0.8597  0.0715
  297MPD2    H7 4484   2.393   2.649  16.509  0.6603  0.1446  0.1256
  298TMC3    C1 4485   2.223   2.457  16.530  0.6122  0.2432 -0.0943
  298TMC3    C2 4486   2.285   2.469  16.409 -0.8192  0.1752  0.2745
  298TMC3    C3 4487   2.200   2.467  16.297  0.0986 -0.2769 -0.0728
  298TMC3    C4 4488   2.088   2.451  16.546  0.1957 -0.8208 -0.1354
  298TMC3    C5 4489   2.014   2.447  16.433 -1.2425  0.0002  0.3328
  298TMC3    C6 4490   2.063   2.452  16.312 -0.3899 -0.1634 -0.7123
  298TMC3     C 4491   2.285   2.526  16.639 -0.4828 -0.4523  0.1974
  298TMC3     O 4492   2.239   2.498  16.748  0.5540 -0.4023  1.1131
  298TMC3     H 4493   2.393   2.471  16.396 -0.9721 -1.9750 -1.3629
  298TMC3    H1 4494   2.038   2.453  16.642  0.2792  0.8337 -0.1253
  298TMC3    H2 4495   1.997   2.436  16.227  1.2979 -1.7574 -1.7311
  298TMC3    C7 4496   1.914   2.542  16.453 -0.3589 -0.2182  0.3839
  298TMC3    C8 4497   2.254   2.506  16.173 -0.1513 -0.2268  0.8159
  298TMC3    O1 4498   1.857   2.552  16.564 -0.1034 -0.0625 -0.6489
  298TMC3    O2 4499   2.169   2.543  16.095  0.0484  0.1254  0.0646
  299MPD2     C 4500   3.355   1.833  10.366 -0.1807 -0.3889 -0.3160
  299MPD2    C1 4501   3.367   1.969  10.372  0.0999  0.2541  0.2889
  299MPD2    C2 4502   3.262   2.051  10.332  0.0942  0.2461 -0.0277
  299MPD2    C3 4503   3.135   1.994  10.303 -0.5915 -0.0990  0.5495
  299MPD2    C4 4504   3.125   1.857  10.302 -0.2796 -0.2985 -0.0780
  299MPD2    C5 4505   3.229   1.778  10.341  0.1834 -0.2395  0.0815
  299MPD2     H 4506   3.272   2.158  10.350 -4.4127  0.3206  2.0936
  299MPD2    H1 4507   3.030   1.808  10.278 -0.4445  0.3816 -0.8367
  299MPD2    H2 4508   3.434   1.763  10.390 -0.1749 -0.3847 -0.3228
  299MPD2    H3 4509   3.222   1.670  10.344 -0.6838 -0.1874 -0.2004
  299MPD2     N 4510   3.014   2.075  10.291  0.5431  0.3893  0.3947
  299MPD2    H5 4511   2.923   2.032  10.274  1.5144 -1.6336  0.3408
  299MPD2    N1 4512   3.479   2.022  10.423  0.0577  0.6567 -0.6061
  299MPD2    H7 4513   3.539   1.956  10.472 -1.9520 -0.2570  0.6024
  300TMC3    C1 4514   2.876   2.263  10.330 -0.2668 -0.1868  0.6805
  300TMC3    C2 4515   2.874   2.374  10.411  0.1093 -0.2729 -0.1859
  300TMC3    C3 4516   2.755   2.389  10.481  0.3708 -0.1166 -0.3710
  300TMC3    C4 4517   2.769   2.178  10.308 -0.1351  0.0383 -0.1798
  300TMC3    C5 4518   2.665   2.196  10.390  0.8713 -0.2726  0.0751
  300TMC3    C6 4519   2.650   2.309  10.474 -0.1661 -0.1621 -0.6479
  300TMC3     C 4520   3.008   2.212  10.315 -0.1815 -0.9347  0.4770
  300TMC3     O 4521   3.097   2.283  10.355  0.0530  0.3770  0.3502
  300TMC3     H 4522   2.961   2.430  10.443  0.4438 -1.6183  1.3001
  300TMC3    H1 4523   2.766   2.103  10.229  2.1893 -1.1958  0.9021
  300TMC3    H2 4524   2.560   2.323  10.532 -0.8228 -0.4532 -1.6027
  300TMC3    C7 4525   2.548   2.115  10.362  0.1549  0.4605  0.1439
  300TMC3    C8 4526   2.774   2.465  10.606 -0.6991 -0.9049  0.3381
  300TMC3    O1 4527   2.535   2.076  10.250 -0.4503  0.0440 -0.5256
  300TMC3    O2 4528   2.719   2.423  10.701  0.5614  0.0123  0.0446
  301MPD2     C 4529   4.448   3.046   1.692  0.9426 -0.2751  0.8887
  301MPD2    C1 4530   4.462   3.132   1.583  0.4166  0.2151  0.1290
  301MPD2    C2 4531   4.577   3.146   1.514  0.3740  0.2148  0.3201
  301MPD2    C3 4532   4.688   3.072   1.546  0.3579 -0.3973  0.4364
  301MPD2    C4 4533   4.675   2.990   1.661 -0.4859 -0.3275  0.1676
  301MPD2    C5 4534   4.555   2.976   1.732 -0.9159  0.0111  0.2673
  301MPD2     H 4535   4.570   3.215   1.431 -0.0758 -0.9075 -0.5777
  301MPD2    H1 4536   0.026   2.913   1.681  2.1941  2.2016 -0.0397
  301MPD2    H2 4537   4.354   3.029   1.742  0.8516 -0.1902  0.7479
  301MPD2    H3 4538   4.547   2.913   1.820 -0.7196 -0.0140  0.2690
  301MPD2     N 4539   0.089   3.068   1.470 -0.4592 -0.3437 -0.6806
  301MPD2    H5 4540   0.165   3.013   1.510  3.0268  2.4313 -3.5453
  301MPD2    N1 4541   4.348   3.214   1.550 -0.3437  0.0085  0.5386
  301MPD2    H7 4542   4.358   3.278   1.473 -1.0674 -0.0358  0.4121
  302TMC3    C1 4543   0.222   3.090   1.274  0.2388  0.2439 -0.6567
  302TMC3    C2 4544   0.323   3.005   1.317  0.4060  0.2777 -0.8667
  302TMC3    C3 4545   0.439   2.992   1.247  0.5698 -0.1813  0.3655
  302TMC3    C4 4546   0.248   3.181   1.172  0.3335 -0.5542  0.5406
  302TMC3    C5 4547   0.369   3.168   1.104 -0.1955 -0.6242  0.1606
  302TMC3    C6 4548   0.465   3.077   1.142  0.1701  0.0266 -0.1444
  302TMC3     C 4549   0.109   3.140   1.356 -0.2939 -0.0725 -0.3761
  302TMC3     O 4550   0.039   3.218   1.302 -0.0234  0.7994 -0.5324
  302TMC3     H 4551   0.306   2.926   1.390  3.7097 -0.8959 -1.3705
  302TMC3    H1 4552   0.189   3.271   1.159 -0.9576 -1.7817 -2.1202
  302TMC3    H2 4553   0.552   3.050   1.083  1.5145  0.4179  1.6652
  302TMC3    C7 4554   0.400   3.267   1.002  0.4124 -0.3700 -0.2121
  302TMC3    C8 4555   0.491   2.859   1.240 -0.1514 -0.6692 -0.3372
  302TMC3    O1 4556   0.519   3.292   0.980 -0.3192 -0.2039  0.3864
  302TMC3    O2 4557   0.601   2.849   1.190 -0.0672  0.2297 -0.5248
  303MPD2     C 4558   0.838   0.472   9.695  0.0192  0.2567 -0.2362
  303MPD2    C1 4559   0.740   0.447   9.792 -0.1268 -0.4680  0.1711
  303MPD2    C2 4560   0.625   0.517   9.785  0.4531  0.4755  0.2264
  303MPD2    C3 4561   0.610   0.612   9.683  0.2430  0.0631 -0.0215
  303MPD2    C4 4562   0.702   0.625   9.580 -0.3847 -0.4069  0.7385
  303MPD2    C5 4563   0.817   0.559   9.592  0.9093 -0.1624 -0.7130
  303MPD2     H 4564   0.538   0.484   9.842  1.2724  0.1859  1.3222
  303MPD2    H1 4565   0.681   0.694   9.500 -0.6465 -1.0675  0.2358
  303MPD2    H2 4566   0.932   0.417   9.696 -0.9230 -1.3337  0.7520
  303MPD2    H3 4567   0.893   0.565   9.515 -0.0297 -1.7454 -1.7588
  303MPD2     N 4568   0.498   0.702   9.682 -0.1850 -0.8935 -0.0733
  303MPD2    H5 4569   0.500   0.774   9.611 -1.9579 -0.1508  0.6278
  303MPD2    N1 4570   0.762   0.361   9.896  0.0484  0.0519  0.5384
  303MPD2    H7 4571   0.860   0.337   9.901 -0.3844 -1.8980 -0.3954
  304TMC3    C1 4572   0.753   0.259  10.106 -0.5089  0.2271 -0.8239
  304TMC3    C2 4573   0.851   0.342  10.159 -0.0928  0.6668  0.1887
  304TMC3    C3 4574   0.898   0.316  10.285  1.1286 -0.3565  0.6555
  304TMC3    C4 4575   0.692   0.163  10.170  0.4030  0.3793  0.5907
  304TMC3    C5 4576   0.747   0.131  10.296  0.1147 -0.1527 -0.3167
  304TMC3    C6 4577   0.844   0.206  10.355 -0.8486  0.4414 -0.6860
  304TMC3     C 4578   0.676   0.314   9.994 -0.0528  0.0917 -0.6369
  304TMC3     O 4579   0.557   0.296  10.002  0.5265  0.1487  0.3704
  304TMC3     H 4580   0.892   0.422  10.100 -0.7145  1.3918  0.7416
  304TMC3    H1 4581   0.619   0.107  10.112 -1.3783  3.1160  0.1908
  304TMC3    H2 4582   0.874   0.194  10.458 -0.8535  0.4603 -0.6824
  304TMC3    C7 4583   0.649   0.092  10.385  0.6738 -0.2901 -0.4319
  304TMC3    C8 4584   0.854   0.435  10.358 -0.1449 -0.6183  0.3091
  304TMC3    O1 4585   0.581   4.717  10.360 -0.3087 -0.0439  0.5731
  304TMC3    O2 4586   0.805   0.412  10.468 -0.0078 -0.4593  0.0267
  305MPD2     C 4587   3.133   3.839  14.143  0.2416  0.0142  0.3220
  305MPD2    C1 4588   3.193   3.720  14.164  0.6628 -0.4739  0.6488
  305MPD2    C2 4589   3.179   3.613  14.075  0.0464  0.1781  0.4909
  305MPD2    C3 4590   3.096   3.632  13.966  0.5396 -0.5378 -0.3469
  305MPD2    C4 4591   3.035   3.755  13.943 -0.0879 -0.0516  0.3506
  305MPD2    C5 4592   3.048   3.854  14.032 -0.2354 -0.2339 -0.2967
  305MPD2     H 4593   3.219   3.513  14.079  0.7547  0.4556  0.2029
  305MPD2    H1 4594   2.963   3.766  13.863 -0.2381 -3.8157 -0.0276
  305MPD2    H2 4595   3.137   3.921  14.214  0.4105  0.0289  0.2951
  305MPD2    H3 4596   2.990   3.942  14.004  1.0108  0.3584 -1.0073
  305MPD2     N 4597   3.092   3.546  13.857 -1.0752  0.4598 -0.3481
  305MPD2    H5 4598   3.060   3.586  13.770  1.5858 -0.9264 -1.9975
  305MPD2    N1 4599   3.279   3.722  14.280  0.3460  0.3910 -0.5980
  305MPD2    H7 4600   3.263   3.799  14.344 -0.0194  2.4042 -3.1471
  306TMC3    C1 4601   3.421   3.651  14.446  0.2102 -0.0060 -0.1802
  306TMC3    C2 4602   3.487   3.546  14.504 -0.0883 -0.4769  0.2911
  306TMC3    C3 4603   3.550   3.561  14.627 -0.1290  0.0926 -0.0460
  306TMC3    C4 4604   3.412   3.763  14.511 -0.5299  0.1503  0.0067
  306TMC3    C5 4605   3.462   3.776  14.635  0.4683  0.0130 -0.1357
  306TMC3    C6 4606   3.531   3.676  14.696 -0.2941  0.7852 -0.5512
  306TMC3     C 4607   3.360   3.624  14.321  0.2929  0.0476 -0.6030
  306TMC3     O 4608   3.392   3.524  14.257  0.2578 -0.4151  0.1513
  306TMC3     H 4609   3.490   3.450  14.455 -0.3676 -0.8714  1.0389
  306TMC3    H1 4610   3.378   3.850  14.454  0.2384  0.8012  0.5365
  306TMC3    H2 4611   3.552   3.669  14.802 -1.5281 -0.8000 -0.4118
  306TMC3    C7 4612   3.450   3.906  14.698 -0.6950 -0.3707  0.5303
  306TMC3    C8 4613   3.572   3.438  14.697  0.5316 -0.4379 -0.2228
  306TMC3    O1 4614   3.380   3.992  14.648 -0.0957  0.2119  0.1986
  306TMC3    O2 4615   3.519   3.333  14.666 -0.9959  0.5361 -0.2828
  307MPD2     C 4616   1.190   1.058   0.848 -0.1621 -0.3221  0.1254
  307MPD2    C1 4617   1.109   1.164   0.812  1.0216  0.5220 -0.7781
  307MPD2    C2 4618   0.971   1.164   0.828 -0.5361 -0.1927 -0.1268
  307MPD2    C3 4619   0.915   1.052   0.882  0.5211  0.4886 -0.2022
  307MPD2    C4 4620   0.990   0.943   0.915 -0.2373  0.4795  0.3775
  307MPD2    C5 4621   1.123   0.951   0.890 -0.1259 -0.7448 -0.4647
  307MPD2     H 4622   0.917   1.254   0.804 -3.1675 -1.9778 -0.9850
  307MPD2    H1 4623   0.951   0.851   0.955 -0.4778  1.3839  2.2249
  307MPD2    H2 4624   1.297   1.055   0.835 -0.2880 -2.2781 -0.4372
  307MPD2    H3 4625   1.174   0.856   0.908  0.9421  0.1702  1.3186
  307MPD2     N 4626   0.781   1.046   0.912  0.6024 -0.5143 -0.5607
  307MPD2    H5 4627   0.753   0.967   0.970 -0.8919  0.3471 -0.0920
  307MPD2    N1 4628   1.161   1.275   0.742 -0.0571 -0.0281  0.7344
  307MPD2    H7 4629   1.098   1.349   0.714  0.0307 -0.5133 -0.7629
  308TMC3    C1 4630   0.350   1.230   0.921 -0.1084 -0.0359 -0.3826
  308TMC3    C2 4631   0.368   1.279   1.048 -0.1324  0.0437 -0.7056
  308TMC3    C3 4632   0.488   1.250   1.113  0.4081  0.2489 -0.1167
  308TMC3    C4 4633   0.453   1.151   0.872 -0.0961 -0.0643  0.5186
  308TMC3    C5 4634   0.562   1.113   0.944 -0.2481 -0.3203 -0.4722
  308TMC3    C6 4635   0.570   1.150   1.076  0.5286 -0.9450  0.5876
  308TMC3     C 4636   0.273   1.300   0.827 -0.5996  0.9094  1.1235
  308TMC3     O 4637   0.247   1.413   0.867 -0.1815 -0.0140  0.1343
  308TMC3     H 4638   0.301   1.351   1.094  0.2304  0.5116 -0.9179
  308TMC3    H1 4639   0.450   1.127   0.766  0.3620  1.0185  0.2611
  308TMC3    H2 4640   0.669   1.127   1.114  0.6994  2.4866  2.1983
  308TMC3    C7 4641   0.684   1.132   0.871 -0.1310 -0.1802  0.5163
  308TMC3    C8 4642   0.558   1.356   1.185 -0.5760 -0.7868 -0.2806
  308TMC3    O1 4643   0.683   1.210   0.778  0.2978 -0.2678  0.0820
  308TMC3    O2 4644   0.654   1.326   1.254  0.0547 -0.0245  0.3101
  309MPD2     C 4645   0.549   2.325  17.111 -0.0697  0.5041 -0.5974
  309MPD2    C1 4646   0.467   2.305  17.002 -0.2165 -0.0104  0.5095
  309MPD2    C2 4647   0.333   2.333  17.019 -0.4779 -0.0363  0.9763
  309MPD2    C3 4648   0.276   2.376  17.139  0.1376  0.6528  0.4596
  309MPD2    C4 4649   0.362   2.394  17.250 -0.1927  0.0235 -0.0144
  309MPD2    C5 4650   0.500   2.361  17.229 -0.2206 -0.2020  0.1046
  309MPD2     H 4651   0.273   2.340  16.930 -1.8638 -1.7049  1.7829
  309MPD2    H1 4652   0.328   2.437  17.343  0.9556  1.0817 -0.0859
  309MPD2    H2 4653   0.656   2.306  17.115 -0.7056 -2.6937  1.2770
  309MPD2    H3 4654   0.584   2.386  17.292 -0.7578  0.1082  0.7068
  309MPD2     N 4655   0.144   2.425  17.151  0.8129 -0.0504  0.0318
  309MPD2    H5 4656   0.125   2.458  17.245 -0.7267  0.5971 -0.5016
  309MPD2    N1 4657   0.514   2.291  16.869  0.5790 -0.0106  0.4893
  309MPD2    H7 4658   0.457   2.286  16.786 -0.3501 -0.1733  1.1354
  310TMC3    C1 4659   0.691   2.266  16.712 -0.2369  0.1374 -0.6520
  310TMC3    C2 4660   0.611   2.319  16.616  0.2386 -0.5546  0.6258
  310TMC3    C3 4661   0.647   2.301  16.484 -0.0318  0.2283 -0.1747
  310TMC3    C4 4662   0.806   2.201  16.686 -0.3590 -0.5334 -0.5669
  310TMC3    C5 4663   0.846   2.195  16.554  0.4374 -0.3373 -0.3432
  310TMC3    C6 4664   0.769   2.249  16.457 -0.3312 -0.7728  0.2446
  310TMC3     C 4665   0.650   2.265  16.853  0.2680  0.5732  0.0006
  310TMC3     O 4666   0.722   2.208  16.934 -0.1022  1.1287 -0.3386
  310TMC3     H 4667   0.533   2.391  16.637 -0.5105 -1.3711  0.6549
  310TMC3    H1 4668   0.877   2.167  16.761  0.6508  4.3089  0.6345
  310TMC3    H2 4669   0.801   2.255  16.354  2.2038  1.3317  1.1582
  310TMC3    C7 4670   0.982   2.152  16.523 -0.2927  0.3144 -0.4776
  310TMC3    C8 4671   0.560   2.329  16.374 -0.1026  0.6971 -0.2293
  310TMC3    O1 4672   1.029   2.076  16.600  0.4398 -0.0430 -0.0845
  310TMC3    O2 4673   0.610   2.325  16.259  0.7637 -0.4064  0.0355
  311MPD2     C 4674   2.804   2.790  13.192  0.5435  0.8361 -0.3231
  311MPD2    C1 4675   2.747   2.906  13.132  0.3823  0.0435  0.8547
  311MPD2    C2 4676   2.609   2.923  13.139 -0.1196 -0.0899 -0.1801
  311MPD2    C3 4677   2.529   2.828  13.199 -0.0239  0.0406 -0.4994
  311MPD2    C4 4678   2.585   2.715  13.258 -0.1714  0.3388  0.2148
  311MPD2    C5 4679   2.721   2.698  13.258  0.2082 -0.2580  0.3903
  311MPD2     H 4680   2.560   3.015  13.108  2.1183  1.2549  0.2680
  311MPD2    H1 4681   2.522   2.646  13.313 -1.6015 -0.2763 -2.1892
  311MPD2    H2 4682   2.908   2.760  13.192 -0.0496 -1.2141 -1.5978
  311MPD2    H3 4683   2.766   2.612  13.306 -0.2727 -1.8364 -1.9728
  311MPD2     N 4684   2.395   2.843  13.215  0.2276 -0.1946  0.5867
  311MPD2    H5 4685   2.363   2.937  13.193 -1.1550 -0.7372  0.2851
  311MPD2    N1 4686   2.813   3.017  13.077  0.8916 -0.3712  0.2796
  311MPD2    H7 4687   2.756   3.094  13.044  0.0303  0.5703  3.9162
  312TMC3    C1 4688   2.188   2.818  13.309 -0.1808 -0.4312 -0.0512
  312TMC3    C2 4689   2.071   2.780  13.249 -0.2338  0.4200  0.0650
  312TMC3    C3 4690   1.961   2.862  13.254  0.0118  0.2361 -0.0427
  312TMC3    C4 4691   2.205   2.947  13.368  1.0232 -0.7683 -0.1017
  312TMC3    C5 4692   2.094   3.022  13.375 -0.1516 -0.7663  0.4936
  312TMC3    C6 4693   1.973   2.979  13.317  0.0813  0.5770  0.4120
  312TMC3     C 4694   2.304   2.752  13.248  0.0099 -0.8567 -0.6176
  312TMC3     O 4695   2.311   2.631  13.228 -0.2025  0.2476  0.5547
  312TMC3     H 4696   2.076   2.689  13.190  0.5075 -0.0718  0.8959
  312TMC3    H1 4697   2.296   2.981  13.414 -0.1603  0.5006  1.2990
  312TMC3    H2 4698   1.880   3.026  13.348 -0.5230  0.0955 -0.6869
  312TMC3    C7 4699   2.102   3.142  13.452 -0.4420 -0.6270 -0.6550
  312TMC3    C8 4700   1.840   2.846  13.172  0.9381 -0.0218 -0.6153
  312TMC3    O1 4701   2.201   3.149  13.525  0.1162 -0.1568 -0.2907
  312TMC3    O2 4702   1.754   2.929  13.196 -0.2150  0.1720 -0.2769
  313MPD2     C 4703   2.432   2.555  10.564 -0.0862 -0.2456 -0.9930
  313MPD2    C1 4704   2.345   2.466  10.623 -0.7511 -0.1540  0.0072
  313MPD2    C2 4705   2.270   2.382  10.535 -0.0901  0.2513 -0.7542
  313MPD2    C3 4706   2.291   2.386  10.395 -0.9006 -0.5640  1.0211
  313MPD2    C4 4707   2.376   2.481  10.349 -0.3115 -0.2124 -0.4094
  313MPD2    C5 4708   2.450   2.559  10.432 -0.0943 -0.5611 -0.4473
  313MPD2     H 4709   2.186   2.326  10.575 -0.7970  1.5575 -0.4207
  313MPD2    H1 4710   2.391   2.499  10.243  2.1834  2.2797  0.3585
  313MPD2    H2 4711   2.478   2.638  10.617 -0.0927  1.2611 -3.3162
  313MPD2    H3 4712   2.520   2.632  10.393  0.0321  0.4044  1.5988
  313MPD2     N 4713   2.219   2.298  10.314  0.0362 -0.8736  0.5652
  313MPD2    H5 4714   2.151   2.244  10.368 -0.8763  1.1980  1.4895
  313MPD2    N1 4715   2.313   2.472  10.761 -0.4127 -0.5456  0.0848
  313MPD2    H7 4716   2.235   2.413  10.788 -1.0327 -0.0921 -0.7118
  314TMC3    C1 4717   2.313   2.558  10.978  1.1707  0.4403 -0.3466
  314TMC3    C2 4718   2.383   2.622  11.074  0.3728  0.4324  0.2245
  314TMC3    C3 4719   2.312   2.699  11.161  0.4104 -0.4676  0.6030
  314TMC3    C4 4720   2.172   2.549  10.988  0.2523 -0.2439  0.4614
  314TMC3    C5 4721   2.105   2.615  11.087 -0.1730 -0.0755  0.3453
  314TMC3    C6 4722   2.175   2.705  11.170  0.2962  0.0777  0.6475
  314TMC3     C 4723   2.378   2.551  10.850  0.3131  0.0990 -0.7589
  314TMC3     O 4724   2.490   2.599  10.852 -0.5906 -0.3864  0.0671
  314TMC3     H 4725   2.488   2.650  11.075 -0.3013  3.0282 -1.3544
  314TMC3    H1 4726   2.108   2.480  10.933  2.1595 -0.3328 -1.6360
  314TMC3    H2 4727   2.129   2.757  11.254 -0.0848 -0.6383  0.8840
  314TMC3    C7 4728   1.977   2.677  11.049  0.1444 -0.2337 -0.0379
  314TMC3    C8 4729   2.374   2.810  11.228  0.1709 -0.4492  0.3271
  314TMC3    O1 4730   1.923   2.748  11.131  0.2433  0.1744  0.1869
  314TMC3    O2 4731   2.458   2.869  11.162  0.2295 -0.1515 -0.5910
  315MPD2     C 4732   1.428   2.168   0.244  0.1311  0.3504 -0.1501
  315MPD2    C1 4733   1.561   2.151   0.239 -0.0495 -0.9861  0.6181
  315MPD2    C2 4734   1.641   2.249   0.203  0.0034 -1.0186 -0.1645
  315MPD2    C3 4735   1.592   2.374   0.186 -0.2571 -0.1364  0.0014
  315MPD2    C4 4736   1.457   2.397   0.200 -0.3784 -0.2186 -0.5734
  315MPD2    C5 4737   1.376   2.294   0.219  0.4953 -0.4707  0.3740
  315MPD2     H 4738   1.749   2.236   0.208 -0.0819 -1.7527 -0.1371
  315MPD2    H1 4739   1.420   2.497   0.180  0.4637  0.0356 -0.8370
  315MPD2    H2 4740   1.363   2.086   0.274  0.3412  1.2081  2.6363
  315MPD2    H3 4741   1.269   2.303   0.225  0.4792 -0.6281  0.3391
  315MPD2     N 4742   1.689   2.476   0.160 -0.4019 -0.1419 -0.7778
  315MPD2    H5 4743   1.782   2.438   0.168 -0.7873 -0.5187  2.0574
  315MPD2    N1 4744   1.628   2.035   0.285 -0.2369 -0.6417  0.4115
  315MPD2    H7 4745   1.727   2.033   0.261 -0.1542  0.5749  0.6480
  316TMC3    C1 4746   1.784   2.676   0.108  0.4875 -0.5102  0.1721
  316TMC3    C2 4747   1.894   2.653   0.184 -0.0977  0.0306 -0.7012
  316TMC3    C3 4748   1.988   2.751   0.193 -0.5518  0.0244  0.3569
  316TMC3    C4 4749   1.765   2.793   0.036 -0.5628 -0.6788 -0.3844
  316TMC3    C5 4750   1.856   2.889   0.057  0.3115 -0.3389  0.1689
  316TMC3    C6 4751   1.960   2.869   0.139  0.2639 -0.8793  0.2129
  316TMC3     C 4752   1.661   2.607   0.139 -0.0282 -0.2024  0.3143
  316TMC3     O 4753   1.552   2.659   0.113 -0.2195 -0.5689  0.0675
  316TMC3     H 4754   1.906   2.573   0.256 -1.1300  0.9058  0.4412
  316TMC3    H1 4755   1.669   2.826  17.693  0.9612  0.7225 -3.0574
  316TMC3    H2 4756   2.037   2.946   0.140 -0.8937  0.2504  0.9523
  316TMC3    C7 4757   1.819   3.027   0.006 -0.2700  0.0262 -0.0952
  316TMC3    C8 4758   2.050   2.766   0.320  0.5907  0.0315  0.2248
  316TMC3    O1 4759   1.874   3.116   0.073 -0.2611 -0.1244 -0.3530
  316TMC3    O2 4760   2.022   2.874   0.374 -0.0412 -0.5310  0.3911
  317MPD2     C 4761   3.055   0.266  12.586  0.5285  0.3335  0.0832
  317MPD2    C1 4762   3.114   0.143  12.583  0.2518 -0.2426 -0.3431
  317MPD2    C2 4763   3.201   0.114  12.687 -0.7183  0.3980 -0.0870
  317MPD2    C3 4764   3.223   0.205  12.793  0.6296 -0.1573  0.0444
  317MPD2    C4 4765   3.157   0.326  12.793 -0.3610 -1.0096  0.2931
  317MPD2    C5 4766   3.071   0.356  12.690  0.0458  0.5406  0.1160
  317MPD2     H 4767   3.245   0.015  12.687  0.2575  0.8235 -3.0251
  317MPD2    H1 4768   3.162   0.394  12.877  0.9255 -0.0332 -0.5724
  317MPD2    H2 4769   2.973   0.293  12.521  0.8535  0.8590 -0.1100
  317MPD2    H3 4770   3.011   0.446  12.695  0.2382  0.7458 -1.3605
  317MPD2     N 4771   3.312   0.173  12.892 -0.1662 -0.3928 -0.3413
  317MPD2    H5 4772   3.331   0.074  12.903 -3.2528 -1.1769 -2.2364
  317MPD2    N1 4773   3.100   0.055  12.477 -0.1131  0.0536  0.2221
  317MPD2    H7 4774   3.159   4.697  12.464  1.1993  0.8772  1.0708
  318TMC3    C1 4775   3.453   0.202  13.082  0.1990  0.4345  0.2469
  318TMC3    C2 4776   3.408   0.093  13.150  0.1673  0.1090  0.5573
  318TMC3    C3 4777   3.474   0.046  13.256  0.7326 -0.1427 -0.5181
  318TMC3    C4 4778   3.567   0.278  13.115 -0.4627  0.5238 -0.4302
  318TMC3    C5 4779   3.633   0.216  13.226  0.4196 -0.0692 -0.2019
  318TMC3    C6 4780   3.590   0.107  13.299  0.0015  0.0947  0.0279
  318TMC3     C 4781   3.369   0.260  12.978 -0.2386 -0.2035  0.1647
  318TMC3     O 4782   3.381   0.384  12.960  0.0483 -0.1392  0.0764
  318TMC3     H 4783   3.304   0.068  13.130  0.6381 -1.1626 -0.3258
  318TMC3    H1 4784   3.610   0.360  13.059  0.3228  0.0306 -0.5617
  318TMC3    H2 4785   3.630   0.075  13.394  0.2002 -3.2752 -1.1833
  318TMC3    C7 4786   3.739   0.295  13.281 -0.2596  0.1702 -0.0912
  318TMC3    C8 4787   3.404   4.698  13.356  0.6856  0.4744 -0.2592
  318TMC3    O1 4788   3.747   0.410  13.245  0.1984 -0.4867  0.0552
  318TMC3    O2 4789   3.436   0.009  13.472  0.9188  0.3029 -0.3932
  319MPD2     C 4790   4.438   1.971  16.634 -0.5211  0.1549  0.2856
  319MPD2    C1 4791   4.358   1.913  16.728  0.3689  1.0128 -0.0966
  319MPD2    C2 4792   4.220   1.931  16.708 -0.5996 -1.2542 -0.6886
  319MPD2    C3 4793   4.162   1.996  16.601 -0.3288 -0.5129  0.4441
  319MPD2    C4 4794   4.249   2.041  16.506  0.7377 -0.2353  1.0126
  319MPD2    C5 4795   4.383   2.032  16.527 -0.6450 -0.0154 -0.6110
  319MPD2     H 4796   4.152   1.889  16.781  0.8075  0.9450  1.8951
  319MPD2    H1 4797   4.207   2.087  16.417  0.9825  0.5725  1.3105
  319MPD2    H2 4798   4.546   1.960  16.634 -0.4761  0.5945 -0.0159
  319MPD2    H3 4799   4.449   2.083  16.457  0.7734 -0.5215  0.3832
  319MPD2     N 4800   4.026   2.006  16.566  0.0860 -0.4333 -0.6495
  319MPD2    H5 4801   4.002   2.031  16.471  1.8544 -0.4207 -1.0835
  319MPD2    N1 4802   4.402   1.843  16.842  0.0246  0.0559 -0.8357
  319MPD2    H7 4803   4.325   1.801  16.894  0.4161 -1.8752 -1.8015
  320TMC3    C1 4804   3.797   1.987  16.571  0.3648  0.4177 -0.0879
  320TMC3    C2 4805   3.806   2.073  16.466  0.1658  0.4120 -0.4285
  320TMC3    C3 4806   3.749   2.045  16.348 -0.4312  0.5449 -0.4639
  320TMC3    C4 4807   3.743   1.867  16.553 -0.1232 -0.6026  0.3408
  320TMC3    C5 4808   3.673   1.842  16.441 -0.0083  0.3823 -0.1284
  320TMC3    C6 4809   3.682   1.926  16.339  0.5146  0.1038  0.6395
  320TMC3     C 4810   3.919   1.982  16.643  0.2481 -0.4275 -0.7515
  320TMC3     O 4811   3.918   1.967  16.760 -0.2967  0.8708  0.1234
  320TMC3     H 4812   3.846   2.173  16.475  1.3247  0.0068 -1.0888
  320TMC3    H1 4813   3.765   1.786  16.622 -0.9762 -2.4149 -1.5131
  320TMC3    H2 4814   3.618   1.903  16.254  1.1118 -2.5666  0.9158
  320TMC3    C7 4815   3.668   1.705  16.407  0.4280  1.0289 -0.4330
  320TMC3    C8 4816   3.734   2.151  16.246 -0.4784 -1.0045  0.2771
  320TMC3    O1 4817   3.689   1.685  16.291  0.2559  0.2384  0.5643
  320TMC3    O2 4818   3.767   2.265  16.270 -0.5796 -0.2863 -0.3995
  321TMC3    C1 4819   4.527   1.803  17.027  0.2407 -0.2072  0.4914
  321TMC3    C2 4820   4.483   1.678  17.047  0.1633 -0.1579  0.2393
  321TMC3    C3 4821   4.476   1.635  17.175 -0.8392  0.2784  0.2191
  321TMC3    C4 4822   4.599   1.870  17.124 -0.2091  0.0227  0.2423
  321TMC3    C5 4823   4.580   1.831  17.254  0.7729  0.0393  0.4262
  321TMC3    C6 4824   4.513   1.713  17.278 -0.4602  0.0815 -0.3403
  321TMC3     C 4825   4.522   1.861  16.900  0.0443  0.3421  0.8337
  321TMC3     O 4826   4.600   1.944  16.864 -0.1955 -0.1564 -0.1261
  321TMC3     H 4827   4.468   1.611  16.963  0.4971  0.3242 -0.2047
  321TMC3    H1 4828   4.637   1.968  17.099 -0.4024  0.6584  2.3968
  321TMC3    H2 4829   4.497   1.671  17.377  1.9383 -0.1355 -0.0508
  321TMC3    C7 4830   4.700   1.838  17.336 -1.0631  0.4225  0.5587
  321TMC3    C8 4831   4.525   1.497  17.182  0.5812 -0.3455 -0.3923
  321TMC3    O1 4832   4.722   1.748  17.417 -0.8880  0.3075 -0.7162
  321TMC3    O2 4833   4.470   1.412  17.108 -0.5701  0.1209  0.0986
  322MPD2     C 4834   3.460   3.092  13.681  0.2481 -0.1299 -0.5529
  322MPD2    C1 4835   3.413   3.035  13.798  0.4421 -0.2500  0.5994
  322MPD2    C2 4836   3.398   2.896  13.803  0.2810 -1.0659 -0.0124
  322MPD2    C3 4837   3.407   2.821  13.685  0.0476 -1.0136  0.3180
  322MPD2    C4 4838   3.419   2.883  13.565  0.1110 -0.0569 -0.9397
  322MPD2    C5 4839   3.454   3.012  13.568  0.2897 -0.0573 -0.0089
  322MPD2     H 4840   3.366   2.840  13.890 -0.9028 -0.7084 -0.2083
  322MPD2    H1 4841   3.404   2.838  13.467  2.5406 -0.0741 -1.3039
  322MPD2    H2 4842   3.495   3.194  13.674 -0.7519  0.1510 -1.4116
  322MPD2    H3 4843   3.473   3.071  13.478  1.2637  1.7039  1.3390
  322MPD2     N 4844   3.368   2.690  13.699  0.4501  1.4533 -0.1006
  322MPD2    H5 4845   3.338   2.650  13.788 -0.5931  2.9618  0.2157
  322MPD2    N1 4846   3.411   3.114  13.910 -0.2654  0.6897 -0.6377
  322MPD2    H7 4847   3.458   3.203  13.907  1.3203 -0.1448 -0.5874
  323TMC3    C1 4848   3.411   3.156  14.139 -0.4710  0.1117 -0.1347
  323TMC3    C2 4849   3.513   3.249  14.126 -0.5456 -0.3762  0.2698
  323TMC3    C3 4850   3.587   3.289  14.237  0.0895  0.7649 -0.1021
  323TMC3    C4 4851   3.392   3.103  14.266 -0.3552 -0.3738  0.2498
  323TMC3    C5 4852   3.476   3.139  14.370 -0.2044 -0.2305 -0.3162
  323TMC3    C6 4853   3.574   3.230  14.356  0.1343 -0.4315 -0.1536
  323TMC3     C 4854   3.355   3.080  14.032 -0.4831 -0.1427 -0.5603
  323TMC3     O 4855   3.289   2.981  14.057  0.0394 -0.1385  0.3234
  323TMC3     H 4856   3.523   3.298  14.029  1.7609 -3.8530 -1.2578
  323TMC3    H1 4857   3.310   3.034  14.284 -0.9711 -0.0648 -1.3346
  323TMC3    H2 4858   3.640   3.278  14.428 -2.3399  1.7164  0.7119
  323TMC3    C7 4859   3.500   3.037  14.473  0.0812 -0.0075 -0.2132
  323TMC3    C8 4860   3.720   3.332  14.199  0.0770 -0.0585  0.5791
  323TMC3    O1 4861   3.451   2.926  14.449 -0.1837 -0.1312 -0.6349
  323TMC3    O2 4862   3.807   3.299  14.272  0.5609  0.8960  0.2533
  324MPD2     C 4863   0.488   4.662  14.206 -0.6566  0.0926  0.2704
  324MPD2    C1 4864   0.427   4.550  14.150 -0.4000  0.3065 -0.2354
  324MPD2    C2 4865   0.296   4.553  14.091  0.1802 -0.8615 -0.2933
  324MPD2    C3 4866   0.224   4.673  14.097 -0.6844 -0.7093  0.1604
  324MPD2    C4 4867   0.287   0.066  14.147  0.1155  0.9944 -0.1968
  324MPD2    C5 4868   0.420   0.060  14.194 -0.4217 -0.1532  0.7569
  324MPD2     H 4869   0.258   4.455  14.063  1.0529 -1.7678  1.6745
  324MPD2    H1 4870   0.244   0.166  14.146  1.4647  1.5843  1.4904
  324MPD2    H2 4871   0.591   4.654  14.238 -0.3535  3.3992  0.0495
  324MPD2    H3 4872   0.470   0.154  14.213  0.0814 -0.3956  0.6249
  324MPD2     N 4873   0.093   4.678  14.045 -0.1816 -0.1555 -0.3144
  324MPD2    H5 4874   0.042   0.043  14.039  2.5136  1.4626  0.2317
  324MPD2    N1 4875   0.496   4.430  14.136 -0.1430  0.0923 -0.0056
  324MPD2    H7 4876   0.451   4.351  14.091 -0.5904  0.2405  0.1779
  325TMC3    C1 4877   4.611   4.621  13.942 -0.0611  0.1517 -0.4935
  325TMC3    C2 4878   4.509   4.539  13.914  0.5024  0.6395 -0.5592
  325TMC3    C3 4879   4.407   4.587  13.847 -0.2323  0.1404  0.4105
  325TMC3    C4 4880   4.603   0.035  13.920 -0.5178  0.4513  0.4110
  325TMC3    C5 4881   4.503   0.079  13.837  0.1775 -0.2212  0.6215
  325TMC3    C6 4882   4.401   4.717  13.797 -0.5768 -0.0159 -0.1293
  325TMC3     C 4883   0.015   4.579  13.995 -0.6173 -0.7458  0.3706
  325TMC3     O 4884   0.040   4.459  13.984 -0.5965 -0.3684  0.2328
  325TMC3     H 4885   4.504   4.436  13.949  1.3432  0.0482 -2.2164
  325TMC3    H1 4886   4.687   0.101  13.939 -0.1375  0.1736 -0.2996
  325TMC3    H2 4887   4.305   0.027  13.760 -0.5530 -0.7578 -0.8506
  325TMC3    C7 4888   4.475   0.221  13.859 -0.4704  0.6726  0.0644
  325TMC3    C8 4889   4.294   4.501  13.809 -0.4571  0.3839 -1.0540
  325TMC3    O1 4890   4.496   0.304  13.770  0.2011 -0.3494  0.3373
  325TMC3    O2 4891   4.230   4.548  13.722  0.1031  0.0955  0.1028
  326MPD2     C 4892   1.670   0.176  11.458  0.2813  0.3181 -0.0873
  326MPD2    C1 4893   1.565   0.214  11.380  0.1166 -0.2399  0.2711
  326MPD2    C2 4894   1.560   0.342  11.332 -0.3713 -0.8753 -0.2050
  326MPD2    C3 4895   1.651   0.435  11.359  0.5626 -0.5063  0.1925
  326MPD2    C4 4896   1.755   0.404  11.440  0.2141 -0.5628 -0.3251
  326MPD2    C5 4897   1.761   0.275  11.487  0.7491  0.7663 -1.0246
  326MPD2     H 4898   1.481   0.366  11.261 -1.0065 -2.5250 -0.0584
  326MPD2    H1 4899   1.839   0.470  11.456  0.0405 -0.6495  0.9334
  326MPD2    H2 4900   1.680   0.078  11.503  1.7973  0.2010 -0.6735
  326MPD2    H3 4901   1.839   0.240  11.555  0.1416  0.8842 -0.2699
  326MPD2     N 4902   1.659   0.573  11.305 -0.5798 -0.0200  0.1509
  326MPD2    H5 4903   1.732   0.638  11.331  0.7812 -0.5938 -2.1981
  326MPD2    N1 4904   1.451   0.123  11.361 -0.7662  0.3075  0.0510
  326MPD2    H7 4905   1.369   0.178  11.337 -0.5108  0.7199  0.1196
  327TMC3    C1 4906   1.319   4.649  11.362  0.5811 -0.0433 -0.4510
  327TMC3    C2 4907   1.238   4.719  11.272  0.2475 -0.0735  0.1236
  327TMC3    C3 4908   1.197   4.662  11.161  1.2237 -0.2338 -0.1569
  327TMC3    C4 4909   1.337   4.517  11.341  0.8774 -0.4854  0.3355
  327TMC3    C5 4910   1.287   4.463  11.226 -0.4815  0.2758  0.3289
  327TMC3    C6 4911   1.214   4.533  11.134 -0.5641  0.1020  1.0479
  327TMC3     C 4912   1.442   4.709  11.401  0.2886 -0.6932 -0.4855
  327TMC3     O 4913   1.524   4.634  11.455  0.6767 -0.6832  0.2163
  327TMC3     H 4914   1.211   0.099  11.290  1.6917  0.6359 -1.6859
  327TMC3    H1 4915   1.387   4.455  11.415  2.0470  0.3246  0.2123
  327TMC3    H2 4916   1.178   4.506  11.035 -0.1830 -0.6774  1.1231
  327TMC3    C7 4917   1.395   4.411  11.147 -0.8787  0.3900  0.4357
  327TMC3    C8 4918   1.147   0.030  11.059 -0.2658 -0.5239  0.4632
  327TMC3    O1 4919   1.367   4.374  11.035 -0.3287  0.0042  0.3033
  327TMC3    O2 4920   1.199   0.146  11.057 -0.1691 -0.4091  0.0292
  328MPD2     C 4921   3.527   4.567  17.414 -0.4567  0.2098  0.3662
  328MPD2    C1 4922   3.591   4.597  17.294  0.7235 -0.4621  0.4631
  328MPD2    C2 4923   3.639   0.005  17.269 -1.0403  0.4713  0.3535
  328MPD2    C3 4924   3.635   0.090  17.374 -0.3430 -0.0234  0.6537
  328MPD2    C4 4925   3.586   0.060  17.499  0.3703  0.0803  0.9106
  328MPD2    C5 4926   3.536   4.656  17.512  0.2835  0.4962  0.0397
  328MPD2     H 4927   3.683   0.025  17.172  0.3580 -0.7246  0.7549
  328MPD2    H1 4928   3.580   0.136  17.576 -1.3306  1.4085 -0.5380
  328MPD2    H2 4929   3.498   4.464  17.432 -0.1810  0.2790  1.2110
  328MPD2    H3 4930   3.504   4.621  17.609  0.6916  0.2497  0.0869
  328MPD2     N 4931   3.667   0.227  17.359  0.0732  0.2122 -0.0490
  328MPD2    H5 4932   3.664   0.276  17.448 -0.8886 -0.3560  0.2453
  328MPD2    N1 4933   3.586   4.497  17.190  0.0869 -0.9623  0.1456
  328MPD2    H7 4934   3.550   4.406  17.217  0.3747 -1.0951  0.0901
  329TMC3    C1 4935   3.580   4.401  16.966 -0.1391  0.0822  0.1283
  329TMC3    C2 4936   3.438   4.386  16.968  0.3688 -0.2531  1.0623
  329TMC3    C3 4937   3.366   4.378  16.857  0.8528 -0.0363  0.3016
  329TMC3    C4 4938   3.646   4.391  16.849  1.1754 -0.2021  0.3585
  329TMC3    C5 4939   3.569   4.382  16.731 -0.3563 -0.6734 -0.0007
  329TMC3    C6 4940   3.432   4.372  16.733 -0.7120 -0.6122 -0.0767
  329TMC3     C 4941   3.634   4.506  17.061  0.2910  0.8810  0.1102
  329TMC3     O 4942   3.677   4.606  17.002  0.1214 -0.0663  0.2017
  329TMC3     H 4943   3.390   4.412  17.062  0.6317 -0.8603  1.3642
  329TMC3    H1 4944   3.748   4.424  16.841  0.2543  2.0937 -1.7551
  329TMC3    H2 4945   3.372   4.345  16.646 -1.2292 -0.8794  0.3588
  329TMC3    C7 4946   3.625   4.449  16.620 -0.2775 -0.6853 -1.0296
  329TMC3    C8 4947   3.285   4.491  16.836 -0.1320  0.6444 -0.8125
  329TMC3    O1 4948   3.746   4.452  16.603 -0.2435  0.2116 -0.4627
  329TMC3    O2 4949   3.282   4.547  16.724  0.2121 -0.3607  0.0058
  330TMC3    C1 4950   1.892   4.424   9.259  0.0305  0.0750  0.2037
  330TMC3    C2 4951   1.933   4.301   9.235  0.4472 -0.1257  0.0029
  330TMC3    C3 4952   1.985   4.235   9.339  0.3007  0.3847  0.1960
  330TMC3    C4 4953   1.896   4.480   9.381 -0.7413 -1.0746 -0.7067
  330TMC3    C5 4954   1.958   4.403   9.477  0.7029  0.1456 -0.7010
  330TMC3    C6 4955   2.002   4.281   9.464 -0.2177 -0.1787  0.0813
  330TMC3     C 4956   1.867   4.495   9.135 -0.0024  0.4056  0.0351
  330TMC3     O 4957   1.901   4.444   9.030 -0.5480  0.1594 -0.1753
  330TMC3     H 4958   1.942   4.257   9.137  2.4910  1.7096 -0.6308
  330TMC3    H1 4959   1.869   4.582   9.405  1.2824 -0.8548  0.6233
  330TMC3    H2 4960   2.033   4.223   9.550  1.3552  0.9989  0.2948
  330TMC3    C7 4961   2.009   4.480   9.584 -0.1787 -0.0545 -0.8501
  330TMC3    C8 4962   2.006   4.097   9.306 -0.2582  0.5081  1.1244
  330TMC3    O1 4963   1.947   4.576   9.624  0.0679 -0.2102  0.7397
  330TMC3    O2 4964   2.046   4.073   9.191  0.0531 -0.3123 -0.4542
  331MPD2     C 4965   4.216   3.323  12.659  0.2138  0.2230  0.6440
  331MPD2    C1 4966   4.278   3.364  12.542  0.2876  0.2227  0.2105
  331MPD2    C2 4967   4.380   3.298  12.482  0.4083 -0.6770  0.1135
  331MPD2    C3 4968   4.428   3.186  12.544  0.3979 -0.4305  0.0010
  331MPD2    C4 4969   4.367   3.137  12.655 -0.7505 -0.3219  0.1203
  331MPD2    C5 4970   4.262   3.204  12.717 -0.0214 -0.1111  0.8657
  331MPD2     H 4971   4.431   3.329  12.391  1.5204 -0.6054  0.7645
  331MPD2    H1 4972   4.387   3.043  12.705  0.2383 -1.7638 -2.9773
  331MPD2    H2 4973   4.129   3.378  12.693  0.4436  0.4617  0.8482
  331MPD2    H3 4974   4.220   3.168  12.810 -1.6511  0.0600  0.1924
  331MPD2     N 4975   4.550   3.127  12.504  0.0707 -0.3398  0.1750
  331MPD2    H5 4976   4.601   3.182  12.436 -1.0881 -1.4868 -1.6116
  331MPD2    N1 4977   4.236   3.484  12.487 -0.0066  0.1479 -0.0717
  331MPD2    H7 4978   4.178   3.551  12.537 -1.2429 -0.5634 -0.5681
  332TMC3    C1 4979   0.015   2.997  12.485  0.2188  0.7677 -0.0802
  332TMC3    C2 4980   0.095   3.104  12.445  0.2534  0.4063  0.9072
  332TMC3    C3 4981   0.218   3.083  12.389  0.4232 -0.7812 -0.2611
  332TMC3    C4 4982   0.065   2.868  12.475  0.3094 -0.4648  0.0722
  332TMC3    C5 4983   0.188   2.856  12.417  0.8057  0.1109  0.8095
  332TMC3    C6 4984   0.256   2.958  12.367  0.7253 -0.9791 -0.2092
  332TMC3     C 4985   4.613   3.016  12.556 -0.3931  0.5220 -0.1519
  332TMC3     O 4986   4.580   2.927  12.630  0.1811 -0.5441  0.4004
  332TMC3     H 4987   0.075   3.209  12.466  1.6647  0.8062  0.2389
  332TMC3    H1 4988   0.012   2.788  12.526  1.8361  0.8041  3.6536
  332TMC3    H2 4989   0.355   2.935  12.328  0.9397 -0.5842  0.0973
  332TMC3    C7 4990   0.267   2.737  12.445 -0.1104  0.1212  0.2343
  332TMC3    C8 4991   0.304   3.202  12.370  1.0766  0.0760 -0.2038
  332TMC3    O1 4992   0.213   2.628  12.436 -0.0030 -0.1226  0.3270
  332TMC3    O2 4993   0.273   3.291  12.445 -0.3117  0.4556 -0.7124
  333MPD2     C 4994   0.046   3.546  11.586 -0.3458  0.4326 -0.1504
  333MPD2    C1 4995   0.126   3.448  11.529 -0.2993  0.5592  0.0952
  333MPD2    C2 4996   0.083   3.319  11.551  0.7281 -0.2086 -0.3107
  333MPD2    C3 4997   4.703   3.283  11.635  0.3591 -0.4188 -0.6421
  333MPD2    C4 4998   4.638   3.385  11.702  0.5324 -0.0217 -0.2705
  333MPD2    C5 4999   4.658   3.516  11.667  0.1672  0.3397  0.7640
  333MPD2     H 5000   0.121   3.227  11.508  1.0927  0.2616 -0.9863
  333MPD2    H1 5001   4.564   3.362  11.778  1.5550 -1.0402  0.4154
  333MPD2    H2 5002   0.088   3.646  11.586 -1.1845  0.7912  2.8157
  333MPD2    H3 5003   4.600   3.600  11.704  1.5244  2.5704 -2.1112
  333MPD2     N 5004   4.676   3.145  11.648 -0.1060  0.1464 -0.6606
  333MPD2    H5 5005   0.007   3.087  11.585 -1.9822 -1.1941 -1.0378
  333MPD2    N1 5006   0.251   3.480  11.463  0.5348 -0.7874  0.4566
  333MPD2    H7 5007   0.283   3.576  11.463 -1.3501 -0.1752 -0.7093
  334TMC3    C1 5008   0.462   3.437  11.381  0.3114 -0.2987  0.3579
  334TMC3    C2 5009   0.574   3.364  11.401 -0.0142 -0.3588  0.2818
  334TMC3    C3 5010   0.680   3.391  11.318 -0.3183  0.9735 -0.0620
  334TMC3    C4 5011   0.451   3.538  11.294 -0.2311  0.3405  0.4371
  334TMC3    C5 5012   0.560   3.566  11.220  0.1535 -0.0728  0.4878
  334TMC3    C6 5013   0.675   3.495  11.226  0.0359  0.1397 -0.5280
  334TMC3     C 5014   0.345   3.378  11.431 -0.0313 -0.0849 -0.4553
  334TMC3     O 5015   0.342   3.259  11.451 -0.1242 -0.0121  0.1066
  334TMC3     H 5016   0.561   3.270  11.452  2.0401 -0.8257 -0.0544
  334TMC3    H1 5017   0.362   3.601  11.289 -1.9018 -2.0074  0.7860
  334TMC3    H2 5018   0.752   3.519  11.154 -0.3165  2.8716  0.0154
  334TMC3    C7 5019   0.549   3.638  11.093 -0.5787 -0.3200  0.1078
  334TMC3    C8 5020   0.779   3.282  11.302 -0.0509 -0.3568 -0.1321
  334TMC3    O1 5021   0.652   3.685  11.040  0.1082 -0.1823  0.1043
  334TMC3    O2 5022   0.750   3.181  11.369  0.4115  0.1585 -0.0479
  335TMC3    C1 5023   4.574   0.364  17.602 -0.6961 -0.0346  0.9011
  335TMC3    C2 5024   4.505   0.338  17.488 -0.6219 -0.5354  0.8029
  335TMC3    C3 5025   4.568   0.366  17.366  0.3873 -0.1911 -0.5132
  335TMC3    C4 5026   4.698   0.413  17.598 -0.3465 -0.7446 -0.3916
  335TMC3    C5 5027   0.028   0.459  17.477 -0.3573  0.2456  0.4500
  335TMC3    C6 5028   4.688   0.436  17.357  0.3289  0.1858 -0.3911
  335TMC3     C 5029   4.534   0.311   0.038  0.2283  0.1166 -0.2770
  335TMC3     O 5030   4.589   0.362   0.138 -0.0887 -0.3157 -0.5220
  335TMC3     H 5031   4.403   0.304  17.494 -1.0579  0.5474 -0.3520
  335TMC3    H1 5032   0.017   0.435   0.001  0.3233 -2.5302 -0.2842
  335TMC3    H2 5033   0.015   0.457  17.264  1.0166 -1.2587 -0.3436
  335TMC3    C7 5034   0.172   0.479  17.476  0.0955  0.1441  0.0812
  335TMC3    C8 5035   4.497   0.335  17.243  0.1026  0.6177 -0.1624
  335TMC3    O1 5036   0.233   0.453  17.371 -0.4762 -0.5074 -0.8834
  335TMC3    O2 5037   4.532   0.400  17.144  0.0677 -0.2759 -0.1063
  336MPD2     C 5038   4.216   3.004  15.628  0.1713  0.2645  0.6624
  336MPD2    C1 5039   4.186   3.028  15.759  0.3891 -0.4080  0.2904
  336MPD2    C2 5040   4.230   2.937  15.855 -0.2681  0.5421 -0.1968
  336MPD2    C3 5041   4.332   2.849  15.826 -0.3056 -0.3306  0.2505
  336MPD2    C4 5042   4.378   2.842  15.701  0.3001 -0.0778 -0.5062
  336MPD2    C5 5043   4.309   2.909  15.598 -0.3417  0.0094  0.4768
  336MPD2     H 5044   4.174   2.927  15.947  0.1504 -1.7777 -0.1844
  336MPD2    H1 5045   4.451   2.770  15.667 -1.8028 -1.9531 -1.0646
  336MPD2    H2 5046   4.172   3.053  15.542 -0.6597  1.1871  1.6175
  336MPD2    H3 5047   4.344   2.906  15.496  0.4348  0.8639  0.7166
  336MPD2     N 5048   4.377   2.740  15.906 -0.6464  0.3530 -0.5274
  336MPD2    H5 5049   4.439   2.674  15.861 -0.0915  0.0465  0.6891
  336MPD2    N1 5050   4.089   3.124  15.794 -1.2124 -0.3964  0.0527
  336MPD2    H7 5051   4.059   3.132  15.891 -1.1770  0.8912 -0.0489
  337TMC3    C1 5052   3.924   3.285  15.777 -0.1308  0.6278  0.0310
  337TMC3    C2 5053   3.806   3.306  15.711  0.1740  0.0952 -0.0041
  337TMC3    C3 5054   3.715   3.390  15.754 -0.5225 -0.0456 -0.0397
  337TMC3    C4 5055   3.961   3.364  15.885 -0.2255 -0.5979  0.1304
  337TMC3    C5 5056   3.865   3.455  15.935  0.2594 -0.0736  0.1989
  337TMC3    C6 5057   3.738   3.458  15.877  0.5692 -0.0014  0.4442
  337TMC3     C 5058   4.027   3.214  15.704 -0.6050  0.3169 -0.2439
  337TMC3     O 5059   4.019   3.226  15.582  0.1485  0.4478  0.0913
  337TMC3     H 5060   3.786   3.243  15.624 -2.1098  0.4529  0.2684
  337TMC3    H1 5061   4.059   3.347  15.929  0.4305 -0.7268 -1.3993
  337TMC3    H2 5062   3.668   3.520  15.932  1.1068  0.3748  0.7024
  337TMC3    C7 5063   3.877   3.513  16.066  1.1389 -0.1869  0.6299
  337TMC3    C8 5064   3.578   3.374  15.711  0.2550  0.5768  0.3688
  337TMC3    O1 5065   3.779   3.548  16.131 -0.1709 -0.3733 -1.0244
  337TMC3    O2 5066   3.500   3.437  15.782 -0.4227  0.1045  0.0924
  338MPD2     C 5067   0.097   2.103   0.908 -0.0997  0.5668  0.2707
  338MPD2    C1 5068   0.078   2.188   0.806  1.0671  0.8421 -0.0190
  338MPD2    C2 5069   0.057   2.324   0.832  0.0626 -0.6191  0.1214
  338MPD2    C3 5070   0.066   2.367   0.963  0.2420 -0.4817 -0.6521
  338MPD2    C4 5071   0.097   2.280   1.068 -0.2376  0.2211  0.4894
  338MPD2    C5 5072   0.112   2.147   1.038 -0.9815 -0.5320 -0.2555
  338MPD2     H 5073   0.040   2.403   0.760  0.7079 -2.0259 -1.5708
  338MPD2    H1 5074   0.089   2.319   1.169 -2.9702 -0.5855  0.5868
  338MPD2    H2 5075   0.091   1.995   0.903 -3.1994  0.7547 -0.4658
  338MPD2    H3 5076   0.125   2.083   1.125 -1.0265 -2.0769 -1.3858
  338MPD2     N 5077   0.046   2.503   0.990 -0.0945 -0.2346 -0.3741
  338MPD2    H5 5078   0.024   2.558   0.908 -0.9013 -0.4181 -0.2868
  338MPD2    N1 5079   0.049   2.145   0.671  0.2189  0.0110  0.3406
  338MPD2    H7 5080   0.013   2.214   0.606 -1.7445 -1.4413 -0.1064
  339TMC3    C1 5081   4.719   2.704   1.097 -0.0837  0.2136 -0.1244
  339TMC3    C2 5082   4.605   2.749   1.153 -0.4435 -0.3739  0.3814
  339TMC3    C3 5083   4.572   2.878   1.121 -0.5444 -0.6870  0.4705
  339TMC3    C4 5084   0.074   2.779   1.007 -0.1490  0.6677  0.1459
  339TMC3    C5 5085   0.042   2.903   0.976  0.2190 -0.3054 -0.0296
  339TMC3    C6 5086   4.648   2.953   1.038  0.1233 -0.8721 -0.5936
  339TMC3     C 5087   0.017   2.563   1.111 -0.5841 -0.0989 -0.0785
  339TMC3     O 5088   4.700   2.515   1.220  0.0383 -0.2159 -0.0883
  339TMC3     H 5089   4.558   2.687   1.228  0.2650  0.2267  1.3249
  339TMC3    H1 5090   0.164   2.730   0.970 -0.2322 -1.0383  2.2315
  339TMC3    H2 5091   4.621   3.056   1.019 -0.4056 -1.2163 -1.6551
  339TMC3    C7 5092   0.129   2.994   0.903  0.4886  0.2160  0.2952
  339TMC3    C8 5093   4.448   2.937   1.160  0.1197  0.5275  0.9421
  339TMC3    O1 5094   0.088   3.111   0.895 -0.4263 -0.0290  0.3269
  339TMC3    O2 5095   4.408   3.035   1.099 -0.5669  0.1696  0.0283
  340MPD2     C 5096   0.957   4.583  10.494  0.1569 -0.2282  0.2479
  340MPD2    C1 5097   0.919   4.454  10.497 -0.1787 -0.0100 -0.2950
  340MPD2    C2 5098   0.986   4.359  10.571 -0.4673 -0.1074 -0.5658
  340MPD2    C3 5099   1.108   4.396  10.632  0.5127 -0.6957  0.3477
  340MPD2    C4 5100   1.151   4.525  10.627 -0.0311  0.5743 -0.3862
  340MPD2    C5 5101   1.072   4.618  10.560  0.2702 -0.2729 -1.1951
  340MPD2     H 5102   0.958   4.254  10.564 -0.3957 -0.2623  1.4693
  340MPD2    H1 5103   1.244   4.546  10.679 -1.1151 -2.4035  2.7917
  340MPD2    H2 5104   0.909   4.661  10.436 -0.9497 -0.2299  1.1626
  340MPD2    H3 5105   1.107   4.718  10.539 -2.2405  0.7635 -0.4233
  340MPD2     N 5106   1.191   4.299  10.687  0.2129 -0.3550 -0.2478
  340MPD2    H5 5107   1.281   4.328  10.724 -0.0609  0.9766 -0.5951
  340MPD2    N1 5108   0.816   4.422  10.404 -0.1585  0.2429  0.5438
  340MPD2    H7 5109   0.773   4.496  10.350 -1.0224 -1.0775 -0.5883
  341TMC3    C1 5110   0.648   4.297  10.302 -0.0847  0.7973 -0.4916
  341TMC3    C2 5111   0.579   4.176  10.304  0.3654  0.2933 -0.1288
  341TMC3    C3 5112   0.452   4.179  10.254 -0.1622  0.3382  1.3883
  341TMC3    C4 5113   0.585   4.411  10.262 -0.4164 -0.4677 -0.0277
  341TMC3    C5 5114   0.459   4.408  10.219  0.1630 -0.0842  0.6188
  341TMC3    C6 5115   0.391   4.297  10.219  0.3239 -0.7213 -0.2260
  341TMC3     C 5116   0.776   4.298  10.371 -0.3438 -0.3938 -0.2955
  341TMC3     O 5117   0.817   4.186  10.406  0.4988 -0.2115 -0.2118
  341TMC3     H 5118   0.624   4.092  10.355 -0.5336 -0.5978 -0.8301
  341TMC3    H1 5119   0.649   4.499  10.261 -1.8991  0.6144  1.3367
  341TMC3    H2 5120   0.293   4.298  10.173  0.0442 -1.2928  0.3641
  341TMC3    C7 5121   0.440   4.483  10.099 -0.3577 -0.4634 -0.1868
  341TMC3    C8 5122   0.374   4.054  10.272 -0.2710  0.0580 -0.4925
  341TMC3    O1 5123   0.533   4.509  10.021 -0.3070 -0.0447 -0.3541
  341TMC3    O2 5124   0.431   3.945  10.265 -0.2197  0.2645  0.3240
  342MPD2     C 5125   2.369   3.126  17.160  0.2921 -0.3059  0.2398
  342MPD2    C1 5126   2.402   3.142  17.293 -0.6901 -0.1111 -0.7485
  342MPD2    C2 5127   2.410   3.268  17.353 -0.8555 -0.1698 -0.9822
  342MPD2    C3 5128   2.386   3.383  17.271 -0.3965  0.2538  0.4221
  342MPD2    C4 5129   2.370   3.365  17.133  0.2148  0.0784  0.0706
  342MPD2    C5 5130   2.364   3.235  17.078 -0.4312 -0.0690  0.2299
  342MPD2     H 5131   2.438   3.274  17.457  1.8366  3.0401 -1.8909
  342MPD2    H1 5132   2.362   3.456  17.074  1.1666 -0.7378 -1.3260
  342MPD2    H2 5133   2.353   3.030  17.113  2.1267 -1.2941  1.5904
  342MPD2    H3 5134   2.328   3.213  16.979 -2.1772 -1.5445  1.2051
  342MPD2     N 5135   2.375   3.513  17.321  0.1736  0.8054  0.4249
  342MPD2    H5 5136   2.353   3.588  17.257  2.4808  0.5819 -0.6320
  342MPD2    N1 5137   2.430   3.027  17.376  0.4500  0.0955  0.2923
  342MPD2    H7 5138   2.473   3.044  17.466 -0.4697  1.2479  0.5180
  343TMC3    C1 5139   2.481   2.804  17.435  0.4987  0.0823  0.1062
  343TMC3    C2 5140   2.606   2.821  17.487  0.2138  0.0248  0.0564
  343TMC3    C3 5141   2.691   2.718  17.503  0.0738 -0.4529 -0.8238
  343TMC3    C4 5142   2.438   2.681  17.396  0.3013 -0.7470 -0.0882
  343TMC3    C5 5143   2.526   2.574  17.406 -0.4011  0.8152 -0.6616
  343TMC3    C6 5144   2.646   2.591  17.470 -0.5151  0.4107 -0.2949
  343TMC3     C 5145   2.420   2.897  17.338 -0.0827 -1.3644 -0.2205
  343TMC3     O 5146   2.357   2.852  17.240  0.2153 -0.1596  0.2201
  343TMC3     H 5147   2.635   2.924  17.507 -0.6475  0.5516 -1.4330
  343TMC3    H1 5148   2.339   2.664  17.357  0.4988  0.2634 -1.0226
  343TMC3    H2 5149   2.715   2.508  17.472 -0.0015  0.8643  0.7283
  343TMC3    C7 5150   2.462   2.444  17.394 -0.7686 -1.3183  0.3538
  343TMC3    C8 5151   2.834   2.734  17.507  0.4333 -0.3459  0.1874
  343TMC3    O1 5152   2.370   2.436  17.319  0.3690  0.0144  0.3692
  343TMC3    O2 5153   2.882   2.780  17.613  0.3177 -0.1664 -0.6811
  344MPD2     C 5154   3.930   2.752  10.513  0.3075 -1.0417 -0.2450
  344MPD2    C1 5155   3.926   2.632  10.439 -0.0551  0.2122  1.0365
  344MPD2    C2 5156   4.004   2.618  10.328  0.1833 -0.2434  0.4778
  344MPD2    C3 5157   4.098   2.715  10.290 -0.2800  0.6207 -1.0187
  344MPD2    C4 5158   4.103   2.831  10.367  0.7342 -0.3233  0.0876
  344MPD2    C5 5159   4.020   2.846  10.472 -0.1269 -0.5961 -0.3179
  344MPD2     H 5160   3.997   2.529  10.267  2.0737 -0.3056  0.3574
  344MPD2    H1 5161   4.170   2.913  10.345  1.7406 -0.8954  0.9715
  344MPD2    H2 5162   3.871   2.772  10.602 -0.3929 -1.0790 -0.7009
  344MPD2    H3 5163   4.036   2.929  10.540 -1.4818 -0.8221  0.2719
  344MPD2     N 5164   4.183   2.702  10.175  0.0790 -0.8810 -0.1947
  344MPD2    H5 5165   4.236   2.787  10.160  1.1104 -1.8283 -1.9003
  344MPD2    N1 5166   3.843   2.522  10.470 -0.8771  0.0440  0.5953
  344MPD2    H7 5167   3.828   2.451  10.399 -1.7422  0.4388  0.3778
  345TMC3    C1 5168   4.256   2.674   9.966 -0.3204 -0.3564  0.4215
  345TMC3    C2 5169   4.366   2.745  10.005 -0.3722 -0.2718 -0.6938
  345TMC3    C3 5170   4.388   2.865   9.947 -0.4804  0.3912  0.0848
  345TMC3    C4 5171   4.178   2.714   9.868  0.4787 -1.0970  0.6015
  345TMC3    C5 5172   4.204   2.831   9.800 -0.5839  0.2829  0.4734
  345TMC3    C6 5173   4.308   2.912   9.845  0.3094 -0.0729  0.5819
  345TMC3     C 5174   4.181   2.613  10.077  1.1404  0.3364  0.0204
  345TMC3     O 5175   4.098   2.526  10.059  0.1946 -1.1363 -0.2238
  345TMC3     H 5176   4.425   2.699  10.083 -0.2927  2.0172  0.6064
  345TMC3    H1 5177   4.079   2.671   9.864  0.5054 -1.1179  0.0729
  345TMC3    H2 5178   4.320   3.011   9.805  1.2044 -0.3212  0.2449
  345TMC3    C7 5179   4.079   2.901   9.764 -0.0597 -0.0675  0.1413
  345TMC3    C8 5180   4.398   2.960  10.055  0.1178 -0.6040 -0.2934
  345TMC3    O1 5181   4.062   3.018   9.793 -0.2839  0.8133 -0.0783
  345TMC3    O2 5182   4.324   2.951  10.149 -0.4555 -0.7062 -0.1327
  346MPD2     C 5183   4.185   4.376  14.380 -0.0896  0.1860 -0.3821
  346MPD2    C1 5184   4.170   4.509  14.351 -0.5277 -0.1739 -0.1147
  346MPD2    C2 5185   4.236   4.598  14.426 -0.0603  0.7832 -0.6408
  346MPD2    C3 5186   4.311   4.569  14.536 -0.5401 -0.1181 -0.3794
  346MPD2    C4 5187   4.325   4.438  14.570  0.0902 -0.4687  0.0828
  346MPD2    C5 5188   4.264   4.342  14.492 -0.5491  0.0379 -0.2748
  346MPD2     H 5189   4.232   4.699  14.387  1.1209  0.4345 -1.6835
  346MPD2    H1 5190   4.388   4.402  14.651  0.3139  2.2352  1.1396
  346MPD2    H2 5191   4.151   4.297  14.314  1.5563  0.0217 -1.0332
  346MPD2    H3 5192   4.300   4.244  14.520 -1.2747  0.0822  0.8302
  346MPD2     N 5193   4.366   4.678  14.603  0.2260 -0.0327  0.2788
  346MPD2    H5 5194   4.348   0.049  14.570 -1.8585 -0.9400 -1.1824
  346MPD2    N1 5195   4.108   4.554  14.232  0.1476 -0.3487  0.0732
  346MPD2    H7 5196   4.121   4.651  14.206 -0.6608  0.0249  1.0583
  347TMC3    C1 5197   4.449   0.094  14.768  1.0587 -0.1519  0.7578
  347TMC3    C2 5198   4.392   0.189  14.682  0.5858  0.2044 -0.0963
  347TMC3    C3 5199   4.462   0.297  14.644 -0.7402 -0.0369 -0.6641
  347TMC3    C4 5200   4.579   0.112  14.813 -0.3575  0.2141 -0.1684
  347TMC3    C5 5201   4.646   0.223  14.770 -0.1963 -0.4075 -0.1251
  347TMC3    C6 5202   4.593   0.317  14.686  0.2880 -0.6812  0.4469
  347TMC3     C 5203   4.427   4.685  14.727 -0.6232  0.5052  0.2967
  347TMC3     O 5204   4.450   4.595  14.808  0.1706  0.2028 -0.2195
  347TMC3     H 5205   4.286   0.176  14.666  0.2572  0.9229  1.4869
  347TMC3    H1 5206   4.616   0.041  14.886 -1.6060  0.6992  0.9557
  347TMC3    H2 5207   4.658   0.396  14.650 -2.5244  1.5386  0.2754
  347TMC3    C7 5208   0.018   0.281  14.866 -0.7139 -0.0814 -0.5677
  347TMC3    C8 5209   4.429   0.324  14.502  0.8449 -1.1931  0.7010
  347TMC3    O1 5210   0.102   0.209  14.922  0.5386  0.4795  0.4413
  347TMC3    O2 5211   4.348   0.246  14.449  0.4870  0.5572 -0.3173
  348MPD2     C 5212   2.951   3.854  12.330  0.6742 -0.2368  0.4043
  348MPD2    C1 5213   2.922   3.772  12.217 -0.4888 -0.2478 -0.0475
  348MPD2    C2 5214   2.846   3.824  12.114  0.0161 -0.0743  0.0259
  348MPD2    C3 5215   2.815   3.961  12.110  0.7853 -0.1953  0.3074
  348MPD2    C4 5216   2.850   4.045  12.220 -0.0239 -0.6906  0.5362
  348MPD2    C5 5217   2.921   3.985  12.324  0.1439  0.0360 -0.3015
  348MPD2     H 5218   2.813   3.768  12.027 -3.6273  0.0987  1.2683
  348MPD2    H1 5219   2.820   4.148  12.232  0.0280 -0.5222 -0.7139
  348MPD2    H2 5220   2.998   3.812  12.418 -0.4171 -1.6169  0.3134
  348MPD2    H3 5221   2.944   4.050  12.408  0.0840 -0.6565  0.2587
  348MPD2     N 5222   2.745   4.016  11.999 -0.4573 -0.2288  0.2921
  348MPD2    H5 5223   2.719   3.942  11.934 -1.2486  1.7349 -1.6400
  348MPD2    N1 5224   2.939   3.634  12.217 -0.0923 -0.3504 -0.4248
  348MPD2    H7 5225   2.913   3.574  12.139 -1.4639 -0.1576 -0.1196
  349TMC3    C1 5226   3.071   3.444  12.260 -0.8995 -1.3069 -0.4037
  349TMC3    C2 5227   3.073   3.335  12.346 -0.5092 -0.1101 -0.4310
  349TMC3    C3 5228   3.081   3.215  12.288  0.4777  0.8593  0.0362
  349TMC3    C4 5229   3.096   3.437  12.126  0.5324 -0.0074  1.4393
  349TMC3    C5 5230   3.113   3.306  12.075 -0.0658 -0.4127 -0.0667
  349TMC3    C6 5231   3.104   3.197  12.156 -0.0760  0.0389 -0.5861
  349TMC3     C 5232   3.022   3.571  12.306  0.6243  0.1011 -0.5636
  349TMC3     O 5233   3.075   3.608  12.405 -0.2519 -0.1466 -0.1237
  349TMC3     H 5234   3.061   3.351  12.452  1.1053  2.1778 -0.6141
  349TMC3    H1 5235   3.124   3.523  12.066 -3.8107  0.6285  0.3253
  349TMC3    H2 5236   3.102   3.094  12.125 -2.1155 -0.4477  1.1563
  349TMC3    C7 5237   3.176   3.284  11.950  0.2149 -0.2901  0.4791
  349TMC3    C8 5238   3.077   3.097  12.375  0.2495  0.1407 -0.2056
  349TMC3    O1 5239   3.227   3.175  11.950 -0.1228 -0.3954  0.0127
  349TMC3    O2 5240   3.135   2.993  12.336 -0.2364  0.0033  0.5398
  350MPD2     C 5241   1.448   1.929   9.897 -0.6192 -0.5789 -0.4992
  350MPD2    C1 5242   1.543   1.825   9.897  0.6312  0.1460 -0.4229
  350MPD2    C2 5243   1.669   1.849   9.856  0.3843 -0.2887 -0.0002
  350MPD2    C3 5244   1.716   1.975   9.834 -0.6488 -0.2435 -0.2728
  350MPD2    C4 5245   1.624   2.075   9.831  0.5770  0.7689  0.0131
  350MPD2    C5 5246   1.494   2.051   9.857 -0.6488 -0.3550  0.4504
  350MPD2     H 5247   1.730   1.760   9.846 -1.2901 -1.5320  0.7255
  350MPD2    H1 5248   1.661   2.174   9.805  2.8919  0.3571  1.7813
  350MPD2    H2 5249   1.344   1.913   9.922 -0.1757 -3.7680 -0.6263
  350MPD2    H3 5250   1.429   2.138   9.853 -1.5737 -1.0018  1.2807
  350MPD2     N 5251   1.856   2.000   9.830  0.4242  0.2012  0.5560
  350MPD2    H5 5252   1.917   1.919   9.820 -2.6625 -2.1915  0.8337
  350MPD2    N1 5253   1.510   1.692   9.941  0.0820  0.5079  0.5146
  350MPD2    H7 5254   1.569   1.612   9.920 -2.5125 -1.0466 -0.8202
  351TMC3    C1 5255   1.394   1.506  10.019 -0.0979 -0.1494 -0.6613
  351TMC3    C2 5256   1.504   1.425  10.017  0.2588  0.4742 -0.7925
  351TMC3    C3 5257   1.482   1.288  10.036  0.0206 -0.3699  0.1658
  351TMC3    C4 5258   1.270   1.445  10.020 -0.3311  0.1089 -0.4542
  351TMC3    C5 5259   1.252   1.313  10.036  0.6528  0.2897 -0.0498
  351TMC3    C6 5260   1.359   1.227  10.038  0.3028 -0.4215 -0.3128
  351TMC3     C 5261   1.396   1.654  10.010  0.2671 -0.6338  0.3202
  351TMC3     O 5262   1.300   1.726  10.040 -0.3531  0.0095 -0.2341
  351TMC3     H 5263   1.603   1.468  10.012  0.4685  0.0706 -0.1650
  351TMC3    H1 5264   1.186   1.505   9.990  2.6087  2.6753 -3.5992
  351TMC3    H2 5265   1.348   1.124  10.008  2.8126 -0.6657 -0.3955
  351TMC3    C7 5266   1.114   1.261  10.027 -0.1480 -0.1245  0.3938
  351TMC3    C8 5267   1.603   1.203  10.039 -0.0805 -0.0998 -0.6309
  351TMC3    O1 5268   1.028   1.344  10.003 -0.1821 -0.2253  0.0133
  351TMC3    O2 5269   1.707   1.256  10.012 -0.0638  0.1733 -0.4130
  352MPD2     C 5270   3.886   4.137   1.536  0.3267 -0.3119 -0.4811
  352MPD2    C1 5271   3.955   4.100   1.428 -0.0856  0.2453 -0.6887
  352MPD2    C2 5272   4.000   3.970   1.420 -0.0536  0.6275 -0.1376
  352MPD2    C3 5273   3.975   3.880   1.523 -0.6934 -0.6043 -0.4675
  352MPD2    C4 5274   3.919   3.923   1.639 -0.5608  0.1527 -0.6348
  352MPD2    C5 5275   3.873   4.049   1.642 -0.1111  0.2835 -0.3854
  352MPD2     H 5276   4.034   3.940   1.321  1.8875  1.3055  0.3253
  352MPD2    H1 5277   3.898   3.864   1.728  0.1978  1.7618  0.6259
  352MPD2    H2 5278   3.847   4.235   1.560  0.9762  0.4133 -2.3554
  352MPD2    H3 5279   3.814   4.069   1.731  0.9641  0.4844  0.2839
  352MPD2     N 5280   3.995   3.741   1.498  0.0872  0.3523  0.2746
  352MPD2    H5 5281   4.033   3.719   1.406  1.1715  0.2323  0.7529
  352MPD2    N1 5282   3.959   4.183   1.315  0.5928  0.1647 -0.1861
  352MPD2    H7 5283   3.905   4.269   1.316  0.5233  0.1247 -1.0098
  353TMC3    C1 5284   4.014   3.502   1.518  0.2983  0.1354 -0.3517
  353TMC3    C2 5285   4.078   3.412   1.592 -0.1471 -0.2980 -0.0617
  353TMC3    C3 5286   4.128   3.301   1.536 -0.0495  0.1026  0.4950
  353TMC3    C4 5287   3.992   3.481   1.386 -0.0105  0.2361 -0.1833
  353TMC3    C5 5288   4.037   3.365   1.336 -0.1132  0.0668 -0.2390
  353TMC3    C6 5289   4.117   3.280   1.402  0.3329 -0.2848 -0.3623
  353TMC3     C 5290   3.986   3.633   1.583 -0.5137  0.1749  0.2739
  353TMC3     O 5291   3.997   3.640   1.704  0.0545 -0.2318 -0.7583
  353TMC3     H 5292   4.089   3.429   1.698 -1.9707 -1.1894  0.2786
  353TMC3    H1 5293   3.951   3.561   1.325 -0.6782  1.0335  1.2966
  353TMC3    H2 5294   4.148   3.186   1.359 -0.2952 -0.9005  0.5248
  353TMC3    C7 5295   4.056   3.363   1.191  0.3590  0.5311 -0.2811
  353TMC3    C8 5296   4.229   3.230   1.618 -0.3078  0.2273 -0.2280
  353TMC3    O1 5297   4.164   3.312   1.151  0.7291 -0.5790  0.9365
  353TMC3    O2 5298   4.199   3.202   1.732 -1.0424 -0.0305  0.3546
  354TMC3    C1 5299   1.679   0.507  13.300  0.2712  0.4848 -0.4888
  354TMC3    C2 5300   1.605   0.615  13.242 -0.3532  0.5910 -0.4034
  354TMC3    C3 5301   1.662   0.663  13.121  0.2208  0.1414  0.3932
  354TMC3    C4 5302   1.778   0.448  13.228 -0.3793 -0.1058 -0.1930
  354TMC3    C5 5303   1.813   0.485  13.099  0.3219  0.1052  0.0724
  354TMC3    C6 5304   1.767   0.604  13.051  0.8723  0.2818  0.2098
  354TMC3     C 5305   1.638   0.458  13.430 -0.3609  0.2108  0.2110
  354TMC3     O 5306   1.519   0.456  13.454 -0.2285 -0.1203  0.2233
  354TMC3     H 5307   1.518   0.652  13.295 -1.4251  0.2346 -1.9300
  354TMC3    H1 5308   1.810   0.347  13.255 -0.3939  0.2995  1.3790
  354TMC3    H2 5309   1.797   0.650  12.958  1.3738 -2.6089 -1.0781
  354TMC3    C7 5310   1.954   0.476  13.094 -0.1140 -0.2102  0.3781
  354TMC3    C8 5311   1.619   0.790  13.065 -0.2161  0.2197 -1.1375
  354TMC3    O1 5312   2.004   0.374  13.135 -0.2124  0.4513  0.7570
  354TMC3    O2 5313   1.657   0.812  12.948 -0.1894 -0.6847 -0.1111
  355MPD2     C 5314   1.024   1.424  11.944 -0.3267  0.1339  0.1800
  355MPD2    C1 5315   1.091   1.445  11.823  0.4976 -0.6937  0.1345
  355MPD2    C2 5316   1.231   1.422  11.818  0.4553 -0.0986 -0.0412
  355MPD2    C3 5317   1.303   1.376  11.929 -1.3221 -0.1799  0.8241
  355MPD2    C4 5318   1.229   1.349  12.037  0.3983  0.3129  0.5393
  355MPD2    C5 5319   1.095   1.370  12.049  0.1950  0.9535  0.2100
  355MPD2     H 5320   1.274   1.418  11.719  1.0512 -1.4043  0.2641
  355MPD2    H1 5321   1.275   1.318  12.130  0.5713  1.3128  0.7878
  355MPD2    H2 5322   0.921   1.449  11.967 -0.3298 -0.1374  0.4566
  355MPD2    H3 5323   1.048   1.366  12.147  0.1067 -0.3235  0.1232
  355MPD2     N 5324   1.439   1.351  11.934  0.6070  0.5207  0.8150
  355MPD2    H5 5325   1.489   1.329  12.019 -1.9678 -4.3833  1.0241
  355MPD2    N1 5326   1.009   1.489  11.710 -0.3938 -0.5835 -0.3772
  355MPD2    H7 5327   0.917   1.446  11.719  0.6054 -2.3036  1.5909
  356TMC3    C1 5328   1.656   1.438  11.893 -0.3632  0.2493 -0.2539
  356TMC3    C2 5329   1.762   1.431  11.807  1.1723 -0.6153 -0.3768
  356TMC3    C3 5330   1.872   1.509  11.834 -0.2281  0.5224  0.3025
  356TMC3    C4 5331   1.651   1.524  11.997 -0.0688  0.1771  0.1611
  356TMC3    C5 5332   1.760   1.594  12.023  0.2850 -0.0826  0.9256
  356TMC3    C6 5333   1.875   1.595  11.945 -0.2540 -0.1796 -0.8003
  356TMC3     C 5334   1.531   1.394  11.841 -0.2858 -0.7321 -1.1020
  356TMC3     O 5335   1.517   1.413  11.721  0.7032  1.0736  0.1671
  356TMC3     H 5336   1.758   1.359  11.727  0.4282 -0.0022 -0.8957
  356TMC3    H1 5337   1.555   1.535  12.045  0.5795  0.0556  1.4701
  356TMC3    H2 5338   1.969   1.642  11.969 -0.8091  0.3933  0.2659
  356TMC3    C7 5339   1.731   1.685  12.134  0.2686 -0.5930 -0.2144
  356TMC3    C8 5340   1.949   1.549  11.719 -0.2047  0.2950  0.2262
  356TMC3    O1 5341   1.648   1.639  12.208 -0.4136 -0.5692  0.3406
  356TMC3    O2 5342   1.901   1.533  11.611 -0.3857  0.7205 -0.6523
  357MPD2     C 5343   2.437   0.946   1.767  0.3738 -0.1698 -0.0765
  357MPD2    C1 5344   2.310   0.976   1.716 -1.1936 -0.4867 -0.2064
  357MPD2    C2 5345   2.226   1.071   1.779  0.8620  0.1518 -0.0280
  357MPD2    C3 5346   2.269   1.138   1.887 -0.0150 -0.9625  0.2639
  357MPD2    C4 5347   2.393   1.112   1.932  0.7093 -0.1440  0.3079
  357MPD2    C5 5348   2.478   1.034   1.865  0.3826  0.3456  0.5314
  357MPD2     H 5349   2.127   1.093   1.742 -0.0860 -1.7938  1.4017
  357MPD2    H1 5350   2.430   1.169   2.017  0.8696  0.5948 -0.2586
  357MPD2    H2 5351   2.508   0.879   1.720  0.4015 -0.4471  0.3658
  357MPD2    H3 5352   2.573   1.022   1.916 -0.7433 -1.1543  2.2823
  357MPD2     N 5353   2.180   1.217   1.966  0.4722 -0.9205 -0.8678
  357MPD2    H5 5354   2.198   1.249   2.061  2.3169 -3.9650 -0.1855
  357MPD2    N1 5355   2.265   0.911   1.601 -0.0481  0.1805  0.1812
  357MPD2    H7 5356   2.332   0.843   1.569 -0.8904  0.5709 -2.3712
  358TMC3    C1 5357   2.148   0.858   1.403 -0.5487  0.1880  1.4336
  358TMC3    C2 5358   2.049   0.890   1.316 -0.1752  1.0700  0.2255
  358TMC3    C3 5359   2.030   0.805   1.212 -0.2736  0.2223  0.0064
  358TMC3    C4 5360   2.235   0.745   1.387 -0.4355 -0.4135  0.4443
  358TMC3    C5 5361   2.214   0.662   1.278 -0.1122  0.0632  0.7670
  358TMC3    C6 5362   2.112   0.694   1.186 -0.4096  0.0689  0.0825
  358TMC3     C 5363   2.152   0.935   1.524 -0.1221 -0.0509  0.1286
  358TMC3     O 5364   2.068   1.020   1.544  0.3613 -0.4714  0.1509
  358TMC3     H 5365   1.988   0.979   1.322  0.9089  1.7511  1.0902
  358TMC3    H1 5366   2.312   0.718   1.459 -0.0803 -0.9779 -0.1454
  358TMC3    H2 5367   2.100   0.638   1.094  0.2662 -0.3924  0.2805
  358TMC3    C7 5368   2.314   0.569   1.228  0.3149 -1.0033 -0.1304
  358TMC3    C8 5369   1.929   0.832   1.112 -0.4560 -0.2519  0.5994
  358TMC3    O1 5370   2.298   0.512   1.121 -0.3501 -0.4437 -0.8977
  358TMC3    O2 5371   1.946   0.786   1.001  0.4376  0.2325 -0.0599
  359MPD2     C 5372   2.480   0.209  12.858  0.3749  0.2056  0.5868
  359MPD2    C1 5373   2.418   0.202  12.736 -0.5150 -0.2281 -0.3963
  359MPD2    C2 5374   2.284   0.176  12.724 -0.4210 -0.0036  0.1078
  359MPD2    C3 5375   2.205   0.153  12.838  0.4142 -0.4685 -0.0797
  359MPD2    C4 5376   2.266   0.152  12.960 -0.1064  0.2746  0.4714
  359MPD2    C5 5377   2.401   0.188  12.970 -0.0942  0.3207 -0.3385
  359MPD2     H 5378   2.241   0.184  12.626  0.8964  0.6333 -0.4245
  359MPD2    H1 5379   2.217   0.115  13.049  2.0553 -1.0787  1.1154
  359MPD2    H2 5380   2.583   0.232  12.884  0.6713 -2.2884  1.5531
  359MPD2    H3 5381   2.443   0.194  13.070  0.9149 -1.7376 -0.6394
  359MPD2     N 5382   2.070   0.117  12.822  0.4461  0.3821 -0.5021
  359MPD2    H5 5383   2.022   0.086  12.906  0.6612 -0.4630 -0.7010
  359MPD2    N1 5384   2.485   0.220  12.617 -0.9226  0.3708  0.8093
  359MPD2    H7 5385   2.423   0.203  12.538  0.4487  2.1960 -0.6392
  360TMC3    C1 5386   2.645   0.249  12.445  0.5215  0.6925  1.3690
  360TMC3    C2 5387   2.734   0.342  12.410  0.5617 -1.5159  1.0900
  360TMC3    C3 5388   2.740   0.389  12.284  0.2649 -0.1388  0.5195
  360TMC3    C4 5389   2.564   0.187  12.349  0.1441 -0.5683 -0.4622
  360TMC3    C5 5390   2.572   0.232  12.220  0.4690 -0.1338 -0.6841
  360TMC3    C6 5391   2.659   0.331  12.187  0.2581  0.3628  1.0263
  360TMC3     C 5392   2.619   0.230  12.592 -0.1717  0.0724 -0.2712
  360TMC3     O 5393   2.704   0.260  12.674 -0.1278 -0.8761 -0.1409
  360TMC3     H 5394   2.768   0.399  12.495 -0.6749 -0.8329  1.1183
  360TMC3    H1 5395   2.502   0.105  12.383 -1.5044  2.3184  3.5737
  360TMC3    H2 5396   2.663   0.372  12.087 -0.1033  1.0953  1.3065
  360TMC3    C7 5397   2.541   0.145  12.108  0.0693 -0.4779 -0.4427
  360TMC3    C8 5398   2.870   0.445  12.251 -0.2988  0.3639 -0.0943
  360TMC3    O1 5399   2.570   0.185  11.995 -0.9735  0.3739  0.3419
  360TMC3    O2 5400   2.944   0.482  12.341 -0.0462  0.3195 -0.3900
  361MPD2     C 5401   3.054   3.569  16.946  0.3521  0.0633  0.5134
  361MPD2    C1 5402   3.145   3.652  17.005  0.7393  0.0555 -0.0552
  361MPD2    C2 5403   3.277   3.605  17.024 -0.3260 -0.4209  0.5952
  361MPD2    C3 5404   3.319   3.485  16.969  0.0353 -0.1436  0.4527
  361MPD2    C4 5405   3.227   3.410  16.892 -0.4218  1.0208 -0.3546
  361MPD2    C5 5406   3.101   3.447  16.884 -0.4576  0.1114  0.0800
  361MPD2     H 5407   3.341   3.666  17.086 -1.3568  1.0768  0.1778
  361MPD2    H1 5408   3.253   3.316  16.844  0.8402  0.0091  2.3432
  361MPD2    H2 5409   2.953   3.604  16.925 -0.9061 -3.0230  1.4665
  361MPD2    H3 5410   3.028   3.380  16.841 -1.9086  1.5044  0.3640
  361MPD2     N 5411   3.447   3.429  17.004  0.6437 -0.5095  0.0030
  361MPD2    H5 5412   3.465   3.347  16.947 -1.7618 -0.1454 -1.2681
  361MPD2    N1 5413   3.111   3.784  17.053 -0.4045  0.3539 -0.1221
  361MPD2    H7 5414   3.190   3.843  17.079 -0.7043  0.4848  0.4969
  362TMC3    C1 5415   2.968   3.977  17.074 -0.8161 -0.6178 -0.2765
  362TMC3    C2 5416   2.861   4.035  17.133 -0.5989 -0.2202  0.2049
  362TMC3    C3 5417   2.824   4.157  17.091  0.9544 -0.3423  0.3921
  362TMC3    C4 5418   3.043   4.042  16.978  0.8342 -0.5447 -0.2163
  362TMC3    C5 5419   3.002   4.165  16.939 -0.7562  0.6572  0.2162
  362TMC3    C6 5420   2.893   4.225  16.996  0.3127  0.1021 -0.2275
  362TMC3     C 5421   2.978   3.830  17.069  0.2203  0.4223  0.3020
  362TMC3     O 5422   2.880   3.761  17.065  0.0084 -0.0983 -0.2255
  362TMC3     H 5423   2.799   3.968  17.192  0.3967 -0.5001  0.9387
  362TMC3    H1 5424   3.123   3.993  16.923  0.8570 -0.6645 -0.0767
  362TMC3    H2 5425   2.856   4.318  16.953  1.3075  1.0636  0.9932
  362TMC3    C7 5426   3.050   4.202  16.804 -0.1121 -0.5263  0.7124
  362TMC3    C8 5427   2.690   4.203  17.110  0.2225 -0.3045  0.3600
  362TMC3    O1 5428   3.146   4.141  16.753 -0.1092  0.1407  0.4432
  362TMC3    O2 5429   2.629   4.258  17.017 -0.7128  0.3697 -0.4337
  363TMC3    C1 5430   2.637   1.104   9.448  0.0514  0.1757  0.0346
  363TMC3    C2 5431   2.679   1.032   9.557  0.1722  0.5608 -0.2165
  363TMC3    C3 5432   2.596   1.030   9.669  0.7537  0.1308 -0.0232
  363TMC3    C4 5433   2.522   1.182   9.452 -0.3755 -0.1921 -0.1789
  363TMC3    C5 5434   2.448   1.177   9.571 -0.8200 -0.0864  0.0911
  363TMC3    C6 5435   2.473   1.088   9.675  0.1330  0.6200 -0.2710
  363TMC3     C 5436   2.709   1.096   9.321  0.0580 -0.2040 -0.0389
  363TMC3     O 5437   2.633   1.132   9.235 -0.2079 -0.7812  0.6569
  363TMC3     H 5438   2.769   0.972   9.563  0.1945  0.6307  0.1428
  363TMC3    H1 5439   2.476   1.228   9.365 -0.0849  2.1511  0.9067
  363TMC3    H2 5440   2.412   1.076   9.764  0.4918 -2.9865 -0.5146
  363TMC3    C7 5441   2.316   1.240   9.577  0.3833 -0.1043 -0.0262
  363TMC3    C8 5442   2.644   0.960   9.785  0.2408  0.5031  0.0737
  363TMC3    O1 5443   2.258   1.254   9.469 -0.1466 -0.0078 -0.0824
  363TMC3    O2 5444   2.616   1.010   9.890 -0.0588  0.3150  0.3667
  364MPD2     C 5445   0.816   0.259  10.784  0.5355 -0.2312  0.2714
  364MPD2    C1 5446   0.952   0.247  10.757 -0.1932  0.4481  0.3983
  364MPD2    C2 5447   1.028   0.152  10.831  0.3923  0.2230 -0.3829
  364MPD2    C3 5448   0.959   0.066  10.917 -0.4408 -0.1893 -0.5231
  364MPD2    C4 5449   0.822   0.068  10.925  0.1605  0.5911 -0.0476
  364MPD2    C5 5450   0.750   0.162  10.858  0.6471  0.4392  0.0188
  364MPD2     H 5451   1.134   0.134  10.819  0.3917  0.1697 -0.3125
  364MPD2    H1 5452   0.769   4.721  10.988 -0.1882  2.6230  1.9155
  364MPD2    H2 5453   0.759   0.340  10.742  1.9486  0.3783 -0.4741
  364MPD2    H3 5454   0.644   0.172  10.875  1.0433 -0.6178  3.1080
  364MPD2     N 5455   1.026   4.710  11.013  0.2651  0.0436 -0.0312
  364MPD2    H5 5456   0.976   4.636  11.061 -0.6569 -1.5113 -3.3229
  364MPD2    N1 5457   1.013   0.334  10.662  0.0486 -0.0722  0.6891
  364MPD2    H7 5458   0.949   0.395  10.612 -1.2793 -1.3633  0.8433
  365TMC3    C1 5459   1.185   0.456  10.561 -0.0765 -0.1614  0.2569
  365TMC3    C2 5460   1.298   0.433  10.478  0.5577 -0.3788 -0.2113
  365TMC3    C3 5461   1.344   0.545  10.412 -0.2854 -0.3330  0.5278
  365TMC3    C4 5462   1.143   0.581  10.584  1.2878 -0.0674  0.0396
  365TMC3    C5 5463   1.203   0.685  10.518  0.0639  0.2954  0.0480
  365TMC3    C6 5464   1.297   0.673  10.424  0.0252  0.0055 -0.5870
  365TMC3     C 5465   1.150   0.344  10.647  0.5439  0.1030 -0.0252
  365TMC3     O 5466   1.241   0.269  10.673  0.8359  0.0406 -0.1672
  365TMC3     H 5467   1.341   0.335  10.469  0.0679 -0.4328 -2.0938
  365TMC3    H1 5468   1.055   0.589  10.648  1.9803 -0.3926  1.0284
  365TMC3    H2 5469   1.352   0.753  10.375 -1.7003  0.3062 -2.0420
  365TMC3    C7 5470   1.148   0.820  10.544  0.3256 -0.0308  0.4561
  365TMC3    C8 5471   1.414   0.522  10.284  0.3659 -0.2757 -0.0891
  365TMC3    O1 5472   1.181   0.903  10.456  0.2062  0.1324  0.2133
  365TMC3    O2 5473   1.375   0.573  10.182 -0.4820 -0.2421 -0.0902
  366MPD2     C 5474   4.108   1.791  15.502 -0.1178 -0.2560  0.8330
  366MPD2    C1 5475   4.157   1.925  15.486  0.7300  0.6737 -0.3836
  366MPD2    C2 5476   4.291   1.937  15.450  0.8841 -0.7188  0.2301
  366MPD2    C3 5477   4.365   1.834  15.405  0.4104  0.1751  0.2620
  366MPD2    C4 5478   4.317   1.710  15.424  0.8843  0.3993 -0.0243
  366MPD2    C5 5479   4.191   1.690  15.473  0.1444 -0.1009  0.0035
  366MPD2     H 5480   4.333   2.037  15.441  0.8953 -0.7342  0.1148
  366MPD2    H1 5481   4.373   1.626  15.385 -1.4226 -0.1174 -2.2546
  366MPD2    H2 5482   4.004   1.781  15.532 -0.8735 -1.3605 -2.1840
  366MPD2    H3 5483   4.148   1.591  15.486 -1.6127  0.5908 -0.6064
  366MPD2     N 5484   4.483   1.863  15.338 -0.6479  0.1653 -0.0003
  366MPD2    H5 5485   4.517   1.959  15.337  0.7330 -0.3103  0.9284
  366MPD2    N1 5486   4.083   2.041  15.507  0.1314  0.3077  0.4587
  366MPD2    H7 5487   4.127   2.131  15.488  1.4544 -0.2449  0.9344
  367TMC3    C1 5488   3.917   2.187  15.484 -0.1462  0.0232 -0.1539
  367TMC3    C2 5489   3.990   2.280  15.552 -0.0073  1.1161  0.2137
  367TMC3    C3 5490   3.984   2.411  15.510 -0.1700 -0.1696 -0.2099
  367TMC3    C4 5491   3.836   2.218  15.381 -0.2326 -0.7004  0.6453
  367TMC3    C5 5492   3.828   2.347  15.344 -0.0978 -0.3473  0.3643
  367TMC3    C6 5493   3.900   2.448  15.407 -0.4924  0.5422  0.1695
  367TMC3     C 5494   3.948   2.049  15.491 -0.4521 -0.7069  0.2774
  367TMC3     O 5495   3.866   1.961  15.450 -0.0113 -0.2510  0.2821
  367TMC3     H 5496   4.044   2.254  15.641  0.1118  0.4033 -0.0697
  367TMC3    H1 5497   3.770   2.139  15.345 -1.9489  1.0094  0.0338
  367TMC3    H2 5498   3.890   2.550  15.372  1.7801  0.8205  0.3643
  367TMC3    C7 5499   3.740   2.386  15.240 -0.0670 -0.3277  0.1088
  367TMC3    C8 5500   4.092   2.500  15.548 -0.0325  0.4778 -0.2969
  367TMC3    O1 5501   3.745   2.503  15.202  0.3513  0.8881  0.0405
  367TMC3    O2 5502   4.164   2.457  15.637  0.0998 -0.2382 -0.5302
  368MPD2     C 5503   0.241   4.305  13.279  0.0103  0.6044  0.6315
  368MPD2    C1 5504   0.256   4.406  13.188  0.2824  0.8184 -0.2805
  368MPD2    C2 5505   0.383   4.459  13.160  0.4740  0.5384 -0.0948
  368MPD2    C3 5506   0.492   4.406  13.228  0.1131  0.1679  1.0366
  368MPD2    C4 5507   0.472   4.303  13.322 -1.1913  0.5958 -0.0826
  368MPD2    C5 5508   0.346   4.252  13.347 -0.3727  0.1432 -0.5286
  368MPD2     H 5509   0.400   4.535  13.084 -2.4020 -0.5850 -1.8769
  368MPD2    H1 5510   0.558   4.260  13.372 -2.8932 -2.8748 -0.1206
  368MPD2    H2 5511   0.140   4.273  13.299 -0.1423  1.1831  0.7786
  368MPD2    H3 5512   0.319   4.187  13.430 -1.5582  0.9164 -0.3116
  368MPD2     N 5513   0.624   4.447  13.203 -0.0698 -0.4486  0.0930
  368MPD2    H5 5514   0.701   4.407  13.256 -0.9838 -2.0441  0.1990
  368MPD2    N1 5515   0.144   4.450  13.114  0.0186 -0.1198 -1.1290
  368MPD2    H7 5516   0.054   4.409  13.135  0.0608  0.4064  0.0747
  369TMC3    C1 5517   0.020   4.542  12.926  0.7903 -0.1683 -0.5846
  369TMC3    C2 5518   0.036   4.537  12.797  0.4668  0.8046  0.6918
  369TMC3    C3 5519   4.644   4.554  12.735  0.1730 -0.3254 -0.5741
  369TMC3    C4 5520   4.625   4.549  13.001 -0.6257 -0.0561 -0.6198
  369TMC3    C5 5521   4.511   4.551  12.926 -0.5383 -0.6936  0.2309
  369TMC3    C6 5522   4.522   4.564  12.788  0.9192  0.1857  0.1055
  369TMC3     C 5523   0.145   4.533  13.007  0.2223 -0.3691  0.3014
  369TMC3     O 5524   0.243   4.587  12.947  0.4970  0.1835  0.4714
  369TMC3     H 5525   0.133   4.538  12.749  1.3794 -2.3032  2.4627
  369TMC3    H1 5526   4.632   4.543  13.109  0.7491 -0.0854 -0.7076
  369TMC3    H2 5527   4.437   4.592  12.726  1.1091  0.4958 -0.0145
  369TMC3    C7 5528   4.393   4.488  12.975 -0.5255  0.5642 -0.3501
  369TMC3    C8 5529   4.642   4.556  12.589 -0.8016 -0.2601  0.8075
  369TMC3    O1 5530   4.405   4.458  13.095  0.1229 -0.0646 -0.3498
  369TMC3    O2 5531   4.532   4.540  12.533  0.4404 -0.8705 -0.5104
  370TMC3    C1 5532   4.678   4.674  16.442 -0.4155  0.2120 -0.2702
  370TMC3    C2 5533   4.611   4.579  16.512  0.5958  0.1258  0.4835
  370TMC3    C3 5534   4.566   4.469  16.446 -0.1952  0.1070  0.0291
  370TMC3    C4 5535   4.694   4.658  16.308 -0.3164 -0.6812 -0.0722
  370TMC3    C5 5536   4.646   4.545  16.244 -1.0540 -0.2181  0.1108
  370TMC3    C6 5537   4.597   4.442  16.312  0.7480 -0.2654 -0.9540
  370TMC3     C 5538   0.048   0.035  16.521  0.4721  0.6620 -1.1058
  370TMC3     O 5539   0.071   4.709  16.632 -0.2906  0.0075 -0.0065
  370TMC3     H 5540   4.595   4.604  16.617 -1.0055  0.4598  0.1569
  370TMC3    H1 5541   0.005   0.013  16.242 -0.9133 -1.1025 -0.8780
  370TMC3    H2 5542   4.559   4.351  16.267 -1.5235  0.0102  0.3648
  370TMC3    C7 5543   4.688   4.519  16.106  0.6010 -0.1321  0.7800
  370TMC3    C8 5544   4.485   4.368  16.513  0.4036  0.7545  0.3961
  370TMC3    O1 5545   4.694   4.609  16.028  0.1769 -0.3824 -0.3281
  370TMC3    O2 5546   4.450   4.264  16.458  0.4539 -0.7715 -0.2709
  371TMC3    C1 5547   1.414   2.901  15.756  0.1090  0.0412 -0.4561
  371TMC3    C2 5548   1.289   2.914  15.810  0.3781  0.3844  0.1545
  371TMC3    C3 5549   1.232   3.039  15.812 -0.0164  0.0563 -0.7451
  371TMC3    C4 5550   1.481   3.010  15.712 -0.7724 -0.2538 -0.3554
  371TMC3    C5 5551   1.411   3.128  15.697  0.1166 -0.1263 -0.7375
  371TMC3    C6 5552   1.290   3.147  15.752  0.3670 -0.3015 -0.1417
  371TMC3     C 5553   1.464   2.777  15.703  0.2767 -0.1266 -0.7410
  371TMC3     O 5554   1.540   2.788  15.608  0.0561 -0.2539  0.5777
  371TMC3     H 5555   1.245   2.827  15.857  2.2754 -2.0596 -2.5641
  371TMC3    H1 5556   1.581   3.003  15.671 -1.8580 -0.7285 -2.9042
  371TMC3    H2 5557   1.221   3.223  15.717  0.8812  0.0917 -0.2931
  371TMC3    C7 5558   1.422   3.190  15.567  0.5138  0.1813  0.1579
  371TMC3    C8 5559   1.090   3.029  15.816 -0.3249  0.1081 -0.5944
  371TMC3    O1 5560   1.397   3.308  15.549 -0.6444  0.0208 -0.2553
  371TMC3    O2 5561   1.046   2.920  15.784  0.1825 -0.1047 -0.3495
  372MPD2     C 5562   1.059   4.225  14.126 -0.3277 -0.6001  0.3984
  372MPD2    C1 5563   1.136   4.138  14.197  0.6124 -0.1557  0.2472
  372MPD2    C2 5564   1.141   4.012  14.148  0.1125 -0.2613 -0.7227
  372MPD2    C3 5565   1.081   3.969  14.028 -0.3754 -0.2659  0.4913
  372MPD2    C4 5566   1.000   4.059  13.961 -0.3642 -0.9655 -0.0860
  372MPD2    C5 5567   0.997   4.188  14.010  0.9564 -0.8303 -0.2891
  372MPD2     H 5568   1.198   3.939  14.203  1.0267 -0.4685 -1.9501
  372MPD2    H1 5569   0.942   4.042  13.870 -2.1621  0.3898  0.8172
  372MPD2    H2 5570   1.041   4.327  14.156 -1.1496 -0.3193 -1.0273
  372MPD2    H3 5571   0.949   4.270  13.958 -1.5753 -0.8242  2.0142
  372MPD2     N 5572   1.098   3.838  13.976  0.2823  0.2404 -0.1610
  372MPD2    H5 5573   1.184   3.790  14.001 -0.3084 -1.4506 -1.4154
  372MPD2    N1 5574   1.190   4.160  14.328 -0.3341  0.4953 -0.1028
  372MPD2    H7 5575   1.227   4.073  14.366  1.2180  0.4923 -1.6251
  373TMC3    C1 5576   1.047   3.634  13.859 -0.2129 -0.3397  0.2810
  373TMC3    C2 5577   0.954   3.535  13.850 -0.4918  0.0468 -0.6330
  373TMC3    C3 5578   0.991   3.413  13.789 -0.0038  0.1278  0.1704
  373TMC3    C4 5579   1.177   3.608  13.833  0.0037  0.0919  0.5546
  373TMC3    C5 5580   1.207   3.492  13.771 -0.1784 -0.2108  0.1297
  373TMC3    C6 5581   1.116   3.397  13.741  0.3617 -0.0432 -0.2280
  373TMC3     C 5582   1.005   3.766  13.914 -0.6369  0.3646  0.3002
  373TMC3     O 5583   0.889   3.800  13.905 -0.1287  0.0334 -0.6500
  373TMC3     H 5584   0.852   3.556  13.882 -0.3602  1.9895 -1.5205
  373TMC3    H1 5585   1.260   3.677  13.838  1.1983 -1.1748 -1.8670
  373TMC3    H2 5586   1.140   3.299  13.701 -1.4503 -1.0012  1.0367
  373TMC3    C7 5587   1.343   3.459  13.761  0.7209  0.0068 -0.9071
  373TMC3    C8 5588   0.880   3.325  13.751 -1.0326  0.1882 -0.2438
  373TMC3    O1 5589   1.365   3.374  13.672 -0.1942 -0.0480  0.0968
  373TMC3    O2 5590   0.886   3.277  13.640  0.5271 -0.1929  0.3589
  374TMC3    C1 5591   1.456   3.596  10.046 -0.2634 -0.2644 -0.6900
  374TMC3    C2 5592   1.525   3.701  10.105 -0.1665 -1.1717 -0.4126
  374TMC3    C3 5593   1.584   3.787  10.013  0.4491 -0.2937  0.8323
  374TMC3    C4 5594   1.436   3.584   9.911 -0.1359  0.1637 -0.6698
  374TMC3    C5 5595   1.502   3.673   9.824  0.8040  0.1062  0.1068
  374TMC3    C6 5596   1.579   3.779   9.877  0.0801 -0.4282  0.5309
  374TMC3     C 5597   1.373   3.523  10.141 -0.2213  0.1334 -0.4656
  374TMC3     O 5598   1.390   3.549  10.259 -0.0940 -0.0654  0.6225
  374TMC3     H 5599   1.518   3.731  10.209  1.0741  0.5212 -0.8038
  374TMC3    H1 5600   1.382   3.497   9.875 -3.6224  2.0316  0.1847
  374TMC3    H2 5601   1.620   3.857   9.813 -0.4182 -1.3174 -0.8825
  374TMC3    C7 5602   1.451   3.687   9.689  0.1467 -0.9058  0.1232
  374TMC3    C8 5603   1.613   3.918  10.065  0.2948  0.1272 -0.0940
  374TMC3    O1 5604   1.345   3.631   9.671 -0.0388  0.0018 -0.1276
  374TMC3    O2 5605   1.557   4.013  10.011 -0.0642  0.4895 -0.0436
  375MPD2     C 5606   1.503   0.347  17.334 -0.4782  0.1318 -0.3847
  375MPD2    C1 5607   1.428   0.303  17.231  0.2757 -1.0465  0.5064
  375MPD2    C2 5608   1.479   0.205  17.143  0.4160  0.4154 -0.6205
  375MPD2    C3 5609   1.607   0.145  17.164 -0.2301 -0.8102 -0.1935
  375MPD2    C4 5610   1.676   0.190  17.272 -0.4397 -0.6148  0.9238
  375MPD2    C5 5611   1.628   0.283  17.360 -0.3578 -0.2002  0.2239
  375MPD2     H 5612   1.418   0.176  17.059  0.0195 -0.3124 -0.0800
  375MPD2    H1 5613   1.773   0.144  17.287  0.5942  0.7701 -1.5315
  375MPD2    H2 5614   1.453   0.407  17.409 -0.8798 -2.3278  1.3114
  375MPD2    H3 5615   1.687   0.305  17.447  0.0395 -1.2800  0.2270
  375MPD2     N 5616   1.669   0.052  17.082  0.1531 -0.1041  0.4530
  375MPD2    H5 5617   1.768   0.035  17.099  1.2729  2.5675 -3.2630
  375MPD2    N1 5618   1.292   0.349  17.221  0.0551 -0.4805  0.6163
  375MPD2    H7 5619   1.226   0.295  17.167 -0.1852 -1.6241  2.0425
  376TMC3    C1 5620   1.709   4.651  16.883  0.8798  0.7824  0.3876
  376TMC3    C2 5621   1.835   4.702  16.890  0.9923 -0.1674 -0.4083
  376TMC3    C3 5622   1.918   4.672  16.791 -0.5952  0.4164  0.1950
  376TMC3    C4 5623   1.670   4.581  16.769  1.0479  0.9491  0.3221
  376TMC3    C5 5624   1.755   4.559  16.657 -0.8816  0.1080 -0.5107
  376TMC3    C6 5625   1.885   4.598  16.677  0.1860 -0.8730  0.2555
  376TMC3     C 5626   1.609   4.709  16.979 -0.7579  0.3516  0.0472
  376TMC3     O 5627   1.493   4.695  16.960 -0.3730  0.3391  0.2771
  376TMC3     H 5628   1.855   0.054  16.966 -0.7936 -1.7179  1.6130
  376TMC3    H1 5629   1.568   4.546  16.755  1.4821 -0.6806  1.2228
  376TMC3    H2 5630   1.961   4.569  16.605  1.2944  2.2139  0.1762
  376TMC3    C7 5631   1.697   4.598  16.532  0.1626 -0.3824  0.3057
  376TMC3    C8 5632   2.042   0.026  16.773 -0.4817 -0.3668  0.1113
  376TMC3    O1 5633   1.763   4.668  16.454  0.1064  0.5725 -0.8444
  376TMC3    O2 5634   2.105   0.007  16.671  0.1082 -0.3329 -0.4589
  377MPD2     C 5635   3.794   4.122  12.256 -0.8055  0.3860 -0.5532
  377MPD2    C1 5636   3.857   4.136  12.371 -0.1037  0.2204  0.1996
  377MPD2    C2 5637   3.787   4.156  12.488  0.1481 -0.0191 -0.2462
  377MPD2    C3 5638   3.650   4.151  12.487  0.2899  0.5060  0.0674
  377MPD2    C4 5639   3.589   4.144  12.368 -0.1845  0.4590 -0.1941
  377MPD2    C5 5640   3.655   4.128  12.251  0.4209  0.4800 -0.2452
  377MPD2     H 5641   3.845   4.159  12.580  1.8726 -0.0917 -1.3220
  377MPD2    H1 5642   3.480   4.144  12.363 -0.3130 -0.0463  3.0116
  377MPD2    H2 5643   3.845   4.107  12.162  2.4270 -0.9648  1.4326
  377MPD2    H3 5644   3.605   4.132  12.155 -0.3334 -0.0240  0.1289
  377MPD2     N 5645   3.581   4.173  12.610  0.1274  0.4436  0.1234
  377MPD2    H5 5646   3.484   4.204  12.605 -0.3055 -1.0192 -0.5818
  377MPD2    N1 5647   4.001   4.140  12.363 -0.3630  0.6334 -0.5642
  377MPD2    H7 5648   4.041   4.158  12.271 -0.6975 -0.4048 -0.9055
  378TMC3    C1 5649   4.398   4.245  12.295  0.7287 -0.3486 -0.0791
  378TMC3    C2 5650   4.269   4.197  12.309 -0.8010 -0.1952  0.2188
  378TMC3    C3 5651   4.223   4.178  12.440 -0.7103 -0.0406  0.0405
  378TMC3    C4 5652   4.488   4.251  12.398 -0.1350 -0.3810  0.0489
  378TMC3    C5 5653   4.439   4.215  12.526  0.1033 -0.0432  0.7374
  378TMC3    C6 5654   4.309   4.177  12.546  0.1366  0.6555  0.0750
  378TMC3     C 5655   4.442   4.277  12.159 -0.5669  0.1960  0.0725
  378TMC3     O 5656   4.358   4.309  12.078 -0.2985 -0.1195  0.0579
  378TMC3     H 5657   4.203   4.206  12.223 -0.9659 -2.0913  0.1503
  378TMC3    H1 5658   4.581   4.305  12.381  0.8617 -1.0307  3.4762
  378TMC3    H2 5659   4.264   4.157  12.643 -1.0435  2.1485 -0.1604
  378TMC3    C7 5660   4.519   4.206  12.651 -0.1203 -0.1300 -0.5960
  378TMC3    C8 5661   4.084   4.138  12.465  0.2993 -0.4682 -0.0316
  378TMC3    O1 5662   4.472   4.195  12.761 -1.2854  0.0956 -0.0895
  378TMC3    O2 5663   4.059   4.093  12.578 -0.0878 -0.8127  0.3100
  379MPD2     C 5664   0.103   2.519  16.218 -0.3070 -0.3938 -0.0574
  379MPD2    C1 5665   0.211   2.479  16.141 -0.7233  0.8960 -0.3730
  379MPD2    C2 5666   0.324   2.432  16.204 -0.0770  0.3646  0.6385
  379MPD2    C3 5667   0.324   2.410  16.341  0.2334  0.3905 -0.3574
  379MPD2    C4 5668   0.213   2.443  16.413  0.3320  0.3386  0.1903
  379MPD2    C5 5669   0.103   2.496  16.356  0.4867 -0.7246 -0.0079
  379MPD2     H 5670   0.414   2.405  16.150 -0.2961  1.8793 -0.4568
  379MPD2    H1 5671   0.206   2.435  16.521  1.0756 -0.2565  0.1922
  379MPD2    H2 5672   0.010   2.544  16.167  0.8102  0.5325 -1.6070
  379MPD2    H3 5673   0.014   2.523  16.410 -0.2850 -1.6574 -0.8160
  379MPD2     N 5674   0.437   2.374  16.413 -0.1248 -0.5196 -0.4033
  379MPD2    H5 5675   0.418   2.370  16.513 -1.4864 -0.3304 -0.6461
  379MPD2    N1 5676   0.192   2.481  16.003  0.2373 -0.1284 -0.6835
  379MPD2    H7 5677   0.101   2.514  15.971 -0.1129  1.6778  2.1783
  380TMC3    C1 5678   0.218   2.441  15.767  0.1438 -0.1996  0.8293
  380TMC3    C2 5679   0.288   2.373  15.670 -0.1658  0.1580  0.4044
  380TMC3    C3 5680   0.234   2.364  15.541  0.1966  0.3499 -0.0973
  380TMC3    C4 5681   0.098   2.494  15.741  0.2237  0.6467 -0.3204
  380TMC3    C5 5682   0.047   2.483  15.616 -0.2235  0.4815 -0.1213
  380TMC3    C6 5683   0.113   2.426  15.513 -0.0919  0.5061 -0.4241
  380TMC3     C 5684   0.275   2.433  15.902  0.3065 -0.7219  0.3438
  380TMC3     O 5685   0.385   2.381  15.914 -0.4532  0.0087 -0.0482
  380TMC3     H 5686   0.389   2.341  15.695  0.0009  0.2231 -0.1770
  380TMC3    H1 5687   0.041   2.546  15.816  0.0903 -0.1244  0.1104
  380TMC3    H2 5688   0.070   2.412  15.415  0.4199 -0.0583 -0.5659
  380TMC3    C7 5689   4.631   2.517  15.595  0.1790 -0.2020  0.6621
  380TMC3    C8 5690   0.315   2.325  15.426  0.6022 -0.3011 -0.1245
  380TMC3    O1 5691   4.546   2.504  15.686 -0.0122 -0.2992  0.8161
  380TMC3    O2 5692   0.353   2.208  15.407 -0.1469 -0.7577  0.2299
  381TMC3    C1 5693   4.357   3.903  16.306  0.1441  0.1041 -0.1936
  381TMC3    C2 5694   4.483   3.961  16.285  0.1286  0.0145 -0.3439
  381TMC3    C3 5695   4.573   3.955  16.382  0.3215 -0.7469 -0.1612
  381TMC3    C4 5696   4.319   3.851  16.425  0.2555  0.0651  0.4084
  381TMC3    C5 5697   4.404   3.851  16.522 -0.5881  0.4745 -0.4837
  381TMC3    C6 5698   4.534   3.904  16.507  0.6845  0.3958 -0.0735
  381TMC3     C 5699   4.260   3.902  16.199  0.6312 -0.2776  0.5639
  381TMC3     O 5700   4.303   3.892  16.081 -0.2063 -0.0731  0.2632
  381TMC3     H 5701   4.499   4.010  16.190  0.2512 -0.7628 -0.7286
  381TMC3    H1 5702   4.221   3.805  16.438 -0.2411  0.2973 -2.5199
  381TMC3    H2 5703   4.608   3.881  16.583  1.2807  2.7032  0.0262
  381TMC3    C7 5704   4.384   3.797  16.651  0.5129  1.1151 -0.1369
  381TMC3    C8 5705   4.690   4.045  16.366  0.2602 -0.0377  1.0718
  381TMC3    O1 5706   4.477   3.747  16.710  0.1507 -0.1340 -0.0864
  381TMC3    O2 5707   0.004   4.048  16.246  0.1599  0.0755  0.2375
  382MPD2     C 5708   4.100   0.975   0.406 -0.1848 -0.0910 -0.1173
  382MPD2    C1 5709   4.004   1.057   0.353  0.2487  0.4204  0.3118
  382MPD2    C2 5710   3.897   1.000   0.286  0.0107 -0.1751  0.1173
  382MPD2    C3 5711   3.885   0.860   0.280 -0.2171 -0.2151  0.2629
  382MPD2    C4 5712   3.989   0.785   0.334  0.0368 -0.3975  0.0490
  382MPD2    C5 5713   4.093   0.842   0.406 -0.0591  0.5310 -0.1233
  382MPD2     H 5714   3.822   1.062   0.239  1.6410  0.4441 -1.6410
  382MPD2    H1 5715   3.987   0.677   0.324  2.4040 -0.5425  1.0287
  382MPD2    H2 5716   4.189   1.020   0.449 -1.3050  1.4431  0.5808
  382MPD2    H3 5717   4.174   0.784   0.448 -0.6733  1.0292  1.7443
  382MPD2     N 5718   3.781   0.793   0.215  0.0587  0.4169  0.2995
  382MPD2    H5 5719   3.771   0.692   0.219 -0.4337  0.5112  1.5061
  382MPD2    N1 5720   4.007   1.201   0.353 -0.6926  0.1666 -0.2035
  382MPD2    H7 5721   3.942   1.245   0.289 -1.3233 -0.4476  0.0150
  383TMC3    C1 5722   3.567   0.756   0.119  0.2951 -0.2559  0.3354
  383TMC3    C2 5723   3.553   0.713  17.687  0.4978 -0.0245  0.3243
  383TMC3    C3 5724   3.533   0.579  17.679  0.0204  0.4189 -0.2567
  383TMC3    C4 5725   3.552   0.688   0.232 -0.5837  0.1810 -0.4607
  383TMC3    C5 5726   3.521   0.557   0.215 -0.5453 -0.6378  0.7063
  383TMC3    C6 5727   3.530   0.495   0.097  0.6904  0.7770 -0.0216
  383TMC3     C 5728   3.680   0.848   0.136  0.5464 -0.0465 -0.2498
  383TMC3     O 5729   3.679   0.946   0.059 -0.3998 -0.1304 -0.2033
  383TMC3     H 5730   3.555   0.781  17.603  1.2381  0.4403  0.7285
  383TMC3    H1 5731   3.580   0.731   0.328  2.4279  0.0289 -1.2491
  383TMC3    H2 5732   3.508   0.389   0.094  1.9970  0.5071 -0.2626
  383TMC3    C7 5733   3.459   0.483   0.324  0.1971  1.0587 -0.8949
  383TMC3    C8 5734   3.472   0.509  17.570 -0.1683  1.0397  0.0819
  383TMC3    O1 5735   3.430   0.370   0.305  0.4358 -0.5149 -0.0902
  383TMC3    O2 5736   3.502   0.391  17.553  0.1354 -0.2382 -0.0455
  384MPD2     C 5737   0.797   2.542  11.870 -0.4527 -0.8079 -0.1834
  384MPD2    C1 5738   0.691   2.468  11.916 -0.6206  0.2798  0.9707
  384MPD2    C2 5739   0.647   2.362  11.840  0.4792 -0.0413  0.0551
  384MPD2    C3 5740   0.720   2.319  11.725 -0.2749 -0.6425  0.3801
  384MPD2    C4 5741   0.834   2.390  11.687 -0.5195 -0.2156  0.0438
  384MPD2    C5 5742   0.865   2.509  11.754  0.1350  0.3330  0.2162
  384MPD2     H 5743   0.569   2.297  11.879  0.0428 -0.6855 -1.8924
  384MPD2    H1 5744   0.884   2.357  11.596 -1.0795 -0.7818 -0.0574
  384MPD2    H2 5745   0.816   2.638  11.916  0.2987 -0.8243 -0.4521
  384MPD2    H3 5746   0.942   2.578  11.722  0.2328  0.0906 -0.0736
  384MPD2     N 5747   0.685   2.205  11.651 -0.3506  0.2886  0.0578
  384MPD2    H5 5748   0.756   2.158  11.596  0.9088  1.1599  0.9182
  384MPD2    N1 5749   0.630   2.506  12.035  0.2923 -0.1486  0.4035
  384MPD2    H7 5750   0.685   2.566  12.095  1.5089  0.5653 -1.4281
  385TMC3    C1 5751   0.623   1.981  11.646  0.3201 -0.2977 -0.4401
  385TMC3    C2 5752   0.520   1.895  11.658 -0.2342  0.6137 -0.2953
  385TMC3    C3 5753   0.554   1.760  11.664  0.2316 -0.1290  0.2302
  385TMC3    C4 5754   0.756   1.941  11.666  0.0734  0.4172 -0.0960
  385TMC3    C5 5755   0.778   1.812  11.706 -0.1007 -0.1308  0.2090
  385TMC3    C6 5756   0.681   1.723  11.692 -0.0712  0.1445 -0.1256
  385TMC3     C 5757   0.592   2.115  11.693  0.6595 -0.4267  0.1061
  385TMC3     O 5758   0.483   2.147  11.739 -0.4744  0.4619  0.1747
  385TMC3     H 5759   0.418   1.929  11.672 -0.5932 -0.5608 -0.0295
  385TMC3    H1 5760   0.838   2.012  11.674  1.3053 -1.0259  0.3128
  385TMC3    H2 5761   0.701   1.618  11.705 -0.4724  0.0354 -0.3821
  385TMC3    C7 5762   0.824   1.826  11.845 -0.0476  0.7774 -0.1088
  385TMC3    C8 5763   0.462   1.662  11.716  0.3022  0.0994  0.5167
  385TMC3    O1 5764   0.833   1.949  11.872 -1.0144 -0.1946 -0.0822
  385TMC3    O2 5765   0.407   1.695  11.818 -0.3005  0.5163  0.4468
  386TMC3    C1 5766   0.571   4.365  11.712 -0.0147 -0.3288 -0.0769
  386TMC3    C2 5767   0.653   4.377  11.597  0.6663  0.0030  0.0184
  386TMC3    C3 5768   0.596   4.394  11.475 -0.7382 -0.4877  0.0326
  386TMC3    C4 5769   0.439   4.394  11.692 -0.3882  0.5984 -0.0022
  386TMC3    C5 5770   0.388   4.425  11.564 -0.7319  0.7204  0.2296
  386TMC3    C6 5771   0.463   4.423  11.451 -0.0635  0.0079  0.1205
  386TMC3     C 5772   0.623   4.392  11.849 -0.3312  0.3679 -0.8437
  386TMC3     O 5773   0.541   4.445  11.927 -0.6947 -0.1781 -0.1303
  386TMC3     H 5774   0.760   4.375  11.611  0.8672 -1.0116 -1.6354
  386TMC3    H1 5775   0.379   4.420  11.778  0.3814  2.3631 -0.0044
  386TMC3    H2 5776   0.434   4.461  11.354  0.6221  0.1664 -0.0244
  386TMC3    C7 5777   0.267   4.501  11.558 -0.2755  0.0182 -0.6518
  386TMC3    C8 5778   0.662   4.347  11.362 -0.3379  0.9538 -0.4918
  386TMC3    O1 5779   0.229   4.546  11.665  0.1939 -0.1608 -0.6956
  386TMC3    O2 5780   0.584   4.339  11.267 -0.5330  0.2433 -0.2078
  387MPD2     C 5781   3.169   4.132   9.474 -0.2856 -0.3197 -0.4735
  387MPD2    C1 5782   3.290   4.136   9.542  0.3421  0.1537  0.1272
  387MPD2    C2 5783   3.361   4.021   9.558 -0.5235 -0.5121 -0.2544
  387MPD2    C3 5784   3.322   3.907   9.498  0.4486  0.1590  0.2455
  387MPD2    C4 5785   3.205   3.899   9.421 -0.3053 -0.2675 -0.0841
  387MPD2    C5 5786   3.128   4.015   9.415  0.2495  0.2358  0.1040
  387MPD2     H 5787   3.447   4.016   9.623 -0.6527 -0.3518 -0.0699
  387MPD2    H1 5788   3.175   3.804   9.379 -1.0255 -0.6468  1.2857
  387MPD2    H2 5789   3.099   4.215   9.477  1.0086  0.7833 -0.7108
  387MPD2    H3 5790   3.031   4.012   9.366  1.4770 -2.3135 -2.2369
  387MPD2     N 5791   3.395   3.792   9.533  0.1388  0.6839  0.4159
  387MPD2    H5 5792   3.474   3.807   9.594  1.1898  2.2251 -1.3352
  387MPD2    N1 5793   3.337   4.245   9.620  0.3840  0.5621  0.2494
  387MPD2    H7 5794   3.431   4.239   9.658  0.4841 -2.4346 -0.4444
  388TMC3    C1 5795   3.344   4.419   9.765 -0.0607 -0.1617 -0.2406
  388TMC3    C2 5796   3.334   4.549   9.789 -0.2559 -0.4877 -0.1190
  388TMC3    C3 5797   3.381   4.594   9.917  0.4999 -0.7866  0.6782
  388TMC3    C4 5798   3.403   4.331   9.854 -0.6847 -0.1820  0.2350
  388TMC3    C5 5799   3.459   4.381   9.966 -0.5397  0.0121  0.5363
  388TMC3    C6 5800   3.449   4.511  10.005 -0.3227  0.4703  0.0104
  388TMC3     C 5801   3.282   4.370   9.638 -0.8816 -0.0019 -0.6152
  388TMC3     O 5802   3.182   4.425   9.589 -0.5672 -0.0673 -0.0042
  388TMC3     H 5803   3.271   4.607   9.723 -2.6790 -0.8766  1.8609
  388TMC3    H1 5804   3.371   4.228   9.853  0.0246 -0.3986 -0.4454
  388TMC3    H2 5805   3.471   4.544  10.106 -0.9255 -2.5740  1.1453
  388TMC3    C7 5806   3.519   4.284  10.057  0.4452  0.5912 -0.0560
  388TMC3    C8 5807   3.366   0.010   9.957  0.0906 -0.2716 -0.8143
  388TMC3    O1 5808   3.530   4.317  10.176  0.2274  0.3153 -0.2667
  388TMC3    O2 5809   3.354   0.026  10.077  0.2925 -0.4797  0.1455
  389MPD2     C 5810   2.605   2.598  11.754  0.4630  0.3539  0.5027
  389MPD2    C1 5811   2.601   2.518  11.636  0.6681  0.0513  0.9456
  389MPD2    C2 5812   2.488   2.442  11.627  0.2954 -0.3572  0.6001
  389MPD2    C3 5813   2.402   2.419  11.736  0.8146 -0.3493 -0.6900
  389MPD2    C4 5814   2.417   2.490  11.844  0.7102  0.1535 -0.8142
  389MPD2    C5 5815   2.521   2.573  11.860 -0.2860 -0.3763 -0.0469
  389MPD2     H 5816   2.479   2.380  11.538 -1.4473  0.6959  0.0479
  389MPD2    H1 5817   2.348   2.480  11.927  1.1246 -0.3402 -0.5263
  389MPD2    H2 5818   2.691   2.661  11.770 -0.2606  1.8824 -1.6818
  389MPD2    H3 5819   2.539   2.620  11.956 -1.0894  1.8370 -0.9869
  389MPD2     N 5820   2.278   2.345  11.729 -0.0534 -0.3666 -0.0529
  389MPD2    H5 5821   2.233   2.333  11.819  1.2859  0.2856  0.7082
  389MPD2    N1 5822   2.700   2.542  11.543 -0.5840 -0.1297  0.2250
  389MPD2    H7 5823   2.761   2.623  11.552  0.5909 -1.0033  0.2088
  390TMC3    C1 5824   2.105   2.231  11.637  0.1171 -0.2405 -0.3469
  390TMC3    C2 5825   2.100   2.147  11.752 -0.3503 -0.6141  0.3931
  390TMC3    C3 5826   2.008   2.043  11.760  0.6871 -0.4205  0.3891
  390TMC3    C4 5827   2.028   2.195  11.529  0.5415  1.0123  0.4653
  390TMC3    C5 5828   1.947   2.089  11.538  0.3155 -0.2092 -0.0887
  390TMC3    C6 5829   1.931   2.015  11.654 -0.0282  0.0905  0.2736
  390TMC3     C 5830   2.224   2.303  11.612  0.0950  0.0502 -0.0746
  390TMC3     O 5831   2.254   2.327  11.495  0.3569  0.4306 -0.1844
  390TMC3     H 5832   2.170   2.160  11.834 -0.6436  0.1835  0.5160
  390TMC3    H1 5833   2.036   2.256  11.440 -1.2738 -1.6815 -1.5494
  390TMC3    H2 5834   1.862   1.931  11.659  0.6067 -0.4139  0.6139
  390TMC3    C7 5835   1.827   2.080  11.452  0.1481  0.1751 -0.2522
  390TMC3    C8 5836   1.941   1.991  11.882 -0.3798 -0.0139 -0.6349
  390TMC3    O1 5837   1.833   2.017  11.344  0.5457 -0.0621  0.3302
  390TMC3    O2 5838   1.923   1.869  11.881  0.3565 -0.5418 -0.5251
  391MPD2     C 5839   2.217   3.840  11.574 -0.2967  0.2286  0.1095
  391MPD2    C1 5840   2.311   3.913  11.508  0.1380  0.1994 -0.4153
  391MPD2    C2 5841   2.301   3.924  11.367 -0.4389  0.2099  0.3786
  391MPD2    C3 5842   2.192   3.875  11.300 -0.3024 -0.5369  0.2177
  391MPD2    C4 5843   2.097   3.805  11.363  0.0425  0.1172  0.0267
  391MPD2    C5 5844   2.117   3.784  11.496  0.1715  0.4998  0.1488
  391MPD2     H 5845   2.379   3.981  11.317  0.1011 -0.7081  0.1776
  391MPD2    H1 5846   2.008   3.769  11.312  0.4499 -0.9754  0.0952
  391MPD2    H2 5847   2.215   3.827  11.682 -0.8990 -1.0811 -0.0705
  391MPD2    H3 5848   2.045   3.732  11.558 -0.0779  2.1538  1.2210
  391MPD2     N 5849   2.189   3.904  11.156 -0.1880 -0.2115 -0.3403
  391MPD2    H5 5850   2.271   3.950  11.118  2.0932 -1.6525  2.7934
  391MPD2    N1 5851   2.412   3.986  11.582 -1.0518 -0.3936 -0.0097
  391MPD2    H7 5852   2.389   3.981  11.681  1.4017  0.9733  0.6300
  392TMC3    C1 5853   2.121   3.917  10.937  0.0232 -0.2308  0.1661
  392TMC3    C2 5854   2.018   3.900  10.848 -0.1768 -0.0347  0.6053
  392TMC3    C3 5855   2.030   3.966  10.734  0.6231  0.0672  0.3934
  392TMC3    C4 5856   2.243   3.973  10.904 -0.2455  0.1035  0.4778
  392TMC3    C5 5857   2.254   4.032  10.784  0.1455  0.8192 -0.1770
  392TMC3    C6 5858   2.143   4.041  10.705 -0.1403  0.5951 -0.6151
  392TMC3     C 5859   2.087   3.875  11.071 -0.1095  0.2848 -0.3794
  392TMC3     O 5860   1.974   3.839  11.101 -0.6282  0.3972  0.0292
  392TMC3     H 5861   1.931   3.840  10.873 -0.1736 -1.2305 -2.2563
  392TMC3    H1 5862   2.333   3.975  10.965 -1.5490  1.5481  2.3265
  392TMC3    H2 5863   2.144   4.112  10.623 -2.6362 -0.1053 -1.2379
  392TMC3    C7 5864   2.362   4.133  10.775  0.2899 -0.4835 -0.2024
  392TMC3    C8 5865   1.930   3.953  10.626  0.3087 -0.8852 -0.8905
  392TMC3    O1 5866   2.406   4.184  10.876  0.0223 -0.9491 -0.7255
  392TMC3    O2 5867   1.874   3.847  10.611  0.1477  0.2334 -0.8334
  393TMC3    C1 5868   1.152   1.798  10.491 -0.4098 -0.5013 -0.2244
  393TMC3    C2 5869   1.039   1.728  10.520 -0.2026 -0.1023  0.4014
  393TMC3    C3 5870   1.044   1.595  10.492 -0.0830 -0.0233  0.6251
  393TMC3    C4 5871   1.274   1.752  10.446  0.0972  0.0716  0.5301
  393TMC3    C5 5872   1.268   1.620  10.409  1.1237  0.2489 -0.6451
  393TMC3    C6 5873   1.154   1.540  10.435 -0.3882  0.1930 -0.6493
  393TMC3     C 5874   1.136   1.940  10.491 -1.0788  0.2156  0.0778
  393TMC3     O 5875   1.031   1.993  10.453 -0.2182  0.4462  0.0874
  393TMC3     H 5876   0.947   1.779  10.545  0.2455  1.0472 -0.3276
  393TMC3    H1 5877   1.343   1.823  10.403 -0.1683 -1.0575 -1.7557
  393TMC3    H2 5878   1.146   1.436  10.405 -0.1542 -0.4902  1.6612
  393TMC3    C7 5879   1.387   1.558  10.368  0.5047  0.6291  0.1206
  393TMC3    C8 5880   0.923   1.520  10.471 -0.3310  0.2768 -0.7126
  393TMC3    O1 5881   1.382   1.436  10.336 -0.2191  0.2844 -0.2843
  393TMC3    O2 5882   0.905   1.452  10.370 -0.0622 -0.7148  0.2466
  394TMC3    C1 5883   2.820   2.517  11.344 -0.6088  0.1310  0.1468
  394TMC3    C2 5884   2.841   2.650  11.324 -0.1639 -0.4384  0.4847
  394TMC3    C3 5885   2.951   2.687  11.260 -0.7654  0.3203 -0.9499
  394TMC3    C4 5886   2.908   2.424  11.304 -0.4201  0.3622  0.6083
  394TMC3    C5 5887   3.027   2.471  11.248 -0.0309 -0.1253 -0.4517
  394TMC3    C6 5888   3.055   2.609  11.233 -0.4497 -0.1372 -0.1368
  394TMC3     C 5889   2.713   2.470  11.431  0.6657 -0.2546  0.0701
  394TMC3     O 5890   2.667   2.359  11.407  0.1477  0.1410  0.1564
  394TMC3     H 5891   2.762   2.722  11.338 -1.4190 -2.1601  2.3265
  394TMC3    H1 5892   2.894   2.317  11.318  2.1057  0.1621  1.7120
  394TMC3    H2 5893   3.136   2.641  11.168  0.0457  2.0260  1.5540
  394TMC3    C7 5894   3.085   2.395  11.138  0.1050  0.1322  0.1444
  394TMC3    C8 5895   2.912   2.777  11.149  0.0879 -0.0312  0.9367
  394TMC3    O1 5896   3.194   2.439  11.108 -0.0959  0.6007 -0.2786
  394TMC3    O2 5897   2.868   2.887  11.169  0.3239  0.6386 -0.1572
  395TMC3    C1 5898   2.445   0.157  14.769  0.3756  0.9938 -0.1726
  395TMC3    C2 5899   2.316   0.184  14.811  0.4979  0.9571 -0.4971
  395TMC3    C3 5900   2.301   0.256  14.921  0.2636 -0.3375  0.2577
  395TMC3    C4 5901   2.548   0.213  14.837  0.3054 -0.1989  1.0805
  395TMC3    C5 5902   2.527   0.291  14.946 -0.6596  0.3927 -0.0235
  395TMC3    C6 5903   2.401   0.313  14.994 -0.2488 -0.4014 -0.2916
  395TMC3     C 5904   2.448   0.014  14.786  0.4415 -0.5775 -0.2066
  395TMC3     O 5905   2.520   4.699  14.875  0.4791 -0.2102 -0.1709
  395TMC3     H 5906   2.233   0.148  14.751 -0.9796  0.2008  2.0213
  395TMC3    H1 5907   2.647   0.179  14.808 -0.2093 -0.3260 -0.4969
  395TMC3    H2 5908   2.377   0.363  15.087 -0.3288 -1.1303  0.0719
  395TMC3    C7 5909   2.631   0.361  15.025 -0.3970 -0.1057 -0.1249
  395TMC3    C8 5910   2.187   0.230  15.012 -0.3164  0.6214  0.4551
  395TMC3    O1 5911   2.603   0.402  15.140  0.0123  0.4137  0.0659
  395TMC3    O2 5912   2.165   0.307  15.101  0.3925 -0.1862  0.4240
  396MPD2     C 5913   1.631   1.446  16.981  0.2601 -0.8073  0.3289
  396MPD2    C1 5914   1.755   1.449  17.034 -0.3481  0.9226 -0.0325
  396MPD2    C2 5915   1.841   1.552  16.997  0.6009 -0.1117 -0.9364
  396MPD2    C3 5916   1.802   1.650  16.904  0.4222 -0.1253 -0.3956
  396MPD2    C4 5917   1.676   1.645  16.854  0.1950 -0.0011  0.1567
  396MPD2    C5 5918   1.599   1.539  16.888 -0.5884 -0.6492 -0.0441
  396MPD2     H 5919   1.939   1.566  17.041  0.5377 -1.1062 -0.4785
  396MPD2    H1 5920   1.644   1.712  16.775  0.5401 -1.0843 -0.8894
  396MPD2    H2 5921   1.567   1.359  16.990 -0.0282 -0.8156 -1.7708
  396MPD2    H3 5922   1.502   1.538  16.840 -0.6226 -0.1238  0.0123
  396MPD2     N 5923   1.902   1.753  16.868 -0.0603 -0.7350  0.6120
  396MPD2    H5 5924   1.995   1.748  16.906 -0.4735  1.9739  1.9159
  396MPD2    N1 5925   1.801   1.344  17.124  0.1675 -0.2178 -0.0646
  396MPD2    H7 5926   1.730   1.273  17.141  0.3584 -0.6651 -1.1780
  397TMC3    C1 5927   1.945   1.211  17.256  0.5576 -1.0101  0.0793
  397TMC3    C2 5928   2.070   1.168  17.279 -0.3109 -0.0094  0.0179
  397TMC3    C3 5929   2.088   1.046  17.349  0.3211  0.6347 -0.8999
  397TMC3    C4 5930   1.850   1.177  17.349  0.0585 -0.6844  0.2109
  397TMC3    C5 5931   1.875   1.082  17.442  0.2476 -0.6389 -0.3024
  397TMC3    C6 5932   1.994   1.012  17.438  0.1217 -0.0021 -0.1149
  397TMC3     C 5933   1.926   1.338  17.188 -0.4895  0.4094 -0.7488
  397TMC3     O 5934   2.019   1.416  17.191  0.1753 -0.2693  0.1799
  397TMC3     H 5935   2.131   1.179  17.190  2.0205  0.2423  1.6486
  397TMC3    H1 5936   1.754   1.227  17.356  0.8552  1.4238 -3.8748
  397TMC3    H2 5937   2.009   0.924  17.499 -2.5417 -0.1819  0.2847
  397TMC3    C7 5938   1.764   1.052  17.519 -0.5177  0.6433  0.4909
  397TMC3    C8 5939   2.170   0.942  17.280  0.1223  0.4809 -0.6079
  397TMC3    O1 5940   1.651   1.075  17.475  0.4389 -0.0403 -0.4109
  397TMC3    O2 5941   2.262   0.992  17.216  0.1398 -0.7102  0.4579
  398MPD2     C 5942   0.258   1.852   0.125 -0.5803 -0.8282 -0.4922
  398MPD2    C1 5943   0.276   1.767   0.229  0.1998  0.4584 -0.2230
  398MPD2    C2 5944   0.305   1.817   0.360  0.2794  0.0971  0.3426
  398MPD2    C3 5945   0.323   1.951   0.378 -0.4585 -0.0335  0.2179
  398MPD2    C4 5946   0.312   2.036   0.270 -0.1810  0.1754  0.8074
  398MPD2    C5 5947   0.279   1.986   0.144  0.6866  0.1671 -0.8411
  398MPD2     H 5948   0.317   1.751   0.445 -1.1404  1.5199  1.6518
  398MPD2    H1 5949   0.331   2.143   0.275 -1.2258  0.4317 -0.5743
  398MPD2    H2 5950   0.235   1.820   0.024 -2.4693 -0.4467 -0.1731
  398MPD2    H3 5951   0.262   2.049   0.058  1.5537 -0.2906 -1.3460
  398MPD2     N 5952   0.352   2.001   0.507  0.0209  0.5971  0.7308
  398MPD2    H5 5953   0.359   1.942   0.590 -3.5000  2.1428  2.1235
  398MPD2    N1 5954   0.267   1.625   0.220 -0.7899 -0.0127 -0.7084
  398MPD2    H7 5955   0.287   1.584   0.310 -0.8318 -1.0497 -1.1755
  399TMC3    C1 5956   0.241   1.406   0.136 -0.4619 -0.7340 -0.2863
  399TMC3    C2 5957   0.341   1.356   0.224 -0.0766  0.2654  0.2935
  399TMC3    C3 5958   0.341   1.222   0.254  0.3103  0.0736 -0.0488
  399TMC3    C4 5959   0.145   1.326   0.082 -0.3212 -0.4123 -0.1674
  399TMC3    C5 5960   0.147   1.194   0.119 -0.3391 -0.0579 -0.4118
  399TMC3    C6 5961   0.242   1.140   0.198 -0.1845 -0.3303  0.0660
  399TMC3     C 5962   0.239   1.549   0.107  0.1704  0.1020  0.3821
  399TMC3     O 5963   0.220   1.580  17.685 -0.5110 -0.3633 -0.0928
  399TMC3     H 5964   0.427   1.414   0.254  0.7576 -1.7950  1.9081
  399TMC3    H1 5965   0.064   1.379   0.033  0.4200  0.4215 -0.4926
  399TMC3    H2 5966   0.245   1.031   0.201  0.7089 -0.3750 -2.2347
  399TMC3    C7 5967   0.043   1.106   0.071 -0.1000 -0.1852 -0.2290
  399TMC3    C8 5968   0.438   1.176   0.351 -0.1427  0.1283 -0.0839
  399TMC3    O1 5969   0.027   1.000   0.132 -0.1438  0.4113  0.3894
  399TMC3    O2 5970   0.522   1.257   0.393  0.2502  0.4860  0.4409
  400TMC3    C1 5971   3.718   0.438  17.262 -0.6150 -0.4084 -0.7890
  400TMC3    C2 5972   3.648   0.500  17.155  0.0215  0.1295 -0.3406
  400TMC3    C3 5973   3.641   0.635  17.159 -0.0479 -0.2071  0.6569
  400TMC3    C4 5974   3.774   0.496  17.365  0.2764 -0.3156 -0.7749
  400TMC3    C5 5975   3.766   0.632  17.358 -0.3370 -0.1488  0.0705
  400TMC3    C6 5976   3.698   0.703  17.266  0.4708  0.7279  0.2197
  400TMC3     C 5977   3.701   0.295  17.243  0.1991  0.2014 -0.9735
  400TMC3     O 5978   3.731   0.251  17.132 -1.1928 -0.0030 -0.3400
  400TMC3     H 5979   3.572   0.445  17.102 -1.0346  2.5261 -1.3135
  400TMC3    H1 5980   3.827   0.438  17.440 -1.1758 -1.0382 -0.3221
  400TMC3    H2 5981   3.689   0.811  17.271 -0.4794  0.6667 -0.1897
  400TMC3    C7 5982   3.830   0.701  17.469 -0.5648  0.2168  0.7522
  400TMC3    C8 5983   3.537   0.708  17.089  0.0360 -0.1072  0.1144
  400TMC3    O1 5984   3.864   0.636  17.566  0.0672  0.5400 -0.1806
  400TMC3    O2 5985   3.495   0.813  17.131  0.0608 -0.2146  0.0127
  401MPD2     C 5986   1.831   3.799   0.607  0.0706  0.1353 -0.6994
  401MPD2    C1 5987   1.919   3.765   0.709 -0.7543  0.2726 -0.0116
  401MPD2    C2 5988   2.005   3.653   0.697 -0.0216  0.0665 -0.3265
  401MPD2    C3 5989   1.987   3.567   0.587  0.4932 -0.3607  0.7695
  401MPD2    C4 5990   1.900   3.603   0.482  1.2386 -0.3904  0.0195
  401MPD2    C5 5991   1.828   3.720   0.497  0.3223 -0.2167  0.1426
  401MPD2     H 5992   2.082   3.624   0.768 -1.7819 -3.5826  0.1144
  401MPD2    H1 5993   1.874   3.541   0.397  2.1161 -0.4676 -0.1887
  401MPD2    H2 5994   1.756   3.877   0.616  0.9714  0.8230  0.9829
  401MPD2    H3 5995   1.766   3.751   0.413 -0.2192  0.3167  0.7365
  401MPD2     N 5996   2.066   3.449   0.589 -0.5114 -0.6916 -0.6795
  401MPD2    H5 5997   2.101   3.418   0.679 -1.0740  2.7290  0.6865
  401MPD2    N1 5998   1.930   3.839   0.830 -0.0396  0.2961 -0.4675
  401MPD2    H7 5999   1.990   3.799   0.902  2.9260  0.1008 -3.0658
  402TMC3    C1 6000   2.145   3.237   0.528  0.6581 -0.0994  0.4274
  402TMC3    C2 6001   2.171   3.219   0.664 -0.3030  0.0275  0.5782
  402TMC3    C3 6002   2.277   3.136   0.694  0.3454  0.5874 -1.1019
  402TMC3    C4 6003   2.204   3.175   0.426 -0.2556  0.5020 -0.1642
  402TMC3    C5 6004   2.311   3.094   0.460 -0.0935  0.3792 -0.0217
  402TMC3    C6 6005   2.350   3.084   0.585  0.6156  0.1844 -0.8523
  402TMC3     C 6006   2.071   3.355   0.489 -0.1097  0.2503  0.0705
  402TMC3     O 6007   2.009   3.345   0.384 -0.2438 -0.2828 -0.1500
  402TMC3     H 6008   2.113   3.264   0.743 -0.6168  1.1890 -0.3188
  402TMC3    H1 6009   2.181   3.203   0.324  2.7470  1.1252 -0.6864
  402TMC3    H2 6010   2.430   3.015   0.611 -0.3151 -0.1400  1.2011
  402TMC3    C7 6011   2.369   3.012   0.362 -0.4831 -0.6649 -0.1574
  402TMC3    C8 6012   2.309   3.091   0.835 -0.3633  0.5895  1.0066
  402TMC3    O1 6013   2.295   2.981   0.273  0.4018 -0.5146 -0.2229
  402TMC3    O2 6014   2.421   3.045   0.848 -0.3329 -0.0748 -0.0230
  403MPD2     C 6015   0.140   2.526  13.162  0.8868  0.1259 -0.7009
  403MPD2    C1 6016   0.229   2.425  13.186  0.9529  0.0810  0.1289
  403MPD2    C2 6017   0.348   2.462  13.259  0.0204 -0.4042 -0.1220
  403MPD2    C3 6018   0.367   2.592  13.303 -0.1018  0.0732 -0.1911
  403MPD2    C4 6019   0.271   2.691  13.273  0.4503 -0.2206  0.2518
  403MPD2    C5 6020   0.155   2.653  13.198 -0.3904  0.0325 -0.4454
  403MPD2     H 6021   0.417   2.384  13.287  0.6110  0.4488  0.8034
  403MPD2    H1 6022   0.288   2.793  13.305 -0.4006 -0.2240  0.7047
  403MPD2    H2 6023   0.049   2.505  13.106  1.1312  0.8495 -1.3648
  403MPD2    H3 6024   0.081   2.724  13.165 -1.2200  0.2847  1.9513
  403MPD2     N 6025   0.488   2.612  13.367 -0.0269  0.0023 -0.8717
  403MPD2    H5 6026   0.559   2.542  13.347  0.1943  0.0737 -0.3362
  403MPD2    N1 6027   0.195   2.302  13.136 -0.4083  0.0594  1.2893
  403MPD2    H7 6028   0.114   2.290  13.075 -0.1818  0.5881  0.8924
  404TMC3    C1 6029   0.145   2.080  13.159 -0.9545  0.2288  0.9516
  404TMC3    C2 6030   0.147   1.963  13.230 -0.2242 -0.1895 -0.2000
  404TMC3    C3 6031   0.108   1.847  13.171 -0.2048 -0.0960 -0.7934
  404TMC3    C4 6032   0.096   2.077  13.032  0.7299  0.1053  0.0540
  404TMC3    C5 6033   0.066   1.954  12.972 -0.5045 -0.0737  0.2023
  404TMC3    C6 6034   0.070   1.834  13.039 -0.0607 -0.3024 -0.7559
  404TMC3     C 6035   0.230   2.185  13.192  0.1794  0.2700  0.0912
  404TMC3     O 6036   0.294   2.166  13.295 -0.0480  0.1150  0.5477
  404TMC3     H 6037   0.183   1.966  13.332 -1.5218  1.5458  0.2150
  404TMC3    H1 6038   0.098   2.165  12.969 -1.9953  0.5381  0.5709
  404TMC3    H2 6039   0.049   1.737  12.996 -0.8471 -2.1771  3.9313
  404TMC3    C7 6040   0.048   1.956  12.826  0.5800 -0.5392 -0.8561
  404TMC3    C8 6041   0.153   1.725  13.248  0.0940 -0.8119  0.0340
  404TMC3    O1 6042   0.086   2.061  12.780  0.4255  0.0682  0.5378
  404TMC3    O2 6043   0.166   1.618  13.188 -0.7061  0.3206 -0.2454
  405MPD2     C 6044   0.733   2.428  14.466  0.0571 -0.1689 -0.1279
  405MPD2    C1 6045   0.695   2.456  14.336 -0.2983  0.0402  0.0933
  405MPD2    C2 6046   0.556   2.453  14.306  0.9600 -0.0679 -0.8284
  405MPD2    C3 6047   0.470   2.424  14.410  0.2626  0.7692 -0.4087
  405MPD2    C4 6048   0.515   2.384  14.539 -0.0666 -0.3493  0.2095
  405MPD2    C5 6049   0.647   2.381  14.563  0.5268  0.0109 -0.1371
  405MPD2     H 6050   0.514   2.453  14.206  0.8180  0.7955 -0.7696
  405MPD2    H1 6051   0.453   2.341  14.617  1.5275  0.2977  1.8308
  405MPD2    H2 6052   0.839   2.420  14.488  0.5761  0.4272 -2.4346
  405MPD2    H3 6053   0.687   2.343  14.656 -1.5118 -1.3079  0.2075
  405MPD2     N 6054   0.331   2.417  14.380 -0.0219 -0.1436 -0.0985
  405MPD2    H5 6055   0.305   2.429  14.282  1.9058  2.2630 -0.3013
  405MPD2    N1 6056   0.789   2.502  14.241  0.2970  0.0215 -0.4791
  405MPD2    H7 6057   0.887   2.503  14.269  0.2550 -1.6939 -0.2715
  406TMC3    C1 6058   4.649   2.547  14.335 -0.6963  0.5594 -0.0615
  406TMC3    C2 6059   4.647   2.489  14.205  0.5466  0.3088 -0.5671
  406TMC3    C3 6060   0.006   2.380  14.180 -0.1773  0.0603  0.1780
  406TMC3    C4 6061   0.009   2.507  14.431 -0.0464  0.1397 -0.2376
  406TMC3    C5 6062   0.100   2.410  14.398 -0.5333 -0.2383  0.0455
  406TMC3    C6 6063   0.099   2.342  14.279  0.4985 -0.2888  0.8378
  406TMC3     C 6064   4.588   2.675  14.334  0.0596 -0.6532 -0.5812
  406TMC3     O 6065   4.567   2.725  14.222 -0.2025  0.5516 -0.3281
  406TMC3     H 6066   4.585   2.527  14.124  1.6298  1.4475 -0.8540
  406TMC3    H1 6067   0.019   2.559  14.526 -0.1996 -1.3021  0.5657
  406TMC3    H2 6068   0.172   2.263  14.266  0.3351 -0.6704  2.2716
  406TMC3    C7 6069   0.225   2.404  14.468 -0.5864 -0.0977 -0.6677
  406TMC3    C8 6070   0.034   2.351  14.034  0.5235 -0.6770  0.6280
  406TMC3    O1 6071   0.236   2.453  14.582  0.1376  0.6096 -0.3373
  406TMC3    O2 6072   4.684   2.273  13.971 -0.4579  0.4585  0.2155
  407MPD2     C 6073   2.789   3.653   9.493  0.2841 -0.3028  0.6414
  407MPD2    C1 6074   2.923   3.622   9.502 -0.3258  0.6690  0.3296
  407MPD2    C2 6075   2.998   3.653   9.613 -0.2632  0.0704 -0.0222
  407MPD2    C3 6076   2.931   3.707   9.719  0.2593  0.0964  0.7546
  407MPD2    C4 6077   2.796   3.742   9.708 -1.1398  0.6032 -0.3322
  407MPD2    C5 6078   2.728   3.709   9.600  0.0897  0.1848  0.0747
  407MPD2     H 6079   3.104   3.631   9.613 -0.2279  0.3554  4.0126
  407MPD2    H1 6080   2.741   3.796   9.784 -2.5672 -0.7854 -0.3825
  407MPD2    H2 6081   2.721   3.627   9.413 -0.3907  0.6313  0.9212
  407MPD2    H3 6082   2.621   3.729   9.598  0.0473  0.1532  1.8776
  407MPD2     N 6083   3.006   3.736   9.840 -0.3413  0.9194 -0.1210
  407MPD2    H5 6084   2.954   3.795   9.904 -2.7565  0.3147 -1.5150
  407MPD2    N1 6085   2.990   3.562   9.396  0.1638  0.1940 -0.4110
  407MPD2    H7 6086   3.086   3.534   9.409  0.0141 -0.9045 -1.6683
  408TMC3    C1 6087   3.057   3.551   9.174 -0.7867  0.1440 -0.3156
  408TMC3    C2 6088   3.151   3.465   9.210 -0.0556  0.7841 -0.3878
  408TMC3    C3 6089   3.267   3.481   9.146  0.0361 -0.7299  0.2201
  408TMC3    C4 6090   3.079   3.657   9.099 -0.5131 -0.2268 -0.0237
  408TMC3    C5 6091   3.198   3.678   9.036  0.3482  0.4231  0.0237
  408TMC3    C6 6092   3.297   3.585   9.060  0.1837  0.4571 -0.2960
  408TMC3     C 6093   2.944   3.562   9.265 -0.4742 -0.6402  0.7237
  408TMC3     O 6094   2.844   3.615   9.216 -0.0368  0.0728 -0.1574
  408TMC3     H 6095   3.129   3.374   9.264 -1.2685  1.5827  0.4702
  408TMC3    H1 6096   3.008   3.739   9.099 -1.4324 -1.0330  0.4487
  408TMC3    H2 6097   3.395   3.590   9.015  0.6286  4.3567  1.1023
  408TMC3    C7 6098   3.254   3.804   9.005  0.1410 -0.5702 -0.0620
  408TMC3    C8 6099   3.371   3.383   9.178  0.0588 -0.5303 -0.3052
  408TMC3    O1 6100   3.370   3.824   9.047 -0.2019 -0.0351 -0.7217
  408TMC3    O2 6101   3.328   3.266   9.199 -0.8907 -0.1597 -0.7881
  409MPD2     C 6102   2.175   0.296  17.640 -0.1112 -0.1798 -0.1306
  409MPD2    C1 6103   2.309   0.271  17.636 -0.1925  0.5421  0.5215
  409MPD2    C2 6104   2.386   0.356  17.559 -0.0041 -0.7684 -0.0156
  409MPD2    C3 6105   2.320   0.456  17.489  0.3240 -0.2057  0.1661
  409MPD2    C4 6106   2.188   0.491  17.511  0.0725 -0.9775  0.4235
  409MPD2    C5 6107   2.112   0.409  17.584 -0.2230 -0.0544  0.0385
  409MPD2     H 6108   2.492   0.337  17.562  0.2653  0.9774  1.2582
  409MPD2    H1 6109   2.139   0.574  17.461 -0.0027 -0.6229  1.0770
  409MPD2    H2 6110   2.108   0.228  17.692 -0.7178  0.7437  0.3032
  409MPD2    H3 6111   2.006   0.430  17.597 -0.5363 -2.2557  1.0597
  409MPD2     N 6112   2.394   0.531  17.390  0.3205  0.3620 -0.2370
  409MPD2    H5 6113   2.363   0.619  17.351  2.7300  0.9320 -0.8807
  409MPD2    N1 6114   2.377   0.165   0.007  0.6632  0.2475 -0.8159
  409MPD2    H7 6115   2.478   0.174   0.002  0.7074 -0.9098 -1.9670
  410TMC3    C1 6116   2.594   0.610  17.284 -0.4582  0.6828 -0.2830
  410TMC3    C2 6117   2.724   0.592  17.231 -0.2551  0.2348 -0.3938
  410TMC3    C3 6118   2.787   0.709  17.216  0.0589  0.4039 -0.7773
  410TMC3    C4 6119   2.537   0.738  17.304  0.6128 -0.1334  0.3876
  410TMC3    C5 6120   2.608   0.848  17.288  0.4647  0.9430  0.2002
  410TMC3    C6 6121   2.734   0.836  17.235 -0.7458  0.6359 -0.3641
  410TMC3     C 6122   2.521   0.496  17.346 -0.4356 -0.1073  0.1349
  410TMC3     O 6123   2.585   0.392  17.361  0.2349  0.0852  0.1454
  410TMC3     H 6124   2.770   0.494  17.243 -0.5188 -0.0029 -1.3156
  410TMC3    H1 6125   2.454   0.742  17.374  0.3539  0.7621  0.0186
  410TMC3    H2 6126   2.807   0.916  17.235 -1.8051  1.6212  1.6968
  410TMC3    C7 6127   2.601   0.951  17.384  0.2616 -0.4173  0.5706
  410TMC3    C8 6128   2.934   0.703  17.225  0.0114  0.0708 -0.6291
  410TMC3    O1 6129   2.555   0.928  17.495 -0.2287 -0.2225  0.2938
  410TMC3    O2 6130   2.984   0.801  17.275 -0.0067 -0.3247  0.5967
  411MPD2     C 6131   2.394   0.572  14.618 -0.0342  0.6961  0.8250
  411MPD2    C1 6132   2.420   0.616  14.745  0.1555  1.2487  0.4472
  411MPD2    C2 6133   2.325   0.595  14.845  0.8672  0.3060 -0.0556
  411MPD2    C3 6134   2.198   0.545  14.810 -0.8081 -0.2263  1.3359
  411MPD2    C4 6135   2.173   0.511  14.677 -0.0955  0.2421  0.4847
  411MPD2    C5 6136   2.276   0.517  14.582  0.1975 -0.1204 -0.8952
  411MPD2     H 6137   2.345   0.624  14.948  3.8774  1.1759 -0.8836
  411MPD2    H1 6138   2.081   0.458  14.655  1.6417 -1.5912 -2.1807
  411MPD2    H2 6139   2.473   0.578  14.544  0.5148  2.3055  1.5382
  411MPD2    H3 6140   2.261   0.489  14.478  0.1369 -0.3207 -0.8343
  411MPD2     N 6141   2.092   0.536  14.903  0.2328 -0.1793  0.4247
  411MPD2    H5 6142   2.004   0.501  14.867 -1.1735  1.9148  1.7623
  411MPD2    N1 6143   2.536   0.692  14.763 -0.3960  0.3430  0.9787
  411MPD2    H7 6144   2.608   0.699  14.691  0.3726  0.4381  1.7672
  412TMC3    C1 6145   1.960   0.582  15.083  0.2079  0.0829  0.1623
  412TMC3    C2 6146   1.936   0.715  15.078  0.7855  0.0043 -0.3914
  412TMC3    C3 6147   1.830   0.762  15.011 -0.7403  0.4368  0.2694
  412TMC3    C4 6148   1.878   0.494  15.015 -0.0066 -0.3676  0.3597
  412TMC3    C5 6149   1.757   0.546  14.983 -0.3775 -0.0126 -0.5144
  412TMC3    C6 6150   1.727   0.680  14.981  0.0676  1.0452 -0.3171
  412TMC3     C 6151   2.095   0.568  15.037 -0.0858 -0.5914  0.3782
  412TMC3     O 6152   2.187   0.612  15.102 -0.4873  0.0562 -0.0672
  412TMC3     H 6153   2.007   0.786  15.119  1.4230 -1.1508  0.4788
  412TMC3    H1 6154   1.903   0.389  15.016  0.0887 -0.3452  0.1255
  412TMC3    H2 6155   1.650   0.715  14.913 -0.1517  2.1380  0.4962
  412TMC3    C7 6156   1.707   0.477  14.857  0.3894  0.3097 -0.6937
  412TMC3    C8 6157   1.862   0.851  14.903 -0.2988 -0.1792 -0.6644
  412TMC3    O1 6158   1.790   0.454  14.766  0.1424  0.5605  0.2009
  412TMC3    O2 6159   1.775   0.896  14.836  0.5189  0.5428  0.5149
  413MPD2     C 6160   4.399   4.182  15.609  0.3091  0.3733  0.1783
  413MPD2    C1 6161   4.341   4.080  15.531 -0.0334 -0.0260 -0.2297
  413MPD2    C2 6162   4.415   4.020  15.423 -0.1120 -0.5354 -0.3320
  413MPD2    C3 6163   4.544   4.063  15.406  0.1905 -0.3016 -1.0145
  413MPD2    C4 6164   4.598   4.174  15.476 -0.3542  0.0088 -0.7454
  413MPD2    C5 6165   4.526   4.230  15.582 -0.5595  0.9315 -0.2627
  413MPD2     H 6166   4.374   3.940  15.364  0.0685 -0.5378 -0.4523
  413MPD2    H1 6167   4.695   4.217  15.459  0.3353 -0.0002  3.0249
  413MPD2    H2 6168   4.348   4.237  15.687 -0.4880 -0.7056  0.4228
  413MPD2    H3 6169   4.569   4.316  15.632  0.8218  0.5936 -0.8664
  413MPD2     N 6170   4.624   3.993  15.309  0.0559 -0.0094 -0.1482
  413MPD2    H5 6171   4.576   3.923  15.253 -0.5837 -1.4342  2.1735
  413MPD2    N1 6172   4.209   4.053  15.561  0.1391 -0.9608  0.1941
  413MPD2    H7 6173   4.173   4.119  15.629 -1.9293 -0.3088 -1.5335
  414TMC3    C1 6174   0.078   3.895  15.194 -0.3721  0.4107 -0.6080
  414TMC3    C2 6175   0.184   3.816  15.240  0.0809  0.5150  0.3285
  414TMC3    C3 6176   0.201   3.700  15.163 -0.2744 -0.0897 -0.1336
  414TMC3    C4 6177   0.009   3.876  15.080 -0.3368 -0.1755 -0.3062
  414TMC3    C5 6178   0.035   3.769  15.010  0.1731 -0.1421  0.1277
  414TMC3    C6 6179   0.120   3.670  15.052  0.2304 -0.1271 -0.0232
  414TMC3     C 6180   0.032   4.009  15.282  0.2042 -0.2630  0.2231
  414TMC3     O 6181   0.116   4.083  15.339  0.1226  0.7777  0.9410
  414TMC3     H 6182   0.241   3.849  15.326  1.3817 -0.7637 -0.0431
  414TMC3    H1 6183   4.647   3.940  15.061 -0.1401  1.1408  3.2446
  414TMC3    H2 6184   0.128   3.575  14.999  1.1155  0.5641 -1.1183
  414TMC3    C7 6185   4.663   3.730  14.909 -0.1816 -0.3443 -0.2326
  414TMC3    C8 6186   0.298   3.601  15.199  0.1115 -0.2590 -0.4524
  414TMC3    O1 6187   4.547   3.719  14.952 -0.0220  0.1115  0.0684
  414TMC3    O2 6188   0.279   3.490  15.147 -0.4685 -0.4108  0.3290
  415TMC3    C1 6189   0.277   0.794   9.729  0.2502  0.5418  0.7485
  415TMC3    C2 6190   0.285   0.873   9.620  0.4701 -0.4126  0.1343
  415TMC3    C3 6191   0.200   0.985   9.616  0.4537  0.7197 -0.2685
  415TMC3    C4 6192   0.196   0.829   9.834 -0.1305  0.3000  0.0902
  415TMC3    C5 6193   0.131   0.948   9.835 -0.1975  0.6305  0.4406
  415TMC3    C6 6194   0.112   1.020   9.719 -0.4078  0.6382  0.1281
  415TMC3     C 6195   0.382   0.696   9.764  0.4949 -0.2753 -0.4429
  415TMC3     O 6196   0.351   0.617   9.848 -0.0476 -0.0965 -0.6011
  415TMC3     H 6197   0.345   0.845   9.534 -0.0327  4.0647 -1.6581
  415TMC3    H1 6198   0.188   0.769   9.924 -1.8060  1.2526  0.5748
  415TMC3    H2 6199   0.054   1.109   9.698  0.5560  1.5941  1.5170
  415TMC3    C7 6200   0.046   0.987   9.945 -0.2026 -0.1891 -0.2396
  415TMC3    C8 6201   0.241   1.084   9.520 -0.3410 -0.1129 -0.3943
  415TMC3    O1 6202   4.655   1.029   9.924  0.4531  0.5123 -0.3187
  415TMC3    O2 6203   0.146   1.145   9.474  0.5407  0.4134  0.5442
  416MPD2     C 6204   2.268   0.748  11.668  0.8033  0.2413  0.2474
  416MPD2    C1 6205   2.150   0.677  11.658 -0.0364  0.8716 -0.3556
  416MPD2    C2 6206   2.154   0.569  11.574  0.3830  0.3480  0.3656
  416MPD2    C3 6207   2.276   0.518  11.525  0.4693 -0.0756  0.7596
  416MPD2    C4 6208   2.390   0.592  11.538  0.2264 -0.1514 -0.6547
  416MPD2    C5 6209   2.388   0.706  11.616 -0.3180  1.0419  0.8857
  416MPD2     H 6210   2.055   0.532  11.551  0.4879 -1.9743  3.7798
  416MPD2    H1 6211   2.486   0.553  11.505  0.6259 -0.0119  0.3262
  416MPD2    H2 6212   2.278   0.843  11.720  0.9554  0.7794 -0.7684
  416MPD2    H3 6213   2.478   0.766  11.626  1.4795 -1.3081 -1.1065
  416MPD2     N 6214   2.279   0.398  11.448  0.1750 -0.4096 -0.0993
  416MPD2    H5 6215   2.370   0.363  11.420 -0.0126  0.5139 -1.9058
  416MPD2    N1 6216   2.023   0.730  11.698  0.6191  0.1461  0.5021
  416MPD2    H7 6217   2.022   0.831  11.707  1.5862  0.3269 -1.3873
  417TMC3    C1 6218   1.795   0.776  11.704  0.4483 -0.4091  0.8902
  417TMC3    C2 6219   1.829   0.876  11.793 -0.0316  0.2359  0.0786
  417TMC3    C3 6220   1.722   0.958  11.822 -0.4677  0.2380 -0.2041
  417TMC3    C4 6221   1.669   0.761  11.640  0.0311 -0.3985  0.2032
  417TMC3    C5 6222   1.572   0.851  11.665 -0.1399 -0.3717  0.0795
  417TMC3    C6 6223   1.600   0.945  11.764 -0.2711 -0.2664 -0.4583
  417TMC3     C 6224   1.897   0.673  11.687 -0.2817  0.1099 -0.4053
  417TMC3     O 6225   1.866   0.549  11.684 -0.0654  0.3038  0.6781
  417TMC3     H 6226   1.921   0.890  11.848  0.6817 -0.5453 -0.9039
  417TMC3    H1 6227   1.660   0.672  11.578 -0.8402  4.2653 -6.3479
  417TMC3    H2 6228   1.520   1.012  11.796 -0.2322  1.3182 -3.6894
  417TMC3    C7 6229   1.475   0.874  11.562  0.3793 -0.0717 -0.4016
  417TMC3    C8 6230   1.732   1.042  11.935 -0.1880 -0.1047  0.0990
  417TMC3    O1 6231   1.496   0.828  11.448  0.1815 -0.4170  0.6284
  417TMC3    O2 6232   1.620   1.052  11.986  0.2891  0.7911 -0.2166
  418TMC3    C1 6233   0.651   2.200   0.764 -0.9458  0.3847 -0.8632
  418TMC3    C2 6234   0.564   2.226   0.658  0.3586  0.2646  0.3529
  418TMC3    C3 6235   0.452   2.150   0.658  0.1090 -0.0072  0.0544
  418TMC3    C4 6236   0.620   2.106   0.859  0.5993  0.1988  0.2477
  418TMC3    C5 6237   0.498   2.042   0.857 -0.0455  0.1880  0.3297
  418TMC3    C6 6238   0.414   2.058   0.750 -0.1262 -0.7910 -0.7807
  418TMC3     C 6239   0.787   2.252   0.749  0.4788  0.3495  0.0622
  418TMC3     O 6240   0.801   2.353   0.677 -0.6047  0.4631 -0.1040
  418TMC3     H 6241   0.597   2.293   0.580  1.4633  1.5486  1.9132
  418TMC3    H1 6242   0.695   2.068   0.926  1.3321 -1.8723 -1.7618
  418TMC3    H2 6243   0.318   2.008   0.755 -1.4244  1.7158 -0.7620
  418TMC3    C7 6244   0.464   1.947   0.957 -0.0956  0.2815 -0.3503
  418TMC3    C8 6245   0.392   2.132   0.533 -0.6798  0.0388  0.1963
  418TMC3    O1 6246   0.364   1.878   0.938  0.5808 -0.0951 -0.4516
  418TMC3    O2 6247   0.429   2.217   0.455 -0.2728 -0.2686 -0.1842
  419MPD2     C 6248   3.878   0.438  12.883  0.1173  0.2054 -0.8582
  419MPD2    C1 6249   3.835   0.557  12.827 -0.4524  0.3861  0.7637
  419MPD2    C2 6250   3.882   0.673  12.881 -0.6206 -0.1242  0.5570
  419MPD2    C3 6251   3.955   0.678  13.002  0.4707  0.0865 -0.1621
  419MPD2    C4 6252   3.998   0.554  13.045 -0.2602 -0.0133 -0.2110
  419MPD2    C5 6253   3.953   0.437  12.995  0.3156 -0.1554 -0.3895
  419MPD2     H 6254   3.853   0.765  12.833  0.4531 -0.0298  0.0960
  419MPD2    H1 6255   4.062   0.537  13.131  0.2676 -0.1982 -0.6353
  419MPD2    H2 6256   3.853   0.339  12.846 -0.0404  0.2467 -0.8592
  419MPD2    H3 6257   3.971   0.344  13.047  0.8498  1.1185  1.6811
  419MPD2     N 6258   3.985   0.800  13.059 -0.5650 -0.3440 -0.3614
  419MPD2    H5 6259   3.937   0.880  13.020  0.7284  1.5858  2.0766
  419MPD2    N1 6260   3.750   0.565  12.713 -0.0031  0.0703  0.5742
  419MPD2    H7 6261   3.737   0.660  12.681  2.4834  0.4963  0.8287
  420TMC3    C1 6262   4.051   0.951  13.236 -0.2210  0.5056  0.1601
  420TMC3    C2 6263   3.939   1.017  13.224 -0.4413  0.3219 -0.1566
  420TMC3    C3 6264   3.906   1.127  13.295  0.3174 -0.1239  0.4315
  420TMC3    C4 6265   4.147   0.991  13.320 -0.2690  0.4291  0.3589
  420TMC3    C5 6266   4.117   1.106  13.387 -0.2146 -0.2435  0.6382
  420TMC3    C6 6267   4.003   1.186  13.367  0.3433  0.4431  0.2037
  420TMC3     C 6268   4.059   0.819  13.175 -0.6751 -0.1715 -0.1811
  420TMC3     O 6269   4.122   0.735  13.234  0.2349 -0.5244 -0.1915
  420TMC3     H 6270   3.856   0.962  13.182 -0.6611 -0.4000  1.2142
  420TMC3    H1 6271   4.234   0.928  13.339  0.6642  1.4077 -0.7105
  420TMC3    H2 6272   3.985   1.268  13.435 -0.8920 -0.1564  0.5928
  420TMC3    C7 6273   4.193   1.111  13.511 -0.4548  0.1295  0.5788
  420TMC3    C8 6274   3.766   1.162  13.316  0.7322 -0.3882  0.2405
  420TMC3    O1 6275   4.220   1.003  13.550 -0.3243  0.8794 -0.0138
  420TMC3    O2 6276   3.688   1.094  13.249  0.4161  0.4684  0.5243
  421TMC3    C1 6277   0.671   2.741  13.458  0.2959 -0.1065 -0.4448
  421TMC3    C2 6278   0.704   2.849  13.532 -0.1683 -0.6106  0.3879
  421TMC3    C3 6279   0.833   2.874  13.551  0.2304 -0.0271  0.1953
  421TMC3    C4 6280   0.764   2.656  13.410  0.1129 -0.3327  0.3136
  421TMC3    C5 6281   0.894   2.678  13.431  0.2437 -0.0992 -0.4503
  421TMC3    C6 6282   0.928   2.789  13.503  0.6573  0.8167  0.9584
  421TMC3     C 6283   0.533   2.729  13.428  0.4261  0.5022 -0.7462
  421TMC3     O 6284   0.465   2.829  13.441  0.0247  0.4083 -0.5841
  421TMC3     H 6285   0.628   2.911  13.580 -0.4015  0.7787 -1.7800
  421TMC3    H1 6286   0.739   2.565  13.358  0.9949 -0.7572  0.6412
  421TMC3    H2 6287   1.030   2.805  13.536  1.3503 -0.5718 -0.5241
  421TMC3    C7 6288   0.991   2.569  13.442  0.3870  0.2190  0.1875
  421TMC3    C8 6289   0.874   2.945  13.668 -0.2159  0.5395  0.2412
  421TMC3    O1 6290   1.088   2.600  13.510 -0.6326  0.5510  0.6995
  421TMC3    O2 6291   0.992   2.985  13.677  0.3172  0.3246 -0.1649
  422TMC3    C1 6292   3.116   3.239  12.815  0.3031 -0.0918  0.3030
  422TMC3    C2 6293   3.076   3.365  12.850  0.3679 -0.3466 -0.0932
  422TMC3    C3 6294   2.977   3.374  12.938 -0.4824 -0.0086 -0.1621
  422TMC3    C4 6295   3.074   3.123  12.874  0.0313 -0.6510 -0.4399
  422TMC3    C5 6296   2.989   3.142  12.985  0.1307 -0.4298  0.0495
  422TMC3    C6 6297   2.931   3.265  13.013  0.0638  0.6438  0.1691
  422TMC3     C 6298   3.205   3.234  12.703 -0.0228 -0.6264  0.9434
  422TMC3     O 6299   3.216   3.327  12.629  0.2566 -0.3766  0.4406
  422TMC3     H 6300   3.130   3.445  12.800  1.7067 -1.2663 -0.1170
  422TMC3    H1 6301   3.100   3.022  12.847 -0.0003 -0.8942  0.4547
  422TMC3    H2 6302   2.860   3.277  13.095  0.4525  0.7635  0.4922
  422TMC3    C7 6303   2.950   3.020  13.052  0.2835 -0.5012 -0.1250
  422TMC3    C8 6304   2.893   3.499  12.954 -0.3503 -0.0049 -0.0270
  422TMC3    O1 6305   3.036   2.930  13.059 -0.5114  0.1139 -0.3960
  422TMC3    O2 6306   2.808   3.511  13.043  0.2291 -0.0577  0.2634
  423MPD2     C 6307   4.379   4.414   0.565  0.9705  0.2255  0.2596
  423MPD2    C1 6308   4.252   4.359   0.547  0.4363  0.4561 -0.2584
  423MPD2    C2 6309   4.196   4.354   0.419  0.0200  0.5926  0.2622
  423MPD2    C3 6310   4.272   4.391   0.309  0.2090  0.3453 -0.6760
  423MPD2    C4 6311   4.397   4.441   0.329 -0.3140  0.1491 -0.6106
  423MPD2    C5 6312   4.445   4.453   0.455 -0.6366  0.2361  0.4902
  423MPD2     H 6313   4.094   4.318   0.410  0.0639  0.4961  0.1418
  423MPD2    H1 6314   4.456   4.472   0.244 -0.3945  0.5517 -0.5194
  423MPD2    H2 6315   4.419   4.436   0.664 -0.0397  2.1724  0.2287
  423MPD2    H3 6316   4.544   4.496   0.461 -0.2444 -0.3584 -1.5980
  423MPD2     N 6317   4.236   4.379   0.175  0.3156 -0.4795  0.3024
  423MPD2    H5 6318   4.304   4.419   0.112 -0.2131 -2.1120 -1.2979
  423MPD2    N1 6319   4.171   4.325   0.661 -0.3057 -0.7511  0.2145
  423MPD2    H7 6320   4.072   4.315   0.639 -0.6795  0.8857  1.1528
  424TMC3    C1 6321   4.119   4.321   0.892  1.0326 -0.1823  0.2216
  424TMC3    C2 6322   4.138   4.259   1.010 -0.2390 -0.5621 -0.4743
  424TMC3    C3 6323   4.038   4.257   1.103 -0.0859 -0.1967  0.3746
  424TMC3    C4 6324   3.997   4.376   0.862 -0.4380 -0.2102 -0.5351
  424TMC3    C5 6325   3.890   4.346   0.942 -0.5806 -0.8733  0.2190
  424TMC3    C6 6326   3.910   4.284   1.065 -0.4743 -0.3622  0.1215
  424TMC3     C 6327   4.224   4.314   0.791 -0.5154 -0.0416  0.4313
  424TMC3     O 6328   4.340   4.312   0.833 -0.0371  0.0326 -0.4082
  424TMC3     H 6329   4.235   4.216   1.033  1.6225  1.6077 -4.1687
  424TMC3    H1 6330   3.998   4.429   0.768 -0.5757  0.0506 -0.3916
  424TMC3    H2 6331   3.822   4.242   1.114 -1.6074  0.1563 -1.4635
  424TMC3    C7 6332   3.775   4.440   0.919  0.1678  0.3462  0.0356
  424TMC3    C8 6333   4.055   4.174   1.222 -0.1127  0.1162 -0.0328
  424TMC3    O1 6334   3.781   4.494   0.810 -0.3838  0.1490 -0.0506
  424TMC3    O2 6335   4.162   4.110   1.231  0.8467  0.1758 -0.1568
  425MPD2     C 6336   3.180   3.696  17.408  0.1940 -0.6721  0.9253
  425MPD2    C1 6337   3.099   3.588  17.370  0.3442 -0.0611 -0.4416
  425MPD2    C2 6338   2.964   3.609  17.380 -0.5934 -0.4860  0.2186
  425MPD2    C3 6339   2.912   3.740  17.401  0.2538 -0.1881 -0.0597
  425MPD2    C4 6340   2.999   3.849  17.421  0.0999 -0.3728 -0.7199
  425MPD2    C5 6341   3.136   3.822  17.425  0.2283 -0.1406  0.6933
  425MPD2     H 6342   2.890   3.532  17.358 -3.1616  2.9165 -2.9618
  425MPD2    H1 6343   2.972   3.953  17.438 -0.1820 -0.8156  1.4742
  425MPD2    H2 6344   3.286   3.673  17.400  0.3557  1.0156 -1.5828
  425MPD2    H3 6345   3.211   3.894  17.455  2.0897 -2.5180  1.6948
  425MPD2     N 6346   2.767   3.751  17.410  0.6914 -0.0832  0.3454
  425MPD2    H5 6347   2.715   3.664  17.401  2.1668 -1.0441  1.0729
  425MPD2    N1 6348   3.157   3.464  17.350 -0.5250 -0.4453 -0.5122
  425MPD2    H7 6349   3.257   3.459  17.367 -0.4566  0.0241 -0.7871
  426TMC3    C1 6350   3.189   3.249  17.257  0.3193  0.3384 -0.4500
  426TMC3    C2 6351   3.168   3.173  17.147  0.0207  0.5599 -0.3542
  426TMC3    C3 6352   3.272   3.096  17.103  0.5398  0.1163  0.2980
  426TMC3    C4 6353   3.292   3.228  17.342  0.0463 -0.1984  0.5578
  426TMC3    C5 6354   3.386   3.131  17.310 -0.2709  0.5168  0.5055
  426TMC3    C6 6355   3.383   3.073  17.187  0.4615  0.2094  0.4722
  426TMC3     C 6356   3.097   3.367  17.278  0.0219 -0.1638  0.0672
  426TMC3     O 6357   2.992   3.362  17.221 -0.2194 -0.0577 -0.5464
  426TMC3     H 6358   3.089   3.197  17.077  0.2672  0.8116 -0.5449
  426TMC3    H1 6359   3.316   3.294  17.425 -0.5356  0.2202  0.3917
  426TMC3    H2 6360   3.463   3.010  17.150  0.7428  0.0309  1.3780
  426TMC3    C7 6361   3.465   3.067  17.415 -0.0289  0.0263  0.1043
  426TMC3    C8 6362   3.267   3.065  16.966 -0.3018 -0.0712 -0.3084
  426TMC3    O1 6363   3.549   2.994  17.375 -0.1227  0.3671  0.5329
  426TMC3    O2 6364   3.366   3.071  16.889 -0.2223 -0.3344  0.0506
  427MPD2     C 6365   1.488   0.462  15.281 -0.0915  0.1091 -0.0733
  427MPD2    C1 6366   1.599   0.541  15.300  0.1098 -0.0168  0.9476
  427MPD2    C2 6367   1.591   0.671  15.251  0.4031 -0.1275  0.1472
  427MPD2    C3 6368   1.479   0.718  15.184 -0.8136  0.3746 -0.2220
  427MPD2    C4 6369   1.369   0.634  15.157 -0.2966 -0.1144 -0.0872
  427MPD2    C5 6370   1.380   0.503  15.204 -0.5121 -0.8263  0.3569
  427MPD2     H 6371   1.685   0.726  15.251 -0.5310  1.4641  0.0772
  427MPD2    H1 6372   1.282   0.667  15.101  0.5635  2.1600 -0.0798
  427MPD2    H2 6373   1.473   0.370  15.337  2.3816 -0.7074 -0.7305
  427MPD2    H3 6374   1.289   0.443  15.210 -0.7823 -0.5617 -1.1406
  427MPD2     N 6375   1.461   0.852  15.137 -0.0223  0.5900  0.4421
  427MPD2    H5 6376   1.363   0.874  15.119 -0.1812  0.4719  1.1529
  427MPD2    N1 6377   1.710   0.510  15.383 -0.4542 -0.3493  0.2823
  427MPD2    H7 6378   1.780   0.579  15.408 -1.7591  1.5873 -1.4448
  428TMC3    C1 6379   1.846   0.397  15.530  0.0869  0.5388 -0.2578
  428TMC3    C2 6380   1.920   0.283  15.520 -0.2305 -0.3801  0.3439
  428TMC3    C3 6381   2.056   0.295  15.548  1.0958 -0.6917  0.8139
  428TMC3    C4 6382   1.896   0.520  15.551  0.8087  0.3307 -0.5646
  428TMC3    C5 6383   2.034   0.531  15.567 -0.6604  0.4648 -0.4862
  428TMC3    C6 6384   2.112   0.419  15.563 -0.6238  0.4339  0.5680
  428TMC3     C 6385   1.720   0.394  15.451  0.6494 -0.4064  0.5871
  428TMC3     O 6386   1.656   0.293  15.444 -0.5610 -0.1724 -0.0470
  428TMC3     H 6387   1.883   0.183  15.503 -2.5287  0.1344  2.2012
  428TMC3    H1 6388   1.838   0.605  15.586 -1.0061 -1.2586  0.2657
  428TMC3    H2 6389   2.217   0.417  15.589 -0.2361 -0.0853 -1.0168
  428TMC3    C7 6390   2.094   0.666  15.560  0.1918  0.1023 -0.5333
  428TMC3    C8 6391   2.136   0.185  15.513 -0.3490 -0.1167 -0.1489
  428TMC3    O1 6392   2.025   0.760  15.596  0.0875 -0.2809  0.0445
  428TMC3    O2 6393   2.077   0.099  15.447 -1.1870  0.0651  0.2014
  429MPD2     C 6394   3.513   1.082   0.446 -0.5077  0.4187  0.2751
  429MPD2    C1 6395   3.439   1.094   0.330  0.1323  0.6882  1.0294
  429MPD2    C2 6396   3.475   1.185   0.232  0.4362 -0.0627  0.2724
  429MPD2    C3 6397   3.595   1.255   0.251 -0.2231  0.3557 -0.7236
  429MPD2    C4 6398   3.669   1.240   0.366  0.8431  0.1601  0.2272
  429MPD2    C5 6399   3.630   1.154   0.462 -0.0331 -0.1881  0.0561
  429MPD2     H 6400   3.409   1.198   0.147  1.9227  1.0854 -0.7055
  429MPD2    H1 6401   3.751   1.305   0.393 -1.6325  2.2486  2.7787
  429MPD2    H2 6402   3.481   1.012   0.522 -1.1213 -1.6879 -1.9326
  429MPD2    H3 6403   3.695   1.124   0.544  1.2093  0.1677 -0.7915
  429MPD2     N 6404   3.636   1.345   0.146  0.1726 -0.0610 -0.6423
  429MPD2    H5 6405   3.574   1.355   0.067 -2.1004 -1.1241  0.9783
  429MPD2    N1 6406   3.316   1.024   0.319 -0.2475 -0.6442  0.1200
  429MPD2    H7 6407   3.269   1.057   0.235 -1.1814 -1.8898  0.1593
  430TMC3    C1 6408   3.760   1.481   0.009 -0.3631  0.4874 -0.5396
  430TMC3    C2 6409   3.643   1.513  17.642  0.7708  0.1841  0.3799
  430TMC3    C3 6410   3.655   1.550  17.509  0.2079  0.5555  0.1492
  430TMC3    C4 6411   3.879   1.464  17.641 -0.6470  0.1994 -0.1751
  430TMC3    C5 6412   3.878   1.483  17.505  0.6631  0.4887 -0.4089
  430TMC3    C6 6413   3.773   1.540  17.438 -0.0398 -0.0033  0.4298
  430TMC3     C 6414   3.751   1.410   0.132  0.3509 -0.5385 -0.4835
  430TMC3     O 6415   3.854   1.400   0.201  0.5489  0.0970  0.1609
  430TMC3     H 6416   3.551   1.531   0.002 -0.4497 -2.3239 -0.8400
  430TMC3    H1 6417   3.970   1.447   0.005 -0.2941 -1.9199 -1.3324
  430TMC3    H2 6418   3.785   1.559  17.332  0.5980 -4.9436 -0.3744
  430TMC3    C7 6419   3.921   1.356  17.445 -0.5026  0.4885 -0.4053
  430TMC3    C8 6420   3.541   1.597  17.439  0.1601  0.3646  0.9386
  430TMC3    O1 6421   3.853   1.315  17.347  0.4418 -0.0061  0.7144
  430TMC3    O2 6422   3.430   1.596  17.490 -0.4356  0.6850 -0.0731
  431MPD2     C 6423   3.634   1.256  12.451  0.0274  0.2822 -0.0674
  431MPD2    C1 6424   3.737   1.193  12.388  0.0272  0.1403 -0.3414
  431MPD2    C2 6425   3.712   1.063  12.352  0.1916  1.1223 -0.5043
  431MPD2    C3 6426   3.588   1.003  12.381 -0.5590 -0.4036 -0.0331
  431MPD2    C4 6427   3.489   1.069  12.453 -0.1752  0.1402  0.0141
  431MPD2    C5 6428   3.509   1.202  12.461  0.3719  0.1756 -0.2784
  431MPD2     H 6429   3.792   1.006  12.307 -0.0023 -0.0473  0.6350
  431MPD2    H1 6430   3.391   1.029  12.475  0.1511 -0.4791  0.3309
  431MPD2    H2 6431   3.634   1.363  12.467 -1.8026  0.0841  1.2484
  431MPD2    H3 6432   3.429   1.258  12.509 -0.6771 -1.7989  0.2524
  431MPD2     N 6433   3.563   0.864  12.350 -0.3209  0.1482  0.0509
  431MPD2    H5 6434   3.490   0.818  12.403  1.0516  0.9446  2.6278
  431MPD2    N1 6435   3.864   1.241  12.372 -0.4426 -0.3216 -0.5184
  431MPD2    H7 6436   3.932   1.185  12.322 -0.6070 -0.9735 -0.0211
  432TMC3    C1 6437   3.624   0.644  12.315  0.1908 -0.0178  0.2000
  432TMC3    C2 6438   3.651   0.543  12.229  0.4835 -0.3626 -0.3952
  432TMC3    C3 6439   3.679   0.419  12.271 -0.1417  0.2592 -0.2771
  432TMC3    C4 6440   3.638   0.619  12.450  0.5494 -0.1300  0.3217
  432TMC3    C5 6441   3.664   0.492  12.497 -0.6115 -0.4529 -0.2097
  432TMC3    C6 6442   3.688   0.389  12.401 -0.2076 -0.5094 -0.4067
  432TMC3     C 6443   3.645   0.782  12.274  0.2736 -0.2984  0.4620
  432TMC3     O 6444   3.742   0.800  12.203  0.5414  0.1371 -0.2020
  432TMC3     H 6445   3.659   0.562  12.122  0.3780 -0.3510 -0.4008
  432TMC3    H1 6446   3.626   0.691  12.530  0.0182  0.6247 -0.4392
  432TMC3    H2 6447   3.717   0.287  12.423  2.9842  0.5109  0.1748
  432TMC3    C7 6448   3.709   0.458  12.630  0.7829  0.4417 -0.4681
  432TMC3    C8 6449   3.770   0.344  12.184 -0.0466  0.0878  0.7150
  432TMC3    O1 6450   3.723   0.337  12.649  0.5666  0.2265  0.6284
  432TMC3    O2 6451   3.765   0.221  12.185 -0.2815  0.2926  0.3635
  433MPD2     C 6452   2.965   4.500  10.768  0.5386  0.2479 -0.0050
  433MPD2    C1 6453   2.976   4.397  10.858 -0.1075 -0.1302 -0.0306
  433MPD2    C2 6454   2.977   4.439  10.992  0.0881 -0.4858 -0.4861
  433MPD2    C3 6455   2.947   4.570  11.031  1.0275  0.6391 -0.4605
  433MPD2    C4 6456   2.948   4.667  10.934  0.8240  0.7285  0.6530
  433MPD2    C5 6457   2.961   4.631  10.803 -0.4489 -0.4289  0.3135
  433MPD2     H 6458   2.987   4.364  11.069 -0.2799 -0.4976 -0.4539
  433MPD2    H1 6459   2.934   0.047  10.964  0.2536  0.2099  2.1354
  433MPD2    H2 6460   2.962   4.476  10.662  0.4555  0.0469  0.0431
  433MPD2    H3 6461   2.944   4.703  10.724 -2.3114 -0.7415  0.4334
  433MPD2     N 6462   2.956   4.591  11.173 -0.3138  0.1026 -0.8220
  433MPD2    H5 6463   2.956   4.501  11.218  0.3973  1.0663  1.1100
  433MPD2    N1 6464   2.980   4.263  10.820  0.0253 -0.2072 -0.1797
  433MPD2    H7 6465   2.981   4.235  10.723  2.8063  0.8657 -0.4665
  434TMC3    C1 6466   3.033   4.028  10.831  0.4564 -0.3374  0.3555
  434TMC3    C2 6467   3.085   3.930  10.920 -0.3614  0.3178  0.7939
  434TMC3    C3 6468   3.171   3.839  10.868  0.1161 -0.0181  0.6362
  434TMC3    C4 6469   3.052   4.016  10.700 -0.2782 -0.0765  0.4976
  434TMC3    C5 6470   3.125   3.910  10.650 -0.0879 -0.1244 -0.3562
  434TMC3    C6 6471   3.185   3.825  10.736 -0.2995  0.3970 -0.3190
  434TMC3     C 6472   2.997   4.154  10.903  0.4420 -0.0493 -0.7726
  434TMC3     O 6473   3.014   4.148  11.021 -0.0604 -0.0983 -0.2390
  434TMC3     H 6474   3.056   3.931  11.024 -0.6220 -1.3483  0.7400
  434TMC3    H1 6475   3.020   4.085  10.623 -0.7304 -0.7002  0.1318
  434TMC3    H2 6476   3.258   3.761  10.688  0.5848  2.2615 -1.4448
  434TMC3    C7 6477   3.068   3.856  10.530  0.3108  0.3872 -0.4089
  434TMC3    C8 6478   3.215   3.734  10.960 -0.3273 -0.2940 -1.0034
  434TMC3    O1 6479   3.023   3.930  10.443  0.0769  0.2026  0.5608
  434TMC3    O2 6480   3.190   3.757  11.077 -0.3239 -0.6752  0.2206
  435MPD2     C 6481   0.149   0.118  15.607  0.5792 -0.1864 -0.3588
  435MPD2    C1 6482   0.112   0.078  15.735 -0.3417  0.1847  0.2858
  435MPD2    C2 6483   0.188   4.710  15.801  0.2709  0.3609  0.1667
  435MPD2    C3 6484   0.303   4.657  15.743 -0.0875  0.6680 -0.4283
  435MPD2    C4 6485   0.334   4.698  15.615  0.5376 -0.6658  0.7164
  435MPD2    C5 6486   0.256   0.057  15.545  0.2878  0.1581 -0.8007
  435MPD2     H 6487   0.161   4.663  15.894  1.0634  0.6012  0.5274
  435MPD2    H1 6488   0.417   4.660  15.555  0.3428  1.3983 -0.9021
  435MPD2    H2 6489   0.094   0.187  15.544  1.0174  1.7855  1.4082
  435MPD2    H3 6490   0.273   0.078  15.440  1.0275  1.3792 -0.4383
  435MPD2     N 6491   0.371   4.557  15.817  0.1223  0.5017 -0.3883
  435MPD2    H5 6492   0.347   4.543  15.915  0.5125 -0.6060 -0.4526
  435MPD2    N1 6493   4.715   0.130  15.806 -0.4309  0.2332  0.1612
  435MPD2    H7 6494   4.707   0.090  15.899  2.5893  0.8864  0.7109
  436TMC3    C1 6495   4.330   0.350  15.935 -0.2673 -0.2229  0.9257
  436TMC3    C2 6496   4.424   0.338  15.830  0.5555  0.3317 -0.4683
  436TMC3    C3 6497   4.548   0.283  15.863 -0.6272  0.6482  0.0999
  436TMC3    C4 6498   4.372   0.336  16.066 -0.2147 -0.4125 -0.4475
  436TMC3    C5 6499   4.496   0.283  16.098 -0.1826 -0.0309  0.1121
  436TMC3    C6 6500   4.578   0.248  15.996  0.2151 -0.6729 -0.6098
  436TMC3     C 6501   4.192   0.394  15.912  0.3921  0.3114 -0.9676
  436TMC3     O 6502   4.181   0.470  15.811 -0.0030  0.3164 -0.2499
  436TMC3     H 6503   4.392   0.347  15.727  1.3742 -1.3530 -0.8769
  436TMC3    H1 6504   4.313   0.362  16.154 -0.3635 -1.7981 -0.1329
  436TMC3    H2 6505   4.682   0.228  16.020 -0.6689  0.2488  4.0999
  436TMC3    C7 6506   4.531   0.256  16.239 -0.2500 -0.2758 -0.3856
  436TMC3    C8 6507   4.628   0.228  15.756  0.7916  0.0176 -0.3963
  436TMC3    O1 6508   4.651   0.256  16.265 -0.1000 -0.0850  0.2057
  436TMC3    O2 6509   4.627   0.279  15.646  0.5772 -0.3463 -0.4936
  437TMC3    C1 6510   3.231   1.867  12.847  0.4232 -0.2418  0.3555
  437TMC3    C2 6511   3.107   1.847  12.794 -0.5488  0.2596 -0.3244
  437TMC3    C3 6512   3.081   1.899  12.669  1.1301  0.1437 -0.6684
  437TMC3    C4 6513   3.333   1.933  12.783 -0.0802 -0.3545 -0.7880
  437TMC3    C5 6514   3.304   1.969  12.653  0.3952 -0.2767 -0.2786
  437TMC3    C6 6515   3.176   1.967  12.595 -0.4890 -0.5244  0.2190
  437TMC3     C 6516   3.247   1.826  12.988  0.6552  0.4713  0.1846
  437TMC3     O 6517   3.147   1.789  13.053  0.5246 -0.0692  0.1166
  437TMC3     H 6518   3.030   1.790  12.844 -0.9547 -1.3329 -2.7990
  437TMC3    H1 6519   3.422   1.969  12.834 -0.0704 -0.7538 -0.5250
  437TMC3    H2 6520   3.154   2.000  12.495 -0.0589  1.2903  0.7062
  437TMC3    C7 6521   3.405   2.019  12.573  0.4286 -0.3046 -0.8704
  437TMC3    C8 6522   2.941   1.908  12.623  0.1746 -0.0363  0.2693
  437TMC3    O1 6523   3.378   2.100  12.484  0.3524 -0.3395 -0.4244
  437TMC3    O2 6524   2.867   1.832  12.678  0.1774  0.4520 -0.1391
  438MPD2     C 6525   1.026   2.872  16.825  0.2425 -0.5535 -0.3390
  438MPD2    C1 6526   1.134   2.807  16.887 -0.5136  0.3570  0.1962
  438MPD2    C2 6527   1.135   2.781  17.026  0.4084  0.9128 -0.0286
  438MPD2    C3 6528   1.020   2.810  17.100  0.6440 -0.8817 -0.1532
  438MPD2    C4 6529   0.917   2.876  17.039 -0.5392  0.4112  0.2880
  438MPD2    C5 6530   0.923   2.903  16.908  0.2892 -0.1467 -0.3815
  438MPD2     H 6531   1.223   2.734  17.066 -1.0851 -2.1676 -0.3108
  438MPD2    H1 6532   0.834   2.917  17.096 -0.4476  1.3712 -0.2605
  438MPD2    H2 6533   1.011   2.883  16.718  1.7438  1.3188 -0.3677
  438MPD2    H3 6534   0.839   2.945  16.854  0.9871  2.3169  0.4880
  438MPD2     N 6535   1.010   2.771  17.237 -0.4272 -0.0387 -0.1393
  438MPD2    H5 6536   0.918   2.795  17.274 -0.2001  0.6013  0.0102
  438MPD2    N1 6537   1.240   2.752  16.810  0.1315 -0.8116  0.5207
  438MPD2    H7 6538   1.312   2.696  16.855  0.7750 -0.6576 -0.3187
  439TMC3    C1 6539   1.347   2.672  16.636  0.2283 -0.5592 -0.2728
  439TMC3    C2 6540   1.414   2.691  16.522  0.5737  0.7125  0.6758
  439TMC3    C3 6541   1.495   2.597  16.465 -0.8645  0.1219 -0.7267
  439TMC3    C4 6542   1.336   2.546  16.686 -0.6542 -0.7396 -0.6807
  439TMC3    C5 6543   1.400   2.443  16.624  0.0536 -0.3629  0.2661
  439TMC3    C6 6544   1.489   2.469  16.516 -0.0045 -0.2972 -0.7064
  439TMC3     C 6545   1.252   2.762  16.675  0.2162 -0.3971 -0.1492
  439TMC3     O 6546   1.223   2.855  16.599 -0.6655  0.2184  0.5219
  439TMC3     H 6547   1.410   2.789  16.476  0.2287 -0.5328 -1.9627
  439TMC3    H1 6548   1.284   2.526  16.779  1.9131  0.7800  1.0728
  439TMC3    H2 6549   1.542   2.387  16.468 -2.0552 -1.7663 -0.4433
  439TMC3    C7 6550   1.423   2.320  16.695 -0.6464 -0.6679  0.4923
  439TMC3    C8 6551   1.558   2.608  16.331  0.5218 -0.0963 -0.9202
  439TMC3    O1 6552   1.520   2.252  16.654 -0.3371  0.0570  0.6897
  439TMC3    O2 6553   1.594   2.496  16.289  0.6205  0.0003  0.0661
  440MPD2     C 6554   0.060   3.242  14.674 -0.3030  0.4014 -0.2740
  440MPD2    C1 6555   0.103   3.274  14.804 -0.0238  0.4553 -1.0384
  440MPD2    C2 6556   0.231   3.229  14.851 -0.3673  0.3864  0.1950
  440MPD2    C3 6557   0.306   3.151  14.761 -0.4120  0.3131  0.3028
  440MPD2    C4 6558   0.256   3.125  14.635  0.0379 -0.3597 -0.5428
  440MPD2    C5 6559   0.135   3.168  14.587 -0.0983 -0.2311 -0.3564
  440MPD2     H 6560   0.266   3.243  14.952 -1.8206 -0.6663  0.8455
  440MPD2    H1 6561   0.313   3.066  14.564  1.3319 -0.6515  0.7494
  440MPD2    H2 6562   4.683   3.264  14.640 -0.2937 -1.3072 -1.3810
  440MPD2    H3 6563   0.102   3.131  14.491  2.0849  0.9827 -1.5746
  440MPD2     N 6564   0.433   3.100  14.787 -0.3592 -0.0223 -0.4262
  440MPD2    H5 6565   0.482   3.037  14.724  0.3357 -0.1129  0.2096
  440MPD2    N1 6566   0.018   3.329  14.896  0.0033  0.2027  0.6651
  440MPD2    H7 6567   0.056   3.314  14.989  0.9017  0.5629  0.3577
  441TMC3    C1 6568   0.635   3.077  14.891 -0.0517 -0.4168 -0.2034
  441TMC3    C2 6569   0.733   3.154  14.952 -0.2062  1.2491 -0.2198
  441TMC3    C3 6570   0.794   3.090  15.067  0.2569  1.0411 -0.7642
  441TMC3    C4 6571   0.622   2.942  14.918 -0.0273  0.2279  0.6984
  441TMC3    C5 6572   0.688   2.891  15.028  0.1750  0.5275  1.5134
  441TMC3    C6 6573   0.779   2.962  15.097 -0.5049 -0.2108 -0.3386
  441TMC3     C 6574   0.511   3.146  14.884  0.8824  0.1772 -0.8701
  441TMC3     O 6575   0.496   3.241  14.958 -0.8649  0.0677 -0.3505
  441TMC3     H 6576   0.746   3.258  14.921  1.3946  1.2921  0.6002
  441TMC3    H1 6577   0.536   2.884  14.886  0.9032 -0.8669  0.1780
  441TMC3    H2 6578   0.819   2.899  15.175 -1.1719  1.4628  1.3654
  441TMC3    C7 6579   0.612   2.791  15.098 -0.3300 -0.0090 -0.3730
  441TMC3    C8 6580   0.785   3.170  15.186  0.1654  0.7988  0.7930
  441TMC3    O1 6581   0.586   2.826  15.211  0.0932 -0.1598 -0.4686
  441TMC3    O2 6582   0.848   3.142  15.287 -0.1646 -0.1339 -0.1591
  442MPD2     C 6583   2.855   3.971  16.631 -0.3402 -0.1216  0.5639
  442MPD2    C1 6584   2.782   3.884  16.708 -0.3140 -0.4152 -0.4383
  442MPD2    C2 6585   2.794   3.751  16.680  0.0954  0.1010  0.3949
  442MPD2    C3 6586   2.881   3.702  16.582  0.6885  0.0259 -0.2720
  442MPD2    C4 6587   2.956   3.790  16.501 -0.3914  0.3486 -0.0517
  442MPD2    C5 6588   2.950   3.925  16.539 -0.0378  0.1590 -0.0120
  442MPD2     H 6589   2.751   3.679  16.748 -1.6971  0.0227 -0.8039
  442MPD2    H1 6590   3.036   3.771  16.430 -0.8466 -2.3240  0.1427
  442MPD2    H2 6591   2.852   4.077  16.649 -0.9862 -0.3138  1.6482
  442MPD2    H3 6592   3.020   3.993  16.491 -1.1003 -0.1306 -1.9914
  442MPD2     N 6593   2.904   3.564  16.565  1.0979 -0.1460  0.0457
  442MPD2    H5 6594   2.973   3.538  16.495 -0.9466 -1.7813 -1.3393
  442MPD2    N1 6595   2.686   3.946  16.789 -0.6525 -0.8988 -0.1113
  442MPD2    H7 6596   2.687   4.047  16.786 -0.0545 -0.9487 -1.4148
  443TMC3    C1 6597   2.499   3.963  16.944 -0.7533 -0.0694  0.1239
  443TMC3    C2 6598   2.419   4.048  16.863  0.6193  0.0693 -0.4662
  443TMC3    C3 6599   2.286   4.064  16.901 -0.0527  1.3109  0.3694
  443TMC3    C4 6600   2.449   3.902  17.056 -1.2207  0.0203 -0.5813
  443TMC3    C5 6601   2.318   3.931  17.089 -0.1557  0.6961  0.3913
  443TMC3    C6 6602   2.238   4.018  17.023 -0.2938  0.0079 -0.4089
  443TMC3     C 6603   2.602   3.884  16.883 -0.0673 -0.2275 -0.7423
  443TMC3     O 6604   2.585   3.765  16.911  0.1277  0.3816  0.4074
  443TMC3     H 6605   2.466   4.084  16.773  0.4336  0.1517 -0.5295
  443TMC3    H1 6606   2.512   3.840  17.119  0.7822  1.0450 -1.5716
  443TMC3    H2 6607   2.137   4.029  17.059  0.0725  0.6764  0.3942
  443TMC3    C7 6608   2.246   3.830  17.150 -0.0807 -0.5625 -1.0548
  443TMC3    C8 6609   2.187   4.051  16.794 -0.3506 -0.0552  0.0865
  443TMC3    O1 6610   2.306   3.720  17.148 -0.3200  0.0282  0.0629
  443TMC3    O2 6611   2.072   4.066  16.835  0.5594  0.2648  0.0158
  444MPD2     C 6612   3.123   2.784  17.459  0.1154 -0.4971  0.0511
  444MPD2    C1 6613   3.038   2.735  17.363  0.2796  0.2519  0.1865
  444MPD2    C2 6614   3.083   2.700  17.233  0.1210  0.1055 -0.3195
  444MPD2    C3 6615   3.219   2.718  17.202  0.4016 -0.0718  0.2906
  444MPD2    C4 6616   3.302   2.777  17.295  0.1981  0.0233  0.2041
  444MPD2    C5 6617   3.248   2.808  17.422  0.2576 -0.5313 -0.2761
  444MPD2     H 6618   3.020   2.661  17.155 -0.9885  1.4349 -0.0810
  444MPD2    H1 6619   3.405   2.808  17.281 -0.5603  1.5707 -1.8628
  444MPD2    H2 6620   3.093   2.813  17.559 -0.7974 -2.5221  0.3517
  444MPD2    H3 6621   3.318   2.846  17.496 -4.1249  1.5651  2.8099
  444MPD2     N 6622   3.260   2.682  17.069  0.6673 -0.0899 -0.3899
  444MPD2    H5 6623   3.185   2.656  17.006  0.5472 -2.5993  0.7816
  444MPD2    N1 6624   2.897   2.709  17.389 -0.1059  0.1423  0.4551
  444MPD2    H7 6625   2.846   2.680  17.306  2.8430  0.2018 -1.3835
  445TMC3    C1 6626   3.408   2.637  16.887 -0.0293  0.7053  0.0977
  445TMC3    C2 6627   3.297   2.607  16.817  0.2218  0.0814 -0.5692
  445TMC3    C3 6628   3.316   2.562  16.690  0.6600  0.5034  0.5238
  445TMC3    C4 6629   3.534   2.616  16.837  0.0574 -0.2826  0.5773
  445TMC3    C5 6630   3.545   2.593  16.702 -0.2816 -0.1398 -0.3551
  445TMC3    C6 6631   3.434   2.559  16.632 -0.9221  0.2783 -0.2735
  445TMC3     C 6632   3.393   2.687  17.025  0.3544 -0.5721 -1.7608
  445TMC3     O 6633   3.496   2.691  17.094 -0.1951  0.0588  0.5235
  445TMC3     H 6634   3.198   2.643  16.843  0.0431 -0.1935 -0.8650
  445TMC3    H1 6635   3.615   2.638  16.905 -0.7304  0.6329  1.2193
  445TMC3    H2 6636   3.440   2.540  16.526 -1.5591 -0.0546 -0.2509
  445TMC3    C7 6637   3.678   2.566  16.638 -1.6542 -0.6464  0.4758
  445TMC3    C8 6638   3.198   2.546  16.608  0.3895 -1.0071  0.5675
  445TMC3    O1 6639   3.672   2.564  16.517 -0.2201  0.2327 -0.0135
  445TMC3    O2 6640   3.211   2.568  16.486  0.1716  0.5795 -0.1734
  446MPD2     C 6641   2.865   3.935  11.485  0.4763  0.4658 -0.2074
  446MPD2    C1 6642   2.879   3.849  11.374 -0.3875  0.7699 -1.0389
  446MPD2    C2 6643   2.998   3.853  11.297  0.5095 -0.3192 -0.8335
  446MPD2    C3 6644   3.105   3.928  11.340 -0.0496 -0.7994  0.1491
  446MPD2    C4 6645   3.089   4.012  11.453 -0.3880  0.1193 -0.3552
  446MPD2    C5 6646   2.972   4.005  11.525  0.8185  0.6823 -0.2216
  446MPD2     H 6647   3.002   3.802  11.201 -0.1882  1.2933 -1.7103
  446MPD2    H1 6648   3.156   4.092  11.485 -1.2534  0.9419 -0.6146
  446MPD2    H2 6649   2.777   3.938  11.547 -1.0993  1.8423 -2.5128
  446MPD2    H3 6650   2.961   4.064  11.615  1.2168 -0.6380  0.6975
  446MPD2     N 6651   3.225   3.933  11.267 -0.0621 -0.4928  0.1788
  446MPD2    H5 6652   3.231   3.886  11.177  2.2467  0.8046 -0.3575
  446MPD2    N1 6653   2.767   3.778  11.326 -0.6291  0.1629 -0.4815
  446MPD2    H7 6654   2.771   3.744  11.230  2.7914 -0.2271 -0.2064
  447TMC3    C1 6655   3.445   3.969  11.223 -0.5089  0.3183  0.3606
  447TMC3    C2 6656   3.433   3.982  11.089  0.1234  0.4143 -0.0649
  447TMC3    C3 6657   3.545   3.962  11.012 -0.6478 -0.3037 -0.3142
  447TMC3    C4 6658   3.563   3.943  11.286 -0.2611 -0.3924  0.2900
  447TMC3    C5 6659   3.675   3.937  11.204 -0.6037  0.1479 -0.2867
  447TMC3    C6 6660   3.663   3.940  11.072  0.2996 -0.4677  0.2874
  447TMC3     C 6661   3.339   3.986  11.317 -0.6303 -0.9346 -0.6533
  447TMC3     O 6662   3.360   4.037  11.426  0.5815  0.3971  0.1520
  447TMC3     H 6663   3.340   3.993  11.034  0.3898 -1.3208 -0.8222
  447TMC3    H1 6664   3.570   3.907  11.388 -1.2217 -0.1286  0.4511
  447TMC3    H2 6665   3.751   3.949  11.008  0.2914  0.2742  0.3745
  447TMC3    C7 6666   3.795   3.880  11.264  0.0316 -0.2711  0.0054
  447TMC3    C8 6667   3.535   3.936  10.870 -0.0682 -0.0301 -0.2916
  447TMC3    O1 6668   3.873   3.836  11.185 -0.0547 -0.2587 -0.1286
  447TMC3    O2 6669   3.443   3.992  10.811  0.5367 -0.2255  0.0613
  448TMC3    C1 6670   1.184   4.360  16.924  0.0244 -0.1025 -0.3014
  448TMC3    C2 6671   1.203   4.238  16.875  0.6074 -0.2341  0.9246
  448TMC3    C3 6672   1.180   4.124  16.936 -0.4741  0.1067  0.0748
  448TMC3    C4 6673   1.151   4.370  17.058  0.2069 -1.1757 -0.2218
  448TMC3    C5 6674   1.140   4.251  17.131 -0.0762  0.0863  0.4314
  448TMC3    C6 6675   1.154   4.124  17.070  0.3848  0.8217  0.7650
  448TMC3     C 6676   1.250   4.472  16.849 -0.1181 -0.1816 -0.3440
  448TMC3     O 6677   1.327   4.436  16.759 -0.1618  0.2427  0.0076
  448TMC3     H 6678   1.245   4.235  16.775  0.5172  3.8333  0.7722
  448TMC3    H1 6679   1.126   4.465  17.104  0.8005 -0.6919 -0.8989
  448TMC3    H2 6680   1.138   4.029  17.121 -2.5337  1.2700  0.7186
  448TMC3    C7 6681   1.147   4.270  17.276  0.3276 -0.5614  1.1093
  448TMC3    C8 6682   1.236   4.001  16.884 -0.2725  0.0330 -0.1703
  448TMC3    O1 6683   1.150   4.383  17.320 -0.0966  0.1998 -0.0792
  448TMC3    O2 6684   1.292   3.928  16.965  0.2661  0.3648  0.3397
  449MPD2     C 6685   2.812   2.112  14.605  0.4181  0.3526 -0.0847
  449MPD2    C1 6686   2.718   2.179  14.529 -0.3026  0.2898  0.5261
  449MPD2    C2 6687   2.609   2.110  14.493  0.4481  0.3634  0.0946
  449MPD2    C3 6688   2.599   1.976  14.520 -0.2887  0.1643 -0.2189
  449MPD2    C4 6689   2.701   1.912  14.586  0.0427 -0.4258  0.0821
  449MPD2    C5 6690   2.801   1.984  14.643  0.6971  0.1735  0.0182
  449MPD2     H 6691   2.534   2.164  14.436  0.0994  0.8743  1.0276
  449MPD2    H1 6692   2.700   1.804  14.598 -1.6661 -0.4160 -0.0328
  449MPD2    H2 6693   2.907   2.157  14.629  1.6765 -2.1977 -0.2663
  449MPD2    H3 6694   2.873   1.931  14.703  0.7319 -0.4635 -0.5824
  449MPD2     N 6695   2.487   1.913  14.463 -0.2190 -0.2152 -0.1204
  449MPD2    H5 6696   2.429   1.972  14.405 -0.4395 -0.2749  0.0396
  449MPD2    N1 6697   2.736   2.304  14.467 -0.0661  0.1879  0.0231
  449MPD2    H7 6698   2.658   2.326  14.405  0.4946 -0.4846 -0.9344
  450TMC3    C1 6699   2.822   2.487  14.363  0.0213  0.8207  0.3807
  450TMC3    C2 6700   2.880   2.449  14.242 -0.4638 -0.1284  0.1317
  450TMC3    C3 6701   2.805   2.460  14.126 -0.6959  0.0379  0.3899
  450TMC3    C4 6702   2.689   2.534  14.360 -0.2627  0.1670 -1.0011
  450TMC3    C5 6703   2.616   2.547  14.245 -0.1851  0.6426  0.1753
  450TMC3    C6 6704   2.674   2.507  14.130  0.2678 -0.8213 -0.1787
  450TMC3     C 6705   2.846   2.380  14.457  0.3539  0.2851  0.2039
  450TMC3     O 6706   2.960   2.340  14.482 -0.0184 -0.3652  0.1436
  450TMC3     H 6707   2.981   2.412  14.227 -0.6417 -0.3327 -0.5609
  450TMC3    H1 6708   2.643   2.572  14.450 -2.5120 -0.9790 -1.6812
  450TMC3    H2 6709   2.613   2.522  14.042  0.8517  2.7829  0.0040
  450TMC3    C7 6710   2.497   2.470  14.261 -0.1815 -0.5383  0.0936
  450TMC3    C8 6711   2.858   2.399  14.003  0.2742  0.1025  0.8771
  450TMC3    O1 6712   2.505   2.367  14.324  0.4586 -0.4944 -0.5527
  450TMC3    O2 6713   2.977   2.364  14.010  0.0216 -0.4898  0.3642
  451MPD2     C 6714   3.497   1.088   1.124 -0.4278  0.3580 -0.0503
  451MPD2    C1 6715   3.604   1.101   1.205  0.4754 -0.5082 -0.4168
  451MPD2    C2 6716   3.695   0.993   1.211  0.6446  0.0695 -0.2395
  451MPD2    C3 6717   3.676   0.871   1.140 -0.2973 -0.0046  0.7924
  451MPD2    C4 6718   3.564   0.863   1.068  0.4707 -0.4867  0.2440
  451MPD2    C5 6719   3.473   0.968   1.057  0.1277 -0.4667  0.1436
  451MPD2     H 6720   3.791   0.997   1.262 -0.2161 -1.0750  1.4894
  451MPD2    H1 6721   3.540   0.774   1.012 -0.1828  0.8053 -1.5496
  451MPD2    H2 6722   3.421   1.165   1.122 -0.1647  0.5917 -0.9733
  451MPD2    H3 6723   3.390   0.962   0.988  1.0349  0.8613 -1.0650
  451MPD2     N 6724   3.759   0.754   1.149 -0.3393 -0.3930 -0.3067
  451MPD2    H5 6725   3.720   0.675   1.098 -2.2838  0.1098  0.3979
  451MPD2    N1 6726   3.627   1.228   1.266  0.7647  0.0368 -0.2749
  451MPD2    H7 6727   3.550   1.293   1.251 -0.1975 -0.5483  2.0220
  452TMC3    C1 6728   3.956   0.620   1.162 -0.0519  0.0849  0.0949
  452TMC3    C2 6729   4.074   0.597   1.232  0.5878  0.6904 -0.1759
  452TMC3    C3 6730   4.166   0.521   1.166  0.1094 -0.0584 -0.0097
  452TMC3    C4 6731   3.921   0.566   1.040 -0.4718 -0.4778 -0.7605
  452TMC3    C5 6732   4.023   0.503   0.983 -0.1718 -0.0369  0.4422
  452TMC3    C6 6733   4.144   0.479   1.042  0.3660 -0.1737 -0.6289
  452TMC3     C 6734   3.886   0.742   1.198 -0.1178 -0.4516  0.3534
  452TMC3     O 6735   3.957   0.830   1.246 -0.3274  0.0077  0.1827
  452TMC3     H 6736   4.095   0.650   1.324 -0.7598 -2.1084  1.7690
  452TMC3    H1 6737   3.836   0.600   0.982  0.1540 -2.7082 -2.9885
  452TMC3    H2 6738   4.216   0.423   0.984  1.6692  1.8076 -0.9015
  452TMC3    C7 6739   4.033   0.469   0.842 -1.0019  0.3202  0.4855
  452TMC3    C8 6740   4.249   0.436   1.251  0.5757  0.5217  0.7441
  452TMC3    O1 6741   4.140   0.484   0.784  0.6392 -0.7451 -0.1188
  452TMC3    O2 6742   4.332   0.372   1.191 -0.2849 -0.0103 -0.3280
  453TMC3    C1 6743   0.493   2.687  11.637  0.4528  0.0313 -0.1227
  453TMC3    C2 6744   0.383   2.625  11.695  0.1742  0.1236 -0.0263
  453TMC3    C3 6745   0.355   2.496  11.655 -0.1887  0.9408  0.4473
  453TMC3    C4 6746   0.578   2.628  11.546  0.1528 -0.5855  0.2319
  453TMC3    C5 6747   0.547   2.502  11.508 -0.2488  0.1157  0.7361
  453TMC3    C6 6748   0.435   2.433  11.557 -0.4110  0.7741 -0.1561
  453TMC3     C 6749   0.535   2.819  11.683 -0.4620  0.2666  1.1820
  453TMC3     O 6750   0.644   2.854  11.643  0.1800  0.0459  0.4635
  453TMC3     H 6751   0.319   2.671  11.770 -2.1390  0.6379 -2.3365
  453TMC3    H1 6752   0.663   2.676  11.500  0.7389 -0.2578  1.6557
  453TMC3    H2 6753   0.395   2.337  11.525  1.4923  0.0227 -0.2823
  453TMC3    C7 6754   0.622   2.437  11.403 -0.3389 -0.5334  0.4138
  453TMC3    C8 6755   0.236   2.431  11.712 -0.4098  0.3431 -0.7351
  453TMC3    O1 6756   0.712   2.507  11.361 -0.5378 -0.1265  0.1412
  453TMC3    O2 6757   0.167   2.495  11.794  0.0090  0.3306 -0.5641
  454MPD2     C 6758   3.975   2.779  15.755  0.0525 -0.8795 -0.0267
  454MPD2    C1 6759   3.885   2.880  15.781 -0.5643 -0.0810 -0.0196
  454MPD2    C2 6760   3.837   2.910  15.905 -0.1170 -0.4915  0.6594
  454MPD2    C3 6761   3.868   2.818  16.004  0.0414  0.0671 -0.1362
  454MPD2    C4 6762   3.948   2.710  15.980  0.2209 -1.1677  0.5733
  454MPD2    C5 6763   4.004   2.687  15.855 -0.1656  0.2732  0.4126
  454MPD2     H 6764   3.767   2.992  15.916 -0.7298 -0.8055 -0.9256
  454MPD2    H1 6765   3.968   2.638  16.058  0.7715 -0.6521  0.9066
  454MPD2    H2 6766   4.001   2.770  15.650 -0.0836 -0.7137 -0.0743
  454MPD2    H3 6767   4.052   2.591  15.841  0.8124  0.9429 -0.8694
  454MPD2     N 6768   3.791   2.825  16.124  0.5322 -0.1184  0.3175
  454MPD2    H5 6769   3.791   2.738  16.177 -0.0480 -0.4891 -0.2853
  454MPD2    N1 6770   3.821   2.948  15.671 -0.0731  0.6106  0.5476
  454MPD2    H7 6771   3.861   2.926  15.580 -1.9001  0.2173 -0.1509
  455TMC3    C1 6772   3.577   2.859  16.193 -0.1924 -0.0579 -0.3432
  455TMC3    C2 6773   3.495   2.930  16.276  0.4931 -0.1916  0.4996
  455TMC3    C3 6774   3.379   2.870  16.314  0.4838 -0.0812  0.5488
  455TMC3    C4 6775   3.553   2.732  16.144  0.0939  0.0360  0.8356
  455TMC3    C5 6776   3.432   2.681  16.191  0.6490 -0.3468 -0.6420
  455TMC3    C6 6777   3.350   2.743  16.272 -0.0801 -0.2062  0.1515
  455TMC3     C 6778   3.700   2.921  16.156 -0.2683 -0.0670  0.1826
  455TMC3     O 6779   3.713   3.040  16.153  0.3792  0.0413 -0.3902
  455TMC3     H 6780   3.510   3.038  16.272 -0.0055 -0.0829  1.8218
  455TMC3    H1 6781   3.621   2.670  16.087 -0.8354  0.3293 -0.6047
  455TMC3    H2 6782   3.263   2.690  16.309  0.5436 -0.3858  1.3737
  455TMC3    C7 6783   3.406   2.543  16.154 -0.0877  0.7386  0.3773
  455TMC3    C8 6784   3.313   2.929  16.430  0.3098 -0.1458  0.3709
  455TMC3    O1 6785   3.463   2.501  16.056  0.1431  0.1009  0.2428
  455TMC3    O2 6786   3.384   3.000  16.499 -0.2712 -0.6432 -0.1392
  456MPD2     C 6787   1.928   2.854  16.250 -0.3761 -0.5910  0.1725
  456MPD2    C1 6788   1.886   2.774  16.359  0.4284  0.1363 -0.1702
  456MPD2    C2 6789   1.826   2.836  16.465  1.1090 -0.4509 -0.5280
  456MPD2    C3 6790   1.802   2.974  16.469  0.1485  0.2477 -0.0254
  456MPD2    C4 6791   1.834   3.046  16.355  0.2985 -0.8259  0.0008
  456MPD2    C5 6792   1.893   2.982  16.248 -0.4542 -0.1658 -0.7534
  456MPD2     H 6793   1.801   2.773  16.549  1.0119 -0.2744 -0.4230
  456MPD2    H1 6794   1.842   3.155  16.355  2.4235 -0.9692  0.3857
  456MPD2    H2 6795   1.972   2.809  16.162 -0.7078 -0.8470  0.1388
  456MPD2    H3 6796   1.925   3.047  16.167  2.2719  0.6102  0.9481
  456MPD2     N 6797   1.721   3.023  16.578  0.3512  0.0493  0.4016
  456MPD2    H5 6798   1.701   2.957  16.653  0.5981 -0.7210 -0.2145
  456MPD2    N1 6799   1.928   2.644  16.359  0.0077 -0.0869 -0.3511
  456MPD2    H7 6800   1.979   2.611  16.277  0.1237  2.1407 -1.1549
  457TMC3    C1 6801   1.616   3.196  16.709 -1.1366  0.1041 -0.4239
  457TMC3    C2 6802   1.537   3.302  16.693  0.5189 -0.0961 -0.2702
  457TMC3    C3 6803   1.518   3.380  16.806  0.1492  0.4513 -0.1301
  457TMC3    C4 6804   1.656   3.147  16.830  0.1291  0.0319 -0.2355
  457TMC3    C5 6805   1.623   3.224  16.943 -0.6218  1.2503  0.3579
  457TMC3    C6 6806   1.551   3.340  16.930  0.5688 -0.2121  0.3336
  457TMC3     C 6807   1.683   3.154  16.584  0.4545  0.1949 -0.3769
  457TMC3     O 6808   1.665   3.233  16.494 -0.0526 -0.1274 -0.3745
  457TMC3     H 6809   1.507   3.336  16.595 -3.6936 -0.5039  0.8973
  457TMC3    H1 6810   1.713   3.056  16.843  1.8152  0.9740 -1.0882
  457TMC3    H2 6811   1.521   3.404  17.012 -0.1397 -0.7379  0.4772
  457TMC3    C7 6812   1.665   3.177  17.068 -0.1126 -0.2539 -0.1054
  457TMC3    C8 6813   1.424   3.493  16.797 -0.2034  0.3343  0.6980
  457TMC3    O1 6814   1.671   3.055  17.085 -0.3511  0.7530  0.0869
  457TMC3    O2 6815   1.415   3.557  16.901 -0.2632 -0.3467 -0.4850
  458MPD2     C 6816   3.874   2.078  12.387 -0.0254 -0.3665  0.3973
  458MPD2    C1 6817   3.884   2.039  12.519 -0.2509  0.2236  0.1044
  458MPD2    C2 6818   3.767   2.009  12.586  0.9012  0.0504 -0.5187
  458MPD2    C3 6819   3.647   2.020  12.532 -0.3636  0.6430 -1.1246
  458MPD2    C4 6820   3.642   2.064  12.403  0.0840  0.4422  0.4221
  458MPD2    C5 6821   3.753   2.096  12.324  0.1556  0.3513 -0.4778
  458MPD2     H 6822   3.762   1.973  12.689 -1.3767  1.4562 -0.1348
  458MPD2    H1 6823   3.545   2.057  12.356  0.9468  1.9000 -1.6020
  458MPD2    H2 6824   3.967   2.098  12.336  0.6327 -2.5729  0.7533
  458MPD2    H3 6825   3.737   2.134  12.223  3.0571  1.8897 -0.3541
  458MPD2     N 6826   3.533   1.985  12.610 -0.0411  0.0463 -0.1325
  458MPD2    H5 6827   3.551   1.920  12.685 -1.3312 -1.6047 -1.2604
  458MPD2    N1 6828   4.015   2.015  12.572 -0.3378 -0.3839  0.7071
  458MPD2    H7 6829   4.090   2.036  12.508 -0.8223  0.3118  0.3706
  459TMC3    C1 6830   4.189   1.970  12.729 -0.0010  0.8042 -0.3643
  459TMC3    C2 6831   4.266   2.075  12.674 -0.5642 -0.1783  0.4608
  459TMC3    C3 6832   4.389   2.101  12.733  0.2761  0.1505  0.1080
  459TMC3    C4 6833   4.236   1.897  12.838  0.1095  0.4466  0.1305
  459TMC3    C5 6834   4.351   1.944  12.896 -0.0003  0.2796 -0.3663
  459TMC3    C6 6835   4.436   2.043  12.847 -0.1835  0.1057  0.7343
  459TMC3     C 6836   4.051   1.950  12.687  0.7754  0.2274 -0.3763
  459TMC3     O 6837   3.972   1.903  12.771 -0.3846  0.1456  0.4916
  459TMC3     H 6838   4.223   2.144  12.603  0.5405  0.5916  0.5397
  459TMC3    H1 6839   4.187   1.811  12.881 -0.9828 -0.4746 -2.9122
  459TMC3    H2 6840   4.537   2.065  12.880  0.5313 -0.3711 -1.1543
  459TMC3    C7 6841   4.394   1.872  13.021  0.1559 -0.0659 -0.6319
  459TMC3    C8 6842   4.487   2.178  12.655 -0.1107 -0.0589  0.2533
  459TMC3    O1 6843   4.344   1.762  13.048 -0.6986 -0.2926 -0.3036
  459TMC3    O2 6844   4.587   2.222  12.705 -0.2924  0.2379 -0.4952
  460MPD2     C 6845   3.710   3.667  10.670 -0.3337 -0.6216 -0.4357
  460MPD2    C1 6846   3.616   3.762  10.699  0.1887  0.3936  0.8589
  460MPD2    C2 6847   3.517   3.787  10.610  0.3007  0.0144  0.0260
  460MPD2    C3 6848   3.509   3.714  10.492  0.2710  0.0772  1.3159
  460MPD2    C4 6849   3.602   3.612  10.473 -0.9023  0.1401  0.3770
  460MPD2    C5 6850   3.702   3.585  10.566 -0.1997 -0.0398 -0.4892
  460MPD2     H 6851   3.438   3.860  10.628  1.1596  1.8440 -3.4865
  460MPD2    H1 6852   3.609   3.549  10.385  2.1530  0.2027  0.5541
  460MPD2    H2 6853   3.789   3.640  10.740 -0.2693  1.5357  0.3285
  460MPD2    H3 6854   3.761   3.494  10.559 -1.5805 -1.0774  1.4726
  460MPD2     N 6855   3.423   3.766  10.394 -0.1396  0.3209  0.8804
  460MPD2    H5 6856   3.376   3.855  10.411  2.3078  1.8479 -0.4511
  460MPD2    N1 6857   3.619   3.833  10.825  0.8015 -0.0032 -0.0483
  460MPD2    H7 6858   3.696   3.801  10.883  0.0808 -0.3828  0.6867
  461TMC3    C1 6859   3.333   3.781  10.159 -0.4262  0.0580 -0.2499
  461TMC3    C2 6860   3.282   3.703  10.057  0.5136 -0.2582  0.2036
  461TMC3    C3 6861   3.197   3.769   9.975 -0.6175  0.3171  0.3534
  461TMC3    C4 6862   3.315   3.912  10.170 -0.0034 -0.3367 -0.2153
  461TMC3    C5 6863   3.234   3.969  10.079  0.0507 -0.4426  0.4276
  461TMC3    C6 6864   3.184   3.903   9.971  0.4264 -0.3022  0.1157
  461TMC3     C 6865   3.410   3.709  10.265  0.1559  0.1799 -0.4307
  461TMC3     O 6866   3.466   3.606  10.236 -0.1016  0.4891 -0.3802
  461TMC3     H 6867   3.296   3.596  10.048  1.1311 -0.2737  1.2382
  461TMC3    H1 6868   3.363   3.960  10.254  0.9116 -1.5144 -0.0679
  461TMC3    H2 6869   3.117   3.953   9.901  0.2350  0.5835  0.9306
  461TMC3    C7 6870   3.179   4.099  10.107 -0.4137  0.2790  0.2866
  461TMC3    C8 6871   3.132   3.690   9.873  1.0499  0.6158 -0.2151
  461TMC3    O1 6872   3.144   4.155  10.007  0.3300 -0.1382 -0.1635
  461TMC3    O2 6873   3.191   3.594   9.826  0.4247 -0.3513  0.4157
  462TMC3    C1 6874   3.121   0.400  17.662 -0.6507 -1.0210 -0.2079
  462TMC3    C2 6875   3.056   0.364  17.545 -0.6952  0.7185 -0.4458
  462TMC3    C3 6876   3.077   0.246  17.486 -0.9738 -0.2829 -0.0837
  462TMC3    C4 6877   3.213   0.321   0.026 -0.1205  0.2533 -0.2946
  462TMC3    C5 6878   3.217   0.192  17.665  0.7803 -0.6900 -0.0123
  462TMC3    C6 6879   3.144   0.150  17.549 -0.2940 -0.0877  0.5311
  462TMC3     C 6880   3.128   0.539   0.011  0.2582 -0.5415  0.3986
  462TMC3     O 6881   3.213   0.562   0.095 -0.4621 -0.2611  0.3967
  462TMC3     H 6882   3.007   0.441  17.487 -0.6773  1.2010  0.1763
  462TMC3    H1 6883   3.260   0.332   0.124 -0.1094 -2.2514 -0.0109
  462TMC3    H2 6884   3.150   0.049  17.509  0.5318  0.1604  0.0377
  462TMC3    C7 6885   3.255   0.078   0.055  0.1404 -0.0609 -0.0498
  462TMC3    C8 6886   3.025   0.222  17.352  0.2639 -0.6270 -0.8937
  462TMC3    O1 6887   3.226   4.689   0.015 -0.0912  0.6735  0.5695
  462TMC3    O2 6888   2.934   0.293  17.311 -0.4738 -1.3564  0.0753
  463MPD2     C 6889   3.662   4.445   1.922  0.1617 -0.2431 -0.0864
  463MPD2    C1 6890   3.628   4.398   1.793 -0.2936  0.3593 -0.7703
  463MPD2    C2 6891   3.631   4.488   1.690 -0.3191  0.6705  0.2931
  463MPD2    C3 6892   3.675   4.615   1.702  0.0842  1.0796 -0.6763
  463MPD2    C4 6893   3.712   4.658   1.829  0.4065  0.2786 -0.2703
  463MPD2    C5 6894   3.715   4.571   1.934  0.0089 -0.0211 -0.9885
  463MPD2     H 6895   3.591   4.467   1.591  1.5223  0.8641 -0.4979
  463MPD2    H1 6896   3.752   0.032   1.855  0.8387  0.1936 -0.6235
  463MPD2    H2 6897   3.673   4.392   2.016 -0.6010 -0.3917 -0.0786
  463MPD2    H3 6898   3.746   4.604   2.033  0.8108 -2.3165 -0.4714
  463MPD2     N 6899   3.695   4.714   1.599  0.4330  0.1575  0.1008
  463MPD2    H5 6900   3.729   0.085   1.616  0.6518  1.0619 -5.2416
  463MPD2    N1 6901   3.586   4.264   1.773 -0.5360 -0.5116  0.5677
  463MPD2    H7 6902   3.559   4.226   1.683 -0.8055  0.3251  0.2941
  464TMC3    C1 6903   3.551   4.035   1.810  0.0286 -0.3823  1.0680
  464TMC3    C2 6904   3.456   4.038   1.715 -0.0160 -0.4605 -0.1617
  464TMC3    C3 6905   3.432   3.923   1.641 -0.0349 -0.0326 -0.1512
  464TMC3    C4 6906   3.619   3.916   1.836 -0.2863  0.5466 -0.5022
  464TMC3    C5 6907   3.600   3.810   1.754  0.5764 -0.1120 -0.8698
  464TMC3    C6 6908   3.501   3.802   1.665  0.5961 -0.6283 -0.4371
  464TMC3     C 6909   3.598   4.162   1.871 -0.1275  0.5307 -0.6118
  464TMC3     O 6910   3.656   4.159   1.981  0.5215  0.3719  0.1506
  464TMC3     H 6911   3.398   4.126   1.693 -0.4855 -1.0523 -1.3127
  464TMC3    H1 6912   3.695   3.908   1.912 -1.3454  3.1547  0.8607
  464TMC3    H2 6913   3.477   3.709   1.613  1.7251 -1.1284 -0.0756
  464TMC3    C7 6914   3.665   3.688   1.790 -0.2342  0.1817  0.4266
  464TMC3    C8 6915   3.298   3.901   1.592 -0.8360  0.1219  0.5275
  464TMC3    O1 6916   3.703   3.687   1.906  0.7920  0.1651 -0.4219
  464TMC3    O2 6917   3.286   3.807   1.511  0.2316  0.9161  1.1801
  465MPD2     C 6918   0.893   2.563  16.659  0.3340  0.1810  0.3051
  465MPD2    C1 6919   0.832   2.567  16.780  0.6072  0.3543 -0.3040
  465MPD2    C2 6920   0.707   2.625  16.788  0.0111 -0.2343 -0.1507
  465MPD2    C3 6921   0.635   2.656  16.674  0.5559  0.2507  0.7838
  465MPD2    C4 6922   0.692   2.635  16.546 -1.1784  0.2738  0.5091
  465MPD2    C5 6923   0.828   2.601  16.547  0.4457 -0.2562  0.1807
  465MPD2     H 6924   0.668   2.647  16.887  0.3235  0.1498 -0.1131
  465MPD2    H1 6925   0.645   2.660  16.451  0.1353 -1.6048 -0.6252
  465MPD2    H2 6926   0.988   2.515  16.641  0.4255 -0.0533  1.4502
  465MPD2    H3 6927   0.880   2.589  16.453  1.7971 -1.0635  1.0446
  465MPD2     N 6928   0.504   2.696  16.694  0.0849 -0.3176  1.0009
  465MPD2    H5 6929   0.477   2.679  16.791 -3.4451  0.7313  0.1955
  465MPD2    N1 6930   0.889   2.534  16.903  0.3561  0.1004 -0.7250
  465MPD2    H7 6931   0.845   2.564  16.989  1.0041  1.6013 -0.9146
  466TMC3    C1 6932   0.112   2.759  16.772 -0.6873  0.8207  0.4345
  466TMC3    C2 6933   0.052   2.860  16.706 -0.3537  0.7863  0.8561
  466TMC3    C3 6934   0.119   2.924  16.606 -0.3346  0.1248  0.1125
  466TMC3    C4 6935   0.230   2.713  16.732  0.7995  0.5731  0.3439
  466TMC3    C5 6936   0.296   2.775  16.627 -0.5074 -0.4349  0.7412
  466TMC3    C6 6937   0.242   2.882  16.560  0.2044 -0.7724 -0.3429
  466TMC3     C 6938   0.091   2.752  16.917 -0.3075 -0.2737 -0.0771
  466TMC3     O 6939   0.170   2.697  16.997 -0.3698  0.3349  0.5718
  466TMC3     H 6940   4.680   2.900  16.739 -0.8142  0.4177 -0.0194
  466TMC3    H1 6941   0.272   2.633  16.792 -0.5075 -0.0146  0.4746
  466TMC3    H2 6942   0.292   2.942  16.485  0.3292 -2.2069 -1.4106
  466TMC3    C7 6943   0.425   2.737  16.590 -0.3675  0.1758 -0.3799
  466TMC3    C8 6944   0.108   3.071  16.615  0.1434 -1.1004  0.6684
  466TMC3    O1 6945   0.451   2.797  16.485 -0.8400  0.0921  0.0274
  466TMC3    O2 6946   0.038   3.124  16.703 -0.4523 -0.4592 -0.3410
  467TMC3    C1 6947   1.566   1.343  13.830  0.4122  0.0398  0.2111
  467TMC3    C2 6948   1.487   1.372  13.725 -0.3907  0.5572  0.8048
  467TMC3    C3 6949   1.353   1.345  13.743 -0.6940  0.2719  0.0554
  467TMC3    C4 6950   1.516   1.274  13.932 -0.2463  0.0119  0.0206
  467TMC3    C5 6951   1.384   1.227  13.940 -0.5252 -0.2154  0.2918
  467TMC3    C6 6952   1.294   1.263  13.842  0.1161  0.1199  0.1619
  467TMC3     C 6953   1.709   1.371  13.826  0.0175  0.5957  0.9524
  467TMC3     O 6954   1.783   1.313  13.905 -0.0798  0.7166 -0.6449
  467TMC3     H 6955   1.523   1.426  13.638 -2.1283  0.8399  0.2675
  467TMC3    H1 6956   1.594   1.262  14.007  0.6836 -1.4741 -1.1571
  467TMC3    H2 6957   1.187   1.255  13.859 -0.4408 -0.1613 -3.4545
  467TMC3    C7 6958   1.337   1.230  14.079 -1.0600 -0.4935 -0.2404
  467TMC3    C8 6959   1.265   1.371  13.631  1.0431  0.1721 -0.0784
  467TMC3    O1 6960   1.408   1.302  14.151  1.5716 -0.3378  0.2575
  467TMC3    O2 6961   1.165   1.306  13.612  0.0157  0.4697  0.8512
  468MPD2     C 6962   0.306   3.871  10.707  0.3315 -0.6148 -1.0247
  468MPD2    C1 6963   0.429   3.895  10.762 -0.1386  0.2250 -0.3427
  468MPD2    C2 6964   0.470   3.813  10.867 -0.1331 -0.6413 -0.2193
  468MPD2    C3 6965   0.387   3.720  10.926 -0.3135  0.3926  0.3255
  468MPD2    C4 6966   0.263   3.697  10.868  0.3439  0.0559 -0.3072
  468MPD2    C5 6967   0.220   3.774  10.760 -0.0949 -0.6942 -0.4015
  468MPD2     H 6968   0.572   3.830  10.898 -0.0242 -2.6623  0.5532
  468MPD2    H1 6969   0.197   3.623  10.912 -0.7818  1.0257 -0.3765
  468MPD2    H2 6970   0.261   3.920  10.622  0.5672 -0.3485 -0.9939
  468MPD2    H3 6971   0.121   3.767  10.714 -1.5499  0.6188  2.5369
  468MPD2     N 6972   0.426   3.644  11.038  1.2098  0.4341  0.4189
  468MPD2    H5 6973   0.349   3.590  11.078  0.3357  0.8621 -0.6942
  468MPD2    N1 6974   0.508   4.008  10.731  0.2076 -0.1450  0.4665
  468MPD2    H7 6975   0.586   4.017  10.795  0.5056  0.6998 -0.0161
  469TMC3    C1 6976   0.537   4.236  10.658 -0.4808  0.1033  0.4232
  469TMC3    C2 6977   0.667   4.239  10.709 -0.2641  0.2128 -0.2331
  469TMC3    C3 6978   0.725   4.362  10.735  0.3541  0.7069 -0.6634
  469TMC3    C4 6979   0.469   4.353  10.631 -0.1278 -0.1853 -0.4501
  469TMC3    C5 6980   0.521   4.467  10.665  0.2583  0.1311 -0.2539
  469TMC3    C6 6981   0.647   4.475  10.714 -0.6590  0.0326  0.2419
  469TMC3     C 6982   0.470   4.106  10.646 -1.2118  0.0830  0.5622
  469TMC3     O 6983   0.370   4.120  10.576  0.0405  0.0250  1.3675
  469TMC3     H 6984   0.723   4.149  10.731  1.5440  1.9413  2.3569
  469TMC3    H1 6985   0.372   4.351  10.582 -1.7906  1.5478  2.7562
  469TMC3    H2 6986   0.695   4.572  10.723  0.8708 -0.8619  1.7196
  469TMC3    C7 6987   0.432   4.543  10.753 -0.1145 -0.5971  0.2099
  469TMC3    C8 6988   0.791   4.373  10.858  0.5366 -0.2707  0.4926
  469TMC3    O1 6989   0.317   4.565  10.710  0.3813 -0.1749  0.4726
  469TMC3    O2 6990   0.757   4.469  10.927 -0.6539 -0.0105  0.1059
  470TMC3    C1 6991   2.736   0.345   0.641  0.4196  0.2962 -0.6665
  470TMC3    C2 6992   2.750   0.470   0.695 -0.4915  0.1838 -0.4409
  470TMC3    C3 6993   2.850   0.496   0.780  0.5163  0.1986 -0.6463
  470TMC3    C4 6994   2.822   0.239   0.660 -0.5718  0.6568  0.8969
  470TMC3    C5 6995   2.924   0.272   0.745  0.4307 -0.3730 -0.1187
  470TMC3    C6 6996   2.939   0.392   0.810  0.8010  0.2232  0.2056
  470TMC3     C 6997   2.621   0.334   0.558 -0.0234  0.1488 -0.1238
  470TMC3     O 6998   2.571   0.436   0.507  0.0289 -0.0051 -0.3815
  470TMC3     H 6999   2.674   0.547   0.683  1.4551  1.9553 -1.5707
  470TMC3    H1 7000   2.821   0.152   0.597  3.1043  1.1004  0.1986
  470TMC3    H2 7001   3.025   0.398   0.876  0.4422 -4.2752  1.0534
  470TMC3    C7 7002   2.983   0.158   0.813 -0.1881  0.7229 -0.7724
  470TMC3    C8 7003   2.838   0.619   0.868  0.1200 -1.0294 -0.8787
  470TMC3    O1 7004   3.099   0.178   0.844  0.1614  0.0156  0.3303
  470TMC3    O2 7005   2.779   0.715   0.829 -0.4770 -0.3283  0.4245
  471MPD2     C 7006   3.365   1.952  17.119  0.5215 -1.0727 -0.7489
  471MPD2    C1 7007   3.300   1.841  17.167 -0.4512 -0.1268 -0.2651
  471MPD2    C2 7008   3.376   1.749  17.237 -0.0231  0.2031  0.1955
  471MPD2    C3 7009   3.506   1.765  17.262  0.2464 -0.8900  0.5994
  471MPD2    C4 7010   3.578   1.867  17.208 -0.8387  0.5074  0.1536
  471MPD2    C5 7011   3.505   1.964  17.148 -0.0906 -0.5226 -0.4307
  471MPD2     H 7012   3.316   1.667  17.277  1.3083 -0.4470  0.8525
  471MPD2    H1 7013   3.685   1.878  17.223 -0.5539 -1.5291 -0.4748
  471MPD2    H2 7014   3.313   2.038  17.080 -1.3220 -0.5524  2.9155
  471MPD2    H3 7015   3.552   2.053  17.107  0.3864  0.4774  2.2746
  471MPD2     N 7016   3.587   1.679  17.337  0.1832 -0.3850  0.1564
  471MPD2    H5 7017   3.686   1.689  17.320  0.0664 -0.7885 -0.7531
  471MPD2    N1 7018   3.163   1.825  17.164 -0.3668  0.2984  0.0445
  471MPD2    H7 7019   3.115   1.744  17.201 -1.0231 -0.0568 -1.5923
  472TMC3    C1 7020   2.943   1.866  17.093 -0.4000 -0.4862  0.3347
  472TMC3    C2 7021   2.880   1.890  16.973 -0.1798  0.0656 -0.0383
  472TMC3    C3 7022   2.757   1.827  16.948 -0.3361  0.3933 -1.0045
  472TMC3    C4 7023   2.894   1.767  17.185  0.3328  0.6128 -0.1266
  472TMC3    C5 7024   2.786   1.693  17.144  0.4489 -0.0750 -0.6278
  472TMC3    C6 7025   2.705   1.730  17.031  0.2372 -0.2558  0.0879
  472TMC3     C 7026   3.080   1.915  17.098 -0.6536  0.0522 -0.9889
  472TMC3     O 7027   3.102   2.013  17.030  0.0935  0.3309 -0.1101
  472TMC3     H 7028   2.927   1.950  16.897  1.1086 -0.0446  0.6718
  472TMC3    H1 7029   2.937   1.747  17.282 -1.0821  2.5687  0.9064
  472TMC3    H2 7030   2.605   1.690  17.022  0.5400 -1.1824  0.7995
  472TMC3    C7 7031   2.750   1.560  17.193  0.4484  0.2392  0.3186
  472TMC3    C8 7032   2.738   1.786  16.807 -0.8261  0.4220  0.2993
  472TMC3    O1 7033   2.684   1.509  17.107 -0.4028  0.1146  0.1324
  472TMC3    O2 7034   2.773   1.859  16.720 -0.3210  0.5480  0.5284
  473MPD2     C 7035   3.130   3.496  14.564 -0.4348 -0.3091  0.0068
  473MPD2    C1 7036   3.060   3.580  14.470 -0.4652 -0.1425 -0.1015
  473MPD2    C2 7037   3.044   3.709  14.503  0.6574 -0.3104 -0.6481
  473MPD2    C3 7038   3.086   3.759  14.622 -0.1973 -0.0863 -0.4881
  473MPD2    C4 7039   3.150   3.680  14.710 -0.0041  0.0378  0.0810
  473MPD2    C5 7040   3.174   3.553  14.678  0.1966  0.5016  1.0600
  473MPD2     H 7041   2.991   3.770  14.430  1.3895  2.0889  0.8093
  473MPD2    H1 7042   3.185   3.723  14.803 -3.0769  0.2243  1.1641
  473MPD2    H2 7043   3.155   3.391  14.550  0.2469 -0.3364  1.4389
  473MPD2    H3 7044   3.233   3.495  14.748  3.0625  0.2160 -1.5948
  473MPD2     N 7045   3.072   3.899  14.635 -0.0209 -0.3894  0.8313
  473MPD2    H5 7046   3.113   3.939  14.719  0.7011  0.1756  0.2049
  473MPD2    N1 7047   3.003   3.529  14.352 -0.0440  0.0442 -0.0752
  473MPD2    H7 7048   2.945   3.595  14.300  0.8670  0.8736 -0.0420
  474TMC3    C1 7049   2.972   4.119  14.629  0.0242  0.2525  0.3845
  474TMC3    C2 7050   2.852   4.183  14.618 -0.2662  0.2759 -0.4709
  474TMC3    C3 7051   2.846   4.314  14.663  0.4412  0.2967 -0.0433
  474TMC3    C4 7052   3.079   4.181  14.695 -0.1436 -0.5447  0.0699
  474TMC3    C5 7053   3.060   4.306  14.751  0.3149 -0.7203 -0.0237
  474TMC3    C6 7054   2.945   4.380  14.740 -0.0351 -0.5929  0.0679
  474TMC3     C 7055   2.975   3.980  14.578  0.2160 -0.2227  0.1259
  474TMC3     O 7056   2.879   3.952  14.512 -0.0874  0.1629  0.1608
  474TMC3     H 7057   2.767   4.135  14.571 -1.4316  1.7036  0.1809
  474TMC3    H1 7058   3.174   4.130  14.707 -0.2979 -1.2751 -1.7454
  474TMC3    H2 7059   2.938   4.486  14.760  3.0276 -0.6892  1.6425
  474TMC3    C7 7060   3.188   4.385  14.769  0.1850  0.4752 -0.7229
  474TMC3    C8 7061   2.747   4.399  14.605 -0.2551  0.6141 -0.4055
  474TMC3    O1 7062   3.278   4.354  14.697 -0.4506  0.3087 -0.0829
  474TMC3    O2 7063   2.637   4.349  14.597 -0.7386 -0.0699 -0.4998
  475MPD2     C 7064   1.885   1.552  10.231  0.6632 -0.6578 -0.6796
  475MPD2    C1 7065   1.849   1.683  10.249 -0.0749  0.2938  0.0297
  475MPD2    C2 7066   1.718   1.712  10.292  0.0603 -0.1081  0.1829
  475MPD2    C3 7067   1.626   1.616  10.318  0.3910  0.3046 -0.4205
  475MPD2    C4 7068   1.668   1.488  10.302  0.7044  0.2540 -0.3320
  475MPD2    C5 7069   1.790   1.458  10.243  0.1411  0.1916  0.6550
  475MPD2     H 7070   1.682   1.813  10.310 -0.3604 -0.5352  1.8049
  475MPD2    H1 7071   1.602   1.404  10.317  0.3232  0.6711  0.2946
  475MPD2    H2 7072   1.985   1.516  10.210  0.2276 -1.6190 -1.1486
  475MPD2    H3 7073   1.826   1.358  10.221 -0.3473 -0.4370  2.6762
  475MPD2     N 7074   1.494   1.648  10.364  0.3581 -0.4222 -0.5379
  475MPD2    H5 7075   1.468   1.745  10.381 -0.7018 -0.2046 -3.4957
  475MPD2    N1 7076   1.946   1.782  10.212  0.3343 -0.0962 -0.2128
  475MPD2    H7 7077   2.033   1.752  10.169  0.3224  0.1630 -0.4190
  476TMC3    C1 7078   2.043   1.971  10.151 -0.0422 -0.2074  0.3930
  476TMC3    C2 7079   2.011   1.963  10.021 -0.1127 -0.5736 -0.0005
  476TMC3    C3 7080   2.046   2.069   9.937 -0.2549 -0.6793  0.1503
  476TMC3    C4 7081   2.094   2.079  10.209 -0.0133 -0.6123  0.4747
  476TMC3    C5 7082   2.130   2.182  10.128 -0.1172 -0.2546 -0.9994
  476TMC3    C6 7083   2.113   2.169   9.992 -0.0367  0.5362 -0.4838
  476TMC3     C 7084   1.932   1.913  10.223 -1.1889 -0.3748  0.5967
  476TMC3     O 7085   1.836   1.985  10.245  0.2243  0.7603  0.0124
  476TMC3     H 7086   1.971   1.872   9.979  1.6128 -1.7348  0.8747
  476TMC3    H1 7087   2.107   2.080  10.317 -1.1787 -1.9748  0.6273
  476TMC3    H2 7088   2.148   2.251   9.931 -0.2239  0.5094 -0.6267
  476TMC3    C7 7089   2.214   2.290  10.178  0.0977  0.3017  0.3875
  476TMC3    C8 7090   1.924   2.112   9.862  0.4240  0.5112 -0.1269
  476TMC3    O1 7091   2.268   2.367  10.098  0.5572  1.5109 -0.1410
  476TMC3    O2 7092   1.884   2.223   9.891  0.2962 -0.3897  0.0404
  477MPD2     C 7093   3.873   3.800  12.173 -1.0196 -0.2718 -0.2656
  477MPD2    C1 7094   3.853   3.687  12.102  0.0930 -0.0024 -0.0997
  477MPD2    C2 7095   3.887   3.563  12.158 -0.2891 -0.1351 -0.9164
  477MPD2    C3 7096   3.904   3.551  12.297  0.3010 -0.6769 -0.3124
  477MPD2    C4 7097   3.913   3.669  12.370  0.4834 -0.0159  0.4175
  477MPD2    C5 7098   3.913   3.794  12.305 -0.2898 -1.0500  0.2777
  477MPD2     H 7099   3.886   3.478  12.090 -2.0729  0.2427 -1.3713
  477MPD2    H1 7100   3.934   3.659  12.476  1.7541  0.5365  0.2144
  477MPD2    H2 7101   3.857   3.896  12.124  1.6663  0.9443  1.2649
  477MPD2    H3 7102   3.935   3.883  12.364  1.6675 -2.5461  1.8090
  477MPD2     N 7103   3.916   3.425  12.364  0.3996  0.5027 -0.3843
  477MPD2    H5 7104   3.915   3.426  12.465 -1.9555 -0.5243 -0.4011
  477MPD2    N1 7105   3.802   3.715  11.976 -0.2278 -0.1983 -0.1279
  477MPD2    H7 7106   3.775   3.808  11.947  2.1058  0.0055 -1.6549
  478TMC3    C1 7107   3.706   3.672  11.778  0.0275 -0.0972  0.0862
  478TMC3    C2 7108   3.606   3.749  11.819  0.4274  0.0063 -0.0314
  478TMC3    C3 7109   3.516   3.790  11.726 -0.2484  0.2256  0.0564
  478TMC3    C4 7110   3.709   3.613  11.656 -0.0645 -0.1863 -0.6048
  478TMC3    C5 7111   3.619   3.654  11.564  0.3858 -0.5959  0.3532
  478TMC3    C6 7112   3.512   3.737  11.598 -0.1748  0.3017  0.5199
  478TMC3     C 7113   3.789   3.623  11.878 -0.3631 -0.7083 -0.3647
  478TMC3     O 7114   3.807   3.501  11.869 -0.8446  0.0818  0.3614
  478TMC3     H 7115   3.586   3.784  11.920 -0.9403  1.5249 -0.8285
  478TMC3    H1 7116   3.795   3.553  11.631  0.6736  0.9080 -0.6846
  478TMC3    H2 7117   3.431   3.774  11.536 -0.6948 -1.4382  0.1658
  478TMC3    C7 7118   3.633   3.593  11.434  0.1624  0.1252  0.3246
  478TMC3    C8 7119   3.391   3.848  11.780 -0.9929  0.1628 -0.8035
  478TMC3    O1 7120   3.745   3.557  11.409 -0.2835 -0.4367 -0.2902
  478TMC3    O2 7121   3.350   3.803  11.887  0.3644  0.1156 -0.3758
  479MPD2     C 7122   2.378   0.767  15.356 -0.4200 -0.0442 -0.0547
  479MPD2    C1 7123   2.274   0.788  15.447 -0.2868  0.1880 -0.0503
  479MPD2    C2 7124   2.266   0.908  15.514  0.0124 -0.0299 -0.5605
  479MPD2    C3 7125   2.352   1.010  15.487 -0.6115 -0.0398  0.1889
  479MPD2    C4 7126   2.450   0.997  15.391  0.5965  0.1234 -0.6545
  479MPD2    C5 7127   2.462   0.875  15.323  0.0647  0.0990 -0.1964
  479MPD2     H 7128   2.199   0.909  15.599  1.5450  1.6228  0.6379
  479MPD2    H1 7129   2.534   1.065  15.381  0.6335  0.5663  2.6591
  479MPD2    H2 7130   2.392   0.672  15.306  2.2294 -0.6416  1.7861
  479MPD2    H3 7131   2.542   0.847  15.256  2.2907  3.5838  0.9910
  479MPD2     N 7132   2.359   1.129  15.568  0.1956 -0.6012 -0.1141
  479MPD2    H5 7133   2.424   1.200  15.538 -0.4319  0.2311  0.4856
  479MPD2    N1 7134   2.192   0.675  15.467 -0.0985  0.1621  0.0904
  479MPD2    H7 7135   2.213   0.588  15.419  2.5930  0.9698 -0.1835
  480TMC3    C1 7136   2.534   1.232  15.924  0.3155  0.1134  0.4327
  480TMC3    C2 7137   2.627   1.312  15.861  0.3458 -0.0232 -0.8923
  480TMC3    C3 7138   2.577   1.361  15.745 -0.2584 -0.4240 -0.2696
  480TMC3    C4 7139   2.413   1.201  15.871 -0.2711 -0.0455  0.0398
  480TMC3    C5 7140   2.371   1.255  15.750 -0.1172  0.4554  0.4639
  480TMC3    C6 7141   2.454   1.340  15.682  0.0682  0.2210  0.3319
  480TMC3     C 7142   2.577   1.151  16.026  0.2754 -0.1877 -0.4507
  480TMC3     O 7143   2.519   1.043  16.036  0.4014  0.2247 -0.0791
  480TMC3     H 7144   2.730   1.329  15.890  0.4234 -1.3898 -0.4010
  480TMC3    H1 7145   2.346   1.131  15.919 -1.2949  0.1222 -1.1520
  480TMC3    H2 7146   2.426   1.381  15.585 -3.5147 -2.3360  0.3172
  480TMC3    C7 7147   2.293   1.159  15.679 -0.2036  0.1467  1.0805
  480TMC3    C8 7148   2.686   1.419  15.661 -0.0455 -0.3854 -0.2746
  480TMC3    O1 7149   2.207   1.098  15.743  0.4779  0.2039  0.2369
  480TMC3    O2 7150   2.759   1.501  15.720 -0.0791 -0.1132  0.0521
  481MPD2     C 7151   4.437   1.074  14.810  0.3588 -0.3707 -0.1716
  481MPD2    C1 7152   4.409   0.947  14.765 -0.2195 -0.1171 -0.6272
  481MPD2    C2 7153   4.429   0.837  14.848 -0.4655 -0.1193  0.0098
  481MPD2    C3 7154   4.452   0.863  14.983 -0.2319 -0.1206  0.3824
  481MPD2    C4 7155   4.470   0.992  15.033 -0.8590 -0.0368  0.4550
  481MPD2    C5 7156   4.467   1.097  14.944 -0.2934 -0.5772 -0.2606
  481MPD2     H 7157   4.418   0.736  14.810 -0.7406 -0.3435  0.6982
  481MPD2    H1 7158   4.496   1.004  15.138  3.2169  0.9037 -0.6491
  481MPD2    H2 7159   4.444   1.154  14.738  1.2365 -1.8074 -1.6977
  481MPD2    H3 7160   4.486   1.198  14.977  0.3988 -0.4393 -1.0735
  481MPD2     N 7161   4.473   0.750  15.068 -0.3979 -0.0080 -0.4225
  481MPD2    H5 7162   4.442   0.663  15.025  1.7370 -0.1722 -1.6502
  481MPD2    N1 7163   4.379   0.946  14.630  0.4727  0.4033  0.0919
  481MPD2    H7 7164   4.367   1.037  14.586  2.0613  0.8969  0.7213
  482TMC3    C1 7165   4.328   0.836  14.418 -1.0061 -0.3243 -0.0629
  482TMC3    C2 7166   4.246   0.740  14.371 -0.4762 -0.2703  1.0485
  482TMC3    C3 7167   4.205   0.748  14.238 -0.4452 -0.3501 -0.5561
  482TMC3    C4 7168   4.350   0.952  14.352 -0.2533 -0.3853 -0.2656
  482TMC3    C5 7169   4.302   0.961  14.221 -0.6484 -0.3509  0.6513
  482TMC3    C6 7170   4.234   0.858  14.160 -0.6495  0.4260 -0.0267
  482TMC3     C 7171   4.362   0.826  14.559  0.0626 -0.5151 -0.0304
  482TMC3     O 7172   4.363   0.708  14.595 -0.4856  0.6673 -0.0059
  482TMC3     H 7173   4.242   0.642  14.417 -2.0606 -0.0485  1.3936
  482TMC3    H1 7174   4.414   1.030  14.392  1.7902 -0.6876 -2.9429
  482TMC3    H2 7175   4.178   0.875  14.069  1.5346  0.0853 -1.4242
  482TMC3    C7 7176   4.312   1.094  14.154 -0.0983 -0.1364  0.1599
  482TMC3    C8 7177   4.164   0.624  14.168 -0.4531  0.5911  0.0751
  482TMC3    O1 7178   4.357   1.191  14.211  0.6902  0.6793 -0.0058
  482TMC3    O2 7179   4.143   0.525  14.240  0.6191  0.3024 -0.5124
  483TMC3    C1 7180   1.905   3.999   0.994 -0.1568  0.4013  0.4004
  483TMC3    C2 7181   2.017   4.080   0.984  0.0774 -0.1932 -0.0227
  483TMC3    C3 7182   2.102   4.086   1.090 -0.3694 -0.2899  0.4778
  483TMC3    C4 7183   1.883   3.903   1.089 -0.3957 -0.1248  1.0877
  483TMC3    C5 7184   1.971   3.904   1.191 -0.4098 -0.5793 -0.5411
  483TMC3    C6 7185   2.080   3.988   1.188  0.1454  0.1183 -0.4118
  483TMC3     C 7186   1.868   3.958   0.855  0.5293 -0.2793 -0.4959
  483TMC3     O 7187   1.798   4.034   0.786  0.2402  0.3761 -0.1815
  483TMC3     H 7188   2.030   4.145   0.899 -1.5848  1.9181  1.3451
  483TMC3    H1 7189   1.798   3.839   1.069 -0.5430  0.2913  0.3787
  483TMC3    H2 7190   2.153   3.979   1.268  0.3423 -0.4020 -0.6442
  483TMC3    C7 7191   1.996   3.784   1.261  0.2273 -0.4991 -0.7855
  483TMC3    C8 7192   2.234   4.131   1.062  0.4238  0.9963 -0.2360
  483TMC3    O1 7193   2.101   3.778   1.327  0.4698  0.6202  0.0959
  483TMC3    O2 7194   2.250   4.162   0.949 -0.4538 -0.4573 -0.2235
  484MPD2     C 7195   4.456   2.273  12.297  0.0807  0.2508  0.2350
  484MPD2    C1 7196   4.519   2.251  12.414 -0.3191 -0.3073 -0.3096
  484MPD2    C2 7197   4.654   2.271  12.427  0.0397 -0.2406  0.9172
  484MPD2    C3 7198   0.002   2.315  12.311  0.5469  0.2192  0.5552
  484MPD2    C4 7199   4.657   2.348  12.199 -0.6595 -0.0800  0.6038
  484MPD2    C5 7200   4.518   2.334  12.193 -0.2351 -0.2486 -0.6526
  484MPD2     H 7201   4.718   2.246  12.511  1.7017  0.2856 -0.1881
  484MPD2    H1 7202   4.712   2.378  12.111 -0.1006 -0.6399  0.7631
  484MPD2    H2 7203   4.350   2.252  12.292 -0.1986  1.8166 -0.5267
  484MPD2    H3 7204   4.454   2.379  12.118 -2.5035  1.4059  2.2508
  484MPD2     N 7205   0.143   2.318  12.300  0.8256 -0.2605 -0.1557
  484MPD2    H5 7206   0.188   2.339  12.212 -0.9883  0.2305 -0.9500
  484MPD2    N1 7207   4.441   2.194  12.520  0.0051  0.6416 -0.0797
  484MPD2    H7 7208   4.346   2.171  12.493  0.7776 -1.9645 -0.5781
  485TMC3    C1 7209   0.368   2.278  12.331  0.2737  0.4234 -0.8571
  485TMC3    C2 7210   0.469   2.193  12.375 -0.4456  0.1317 -0.3958
  485TMC3    C3 7211   0.593   2.220  12.323 -0.1811  0.0681  1.0148
  485TMC3    C4 7212   0.382   2.391  12.252 -0.0554 -0.2281  0.8568
  485TMC3    C5 7213   0.506   2.423  12.214  0.9849 -0.1076 -1.0610
  485TMC3    C6 7214   0.607   2.336  12.245  0.5175  0.3390  0.4845
  485TMC3     C 7215   0.236   2.258  12.379 -0.0554 -0.5483  0.0805
  485TMC3     O 7216   0.213   2.194  12.481  0.3232  0.0456  0.4014
  485TMC3     H 7217   0.437   2.099  12.418  1.8600  0.4871  2.1435
  485TMC3    H1 7218   0.317   2.477  12.264  0.8681  0.4450  1.0449
  485TMC3    H2 7219   0.708   2.363  12.215  1.4079  0.2945  3.4910
  485TMC3    C7 7220   0.509   2.458  12.078  0.2414 -0.4796 -0.5835
  485TMC3    C8 7221   0.689   2.113  12.278  0.6220 -0.4976  0.2732
  485TMC3    O1 7222   0.420   2.408  12.014  0.2618  0.6152 -0.2485
  485TMC3    O2 7223   0.761   2.138  12.182  0.0861 -0.5180  0.0899
  486MPD2     C 7224   2.214   1.771  12.973  0.3929 -0.4169  0.2515
  486MPD2    C1 7225   2.106   1.698  13.013 -0.1513  1.1780  0.4856
  486MPD2    C2 7226   1.977   1.741  12.977 -0.3771 -0.4018 -0.0864
  486MPD2    C3 7227   1.956   1.852  12.899 -0.2300  0.2968 -0.2307
  486MPD2    C4 7228   2.063   1.930  12.868 -0.1839  0.1612  0.4232
  486MPD2    C5 7229   2.192   1.887  12.901  0.0028 -0.6276 -0.5699
  486MPD2     H 7230   1.889   1.686  13.007 -0.4717 -1.3949 -2.1947
  486MPD2    H1 7231   2.073   2.013  12.800  1.5956 -0.1831  0.2610
  486MPD2    H2 7232   2.316   1.742  12.993  0.5051 -0.2697 -0.1008
  486MPD2    H3 7233   2.271   1.955  12.872 -0.2842 -0.4107 -0.8415
  486MPD2     N 7234   1.821   1.873  12.866 -0.4287  0.1465 -0.5133
  486MPD2    H5 7235   1.763   1.791  12.881 -0.6498  0.3219 -0.3999
  486MPD2    N1 7236   2.132   1.578  13.083 -0.1534  0.3213  0.0824
  486MPD2    H7 7237   2.228   1.548  13.095 -0.4959 -1.2259 -1.0111
  487TMC3    C1 7238   2.100   1.378  13.208  0.3740 -0.3443 -0.4437
  487TMC3    C2 7239   2.205   1.311  13.148 -0.1077  0.5815  0.7234
  487TMC3    C3 7240   2.247   1.193  13.208 -0.1450  0.1898  0.1042
  487TMC3    C4 7241   2.042   1.336  13.327 -0.3437 -0.5124 -0.4027
  487TMC3    C5 7242   2.108   1.238  13.394 -0.0800 -0.4944  0.2559
  487TMC3    C6 7243   2.215   1.172  13.340 -0.4713  0.4509  0.1926
  487TMC3     C 7244   2.040   1.497  13.146 -0.6748 -0.3019  0.6176
  487TMC3     O 7245   1.917   1.514  13.163 -0.5745 -0.1012 -0.1703
  487TMC3     H 7246   2.204   1.321  13.040  0.3176  0.3091  0.6941
  487TMC3    H1 7247   1.952   1.380  13.369 -0.7468  0.0878 -1.8965
  487TMC3    H2 7248   2.227   1.071  13.378  0.8701  1.1192  1.5333
  487TMC3    C7 7249   2.039   1.172  13.499 -0.2030  0.3180 -0.6943
  487TMC3    C8 7250   2.225   1.075  13.125 -0.1560  0.1129  0.0907
  487TMC3    O1 7251   2.104   1.120  13.589  0.5057 -0.8155 -0.0556
  487TMC3    O2 7252   2.118   1.071  13.061  1.2490 -0.0418 -0.2357
  488MPD2     C 7253   2.212   2.958  16.513  0.7173  0.6637  0.3541
  488MPD2    C1 7254   2.233   3.080  16.574  0.3270  0.9103  0.0696
  488MPD2    C2 7255   2.175   3.109  16.688  0.1262 -0.3132 -0.8054
  488MPD2    C3 7256   2.108   3.011  16.762  0.6643 -0.0532 -0.3256
  488MPD2    C4 7257   2.084   2.889  16.711 -0.5844  0.2117  0.5037
  488MPD2    C5 7258   2.134   2.870  16.582 -0.3235  0.0790 -0.2782
  488MPD2     H 7259   2.192   3.208  16.729  0.8442 -1.6205  2.0663
  488MPD2    H1 7260   2.023   2.816  16.763  1.0724 -0.9400  0.8179
  488MPD2    H2 7261   2.248   2.925  16.416 -2.4767  1.1588 -1.0163
  488MPD2    H3 7262   2.093   2.784  16.529 -3.1372  1.2089  0.0302
  488MPD2     N 7263   2.059   3.052  16.888 -0.9237 -0.7093 -0.5027
  488MPD2    H5 7264   2.054   3.150  16.916 -1.4132 -0.4167 -1.6460
  488MPD2    N1 7265   2.299   3.187  16.506 -0.1583  0.7231 -0.3297
  488MPD2    H7 7266   2.307   3.279  16.548  2.7346  0.3262 -0.0423
  489TMC3    C1 7267   2.022   3.036  17.119  0.3295 -0.3486 -1.0677
  489TMC3    C2 7268   2.018   3.166  17.132 -0.4523  0.9151  0.1840
  489TMC3    C3 7269   2.038   3.222  17.255 -0.0146 -0.0508  0.2559
  489TMC3    C4 7270   2.037   2.956  17.229  0.4124  0.1476  0.4550
  489TMC3    C5 7271   2.046   3.018  17.355 -0.7764  0.5686 -0.2347
  489TMC3    C6 7272   2.048   3.149  17.368 -0.1219 -0.0515  0.4683
  489TMC3     C 7273   2.043   2.967  16.991 -0.0863  0.1924 -0.0662
  489TMC3     O 7274   2.023   2.849  16.986 -0.2447  0.1601  0.1250
  489TMC3     H 7275   2.010   3.229  17.044  0.2938  0.3390 -0.2968
  489TMC3    H1 7276   2.058   2.850  17.219  0.9723  0.2629  0.3949
  489TMC3    H2 7277   2.024   3.190  17.466 -0.1631  0.8613  0.0815
  489TMC3    C7 7278   2.082   2.942  17.469 -0.4530  0.0492 -0.0649
  489TMC3    C8 7279   2.041   3.364  17.245  0.4445  0.4901 -0.5860
  489TMC3    O1 7280   2.139   2.997  17.561  0.0173  0.0896 -0.2627
  489TMC3    O2 7281   2.067   3.417  17.135 -0.6509  0.3985  0.3223
  490MPD2     C 7282   3.457   2.239  16.906 -0.9684  0.5490  1.0003
  490MPD2    C1 7283   3.448   2.295  17.031 -0.2297  0.2186  0.0956
  490MPD2    C2 7284   3.562   2.315  17.104  0.1143  0.3549  0.3571
  490MPD2    C3 7285   3.686   2.271  17.054 -0.3416 -0.6118 -0.1787
  490MPD2    C4 7286   3.690   2.211  16.928 -0.5046  0.8754 -0.1068
  490MPD2    C5 7287   3.578   2.202  16.854 -0.2089 -0.6485  0.0972
  490MPD2     H 7288   3.555   2.365  17.200  0.5633  1.7836 -0.3540
  490MPD2    H1 7289   3.785   2.188  16.882  0.7151  1.2208  2.2533
  490MPD2    H2 7290   3.369   2.208  16.851  0.3653 -0.4129 -0.5878
  490MPD2    H3 7291   3.576   2.164  16.752 -0.5729  1.7318 -0.7929
  490MPD2     N 7292   3.808   2.282  17.117  0.2528  0.0075  0.0732
  490MPD2    H5 7293   3.889   2.253  17.063  0.0505 -2.0217  0.8471
  490MPD2    N1 7294   3.334   2.338  17.093  0.0221 -0.3141 -0.8235
  490MPD2    H7 7295   3.349   2.352  17.192  1.5513  1.5151 -1.3112
  491TMC3    C1 7296   3.103   2.350  17.140 -0.1457 -0.0148 -0.5001
  491TMC3    C2 7297   3.127   2.365  17.275 -0.3883 -0.5734  0.5238
  491TMC3    C3 7298   3.019   2.356  17.357  0.1232  0.0318  0.5025
  491TMC3    C4 7299   2.981   2.307  17.099 -0.2780  0.5643  0.5974
  491TMC3    C5 7300   2.877   2.279  17.186 -0.2826  0.5233  0.4639
  491TMC3    C6 7301   2.893   2.313  17.319 -0.5330 -0.1780 -0.1655
  491TMC3     C 7302   3.208   2.332  17.045 -0.5635  0.1099  0.0977
  491TMC3     O 7303   3.182   2.348  16.925  0.5405 -0.4099  0.5619
  491TMC3     H 7304   3.221   2.404  17.312 -1.8759  3.0633  0.4261
  491TMC3    H1 7305   2.967   2.290  16.993 -0.3669  1.0380  0.5367
  491TMC3    H2 7306   2.804   2.303  17.381 -1.8143  2.3424 -1.5756
  491TMC3    C7 7307   2.769   2.200  17.133 -0.4750  0.4969  0.2764
  491TMC3    C8 7308   3.048   2.370  17.498 -0.6953  0.5032 -0.0509
  491TMC3    O1 7309   2.739   2.227  17.017 -0.2594 -0.4088  0.1195
  491TMC3    O2 7310   2.968   2.433  17.571 -0.3590  0.1518 -0.0276
  492MPD2     C 7311   3.904   2.165  11.148 -0.1351  0.4485 -0.0153
  492MPD2    C1 7312   3.793   2.120  11.083  0.4100 -0.4698 -0.0192
  492MPD2    C2 7313   3.704   2.040  11.155  0.1366  0.5775  0.1643
  492MPD2    C3 7314   3.736   1.998  11.284  0.0946 -0.0657  0.1702
  492MPD2    C4 7315   3.850   2.040  11.344 -0.4444 -0.0070  0.4037
  492MPD2    C5 7316   3.935   2.122  11.275 -0.1769  0.1595  0.3877
  492MPD2     H 7317   3.603   2.023  11.121  0.0810 -0.4217  0.8350
  492MPD2    H1 7318   3.875   2.003  11.443  0.5093  0.3885  0.3078
  492MPD2    H2 7319   3.975   2.229  11.097 -0.8165  1.1847 -0.0325
  492MPD2    H3 7320   4.035   2.134  11.315 -0.4539 -0.1411  1.1743
  492MPD2     N 7321   3.659   1.905  11.360  0.2262 -0.2904 -0.0299
  492MPD2    H5 7322   3.669   1.903  11.461 -1.6245 -1.7211  0.1251
  492MPD2    N1 7323   3.783   2.153  10.951 -0.4414  1.1738 -0.4718
  492MPD2    H7 7324   3.860   2.207  10.912  0.5118 -1.2984 -2.0394
  493TMC3    C1 7325   3.686   2.179  10.738  0.5139 -0.1943 -0.4976
  493TMC3    C2 7326   3.746   2.299  10.733  1.4541 -0.0567  0.2464
  493TMC3    C3 7327   3.739   2.365  10.613  0.1841  0.6967  0.1379
  493TMC3    C4 7328   3.621   2.118  10.633  0.5483  0.3266  0.3817
  493TMC3    C5 7329   3.612   2.190  10.520  0.1895 -0.0466 -0.3798
  493TMC3    C6 7330   3.668   2.311  10.503  0.0865  0.8552  0.2501
  493TMC3     C 7331   3.677   2.118  10.869  0.1226  0.8371 -0.7256
  493TMC3     O 7332   3.575   2.059  10.898  0.1960  0.3853 -0.3324
  493TMC3     H 7333   3.799   2.347  10.814 -2.9695  0.0630  3.0900
  493TMC3    H1 7334   3.562   2.028  10.645  0.8340 -0.0912 -1.3257
  493TMC3    H2 7335   3.664   2.376  10.416  1.7644 -2.1107 -2.0282
  493TMC3    C7 7336   3.514   2.154  10.421  0.2729 -0.0200  0.1869
  493TMC3    C8 7337   3.803   2.493  10.599 -0.2027 -0.2009  0.0224
  493TMC3    O1 7338   3.489   2.245  10.342 -0.1244  0.1501 -0.7939
  493TMC3    O2 7339   3.818   2.555  10.705  0.3668 -0.1438  0.0925
  494TMC3    C1 7340   3.448   4.164   0.519  0.2713  0.5210 -0.1613
  494TMC3    C2 7341   3.553   4.139   0.607 -0.4833  0.3553  0.0236
  494TMC3    C3 7342   3.663   4.218   0.588  0.3148 -0.2551 -0.2533
  494TMC3    C4 7343   3.454   4.270   0.425  0.5113 -0.6685 -0.5239
  494TMC3    C5 7344   3.563   4.351   0.426  0.0130  0.0424  0.0667
  494TMC3    C6 7345   3.666   4.328   0.509 -0.0403 -0.0292 -0.3348
  494TMC3     C 7346   3.325   4.104   0.559  0.1792  0.4263  0.3448
  494TMC3     O 7347   3.320   4.026   0.652  0.5457 -0.6523 -0.3423
  494TMC3     H 7348   3.571   4.044   0.657 -0.5692 -0.4675 -1.5060
  494TMC3    H1 7349   3.382   4.283   0.345 -0.2747  1.8627  0.6006
  494TMC3    H2 7350   3.757   4.384   0.489  0.6148 -1.2656 -0.7707
  494TMC3    C7 7351   3.593   4.406   0.295  0.2172  0.0204  0.1324
  494TMC3    C8 7352   3.796   4.191   0.649  0.2237 -0.2067 -0.3726
  494TMC3    O1 7353   3.568   4.336   0.199  0.7652 -0.3936  0.1888
  494TMC3    O2 7354   3.899   4.235   0.604 -0.1436 -0.3453  0.8365
  495TMC3    C1 7355   2.664   0.856  14.860  0.1251  0.6451  0.8228
  495TMC3    C2 7356   2.673   0.918  14.738 -0.1382  0.8020 -0.3656
  495TMC3    C3 7357   2.707   1.052  14.735 -0.5098  0.0722 -0.3553
  495TMC3    C4 7358   2.687   0.928  14.976 -0.0678  0.0567  0.2189
  495TMC3    C5 7359   2.734   1.059  14.969 -0.1972  0.0638 -1.5337
  495TMC3    C6 7360   2.738   1.121  14.847 -0.2277  0.2687  0.2773
  495TMC3     C 7361   2.557   0.771  14.871 -0.1015 -0.0665  0.0608
  495TMC3     O 7362   2.492   0.794  14.969 -0.2170  0.2072  0.0485
  495TMC3     H 7363   2.631   0.878  14.646 -1.9779  0.2402  0.7170
  495TMC3    H1 7364   2.666   0.880  15.071 -0.6283 -0.9467 -0.4050
  495TMC3    H2 7365   2.758   1.228  14.851  0.5761  0.2274 -3.0820
  495TMC3    C7 7366   2.726   1.128  15.092 -0.0029  0.1898 -0.3863
  495TMC3    C8 7367   2.617   1.134  14.653 -0.6964  0.9643 -0.1213
  495TMC3    O1 7368   2.643   1.090  15.170  0.2697  0.0709  0.4100
  495TMC3    O2 7369   2.549   1.222  14.702 -0.4644  0.0454 -0.6014
  496MPD2     C 7370   4.666   1.581  15.580 -0.2438 -0.2421 -0.2355
  496MPD2    C1 7371   4.661   1.473  15.660 -0.1792  0.1587  0.5039
  496MPD2    C2 7372   4.607   1.495  15.787 -0.3974 -0.3512  0.2603
  496MPD2    C3 7373   4.589   1.625  15.836 -0.1534 -0.0085  0.0313
  496MPD2    C4 7374   4.603   1.735  15.752 -0.5597  0.6743  0.1192
  496MPD2    C5 7375   4.644   1.710  15.618 -0.5779  0.7007  0.5636
  496MPD2     H 7376   4.581   1.415  15.855  1.0866  0.4807  1.7928
  496MPD2    H1 7377   4.590   1.837  15.785  0.9614  0.3486  1.7577
  496MPD2    H2 7378   4.691   1.570  15.475 -0.2158  3.0118 -0.5630
  496MPD2    H3 7379   4.667   1.786  15.543 -1.1176  1.0177  0.7178
  496MPD2     N 7380   4.523   1.645  15.960  0.0004  0.0441  0.0093
  496MPD2    H5 7381   4.506   1.739  15.992 -1.7154 -0.4692  0.5645
  496MPD2    N1 7382   4.705   1.344  15.615  0.0985 -0.2009  0.7009
  496MPD2    H7 7383   0.014   1.347  15.519  1.5140 -1.2797  1.1605
  497TMC3    C1 7384   4.415   1.616  16.164  0.0275 -0.5251 -0.1126
  497TMC3    C2 7385   4.316   1.713  16.128  0.3890 -0.0260 -0.2380
  497TMC3    C3 7386   4.235   1.755  16.226  0.0233 -0.0610  0.5581
  497TMC3    C4 7387   4.422   1.567  16.289  0.2434  0.7084 -0.3321
  497TMC3    C5 7388   4.345   1.622  16.388  0.1842 -0.1073  0.7502
  497TMC3    C6 7389   4.248   1.716  16.361  0.3910  0.4062 -0.0722
  497TMC3     C 7390   4.494   1.554  16.063  0.4594 -0.1492 -0.1155
  497TMC3     O 7391   4.538   1.445  16.092  0.4649 -0.1590 -0.2275
  497TMC3     H 7392   4.301   1.741  16.025  1.6993  3.2547  0.4642
  497TMC3    H1 7393   4.497   1.493  16.315 -1.3092 -0.7604 -0.0454
  497TMC3    H2 7394   4.184   1.743  16.444  1.4190 -0.9925  1.1770
  497TMC3    C7 7395   4.386   1.592  16.524 -0.6673 -0.7174 -0.1981
  497TMC3    C8 7396   4.158   1.879  16.205 -0.4191 -0.5666  0.0176
  497TMC3    O1 7397   4.301   1.552  16.602 -0.0442  0.0073  0.2130
  497TMC3    O2 7398   4.050   1.895  16.266  1.0802  0.1575  0.1961
  498MPD2     C 7399   0.548   1.447   9.350  0.0405  0.9289 -0.1964
  498MPD2    C1 7400   0.614   1.379   9.450  0.0371  0.0124  0.0886
  498MPD2    C2 7401   0.560   1.258   9.494  0.4352  0.4130  0.1611
  498MPD2    C3 7402   0.434   1.220   9.460 -0.0352 -0.5061  0.7272
  498MPD2    C4 7403   0.362   1.300   9.371 -0.1550 -0.2143 -0.5844
  498MPD2    C5 7404   0.424   1.405   9.321 -0.8026 -0.5139  0.0777
  498MPD2     H 7405   0.617   1.202   9.567  0.6288 -0.8236 -0.9446
  498MPD2    H1 7406   0.262   1.282   9.333 -1.1884  2.0586  1.0343
  498MPD2    H2 7407   0.595   1.533   9.305  0.1643  1.3258  0.6872
  498MPD2    H3 7408   0.376   1.463   9.243  0.7531 -1.3615 -1.5154
  498MPD2     N 7409   0.372   1.113   9.526 -0.2294  0.3230  0.2100
  498MPD2    H5 7410   0.436   1.052   9.574 -1.0132 -1.9102 -1.5697
  498MPD2    N1 7411   0.732   1.427   9.513 -0.1228  0.0030  0.3457
  498MPD2    H7 7412   0.774   1.355   9.571 -2.7593 -2.4526 -0.7654
  499TMC3    C1 7413   0.883   1.587   9.605 -0.6736  0.5933 -0.4907
  499TMC3    C2 7414   0.984   1.497   9.621 -0.1185 -0.3836  0.4240
  499TMC3    C3 7415   1.091   1.530   9.702 -0.2465  0.0462  0.2237
  499TMC3    C4 7416   0.886   1.712   9.646  0.1953 -0.4318 -0.0306
  499TMC3    C5 7417   0.997   1.740   9.728 -0.3548 -0.9475  0.2247
  499TMC3    C6 7418   1.098   1.649   9.757 -0.2291 -0.6348 -0.9658
  499TMC3     C 7419   0.772   1.556   9.517  0.6646  0.0080  0.2423
  499TMC3     O 7420   0.719   1.657   9.474  0.6183  0.2895 -0.3288
  499TMC3     H 7421   1.001   1.415   9.552  0.8094 -0.3183  0.5740
  499TMC3    H1 7422   0.798   1.775   9.641  0.5516  0.0034 -0.8538
  499TMC3    H2 7423   1.182   1.677   9.819  1.0339  2.4353 -4.0450
  499TMC3    C7 7424   1.022   1.885   9.748 -0.2809 -0.4530 -0.4375
  499TMC3    C8 7425   1.218   1.453   9.686  0.4485 -0.1757  0.1220
  499TMC3    O1 7426   0.996   1.962   9.656  0.1645 -0.5406 -0.3152
  499TMC3    O2 7427   1.315   1.526   9.706 -0.6112  0.0244  0.0244
  500MPD2     C 7428   2.798   2.658  10.176 -0.2064 -0.1208  0.0189
  500MPD2    C1 7429   2.771   2.769  10.255  0.1999 -0.7333 -0.1381
  500MPD2    C2 7430   2.652   2.835  10.248 -0.3006  0.6262  0.4331
  500MPD2    C3 7431   2.549   2.782  10.168  0.5472  1.1754  0.0980
  500MPD2    C4 7432   2.573   2.669  10.095  0.2539 -1.2368  0.5046
  500MPD2    C5 7433   2.692   2.608  10.106 -0.0142  0.0329 -0.0218
  500MPD2     H 7434   2.640   2.927  10.305 -0.1526  0.7543  0.2586
  500MPD2    H1 7435   2.492   2.626  10.036  0.3881 -1.4365  0.4652
  500MPD2    H2 7436   2.895   2.610  10.171 -0.4359 -0.8358  2.1418
  500MPD2    H3 7437   2.710   2.526  10.038 -0.6611 -1.3525  1.4780
  500MPD2     N 7438   2.416   2.835  10.173 -0.4854  0.5430 -0.3683
  500MPD2    H5 7439   2.345   2.791  10.116 -2.4469 -0.6962  3.0448
  500MPD2    N1 7440   2.874   2.829  10.331  0.0454 -0.8426  0.2992
  500MPD2    H7 7441   2.859   2.926  10.356 -0.1854 -1.1938  1.5138
  501TMC3    C1 7442   3.057   2.854  10.458  0.1580  0.6928 -0.1062
  501TMC3    C2 7443   3.058   2.988  10.431 -0.3444  0.7977  0.3216
  501TMC3    C3 7444   3.119   3.065  10.528  0.0830 -0.1006  0.1211
  501TMC3    C4 7445   3.115   2.799  10.570  0.0572 -0.3212  0.3991
  501TMC3    C5 7446   3.167   2.883  10.657  0.1770  0.0566  0.0113
  501TMC3    C6 7447   3.162   3.018  10.642  0.5254 -0.0627  0.2951
  501TMC3     C 7448   2.989   2.768  10.372  0.1071  0.2337 -0.0347
  501TMC3     O 7449   3.007   2.647  10.380 -0.4245 -0.2610 -0.0561
  501TMC3     H 7450   3.023   3.021  10.334  1.6334  1.5821 -0.1326
  501TMC3    H1 7451   3.103   2.692  10.584  0.0115 -0.0723  2.2397
  501TMC3    H2 7452   3.207   3.091  10.708  0.0039 -0.8546  1.5343
  501TMC3    C7 7453   3.216   2.811  10.774 -1.0182  0.0577 -0.3883
  501TMC3    C8 7454   3.097   3.212  10.534  0.2207  0.5879 -0.3527
  501TMC3    O1 7455   3.274   2.708  10.753 -0.3240  0.2861  0.0755
  501TMC3    O2 7456   3.088   3.272  10.645 -0.4623 -0.4044  0.1009
  502TMC3    C1 7457   1.715   1.818  15.077  0.9326  0.1271 -0.1384
  502TMC3    C2 7458   1.704   1.938  15.021 -0.7239  0.4459  0.5587
  502TMC3    C3 7459   1.615   2.026  15.061 -0.2058  0.5232 -0.0919
  502TMC3    C4 7460   1.625   1.773  15.167  0.3955  0.7763  0.0970
  502TMC3    C5 7461   1.518   1.856  15.192 -0.0817  0.2215 -0.1745
  502TMC3    C6 7462   1.509   1.986  15.141 -0.5862 -0.1337 -0.6280
  502TMC3     C 7463   1.845   1.786  15.122  0.1159 -0.0337 -0.1837
  502TMC3     O 7464   1.883   1.670  15.145  0.0633 -0.4845  0.1262
  502TMC3     H 7465   1.781   1.979  14.956 -1.4938 -1.5685 -1.6121
  502TMC3    H1 7466   1.651   1.685  15.226 -1.4709 -0.7018 -1.2807
  502TMC3    H2 7467   1.432   2.050  15.179  1.8668  0.8983  2.5705
  502TMC3    C7 7468   1.455   1.837  15.320 -0.0367 -0.6601  0.0543
  502TMC3    C8 7469   1.666   2.159  15.098  0.4053 -0.0552 -0.5552
  502TMC3    O1 7470   1.521   1.799  15.417 -0.1449  0.6648  0.0816
  502TMC3    O2 7471   1.780   2.160  15.138 -0.1384  0.7948 -0.1762
  503MPD2     C 7472   3.944   2.889  16.798 -0.7428  0.4721  0.2300
  503MPD2    C1 7473   3.959   2.903  16.937 -0.0902  0.4006  0.4181
  503MPD2    C2 7474   4.057   2.829  17.004 -0.0731 -0.4207  0.5070
  503MPD2    C3 7475   4.146   2.756  16.930  0.2341  0.7553 -0.1920
  503MPD2    C4 7476   4.130   2.740  16.795  0.2953 -0.6033  0.4710
  503MPD2    C5 7477   4.031   2.808  16.731  0.4902 -0.0708 -0.6834
  503MPD2     H 7478   4.076   2.825  17.110 -0.3927 -2.0787  0.4995
  503MPD2    H1 7479   4.203   2.686  16.735  0.5143  0.9794 -0.6720
  503MPD2    H2 7480   3.870   2.938  16.735 -0.4785  1.5561  0.7527
  503MPD2    H3 7481   4.017   2.788  16.625  0.1035  0.1928 -0.6822
  503MPD2     N 7482   4.244   2.679  17.002 -0.3810  0.3176  0.4379
  503MPD2    H5 7483   4.240   2.684  17.103 -3.4287  0.9647  0.2904
  503MPD2    N1 7484   3.879   2.996  17.016  0.5277 -0.1890 -0.2558
  503MPD2    H7 7485   3.903   2.992  17.114  0.2635  3.4177 -0.0503
  504TMC3    C1 7486   4.437   2.545  17.052  0.1103 -0.5957  0.1960
  504TMC3    C2 7487   4.400   2.553  17.189  0.7473 -0.4066  0.4148
  504TMC3    C3 7488   4.485   2.499  17.282  1.0070  0.0246  0.9154
  504TMC3    C4 7489   4.548   2.474  17.016 -0.0990 -0.5116 -0.7623
  504TMC3    C5 7490   4.631   2.436  17.110 -0.4566  0.1032 -0.3306
  504TMC3    C6 7491   4.612   2.452  17.243 -0.8404  0.3266 -0.6404
  504TMC3     C 7492   4.348   2.596  16.947 -0.4518 -0.8076  0.0022
  504TMC3     O 7493   4.383   2.584  16.828 -0.3593 -0.0612  0.4336
  504TMC3     H 7494   4.309   2.599  17.226  1.0363  0.3348  0.2035
  504TMC3    H1 7495   4.567   2.472  16.910 -0.0776  0.4843 -0.7756
  504TMC3    H2 7496   4.681   2.413  17.318 -0.7760  0.4356 -0.6441
  504TMC3    C7 7497   0.043   2.410  17.059  0.2475  0.0129 -0.7576
  504TMC3    C8 7498   4.469   2.547  17.420 -0.0636  0.9123  0.3244
  504TMC3    O1 7499   0.056   2.395  16.938 -0.1088 -0.6573  0.2690
  504TMC3    O2 7500   4.385   2.633  17.451 -0.2505 -0.1668  0.0946
  505MPD2     C 7501   0.793   0.942  10.425 -0.2804  0.7037 -0.8640
  505MPD2    C1 7502   0.740   0.830  10.497  0.3115  0.2489 -0.4373
  505MPD2    C2 7503   0.765   0.702  10.448 -0.0255  0.6327 -0.2053
  505MPD2    C3 7504   0.853   0.683  10.348  0.4653 -0.0125 -0.3875
  505MPD2    C4 7505   0.912   0.790  10.279  0.1067 -0.3949 -0.3805
  505MPD2    C5 7506   0.890   0.919  10.327  0.2232 -0.2999 -0.1236
  505MPD2     H 7507   0.718   0.616  10.495  1.8588 -0.5365 -0.4940
  505MPD2    H1 7508   0.981   0.758  10.202  1.1778  1.0975 -0.0381
  505MPD2    H2 7509   0.773   1.044  10.455 -1.7989  0.0842  0.2360
  505MPD2    H3 7510   0.935   1.003  10.276  0.0627 -0.4870 -0.5776
  505MPD2     N 7511   0.885   0.554  10.298  1.1360 -0.1332  0.3576
  505MPD2    H5 7512   0.963   0.556  10.233  0.5961  0.6785 -0.2500
  505MPD2    N1 7513   0.643   0.859  10.593  0.1033  0.0470  0.7742
  505MPD2    H7 7514   0.620   0.955  10.619 -1.2017  0.6752 -2.6488
  506TMC3    C1 7515   0.491   0.811  10.765 -0.4030  0.5103 -0.2322
  506TMC3    C2 7516   0.401   0.902  10.709 -0.0494  0.0384 -0.0124
  506TMC3    C3 7517   0.266   0.880  10.727  0.3848 -0.9307  0.1926
  506TMC3    C4 7518   0.449   0.707  10.838 -0.4093  0.4214 -0.2613
  506TMC3    C5 7519   0.317   0.681  10.850 -0.4844  0.7332  0.1156
  506TMC3    C6 7520   0.226   0.769  10.798  0.9371 -0.7844 -0.3888
  506TMC3     C 7521   0.590   0.763  10.673 -0.7814  0.7505 -0.1879
  506TMC3     O 7522   0.628   0.645  10.693  0.1908 -0.7252 -0.0864
  506TMC3     H 7523   0.441   0.979  10.645 -1.3157  0.5997 -0.1127
  506TMC3    H1 7524   0.517   0.633  10.879  0.8907  1.8785  0.2434
  506TMC3    H2 7525   0.120   0.746  10.801  0.5861  0.8032 -0.8188
  506TMC3    C7 7526   0.287   0.543  10.822 -0.4301 -0.4804  0.0306
  506TMC3    C8 7527   0.170   0.950  10.660 -0.6157  0.3781  0.2115
  506TMC3    O1 7528   0.179   0.500  10.853  0.0603 -0.0010  0.3225
  506TMC3    O2 7529   0.067   0.973  10.724  0.3665 -0.1759  0.4671
  507TMC3    C1 7530   0.991   2.403  13.938  0.4111 -0.0642  0.2034
  507TMC3    C2 7531   0.923   2.402  13.817 -0.5474 -0.0020 -0.1187
  507TMC3    C3 7532   0.826   2.495  13.804 -0.0265 -0.3682 -0.0052
  507TMC3    C4 7533   0.952   2.478  14.047 -0.0919 -0.0329 -0.2112
  507TMC3    C5 7534   0.857   2.571  14.020 -0.0123  0.9921  0.5862
  507TMC3    C6 7535   0.797   2.591  13.899 -0.5071 -0.2893  0.4034
  507TMC3     C 7536   1.109   2.323  13.947  0.0389  0.1180  0.7756
  507TMC3     O 7537   1.182   2.354  14.037  0.2738  0.3874 -0.2483
  507TMC3     H 7538   0.955   2.343  13.732  0.6694 -0.8506  0.9187
  507TMC3    H1 7539   1.002   2.473  14.142 -2.4629 -1.4413  0.9622
  507TMC3    H2 7540   0.720   2.666  13.882  0.1212  0.1766 -0.3650
  507TMC3    C7 7541   0.756   2.563  14.123 -0.6802  0.3897 -0.1548
  507TMC3    C8 7542   0.706   2.440  13.748 -0.0346  0.0299  0.5443
  507TMC3    O1 7543   0.648   2.593  14.073  0.2598  0.2554 -0.4058
  507TMC3    O2 7544   0.716   2.348  13.664 -0.0261 -0.0013  0.0088
  508MPD2     C 7545   1.366   4.482  16.413  0.4454 -0.4500 -0.3506
  508MPD2    C1 7546   1.486   4.548  16.403 -0.2479  0.0126  0.2761
  508MPD2    C2 7547   1.516   4.627  16.290  0.5387 -0.1474 -0.3263
  508MPD2    C3 7548   1.428   4.641  16.189 -0.0536 -0.9658  0.1022
  508MPD2    C4 7549   1.309   4.570  16.190  0.5420 -0.1537 -0.2916
  508MPD2    C5 7550   1.276   4.505  16.315 -0.5216 -0.0154 -0.0595
  508MPD2     H 7551   1.608   4.683  16.280  1.0774 -0.9563  0.1565
  508MPD2    H1 7552   1.236   4.563  16.110  0.3492 -1.2331 -0.0274
  508MPD2    H2 7553   1.346   4.428  16.505 -0.7710  0.3135 -0.1686
  508MPD2    H3 7554   1.182   4.452  16.319 -0.2782 -0.4146  0.3401
  508MPD2     N 7555   1.455   0.003  16.082  0.5308 -0.8013  1.0031
  508MPD2    H5 7556   1.543   0.051  16.102  0.4312 -1.4660  3.0126
  508MPD2    N1 7557   1.579   4.534  16.510 -0.4000 -0.0490  0.1102
  508MPD2    H7 7558   1.543   4.474  16.583 -0.0598  0.4246  0.6658
  509TMC3    C1 7559   1.387   0.332  15.765  0.3442  0.1717 -0.1667
  509TMC3    C2 7560   1.515   0.361  15.764  0.1694 -0.2024 -0.2440
  509TMC3    C3 7561   1.602   0.266  15.814  0.2972 -1.5965  0.1852
  509TMC3    C4 7562   1.338   0.223  15.836 -0.1010  0.1972 -0.0592
  509TMC3    C5 7563   1.428   0.143  15.900 -0.1804  0.3326  0.3946
  509TMC3    C6 7564   1.560   0.160  15.886  0.0357  0.1572  0.3665
  509TMC3     C 7565   1.290   0.438  15.744  0.5536 -0.5936  1.1175
  509TMC3     O 7566   1.189   0.425  15.810 -0.7161  0.5481 -0.1720
  509TMC3     H 7567   1.557   0.448  15.716 -2.3235  0.7379 -0.6985
  509TMC3    H1 7568   1.236   0.190  15.827  0.0000 -0.4413  1.1317
  509TMC3    H2 7569   1.628   0.088  15.930  0.7107  1.4454  1.4446
  509TMC3    C7 7570   1.377   0.040  15.975 -0.2431  0.6457 -0.4272
  509TMC3    C8 7571   1.742   0.309  15.853 -0.2017  0.7779  0.1238
  509TMC3    O1 7572   1.271   4.712  15.935 -0.2165  0.4109 -0.1916
  509TMC3    O2 7573   1.821   0.215  15.871  0.2431  0.3419 -0.0865
  510MPD2     C 7574   4.012   1.671  14.317  0.2418  0.1401 -0.1616
  510MPD2    C1 7575   4.089   1.684  14.427  0.0200 -0.0169  0.3213
  510MPD2    C2 7576   4.229   1.664  14.417  0.0215 -0.0536 -0.0827
  510MPD2    C3 7577   4.284   1.657  14.294  0.1061 -0.2238  0.3375
  510MPD2    C4 7578   4.208   1.641  14.183  0.2489 -0.0912  0.6959
  510MPD2    C5 7579   4.068   1.658  14.195  0.9212 -1.0589  0.1490
  510MPD2     H 7580   4.288   1.675  14.508  1.3338 -1.0626 -0.8157
  510MPD2    H1 7581   4.241   1.632  14.080 -0.5993 -0.3333  0.4467
  510MPD2    H2 7582   3.904   1.660  14.327  0.3995 -0.6407  0.7084
  510MPD2    H3 7583   4.010   1.646  14.104  2.7108  0.2829 -1.1759
  510MPD2     N 7584   4.428   1.660  14.284 -0.6976  0.1420 -0.3082
  510MPD2    H5 7585   4.479   1.658  14.372 -1.9154 -0.8387  0.3696
  510MPD2    N1 7586   4.023   1.726  14.546  0.2479  0.3483  0.2252
  510MPD2    H7 7587   3.923   1.740  14.544  0.1249 -0.4146  1.1777
  511TMC3    C1 7588   3.959   1.678  14.768  0.8069  0.4283 -0.0833
  511TMC3    C2 7589   3.972   1.698  14.899 -0.6485 -0.4502  0.2320
  511TMC3    C3 7590   3.936   1.604  14.992 -0.4669  0.0615 -0.0889
  511TMC3    C4 7591   3.909   1.561  14.723  0.7998 -0.1728  0.1380
  511TMC3    C5 7592   3.867   1.463  14.810  0.2389  0.2438 -0.2623
  511TMC3    C6 7593   3.881   1.482  14.948  0.8091 -1.2702 -0.7649
  511TMC3     C 7594   4.069   1.728  14.677 -0.3288 -0.1782 -0.1373
  511TMC3     O 7595   4.183   1.728  14.721  0.5457 -0.6465 -0.5480
  511TMC3     H 7596   4.006   1.793  14.940 -1.5184  0.1608 -0.4405
  511TMC3    H1 7597   3.905   1.538  14.617  0.2925  2.4015 -0.4098
  511TMC3    H2 7598   3.826   1.420  15.017  2.1241 -1.0754  0.4559
  511TMC3    C7 7599   3.801   1.350  14.748  0.1518  0.6267  0.1524
  511TMC3    C8 7600   3.906   1.644  15.129 -0.1167 -0.1112  0.0884
  511TMC3    O1 7601   3.804   1.345  14.625  0.1347 -0.2691  0.3238
  511TMC3    O2 7602   3.863   1.754  15.162  0.0647  0.3636 -0.5529
  512TMC3    C1 7603   2.648   0.762  13.550 -0.6185  0.6231 -0.7192
  512TMC3    C2 7604   2.782   0.741  13.580 -0.0074  0.2278 -0.0772
  512TMC3    C3 7605   2.816   0.608  13.578 -0.5372  0.4643  0.7438
  512TMC3    C4 7606   2.557   0.669  13.519  0.2038  0.1668  0.3076
  512TMC3    C5 7607   2.599   0.543  13.508  0.0871  0.0171  0.2510
  512TMC3    C6 7608   2.725   0.509  13.550 -0.0403  0.5654  0.4561
  512TMC3     C 7609   2.583   0.891  13.540 -0.4920  0.0393 -0.0691
  512TMC3     O 7610   2.463   0.897  13.520  0.6138  0.0367  0.2067
  512TMC3     H 7611   2.858   0.818  13.584  0.1823  0.0521 -0.3928
  512TMC3    H1 7612   2.450   0.685  13.508  0.1862 -0.8500 -0.9651
  512TMC3    H2 7613   2.758   0.406  13.546 -0.6405  0.4459 -1.5752
  512TMC3    C7 7614   2.492   0.433  13.489 -0.1294  0.0161 -0.2713
  512TMC3    C8 7615   2.950   0.577  13.637 -0.0944  0.7588  0.6246
  512TMC3    O1 7616   2.375   0.469  13.495  0.0727 -0.0981  0.5977
  512TMC3    O2 7617   2.985   0.458  13.622 -0.3700  0.4680  0.4591
  513MPD2     C 7618   0.119   0.882  13.675  0.1689  0.0192 -0.0188
  513MPD2    C1 7619   0.178   0.950  13.574  0.5539 -0.4136  0.7510
  513MPD2    C2 7620   0.287   1.033  13.599 -0.4884  0.4938 -0.1765
  513MPD2    C3 7621   0.335   1.054  13.726  0.9560 -0.5598 -0.1059
  513MPD2    C4 7622   0.267   0.989  13.828 -0.0903  0.3547  0.5140
  513MPD2    C5 7623   0.163   0.909  13.801 -0.1132 -0.2242 -0.4420
  513MPD2     H 7624   0.337   1.074  13.512 -0.4512  1.7567  0.4380
  513MPD2    H1 7625   0.297   1.002  13.932 -1.2465 -0.6638  0.9726
  513MPD2    H2 7626   0.032   0.821  13.655 -0.3064 -0.1257  2.4546
  513MPD2    H3 7627   0.114   0.855  13.882  0.7834  0.8415  0.8049
  513MPD2     N 7628   0.435   1.145  13.747 -0.3895  0.7201  0.0856
  513MPD2    H5 7629   0.477   1.186  13.664  2.0291 -1.4334  0.2560
  513MPD2    N1 7630   0.124   0.918  13.445 -0.6830 -0.0006  0.1795
  513MPD2    H7 7631   0.058   0.841  13.445 -2.3152  1.4130  0.1871
  514TMC3    C1 7632   0.125   0.911  13.220 -0.3527 -0.1560  0.3688
  514TMC3    C2 7633   0.080   0.986  13.114 -0.1839  0.4879 -0.1793
  514TMC3    C3 7634   0.119   0.945  12.993  0.2349  0.3438  0.0122
  514TMC3    C4 7635   0.226   0.816  13.196 -0.2393  0.4726 -0.2301
  514TMC3    C5 7636   0.264   0.783  13.070 -0.1168 -0.0760  0.4427
  514TMC3    C6 7637   0.205   0.842  12.960 -0.0152  0.2864  0.3087
  514TMC3     C 7638   0.147   0.992  13.336  0.1180  0.5788 -0.9812
  514TMC3     O 7639   0.200   1.103  13.323 -0.1158  0.0398 -0.0006
  514TMC3     H 7640   0.008   1.064  13.133 -2.3001 -2.0084  2.0712
  514TMC3    H1 7641   0.269   0.762  13.280 -0.7716 -1.1869 -1.0251
  514TMC3    H2 7642   0.253   0.843  12.863 -1.7655 -2.5820 -0.5831
  514TMC3    C7 7643   0.406   0.781  13.063  1.1357  0.3608  0.3220
  514TMC3    C8 7644   0.057   1.013  12.883  0.0236 -0.2432  0.0495
  514TMC3    O1 7645   0.462   0.727  12.966  0.9376  0.0900  0.3213
  514TMC3    O2 7646   0.020   1.128  12.910 -0.5318 -0.1744 -0.5759
  515MPD2     C 7647   2.496   2.821  14.647  0.2024 -0.1551  0.5869
  515MPD2    C1 7648   2.568   2.718  14.684  0.2188 -1.2511  0.6808
  515MPD2    C2 7649   2.693   2.743  14.740 -0.3042  0.1769  0.2799
  515MPD2    C3 7650   2.730   2.878  14.764 -0.1458 -0.5705  0.6753
  515MPD2    C4 7651   2.648   2.979  14.732 -0.9436 -0.3651 -0.0214
  515MPD2    C5 7652   2.533   2.948  14.670 -0.1237  0.3039 -0.8236
  515MPD2     H 7653   2.754   2.658  14.766  1.3424  1.1408 -0.4477
  515MPD2    H1 7654   2.674   3.083  14.750  1.7147 -0.7148 -1.8683
  515MPD2    H2 7655   2.400   2.817  14.597  0.6792  2.3481 -0.5292
  515MPD2    H3 7656   2.472   3.030  14.635 -0.1492 -0.0539 -1.6185
  515MPD2     N 7657   2.864   2.913  14.804 -0.2520  0.2735  0.0761
  515MPD2    H5 7658   2.887   3.011  14.794 -0.0006  0.1169 -0.8780
  515MPD2    N1 7659   2.509   2.589  14.679  0.1799 -0.0114  0.0719
  515MPD2    H7 7660   2.559   2.524  14.739  0.2149  0.3645  0.4497
  516TMC3    C1 7661   2.404   2.392  14.611  0.4901  0.2529 -0.4279
  516TMC3    C2 7662   2.292   2.332  14.550  0.5937  0.2074 -0.0050
  516TMC3    C3 7663   2.250   2.209  14.597  0.8068  0.1738 -0.2627
  516TMC3    C4 7664   2.472   2.326  14.705 -0.2601  0.1781 -0.6503
  516TMC3    C5 7665   2.431   2.201  14.739 -0.4413  0.3624  0.0483
  516TMC3    C6 7666   2.323   2.140  14.687  0.2027 -0.3469  0.4395
  516TMC3     C 7667   2.404   2.539  14.604 -0.5388  0.0282 -0.4113
  516TMC3     O 7668   2.325   2.594  14.527  0.0429 -0.2717 -0.0579
  516TMC3     H 7669   2.242   2.387  14.471 -2.4150  0.1321  1.8372
  516TMC3    H1 7670   2.571   2.353  14.741  0.1989 -1.7398 -0.4208
  516TMC3    H2 7671   2.292   2.043  14.725 -1.2505  0.4165  1.2189
  516TMC3    C7 7672   2.492   2.138  14.858 -0.2916 -0.0186 -0.1968
  516TMC3    C8 7673   2.117   2.165  14.566  0.2951 -0.5394 -0.3646
  516TMC3    O1 7674   2.565   2.203  14.925 -0.0768 -0.3409  0.1215
  516TMC3    O2 7675   2.096   2.048  14.590  0.9416 -0.1352 -0.3752
  517MPD2     C 7676   2.303   4.132   0.231 -0.0898  0.2068 -0.4422
  517MPD2    C1 7677   2.430   4.099   0.199 -0.7417 -0.2505 -0.3704
  517MPD2    C2 7678   2.532   4.146   0.278 -0.4927  0.0541 -0.0830
  517MPD2    C3 7679   2.499   4.239   0.383  1.1699  0.5694 -0.0144
  517MPD2    C4 7680   2.368   4.275   0.411 -0.7298  0.3003 -0.3384
  517MPD2    C5 7681   2.274   4.225   0.327  0.5626 -0.0427 -1.0182
  517MPD2     H 7682   2.630   4.103   0.262 -0.7966 -0.6272 -0.0884
  517MPD2    H1 7683   2.342   4.335   0.498 -1.8127 -0.3117 -0.2455
  517MPD2    H2 7684   2.216   4.102   0.173  0.8395 -3.1286 -0.0939
  517MPD2    H3 7685   2.170   4.248   0.345  1.2530  0.7262  2.0780
  517MPD2     N 7686   2.598   4.274   0.474 -0.1698  0.0395 -0.4014
  517MPD2    H5 7687   2.564   4.339   0.545  0.5059  0.7957 -0.7746
  517MPD2    N1 7688   2.452   4.001   0.101 -0.1082  0.0229  0.0683
  517MPD2    H7 7689   2.543   3.996   0.057  0.2926 -1.3401  1.0670
  518TMC3    C1 7690   2.393   3.875  17.606  0.2005  0.2363 -0.2556
  518TMC3    C2 7691   2.334   3.752  17.565 -0.0397 -0.3099  0.7282
  518TMC3    C3 7692   2.384   3.686  17.452  0.2893  0.1563  0.0133
  518TMC3    C4 7693   2.493   3.929  17.529 -0.1416 -0.2744 -0.2244
  518TMC3    C5 7694   2.552   3.852  17.434 -0.1190  0.3387  0.1228
  518TMC3    C6 7695   2.498   3.735  17.386  0.0558 -0.5726  0.3363
  518TMC3     C 7696   2.355   3.926   0.038 -0.2811 -0.7039 -0.3788
  518TMC3     O 7697   2.251   3.882   0.084 -0.3544  0.4481 -0.2366
  518TMC3     H 7698   2.252   3.706  17.619 -0.3278 -0.9327 -0.2466
  518TMC3    H1 7699   2.541   4.020  17.562 -0.1728 -0.9756  1.7897
  518TMC3    H2 7700   2.534   3.687  17.295 -0.7786 -0.0910 -0.2521
  518TMC3    C7 7701   2.696   3.872  17.417 -0.0613  0.1357 -0.9845
  518TMC3    C8 7702   2.363   3.543  17.451 -0.5585  0.7316  0.4175
  518TMC3    O1 7703   2.741   3.984  17.419 -0.3762 -0.4612 -0.0190
  518TMC3    O2 7704   2.341   3.483  17.553 -0.2356  0.0808 -0.2310
  519MPD2     C 7705   4.131   2.629  14.692 -0.0419  0.7171  0.0890
  519MPD2    C1 7706   4.152   2.665  14.560 -0.5774 -0.1366  0.0617
  519MPD2    C2 7707   4.228   2.582  14.479 -0.6689  0.1460  0.4923
  519MPD2    C3 7708   4.278   2.460  14.533 -0.3556  0.2105  0.0500
  519MPD2    C4 7709   4.253   2.427  14.668  0.1917 -0.0438  0.0962
  519MPD2    C5 7710   4.179   2.510  14.742  0.0465 -0.3149  0.8523
  519MPD2     H 7711   4.243   2.619  14.378  0.0708  0.2210  0.6273
  519MPD2    H1 7712   4.289   2.333  14.706  1.1309  0.5712  0.7323
  519MPD2    H2 7713   4.075   2.696  14.756  0.8705  1.6026 -0.0355
  519MPD2    H3 7714   4.159   2.482  14.845  0.3508  1.9785  1.5459
  519MPD2     N 7715   4.352   2.365  14.456 -0.0718  0.3458 -0.4270
  519MPD2    H5 7716   4.378   2.278  14.501 -0.6012 -1.0023 -2.6952
  519MPD2    N1 7717   4.084   2.784  14.513 -0.0994 -0.0791 -0.4947
  519MPD2    H7 7718   4.030   2.842  14.576  0.8214  2.8598 -2.3626
  520TMC3    C1 7719   4.405   2.240  14.255  0.4614 -0.2403  0.4670
  520TMC3    C2 7720   4.349   2.219  14.127 -0.2852 -0.7365  0.5782
  520TMC3    C3 7721   4.377   2.099  14.067 -0.0675  0.1922 -0.5439
  520TMC3    C4 7722   4.487   2.153  14.320 -0.6420  0.1882 -0.7010
  520TMC3    C5 7723   4.511   2.034  14.255 -0.0796  1.2307 -0.5910
  520TMC3    C6 7724   4.458   2.010  14.129  0.0647  0.3521 -0.5793
  520TMC3     C 7725   4.355   2.363  14.319  0.0713  0.2444  0.3079
  520TMC3     O 7726   4.313   2.444  14.239  0.4796  0.3343 -0.3047
  520TMC3     H 7727   4.288   2.294  14.077  1.5993 -0.8287 -1.8957
  520TMC3    H1 7728   4.523   2.171  14.420 -2.4780 -0.8394  0.1332
  520TMC3    H2 7729   4.469   1.910  14.088 -0.2968 -0.5874  1.6160
  520TMC3    C7 7730   4.635   1.976  14.277 -0.3742  0.0307  0.0992
  520TMC3    C8 7731   4.304   2.064  13.947  0.2195 -0.6190 -0.0853
  520TMC3    O1 7732   4.668   1.944  14.388  0.4838 -0.4101 -0.3571
  520TMC3    O2 7733   4.364   1.979  13.881 -0.1752 -0.0941  0.3703
  521MPD2     C 7734   0.368   0.611   0.056 -0.3422  0.3872 -0.0105
  521MPD2    C1 7735   0.353   0.554  17.630  0.5045 -0.2021 -0.4010
  521MPD2    C2 7736   0.460   0.533  17.546  0.1054 -0.8368  0.1775
  521MPD2    C3 7737   0.585   0.579  17.574 -0.4994 -0.4990 -0.3169
  521MPD2    C4 7738   0.601   0.647  17.693 -0.3463  0.4028 -0.3365
  521MPD2    C5 7739   0.493   0.657   0.084 -0.2883  0.1807  0.0425
  521MPD2     H 7740   0.450   0.472  17.457 -2.4644  2.4639 -1.7867
  521MPD2    H1 7741   0.688   0.696   0.040  0.2701 -1.5251  0.6548
  521MPD2    H2 7742   0.289   0.629   0.128  0.5752  2.8764  0.3924
  521MPD2    H3 7743   0.511   0.700   0.182 -0.3021 -0.8386  0.4931
  521MPD2     N 7744   0.685   0.556  17.478  0.3775 -0.2728  0.1463
  521MPD2    H5 7745   0.666   0.499  17.396  0.0068 -0.0840  0.0975
  521MPD2    N1 7746   0.221   0.505  17.604 -0.2968  0.3597  0.0022
  521MPD2    H7 7747   0.150   0.516  17.676 -1.3974  0.1775 -1.0448
  522TMC3    C1 7748   0.886   0.550  17.365 -0.2082 -0.4281  0.4219
  522TMC3    C2 7749   1.019   0.528  17.381 -0.2682 -0.0143 -0.1141
  522TMC3    C3 7750   1.088   0.463  17.282 -0.0741 -0.7394 -0.1774
  522TMC3    C4 7751   0.822   0.510  17.249 -0.0997 -0.4923 -0.6518
  522TMC3    C5 7752   0.889   0.437  17.156  0.2945 -0.1210  0.1004
  522TMC3    C6 7753   1.025   0.405  17.174  1.1948 -0.6932  0.1700
  522TMC3     C 7754   0.820   0.596  17.483  0.3176 -0.3103 -0.5965
  522TMC3     O 7755   0.880   0.666  17.568 -0.0166  0.4556 -0.4273
  522TMC3     H 7756   1.070   0.539  17.476 -1.5975  1.8241  0.3952
  522TMC3    H1 7757   0.715   0.523  17.241 -0.4549 -2.2556  1.1497
  522TMC3    H2 7758   1.079   0.373  17.086  1.2618 -0.9301  0.2981
  522TMC3    C7 7759   0.811   0.348  17.072  0.3833 -0.1726 -0.2240
  522TMC3    C8 7760   1.232   0.456  17.284 -1.0266 -0.4325  0.0719
  522TMC3    O1 7761   0.857   0.239  17.034 -0.1571 -0.7736 -0.5116
  522TMC3    O2 7762   1.293   0.543  17.344 -0.2537 -0.2531  0.1363
  523MPD2     C 7763   3.153   4.302  10.414 -0.1009  0.1876 -0.3832
  523MPD2    C1 7764   3.154   4.275  10.278  0.2469  0.1819 -0.5728
  523MPD2    C2 7765   3.123   4.370  10.180 -0.0177 -0.0982  0.9406
  523MPD2    C3 7766   3.091   4.500  10.221  0.8278  0.6089 -0.7801
  523MPD2    C4 7767   3.097   4.526  10.359  0.4679 -0.1604  0.0302
  523MPD2    C5 7768   3.127   4.431  10.448 -0.1587 -0.1493 -0.1882
  523MPD2     H 7769   3.123   4.350  10.073  0.1397  1.7614  0.5905
  523MPD2    H1 7770   3.074   4.628  10.388  1.0718  0.9291 -3.4207
  523MPD2    H2 7771   3.185   4.239  10.496  0.4056  2.7396  1.3904
  523MPD2    H3 7772   3.162   4.457  10.547 -0.1714  1.3430 -0.5746
  523MPD2     N 7773   3.047   4.594  10.133 -0.1243  0.2222 -0.2691
  523MPD2    H5 7774   3.035   4.688  10.169 -1.4205 -0.1189  0.1743
  523MPD2    N1 7775   3.183   4.141  10.238 -0.5184 -0.0412 -0.1128
  523MPD2    H7 7776   3.203   4.067  10.306 -0.0670  0.2234  0.0454
  524TMC3    C1 7777   2.988   4.697   9.923 -0.4256 -0.5957  0.6048
  524TMC3    C2 7778   2.965   4.675   9.789 -0.5834  0.4437 -0.1774
  524TMC3    C3 7779   2.924   0.066   9.726  0.3781  0.1036  0.0471
  524TMC3    C4 7780   3.000   0.096   9.985  0.2821  0.1270  0.5080
  524TMC3    C5 7781   2.962   0.203   9.912  0.0349 -0.1898 -0.4423
  524TMC3    C6 7782   2.922   0.187   9.782  0.5807 -0.2733 -0.4022
  524TMC3     C 7783   3.015   4.574  10.002  0.5203 -0.7650 -1.0555
  524TMC3     O 7784   3.018   4.467   9.938  0.1337 -0.2597 -0.2115
  524TMC3     H 7785   2.936   4.577   9.754 -0.6665  1.1424 -2.0992
  524TMC3    H1 7786   3.037   0.115  10.085 -0.6559  1.7922  0.5422
  524TMC3    H2 7787   2.905   0.269   9.713  0.1523  0.2155  0.2888
  524TMC3    C7 7788   2.945   0.332   9.980 -0.9314  0.1041  0.0047
  524TMC3    C8 7789   2.875   0.047   9.591  0.3292  0.6905 -0.4972
  524TMC3    O1 7790   2.957   0.321  10.104  0.5010  0.0937 -0.0415
  524TMC3    O2 7791   2.794   0.135   9.561 -0.1203  0.1171 -0.2733
  525MPD2     C 7792   0.975   1.758  14.745  0.1995 -0.5575 -0.3100
  525MPD2    C1 7793   1.094   1.742  14.813  0.1925 -0.1341 -0.4490
  525MPD2    C2 7794   1.200   1.825  14.782 -0.4408 -0.2415 -0.6136
  525MPD2    C3 7795   1.196   1.912  14.679 -0.9584  0.3117  0.7228
  525MPD2    C4 7796   1.087   1.908  14.602 -0.3483  0.0487 -0.3936
  525MPD2    C5 7797   0.972   1.837  14.636  0.1026 -0.4034  0.8196
  525MPD2     H 7798   1.281   1.816  14.854  2.3799 -3.1247 -4.1272
  525MPD2    H1 7799   1.082   1.976  14.518 -1.7656 -2.9232 -2.7191
  525MPD2    H2 7800   0.888   1.695  14.759  0.9947 -2.0903 -2.1505
  525MPD2    H3 7801   0.879   1.844  14.581  0.0920 -1.1518  0.7389
  525MPD2     N 7802   1.304   1.991  14.640 -0.7143  0.5403  0.3302
  525MPD2    H5 7803   1.281   2.070  14.580 -3.2449 -0.1947  0.2960
  525MPD2    N1 7804   1.119   1.662  14.926  0.6936  0.3163  0.0055
  525MPD2    H7 7805   1.212   1.668  14.967  1.8628 -1.5770 -2.3558
  526TMC3    C1 7806   1.052   1.557  15.121  0.0489  0.3994  0.2845
  526TMC3    C2 7807   0.971   1.595  15.224 -0.2239  0.5503  0.0624
  526TMC3    C3 7808   1.031   1.611  15.352 -0.3272 -0.5943 -0.2696
  526TMC3    C4 7809   1.188   1.526  15.131 -1.1473 -0.3611 -0.2376
  526TMC3    C5 7810   1.234   1.538  15.261  0.1417 -0.0955 -0.1109
  526TMC3    C6 7811   1.160   1.581  15.371  0.0403 -0.4394 -0.2526
  526TMC3     C 7812   1.016   1.597  14.990 -0.0549  0.3615 -0.1409
  526TMC3     O 7813   0.895   1.601  14.970  0.0276 -0.1396 -0.3479
  526TMC3     H 7814   0.865   1.602  15.207 -0.5847 -0.7152  1.7679
  526TMC3    H1 7815   1.254   1.499  15.050 -0.3344  2.0671 -0.3654
  526TMC3    H2 7816   1.207   1.592  15.468 -0.7880 -1.4945  0.2722
  526TMC3    C7 7817   1.374   1.494  15.296  0.1861  0.0263 -0.5729
  526TMC3    C8 7818   0.958   1.657  15.468 -0.0910  0.1785  0.3259
  526TMC3    O1 7819   1.405   1.482  15.411  0.6629 -0.4916 -0.0860
  526TMC3    O2 7820   1.008   1.625  15.575 -0.1770  0.7683  0.8662
  527MPD2     C 7821   3.425   0.054   1.093 -0.3649 -0.0720 -0.4718
  527MPD2    C1 7822   3.438   4.677   1.188 -0.2413  1.2965 -0.8060
  527MPD2    C2 7823   3.520   4.569   1.159 -0.5666 -0.4083 -0.4399
  527MPD2    C3 7824   3.593   4.563   1.042  0.1893 -0.1377 -0.0446
  527MPD2    C4 7825   3.581   4.663   0.947  0.4289  0.0342  0.1533
  527MPD2    C5 7826   3.505   0.047   0.979  0.9555  0.3571 -0.5746
  527MPD2     H 7827   3.520   4.490   1.233  0.7868 -2.0998 -2.2519
  527MPD2    H1 7828   3.652   4.688   0.870  1.6422 -2.0678  0.5633
  527MPD2    H2 7829   3.377   0.151   1.108 -1.7020 -0.4567 -2.1937
  527MPD2    H3 7830   3.520   0.138   0.920 -1.6551  1.2233  0.1205
  527MPD2     N 7831   3.698   4.466   1.029  0.6975  0.6481  0.3408
  527MPD2    H5 7832   3.705   4.389   1.094  0.3903  1.7600  1.6810
  527MPD2    N1 7833   3.360   4.680   1.308  0.6086 -0.7840 -0.0278
  527MPD2    H7 7834   3.375   4.607   1.377 -0.6403 -1.4922 -0.5229
  528TMC3    C1 7835   3.207   0.020   1.473 -0.3996  0.0515 -0.3376
  528TMC3    C2 7836   3.293   0.014   1.575 -0.8141 -0.5855  0.6155
  528TMC3    C3 7837   3.253   0.044   1.704  0.7104 -0.3121 -0.2842
  528TMC3    C4 7838   3.077   0.042   1.490 -0.0851 -0.6592 -0.1447
  528TMC3    C5 7839   3.038   0.068   1.616 -0.3896 -0.3276  0.1349
  528TMC3    C6 7840   3.123   0.072   1.729  0.1676 -0.8589 -0.1087
  528TMC3     C 7841   3.259   0.040   1.338 -0.5053 -0.6030 -0.2246
  528TMC3     O 7842   3.220   0.138   1.279 -0.3576  0.0050 -0.4016
  528TMC3     H 7843   3.400   0.006   1.559 -1.1206  1.7048 -2.5285
  528TMC3    H1 7844   3.009   0.044   1.405 -2.1354 -1.9176  1.4908
  528TMC3    H2 7845   3.089   0.097   1.828 -0.9148 -0.8790 -0.4772
  528TMC3    C7 7846   2.894   0.100   1.633  0.4785 -0.7383  0.1391
  528TMC3    C8 7847   3.358   0.065   1.806  0.2825  0.1226  0.7000
  528TMC3    O1 7848   2.809   0.057   1.558 -0.4101  0.1330  0.0260
  528TMC3    O2 7849   3.457   0.115   1.766 -0.2796  0.0389 -0.0368
  529MPD2     C 7850   1.734   3.366   0.759 -0.6691  0.1908 -0.7850
  529MPD2    C1 7851   1.741   3.286   0.647  0.1954  0.6922 -0.5753
  529MPD2    C2 7852   1.669   3.330   0.540 -0.0234 -0.4033  0.2093
  529MPD2    C3 7853   1.597   3.457   0.537 -0.0753 -0.1077  0.1806
  529MPD2    C4 7854   1.598   3.529   0.661 -0.1444 -0.2051  0.4071
  529MPD2    C5 7855   1.666   3.481   0.767  0.2187  0.0788 -0.4263
  529MPD2     H 7856   1.659   3.259   0.460 -1.5808  0.4864 -0.3784
  529MPD2    H1 7857   1.549   3.623   0.682  0.4237  0.5246 -1.4697
  529MPD2    H2 7858   1.766   3.349   0.861  1.9230  0.5683 -1.5219
  529MPD2    H3 7859   1.654   3.520   0.867  0.8626 -2.5171  0.6648
  529MPD2     N 7860   1.515   3.507   0.425 -0.2149  0.1924  0.0737
  529MPD2    H5 7861   1.458   3.589   0.441 -1.4094 -0.1583 -2.4996
  529MPD2    N1 7862   1.798   3.160   0.649 -0.0859  0.0638  0.0746
  529MPD2    H7 7863   1.781   3.102   0.568  0.2101  0.9738 -0.6461
  530TMC3    C1 7864   1.903   2.960   0.725  0.7681 -0.2724  0.3208
  530TMC3    C2 7865   1.965   2.886   0.824  0.5065 -0.1922  0.8580
  530TMC3    C3 7866   1.969   2.751   0.832  0.2259 -0.3530  0.3746
  530TMC3    C4 7867   1.854   2.886   0.615 -0.2172  0.2147  0.2802
  530TMC3    C5 7868   1.862   2.750   0.623 -0.1221 -1.0920 -0.0766
  530TMC3    C6 7869   1.906   2.680   0.730 -0.4659 -0.4378  0.6922
  530TMC3     C 7870   1.871   3.104   0.755 -0.0371 -0.4623 -0.1868
  530TMC3     O 7871   1.909   3.160   0.858 -0.1048 -0.4773 -0.0236
  530TMC3     H 7872   1.999   2.941   0.911  1.6517  0.5012 -0.0258
  530TMC3    H1 7873   1.806   2.926   0.526  1.9351  2.6444  0.1998
  530TMC3    H2 7874   1.910   2.572   0.728  2.3477 -0.2929 -1.7319
  530TMC3    C7 7875   1.749   2.686   0.555 -0.3980  0.2001  0.5413
  530TMC3    C8 7876   1.964   2.700   0.962 -0.0029 -0.6057  0.1449
  530TMC3    O1 7877   1.709   2.723   0.445  0.1246 -0.4555  0.2389
  530TMC3    O2 7878   1.912   2.776   1.044  0.2108  0.2335 -0.2816
  531MPD2     C 7879   0.845   0.937  13.297 -0.0202 -0.0392 -0.0667
  531MPD2    C1 7880   0.737   1.003  13.352  0.5129 -0.2380 -0.0219
  531MPD2    C2 7881   0.611   0.979  13.300  0.5936 -0.1510  0.2469
  531MPD2    C3 7882   0.588   0.886  13.198  0.7483 -0.4354 -0.4669
  531MPD2    C4 7883   0.703   0.827  13.141  0.2199 -0.6239 -0.3538
  531MPD2    C5 7884   0.826   0.850  13.195  0.3488 -0.3027  0.3574
  531MPD2     H 7885   0.526   1.035  13.337 -1.4619 -0.8910 -3.2570
  531MPD2    H1 7886   0.705   0.751  13.065  2.4876 -3.0108  2.1029
  531MPD2    H2 7887   0.943   0.940  13.342 -0.0729  2.5426 -0.1642
  531MPD2    H3 7888   0.907   0.796  13.147  1.5645  1.5129  0.4107
  531MPD2     N 7889   0.451   0.860  13.162  0.7337  1.0449  0.5486
  531MPD2    H5 7890   0.394   0.895  13.238  0.9714 -2.1042  2.1878
  531MPD2    N1 7891   0.764   1.113  13.442 -0.1262 -0.0453  0.5731
  531MPD2    H7 7892   0.859   1.107  13.479  0.5290  1.1196 -0.9284
  532TMC3    C1 7893   0.730   1.265  13.618 -0.6533  0.1414  0.0099
  532TMC3    C2 7894   0.624   1.299  13.698  0.0716  0.1413  0.3170
  532TMC3    C3 7895   0.621   1.256  13.832  0.4950 -0.2192 -0.4035
  532TMC3    C4 7896   0.837   1.204  13.678 -0.0096 -0.1870 -0.7449
  532TMC3    C5 7897   0.837   1.171  13.813  0.4975 -0.5533 -0.1953
  532TMC3    C6 7898   0.730   1.195  13.891 -0.0550 -0.4924 -0.6186
  532TMC3     C 7899   0.677   1.207  13.496 -0.2376 -0.8698  0.3072
  532TMC3     O 7900   0.560   1.230  13.470 -0.0610 -0.3178  0.2305
  532TMC3     H 7901   0.550   1.371  13.663 -1.9397 -1.0177  2.1189
  532TMC3    H1 7902   0.922   1.164  13.623 -0.5220 -0.1613 -1.5614
  532TMC3    H2 7903   0.726   1.162  13.994  1.1059  2.0486  0.2567
  532TMC3    C7 7904   0.916   1.060  13.847  0.2002 -0.1138 -0.1068
  532TMC3    C8 7905   0.501   1.171  13.863  0.0969 -0.2109  0.9159
  532TMC3    O1 7906   1.003   1.083  13.931  0.1413 -0.1154  0.0069
  532TMC3    O2 7907   0.482   1.134  13.978  0.1447  0.1082  0.1509
  533TMC3    C1 7908   1.471   2.146  14.679  0.0162  0.4415  0.3525
  533TMC3    C2 7909   1.596   2.179  14.720  0.1301 -0.5734  0.2158
  533TMC3    C3 7910   1.623   2.298  14.764  0.3235  0.4741  0.3109
  533TMC3    C4 7911   1.377   2.251  14.676  0.0501 -0.6336  0.1183
  533TMC3    C5 7912   1.406   2.370  14.737 -0.5686 -0.1296 -0.3618
  533TMC3    C6 7913   1.537   2.401  14.764 -0.5890  0.4613  0.2073
  533TMC3     C 7914   1.431   2.002  14.696  0.2773  0.4561  0.0405
  533TMC3     O 7915   1.503   1.916  14.748  0.0611 -1.0442 -0.2682
  533TMC3     H 7916   1.658   2.089  14.725  1.4897  0.3945  0.8665
  533TMC3    H1 7917   1.271   2.241  14.654 -0.0688  1.8716 -0.5370
  533TMC3    H2 7918   1.563   2.500  14.799  1.7600 -0.0587 -0.1242
  533TMC3    C7 7919   1.298   2.427  14.822  0.3612 -0.3088 -0.0214
  533TMC3    C8 7920   1.761   2.337  14.809  0.1201 -0.5492 -0.5528
  533TMC3    O1 7921   1.197   2.356  14.838  0.0844 -0.2823  0.1519
  533TMC3    O2 7922   1.780   2.454  14.832 -0.1513 -0.2306 -0.2981
  534MPD2     C 7923   3.744   3.416   1.862 -0.0303 -0.2068 -0.3651
  534MPD2    C1 7924   3.715   3.451   1.736 -0.7266 -0.0574 -0.4222
  534MPD2    C2 7925   3.718   3.350   1.638 -0.2330  0.0816  0.0128
  534MPD2    C3 7926   3.739   3.219   1.659 -0.6925 -0.0476  0.4160
  534MPD2    C4 7927   3.771   3.191   1.795 -0.0034  0.2406 -0.0673
  534MPD2    C5 7928   3.769   3.287   1.888  1.1603 -0.5138 -0.2487
  534MPD2     H 7929   3.694   3.388   1.539 -0.6900  1.9830  0.8624
  534MPD2    H1 7930   3.795   3.090   1.826  1.0242  0.6514  0.4450
  534MPD2    H2 7931   3.746   3.479   1.951 -0.8752 -1.8439  0.8295
  534MPD2    H3 7932   3.799   3.260   1.988  1.3445 -1.0724 -0.4555
  534MPD2     N 7933   3.751   3.116   1.560 -0.1706  0.2577  0.0867
  534MPD2    H5 7934   3.776   3.025   1.595  1.3870 -0.1663 -2.1379
  534MPD2    N1 7935   3.681   3.587   1.697  0.4054 -0.4280 -0.2988
  534MPD2    H7 7936   3.654   3.609   1.602 -2.4030  0.7556  0.7791
  535TMC3    C1 7937   3.695   3.031   1.343  0.0336  0.6233 -0.1831
  535TMC3    C2 7938   3.596   2.958   1.396 -0.1938  0.5675  0.3763
  535TMC3    C3 7939   3.490   2.928   1.315  0.1261 -0.4797  0.4686
  535TMC3    C4 7940   3.713   3.056   1.209  0.2470 -0.1849 -0.4953
  535TMC3    C5 7941   3.612   3.019   1.127  0.0421 -0.0984  0.1224
  535TMC3    C6 7942   3.496   2.960   1.185  0.4679  1.0864 -0.0355
  535TMC3     C 7943   3.729   3.147   1.424 -0.6447  1.0429 -0.4994
  535TMC3     O 7944   3.736   3.251   1.362  0.1546  0.3227 -0.4992
  535TMC3     H 7945   3.591   2.953   1.504 -0.2103 -1.3944  0.2906
  535TMC3    H1 7946   3.791   3.120   1.170 -1.8282  1.2877 -2.2765
  535TMC3    H2 7947   3.415   2.937   1.118  0.2337  1.5462  0.0869
  535TMC3    C7 7948   3.621   3.054   0.980 -0.4670  0.2500  0.6867
  535TMC3    C8 7949   3.367   2.868   1.370 -0.5111  0.7997 -0.5268
  535TMC3    O1 7950   3.731   3.053   0.923 -0.3483 -0.6436  0.0868
  535TMC3    O2 7951   3.298   2.814   1.284  0.6835 -0.7269  0.9291
  536MPD2     C 7952   2.484   2.079  16.266 -0.4937  0.1724  0.2670
  536MPD2    C1 7953   2.346   2.074  16.274 -0.3641 -0.0591  0.0202
  536MPD2    C2 7954   2.273   2.115  16.170 -0.3620  0.0035  0.3833
  536MPD2    C3 7955   2.327   2.152  16.050  0.4510  0.1946 -0.1904
  536MPD2    C4 7956   2.470   2.152  16.041  0.3978  0.4117  0.5822
  536MPD2    C5 7957   2.545   2.114  16.147  0.2345  0.2969 -0.3885
  536MPD2     H 7958   2.165   2.121  16.181 -0.4311 -1.1934  0.2676
  536MPD2    H1 7959   2.514   2.196  15.952  1.2017 -1.5170  0.0208
  536MPD2    H2 7960   2.549   2.054  16.349  1.0784  0.4873 -0.8510
  536MPD2    H3 7961   2.653   2.113  16.150  0.1919 -0.3691  0.9779
  536MPD2     N 7962   2.253   2.208  15.946 -0.0371 -0.4013  0.1207
  536MPD2    H5 7963   2.305   2.231  15.862 -0.4402 -0.4224 -0.1277
  536MPD2    N1 7964   2.289   2.051  16.403  0.1565 -0.7550 -0.8401
  536MPD2    H7 7965   2.364   2.029  16.468  0.7006 -0.9485 -1.5293
  537TMC3    C1 7966   2.139   2.036  16.585  1.2202  0.4194 -0.1062
  537TMC3    C2 7967   2.243   2.052  16.667 -0.6553 -0.8084 -0.3489
  537TMC3    C3 7968   2.220   2.009  16.798  0.0251  0.3055  0.3962
  537TMC3    C4 7969   2.022   1.974  16.615 -0.0962  0.6674  0.4077
  537TMC3    C5 7970   2.013   1.931  16.747  0.5011 -0.0800 -0.4816
  537TMC3    C6 7971   2.106   1.948  16.840 -0.0898 -0.1870  0.1296
  537TMC3     C 7972   2.161   2.055  16.442  0.2838  0.0793 -0.5117
  537TMC3     O 7973   2.062   2.066  16.370  0.1147  0.0147 -0.0231
  537TMC3     H 7974   2.336   2.102  16.643  0.0176 -0.6099  2.6178
  537TMC3    H1 7975   1.943   1.969  16.542 -0.0006  2.5029  0.1823
  537TMC3    H2 7976   2.089   1.930  16.946 -0.1744 -0.0421  0.1400
  537TMC3    C7 7977   1.884   1.856  16.780 -0.3844  0.2329 -0.1653
  537TMC3    C8 7978   2.326   2.032  16.901 -0.1537 -0.1663 -0.7072
  537TMC3    O1 7979   1.784   1.895  16.721 -0.0577  0.2382 -0.8823
  537TMC3    O2 7980   2.400   2.128  16.878 -0.0319 -0.0521 -0.4717
  538TMC3    C1 7981   3.572   0.063  10.905  0.4841 -1.4058 -0.4599
  538TMC3    C2 7982   3.604   0.004  10.794  0.9326 -0.2079  0.7074
  538TMC3    C3 7983   3.531   0.028  10.681  0.2838 -0.5391  0.2899
  538TMC3    C4 7984   3.473   0.160  10.908 -0.6312  0.3441  0.1039
  538TMC3    C5 7985   3.406   0.183  10.792  0.2637  0.1204 -0.0958
  538TMC3    C6 7986   3.435   0.121  10.676 -0.1647  0.3372  0.4093
  538TMC3     C 7987   3.610   0.015  11.041 -0.3480 -0.4041 -0.6010
  538TMC3     O 7988   3.542   0.063  11.133  0.3498 -0.2234  0.0459
  538TMC3     H 7989   3.679   4.649  10.803 -0.2161 -1.4987 -0.8954
  538TMC3    H1 7990   3.444   0.211  10.999 -0.3770  1.8723 -0.6805
  538TMC3    H2 7991   3.369   0.136  10.591 -0.8233 -0.7402  0.7330
  538TMC3    C7 7992   3.279   0.252  10.794  0.1165 -0.1118  0.2059
  538TMC3    C8 7993   3.598   4.715  10.557  0.4636 -0.0655 -0.3440
  538TMC3    O1 7994   3.193   0.217  10.719  0.2022 -0.6849 -0.4359
  538TMC3    O2 7995   3.676   4.620  10.547 -0.0117  0.3209  0.5888
  539MPD2     C 7996   3.165   4.025  11.862  0.7214  0.2695 -0.3513
  539MPD2    C1 7997   3.255   4.054  11.765 -0.5429 -0.1401  0.2071
  539MPD2    C2 7998   3.243   4.180  11.710 -0.1127 -0.5139 -1.0375
  539MPD2    C3 7999   3.156   4.279  11.747 -0.0851 -0.3726  0.4719
  539MPD2    C4 8000   3.088   4.248  11.861  0.1208  0.3863  0.6025
  539MPD2    C5 8001   3.091   4.121  11.921  0.3966 -0.1919 -0.4134
  539MPD2     H 8002   3.310   4.201  11.627  0.1792  0.0471 -0.6606
  539MPD2    H1 8003   3.017   4.319  11.903  0.5462  0.1932  1.6643
  539MPD2    H2 8004   3.162   3.927  11.907  1.5863 -0.4833 -1.9312
  539MPD2    H3 8005   3.041   4.093  12.013 -1.5438  0.2153 -1.3307
  539MPD2     N 8006   3.146   4.406  11.687 -0.0640  0.2435 -0.0583
  539MPD2    H5 8007   3.088   4.478  11.729 -1.2296 -0.1229 -1.0301
  539MPD2    N1 8008   3.356   3.967  11.720 -0.7836 -0.0621 -0.0880
  539MPD2    H7 8009   3.410   3.998  11.640 -0.7144 -0.3614 -0.1569
  540TMC3    C1 8010   3.166   4.578  11.531 -0.3246  0.0338 -0.5236
  540TMC3    C2 8011   3.115   4.587  11.406  0.6566  0.5207 -0.0935
  540TMC3    C3 8012   3.027   4.689  11.387 -0.2478 -0.2042  0.2067
  540TMC3    C4 8013   3.155   4.671  11.626  0.2823 -0.2825 -0.7677
  540TMC3    C5 8014   3.085   0.057  11.593  0.4472  0.7445 -0.3113
  540TMC3    C6 8015   3.016   0.071  11.472  0.1000 -0.1075  0.2416
  540TMC3     C 8016   3.212   4.448  11.567  0.6005 -0.1364 -0.0428
  540TMC3     O 8017   3.287   4.390  11.489  0.3223  0.7764 -0.3210
  540TMC3     H 8018   3.127   4.508  11.333 -0.7319 -0.8075  1.1268
  540TMC3    H1 8019   3.190   4.642  11.725 -1.5121  1.4525  0.3808
  540TMC3    H2 8020   2.969   0.166  11.451  1.5946  0.3595 -1.0160
  540TMC3    C7 8021   3.075   0.163  11.695 -0.3703 -0.7447 -0.4225
  540TMC3    C8 8022   2.982   4.710  11.248 -0.3379  0.6500 -0.2909
  540TMC3    O1 8023   2.982   0.242  11.684 -0.1227  0.1418  0.0914
  540TMC3    O2 8024   2.946   0.103  11.219 -0.6553 -0.3268  0.0997
  541MPD2     C 8025   1.443   1.050  13.260 -0.6175  0.0980 -0.1922
  541MPD2    C1 8026   1.501   0.994  13.153 -0.2204  0.3133  0.5900
  541MPD2    C2 8027   1.511   1.073  13.037 -0.7659 -0.3611 -0.1160
  541MPD2    C3 8028   1.441   1.193  13.034 -0.3343  0.4454 -0.6147
  541MPD2    C4 8029   1.368   1.241  13.138 -0.4970  0.6318 -1.1396
  541MPD2    C5 8030   1.385   1.170  13.252  0.4120  0.1910  0.0407
  541MPD2     H 8031   1.572   1.041  12.953  0.1768  0.1530  0.3876
  541MPD2    H1 8032   1.314   1.336  13.136  0.6680  1.3359  0.9243
  541MPD2    H2 8033   1.444   0.999  13.356  0.8828  1.5916  0.5705
  541MPD2    H3 8034   1.359   1.209  13.349 -1.4204  1.7957 -1.1098
  541MPD2     N 8035   1.438   1.274  12.923 -0.4731  0.0444  0.0346
  541MPD2    H5 8036   1.383   1.359  12.927  1.4910  1.3513 -0.5189
  541MPD2    N1 8037   1.553   0.866  13.163  0.1708  0.1171  0.5371
  541MPD2    H7 8038   1.548   0.833  13.259 -3.5825 -0.5334  0.1168
  542TMC3    C1 8039   1.465   1.339  12.701  0.0640  0.4956  0.0184
  542TMC3    C2 8040   1.548   1.336  12.592  0.1487  0.2593  0.1645
  542TMC3    C3 8041   1.488   1.344  12.469 -0.0391  0.2071  0.0804
  542TMC3    C4 8042   1.332   1.368  12.683  0.1171  0.2032 -0.6053
  542TMC3    C5 8043   1.270   1.358  12.560  0.4001  0.6216 -0.7151
  542TMC3    C6 8044   1.351   1.341  12.454  0.0635  0.0170  0.4743
  542TMC3     C 8045   1.512   1.256  12.808  0.6837 -0.3504  0.1986
  542TMC3     O 8046   1.608   1.185  12.775 -0.0545 -0.3426 -0.1716
  542TMC3     H 8047   1.656   1.334  12.593  0.1013 -1.0109  1.7760
  542TMC3    H1 8048   1.261   1.350  12.763  1.6751  1.1562  1.0059
  542TMC3    H2 8049   1.309   1.326  12.355 -3.4075 -0.2031  1.9869
  542TMC3    C7 8050   1.163   1.441  12.524 -0.3130 -0.6811 -0.4514
  542TMC3    C8 8051   1.565   1.315  12.346 -0.6245  0.6149  0.0684
  542TMC3    O1 8052   1.095   1.431  12.419  0.6040 -0.1431  0.2698
  542TMC3    O2 8053   1.501   1.264  12.256 -0.0305  0.0210 -0.3432
  543TMC3    C1 8054   1.061   2.704  17.450  0.0361  0.3711 -0.9753
  543TMC3    C2 8055   1.120   2.602  17.517  0.1094  0.3926 -0.0618
  543TMC3    C3 8056   1.065   2.562  17.634 -0.3629 -0.2997  0.2743
  543TMC3    C4 8057   0.946   2.762  17.495 -0.9381 -0.8323 -0.0151
  543TMC3    C5 8058   0.901   2.720  17.618 -0.0097 -0.3369  0.3749
  543TMC3    C6 8059   0.950   2.610  17.692  0.7667 -0.2828 -0.0065
  543TMC3     C 8060   1.108   2.719  17.313  0.4694  0.6883  0.6196
  543TMC3     O 8061   1.215   2.677  17.282 -0.2193 -0.1352 -0.0490
  543TMC3     H 8062   1.212   2.556  17.486  0.5134 -0.3860  2.2863
  543TMC3    H1 8063   0.903   2.845  17.441  2.2554  1.4175  0.8670
  543TMC3    H2 8064   0.902   2.579   0.090 -0.2968  0.7900 -0.1986
  543TMC3    C7 8065   0.797   2.791  17.684 -0.1353 -0.5037  0.6905
  543TMC3    C8 8066   1.107   2.420  17.661 -0.8120  0.8945  0.0109
  543TMC3    O1 8067   0.763   2.742   0.101  0.3920 -0.2992 -0.4508
  543TMC3    O2 8068   1.197   2.367  17.595  0.4819 -0.5906  0.0898
  544MPD2     C 8069   0.984   1.974   0.169 -0.6445 -0.4445  1.1979
  544MPD2    C1 8070   1.019   2.004   0.036  0.0223  0.4219  0.2653
  544MPD2    C2 8071   1.070   2.132   0.009 -0.3261 -0.2976 -0.0764
  544MPD2    C3 8072   1.047   2.232   0.103 -0.7499  0.7170 -0.6339
  544MPD2    C4 8073   1.007   2.197   0.226 -0.2348 -0.3091  0.7478
  544MPD2    C5 8074   0.981   2.067   0.269 -0.3037 -0.1034 -0.5364
  544MPD2     H 8075   1.101   2.161  17.603  0.2288  2.5460  0.9156
  544MPD2    H1 8076   1.000   2.270   0.306  3.7569  0.3919  0.4568
  544MPD2    H2 8077   0.960   1.873   0.199 -0.3733 -1.0259 -0.5419
  544MPD2    H3 8078   0.954   2.039   0.370  1.0598  0.4191 -0.0280
  544MPD2     N 8079   1.047   2.369   0.077  0.4022 -0.1498  0.3952
  544MPD2    H5 8080   1.006   2.427   0.150 -1.5535 -1.8027  0.6188
  544MPD2    N1 8081   1.013   1.898  17.634 -0.1769 -0.2847  0.7169
  544MPD2    H7 8082   0.985   1.804  17.659  0.0458 -0.4658  0.2792
  545TMC3    C1 8083   0.992   1.778  17.429 -0.0820  0.7120 -0.3305
  545TMC3    C2 8084   0.932   1.792  17.310 -0.0908  0.4089 -0.2884
  545TMC3    C3 8085   0.878   1.674  17.266  0.4140  0.7691 -0.0856
  545TMC3    C4 8086   1.003   1.662  17.498 -0.1943  0.1485  0.3708
  545TMC3    C5 8087   0.950   1.549  17.445 -0.2269 -0.2037  0.1098
  545TMC3    C6 8088   0.878   1.549  17.331  0.6167  0.0174  0.2853
  545TMC3     C 8089   1.023   1.911  17.496  0.6185  0.2019 -0.7009
  545TMC3     O 8090   1.035   2.015  17.429 -0.1558  0.3061 -0.4558
  545TMC3     H 8091   0.902   1.889  17.273 -1.5734  0.6255  1.5014
  545TMC3    H1 8092   1.066   1.659  17.586  1.0320 -0.2937 -0.5306
  545TMC3    H2 8093   0.855   1.459  17.275  1.2931  0.9194 -1.4258
  545TMC3    C7 8094   0.948   1.433  17.523  0.0466  0.0034 -0.5441
  545TMC3    C8 8095   0.769   1.699  17.169 -0.8397  0.1875 -0.5750
  545TMC3    O1 8096   0.864   1.351  17.489  0.0437 -0.2424 -0.3333
  545TMC3    O2 8097   0.797   1.787  17.089  0.4906 -0.3036 -0.0544
  546MPD2     C 8098   2.308   1.991  17.581  0.8462  0.1896  0.4728
  546MPD2    C1 8099   2.265   2.066  17.469 -0.0025  0.0916 -0.4354
  546MPD2    C2 8100   2.346   2.175  17.436 -0.1947 -0.8181 -0.3330
  546MPD2    C3 8101   2.441   2.228  17.517 -0.5746  0.5948  0.0800
  546MPD2    C4 8102   2.478   2.153  17.629  0.3398  0.3458  0.5798
  546MPD2    C5 8103   2.411   2.034  17.661 -0.0261  0.2654 -0.7662
  546MPD2     H 8104   2.333   2.209  17.334  0.9283 -0.6052 -0.4013
  546MPD2    H1 8105   2.547   2.193   0.009  1.9445  0.8869 -1.2240
  546MPD2    H2 8106   2.260   1.899  17.611  0.1260 -0.0466 -1.3692
  546MPD2    H3 8107   2.434   1.971   0.051 -1.6234  2.4292  1.2985
  546MPD2     N 8108   2.500   2.354  17.490  0.0309  0.0498  0.0152
  546MPD2    H5 8109   2.567   2.381  17.562  0.1918  0.4443 -0.2869
  546MPD2    N1 8110   2.159   2.017  17.392 -0.2787  0.0858  0.8935
  546MPD2    H7 8111   2.106   1.945  17.440 -1.7946  0.9408  0.5089
  547TMC3    C1 8112   1.998   1.985  17.238  0.0477  0.6323 -0.6764
  547TMC3    C2 8113   1.883   2.042  17.179  0.1966  0.4337 -0.6177
  547TMC3    C3 8114   1.780   1.961  17.154  0.5065  0.6311  0.1389
  547TMC3    C4 8115   2.001   1.853  17.272  0.5317 -0.7468  0.0990
  547TMC3    C5 8116   1.887   1.780  17.253  0.4102 -0.1205  0.9343
  547TMC3    C6 8117   1.773   1.827  17.190  0.2069  0.4121 -0.0238
  547TMC3     C 8118   2.095   2.077  17.288 -0.1146 -0.6304  0.0199
  547TMC3     O 8119   2.130   2.169  17.216 -0.3899  0.5160  0.1685
  547TMC3     H 8120   1.876   2.147  17.154  1.0124  0.7490  0.4800
  547TMC3    H1 8121   2.095   1.804  17.297  0.0760 -1.2403  0.8635
  547TMC3    H2 8122   1.685   1.768  17.164  1.3067 -1.6869  1.0073
  547TMC3    C7 8123   1.880   1.662  17.335  0.0376 -0.0803 -0.0807
  547TMC3    C8 8124   1.678   2.004  17.061  0.4200  0.3513  0.5832
  547TMC3    O1 8125   1.970   1.638  17.415 -0.3218 -0.2019  0.3777
  547TMC3    O2 8126   1.716   2.099  16.996  0.1583  0.2333 -0.4976
  548MPD2     C 8127   1.714   2.829  12.665 -0.1387  0.0309  0.3947
  548MPD2    C1 8128   1.705   2.790  12.535  0.0061  0.2868 -0.2896
  548MPD2    C2 8129   1.813   2.716  12.490  0.3419 -0.1658  0.2615
  548MPD2    C3 8130   1.924   2.687  12.570 -0.0926  0.2084 -0.9903
  548MPD2    C4 8131   1.930   2.738  12.698  0.0795 -0.0813  0.3332
  548MPD2    C5 8132   1.822   2.808  12.739  0.3545  0.3486 -0.2229
  548MPD2     H 8133   1.817   2.676  12.389  0.1697  1.5298 -0.4178
  548MPD2    H1 8134   2.006   2.713  12.772  0.0010 -0.8450  0.1591
  548MPD2    H2 8135   1.640   2.899  12.702 -0.5461  1.2988 -2.8318
  548MPD2    H3 8136   1.834   2.869  12.828 -1.8455 -0.7717  0.8260
  548MPD2     N 8137   2.027   2.610  12.517  0.4535  0.2754 -0.3800
  548MPD2    H5 8138   2.007   2.563  12.429  1.1719  1.0897 -0.9878
  548MPD2    N1 8139   1.597   2.825  12.458  0.1305  0.4125 -0.9713
  548MPD2    H7 8140   1.514   2.854  12.509  0.7181  0.9018 -0.2921
  549TMC3    C1 8141   1.465   2.842  12.271 -0.1140 -0.4954  0.2756
  549TMC3    C2 8142   1.457   2.881  12.137 -1.3064  0.3565  1.1776
  549TMC3    C3 8143   1.328   2.900  12.094  0.4082  0.0068 -0.3540
  549TMC3    C4 8144   1.363   2.789  12.346  0.4284  0.3387  0.6451
  549TMC3    C5 8145   1.241   2.794  12.287 -0.5128 -0.6885  0.3918
  549TMC3    C6 8146   1.223   2.851  12.164 -0.5128 -0.0860  0.4114
  549TMC3     C 8147   1.594   2.818  12.319 -0.2890  0.2527  0.4279
  549TMC3     O 8148   1.687   2.828  12.243  0.2503 -0.2515 -0.4361
  549TMC3     H 8149   1.552   2.903  12.090 -1.1618 -0.4248  1.1062
  549TMC3    H1 8150   1.382   2.742  12.442  2.3767  1.0931  0.6275
  549TMC3    H2 8151   1.124   2.848  12.120 -1.5532  0.3007  2.7513
  549TMC3    C7 8152   1.140   2.698  12.325 -0.3618  0.3540  0.1024
  549TMC3    C8 8153   1.301   2.987  11.977 -0.2599 -0.2700 -0.1401
  549TMC3    O1 8154   1.033   2.699  12.272  0.1992 -0.3621  0.0575
  549TMC3    O2 8155   1.184   2.995  11.951  0.4937  0.1084  0.6377
  550TMC3    C1 8156   0.932   0.699  12.426 -0.7586  0.0807 -0.0442
  550TMC3    C2 8157   0.864   0.768  12.526  0.5575 -0.7045 -0.6540
  550TMC3    C3 8158   0.731   0.746  12.530  0.3011  0.9493  0.0413
  550TMC3    C4 8159   0.875   0.638  12.319  0.9017 -0.2905 -0.5483
  550TMC3    C5 8160   0.739   0.616  12.331  0.2498  1.2942 -1.0105
  550TMC3    C6 8161   0.672   0.653  12.443  0.6647 -0.0658  0.7071
  550TMC3     C 8162   1.080   0.692  12.424  0.0791  0.2006 -0.1432
  550TMC3     O 8163   1.136   0.684  12.534 -0.8480  0.3768 -0.1246
  550TMC3     H 8164   0.915   0.816  12.609 -0.1057 -0.0168 -0.6429
  550TMC3    H1 8165   0.928   0.586  12.240 -0.9497  2.0771 -3.3808
  550TMC3    H2 8166   0.564   0.644  12.446  0.5984  0.5648  0.1289
  550TMC3    C7 8167   0.657   0.578  12.222 -0.3558 -0.1881 -0.2472
  550TMC3    C8 8168   0.649   0.858  12.577  0.1348  0.0702  0.4279
  550TMC3    O1 8169   0.566   0.495  12.244 -0.2274  0.4982  0.1034
  550TMC3    O2 8170   0.548   0.879  12.519  0.1924  0.4325  0.0782
  551TMC3    C1 8171   3.125   3.202  13.556  0.2850  0.0315  0.3764
  551TMC3    C2 8172   3.220   3.264  13.470  0.0874  0.5682  0.3970
  551TMC3    C3 8173   3.279   3.383  13.522 -0.4388 -0.1472 -0.5594
  551TMC3    C4 8174   3.102   3.251  13.681 -0.3100  0.2587 -0.0741
  551TMC3    C5 8175   3.165   3.364  13.722  0.1715  0.5058 -0.3251
  551TMC3    C6 8176   3.241   3.445  13.641  0.7284 -0.1361 -0.3622
  551TMC3     C 8177   3.070   3.078  13.507 -0.1895  0.0577 -0.6420
  551TMC3     O 8178   3.056   3.074  13.386  0.1849 -0.5146 -0.2949
  551TMC3     H 8179   3.255   3.206  13.385 -1.0804  0.2070  0.1651
  551TMC3    H1 8180   3.035   3.200  13.749 -1.6203  0.2025 -1.4025
  551TMC3    H2 8181   3.292   3.534  13.674 -0.4647  0.0343  1.0011
  551TMC3    C7 8182   3.138   3.414  13.856 -0.3584  0.3209 -0.0426
  551TMC3    C8 8183   3.404   3.428  13.461  0.5469 -0.2969  0.2443
  551TMC3    O1 8184   3.157   3.332  13.947  0.0987 -0.6775 -0.4574
  551TMC3    O2 8185   3.469   3.335  13.414 -0.0259  0.2517 -0.8064
  552MPD2     C 8186   0.173   0.655  14.296 -0.0292  0.2083  0.3001
  552MPD2    C1 8187   0.286   0.608  14.241 -0.1633  0.9565 -0.0775
  552MPD2    C2 8188   0.406   0.605  14.313 -0.4896  0.1038 -0.1129
  552MPD2    C3 8189   0.410   0.657  14.439  0.1227  0.3654 -0.6586
  552MPD2    C4 8190   0.301   0.713  14.495  0.2540 -0.6921  0.4825
  552MPD2    C5 8191   0.185   0.695  14.429 -0.1171 -1.0781 -0.0381
  552MPD2     H 8192   0.498   0.562  14.274 -0.5220  0.5621 -0.6920
  552MPD2    H1 8193   0.300   0.752  14.596 -0.2935  0.5491  0.0018
  552MPD2    H2 8194   0.077   0.643  14.246 -0.4370  0.2910  1.0614
  552MPD2    H3 8195   0.101   0.726  14.491 -0.8464  1.5388 -2.3543
  552MPD2     N 8196   0.532   0.669  14.511 -0.0455  0.3949 -0.0301
  552MPD2    H5 8197   0.518   0.704  14.605 -2.8171  1.1242 -0.7210
  552MPD2    N1 8198   0.289   0.553  14.114 -0.6586 -0.1742 -0.4143
  552MPD2    H7 8199   0.370   0.498  14.088 -0.5790  0.0288 -0.6042
  553TMC3    C1 8200   0.212   0.492  13.900  0.8321  0.5324  0.0186
  553TMC3    C2 8201   0.150   0.539  13.789  0.1053  0.6112  0.8040
  553TMC3    C3 8202   0.147   0.444  13.688  0.4050  0.2705  0.5499
  553TMC3    C4 8203   0.248   0.357  13.926 -0.6696  0.2914 -0.2843
  553TMC3    C5 8204   0.228   0.268  13.821 -0.3217 -0.0365 -0.5256
  553TMC3    C6 8205   0.175   0.315  13.701 -0.1281 -0.1447  0.3981
  553TMC3     C 8206   0.192   0.579  14.015  0.4369 -0.6697 -0.1155
  553TMC3     O 8207   0.099   0.659  14.005 -0.4242 -0.0264  0.3921
  553TMC3     H 8208   0.113   0.639  13.774 -2.1948 -0.3468  0.0644
  553TMC3    H1 8209   0.311   0.327  14.009  1.4015 -1.0175 -2.3337
  553TMC3    H2 8210   0.173   0.247  13.616  0.3247 -0.2018  0.4354
  553TMC3    C7 8211   0.313   0.149  13.816  0.2307 -0.6042  0.1078
  553TMC3    C8 8212   0.216   0.496  13.572  0.9853  0.8140 -0.4738
  553TMC3    O1 8213   0.263   0.039  13.805  0.4334 -0.4544  0.6018
  553TMC3    O2 8214   0.317   0.556  13.599  0.3969 -0.3734  0.5557
  554TMC3    C1 8215   2.681   4.180  11.847 -0.3107  0.6231  0.3689
  554TMC3    C2 8216   2.620   4.090  11.768  0.3794 -0.1525 -1.1187
  554TMC3    C3 8217   2.603   4.122  11.632 -0.0206 -0.2864  0.4164
  554TMC3    C4 8218   2.723   4.306  11.792  0.1228 -0.2956 -0.2935
  554TMC3    C5 8219   2.708   4.325  11.661 -0.2391  0.1244  0.0189
  554TMC3    C6 8220   2.655   4.231  11.576  0.5459 -0.0444  0.6036
  554TMC3     C 8221   2.740   4.150  11.967 -0.3105  0.3732  0.2705
  554TMC3     O 8222   2.781   4.241  12.037  0.0552 -0.0742  0.0648
  554TMC3     H 8223   2.579   4.000  11.812  4.2949 -2.1697 -1.5737
  554TMC3    H1 8224   2.767   4.384  11.852  1.9508 -1.5949  0.0553
  554TMC3    H2 8225   2.634   4.267  11.476  0.1542  0.7995  0.9960
  554TMC3    C7 8226   2.724   4.448  11.596 -0.2364 -0.5086  0.1902
  554TMC3    C8 8227   2.518   4.057  11.534 -0.4230  0.2519 -0.9639
  554TMC3    O1 8228   2.747   4.446  11.473  0.0801  0.2953  0.4959
  554TMC3    O2 8229   2.562   4.073  11.424 -0.3989 -0.2911  0.2059
  555TMC3    C1 8230   1.205   3.649  14.861 -0.2310  0.6016 -0.2698
  555TMC3    C2 8231   1.181   3.776  14.907 -0.3643  0.4339  0.1698
  555TMC3    C3 8232   1.250   3.804  15.022 -0.3581  0.4542  0.0655
  555TMC3    C4 8233   1.299   3.567  14.919 -0.0017 -0.2974  0.0520
  555TMC3    C5 8234   1.370   3.597  15.025 -0.9206 -0.3942  0.2818
  555TMC3    C6 8235   1.327   3.712  15.088  0.4503  0.2905  0.3976
  555TMC3     C 8236   1.166   3.619  14.725  0.2291  1.0211 -0.2041
  555TMC3     O 8237   1.204   3.510  14.687  0.3492  0.0632  0.3771
  555TMC3     H 8238   1.119   3.851  14.859 -2.4686 -1.1040  0.4916
  555TMC3    H1 8239   1.326   3.471  14.875 -3.2177 -2.0524  1.8958
  555TMC3    H2 8240   1.394   3.739  15.169  2.0577 -0.5516 -0.6563
  555TMC3    C7 8241   1.400   3.493  15.120  0.0136  0.2857  0.5039
  555TMC3    C8 8242   1.180   3.900  15.096  0.1556 -0.2019  0.0042
  555TMC3    O1 8243   1.371   3.524  15.235  0.0704 -0.3621  0.0114
  555TMC3    O2 8244   1.058   3.902  15.081 -0.2684  0.3594  0.0942
  556MPD2     C 8245   3.805   0.379  10.769  0.3131  0.1971 -0.4070
  556MPD2    C1 8246   3.875   0.272  10.820 -0.5218  0.1613  0.5077
  556MPD2    C2 8247   3.923   0.173  10.734 -0.2758 -0.3676 -0.1165
  556MPD2    C3 8248   3.902   0.182  10.598  0.0160  1.0043 -0.4496
  556MPD2    C4 8249   3.830   0.293  10.543 -0.1186 -0.1935  0.3464
  556MPD2    C5 8250   3.790   0.389  10.632  0.0545  0.5022 -0.2301
  556MPD2     H 8251   3.974   0.096  10.790 -0.2328 -0.8799 -0.8605
  556MPD2    H1 8252   3.803   0.303  10.439  2.3089 -2.4343 -0.5133
  556MPD2    H2 8253   3.771   0.453  10.841 -1.0294 -1.0818  0.2733
  556MPD2    H3 8254   3.747   0.477  10.584  0.5871  1.7663  1.6122
  556MPD2     N 8255   3.945   0.090  10.503 -0.8090 -0.3524  0.1887
  556MPD2    H5 8256   3.898   0.094  10.413  0.4337 -1.9883 -0.5285
  556MPD2    N1 8257   3.908   0.264  10.958  0.7296  0.0459 -0.3195
  556MPD2    H7 8258   3.972   0.187  10.977 -0.2416 -0.8881 -0.8489
  557TMC3    C1 8259   4.018   4.595  10.432 -0.4747 -0.2508  0.5895
  557TMC3    C2 8260   4.028   4.470  10.491 -0.0405 -0.4547 -0.4386
  557TMC3    C3 8261   3.975   4.364  10.419 -0.8407 -0.5108  0.2787
  557TMC3    C4 8262   3.946   4.615  10.319  0.0965  0.3070  0.3611
  557TMC3    C5 8263   3.901   4.502  10.256  0.4647 -0.3594 -0.1681
  557TMC3    C6 8264   3.914   4.377  10.301  0.0314  0.0980 -0.1915
  557TMC3     C 8265   4.016   4.700  10.532 -0.3565 -0.2276 -0.4438
  557TMC3     O 8266   4.084   4.685  10.634 -0.3720  0.2105 -0.0283
  557TMC3     H 8267   4.042   4.456  10.597 -0.8702 -1.3649 -0.4529
  557TMC3    H1 8268   3.946   4.708  10.263  1.1863 -0.6429 -1.2070
  557TMC3    H2 8269   3.867   4.298  10.244  2.1825 -2.9962  2.2688
  557TMC3    C7 8270   3.873   4.514  10.115 -0.5420  0.2193  0.2758
  557TMC3    C8 8271   4.005   4.227  10.460  0.4417  0.5017 -0.2280
  557TMC3    O1 8272   3.910   4.417  10.045 -0.0468  0.0125  0.1725
  557TMC3    O2 8273   4.013   4.204  10.579  0.0076  0.7824  0.6332
  558TMC3    C1 8274   2.233   2.950  10.217 -0.4783 -0.7136  0.0448
  558TMC3    C2 8275   2.141   2.975  10.315 -0.0562 -0.1375  0.7468
  558TMC3    C3 8276   2.013   2.996  10.276 -0.3543 -0.5720 -0.1852
  558TMC3    C4 8277   2.196   2.942  10.085 -0.2037  0.0432 -0.2863
  558TMC3    C5 8278   2.065   2.972  10.051  0.6627  0.3198 -0.5798
  558TMC3    C6 8279   1.969   2.998  10.147 -0.0420  0.0996 -0.5050
  558TMC3     C 8280   2.371   2.933  10.254 -0.0744 -0.2981  0.5794
  558TMC3     O 8281   2.423   2.987  10.353  0.2548 -0.2371 -0.0791
  558TMC3     H 8282   2.162   2.994  10.420  0.8706  0.7829  0.3898
  558TMC3    H1 8283   2.268   2.932  10.004 -1.0420 -1.3941 -0.8671
  558TMC3    H2 8284   1.871   3.032  10.115  0.2947  1.0677 -0.4968
  558TMC3    C7 8285   2.022   2.963   9.920  0.0557  0.5237 -0.1161
  558TMC3    C8 8286   1.916   2.991  10.388 -0.0144  0.8550 -0.1208
  558TMC3    O1 8287   2.103   2.992   9.832 -0.0659 -0.0417  0.2929
  558TMC3    O2 8288   1.820   3.061  10.375  0.1210 -0.2249 -0.2478
  559MPD2     C 8289   2.103   3.592  10.600  0.3309 -0.7590  0.7129
  559MPD2    C1 8290   2.036   3.538  10.709  0.1127  0.2704 -0.5528
  559MPD2    C2 8291   2.098   3.535  10.831  0.3573 -0.4637  1.0080
  559MPD2    C3 8292   2.225   3.590  10.845  0.0196 -0.5690  0.3234
  559MPD2    C4 8293   2.293   3.625  10.730  0.3583  0.7686 -0.1409
  559MPD2    C5 8294   2.232   3.632  10.604  0.8280 -0.1629 -0.1521
  559MPD2     H 8295   2.053   3.498  10.922  0.1148  2.2251  2.0036
  559MPD2    H1 8296   2.392   3.669  10.736  0.8017 -0.0193 -1.6102
  559MPD2    H2 8297   2.054   3.611  10.505 -0.6767 -0.0419  1.3696
  559MPD2    H3 8298   2.287   3.668  10.518  2.2061 -1.3827  0.2203
  559MPD2     N 8299   2.279   3.600  10.978  0.1197 -0.1967  0.3085
  559MPD2    H5 8300   2.219   3.562  11.050 -0.9985  2.1013  0.5975
  559MPD2    N1 8301   1.905   3.493  10.688 -0.3274 -0.9531  0.0768
  559MPD2    H7 8302   1.860   3.516  10.600 -1.7096 -2.2738  0.4269
  560TMC3    C1 8303   2.428   3.623  11.148 -0.1402 -0.3493  0.8598
  560TMC3    C2 8304   2.384   3.505  11.201 -0.3007 -0.0708  0.1984
  560TMC3    C3 8305   2.442   3.459  11.316  0.7683  0.0303  0.6619
  560TMC3    C4 8306   2.521   3.702  11.214 -0.5437  0.2343  0.5337
  560TMC3    C5 8307   2.584   3.646  11.318 -0.0281  0.5091 -0.8233
  560TMC3    C6 8308   2.539   3.531  11.382 -0.5873 -0.3546  0.1024
  560TMC3     C 8309   2.401   3.648  11.009  0.4770  0.6462 -0.0739
  560TMC3     O 8310   2.481   3.708  10.934 -0.0912  0.1017  0.4737
  560TMC3     H 8311   2.303   3.446  11.158 -0.4396  0.2316  0.0445
  560TMC3    H1 8312   2.552   3.798  11.173  0.0476  0.1195  0.7270
  560TMC3    H2 8313   2.594   3.489  11.466 -2.0789 -0.8278  0.8349
  560TMC3    C7 8314   2.663   3.728  11.399  0.2167  0.1614  0.4727
  560TMC3    C8 8315   2.420   3.311  11.336  0.3233 -0.3590 -0.0393
  560TMC3    O1 8316   2.656   3.719  11.522 -0.4349  0.3882 -0.4730
  560TMC3    O2 8317   2.337   3.261  11.261  0.3720  0.6112 -0.5805
  561TMC3    C1 8318   4.657   2.742  11.611  0.0754  0.0897  0.4198
  561TMC3    C2 8319   4.594   2.671  11.714 -0.9763  0.3008 -0.0423
  561TMC3    C3 8320   4.517   2.734  11.808 -0.5224  0.9345  0.0902
  561TMC3    C4 8321   4.633   2.879  11.599  0.2167  0.1999 -0.0745
  561TMC3    C5 8322   4.548   2.943  11.692 -0.4303  0.0547  0.2104
  561TMC3    C6 8323   4.490   2.870  11.797 -0.1059  0.0838 -0.4896
  561TMC3     C 8324   0.008   2.663  11.509 -0.2830 -0.6218  0.4600
  561TMC3     O 8325   4.690   2.546  11.499 -0.2327  0.1494  0.0511
  561TMC3     H 8326   4.618   2.567  11.731  1.1213  1.1122  1.9743
  561TMC3    H1 8327   4.680   2.933  11.518 -2.4307  1.2802 -0.9024
  561TMC3    H2 8328   4.428   2.921  11.870  0.2917  0.8875 -0.7135
  561TMC3    C7 8329   4.578   3.084  11.728 -0.2129 -0.3929  0.2216
  561TMC3    C8 8330   4.514   2.669  11.946 -0.3584 -0.8423 -0.1632
  561TMC3    O1 8331   4.512   3.135  11.818 -0.2997  0.6265 -0.0424
  561TMC3    O2 8332   4.602   2.589  11.970 -0.1147  0.1767  0.1886
  562TMC3    C1 8333   1.276   4.103  16.272  0.0032 -0.2436 -0.4628
  562TMC3    C2 8334   1.163   4.169  16.245  0.5355 -0.0011 -0.2007
  562TMC3    C3 8335   1.102   4.155  16.123  0.2307 -0.0573 -0.8759
  562TMC3    C4 8336   1.322   4.011  16.177  0.0893  0.2093  0.1029
  562TMC3    C5 8337   1.253   3.994  16.064  0.8510 -0.2021  1.3511
  562TMC3    C6 8338   1.143   4.064  16.031 -0.1241  0.3650 -0.4392
  562TMC3     C 8339   1.331   4.123  16.408 -0.4450  0.1226 -0.2630
  562TMC3     O 8340   1.257   4.166  16.494  0.3650  0.7379 -0.0086
  562TMC3     H 8341   1.129   4.242  16.317 -2.4713 -1.2616 -0.3702
  562TMC3    H1 8342   1.402   3.940  16.192  1.3677  1.6378  0.1641
  562TMC3    H2 8343   1.093   4.044  15.937 -0.3704 -1.3625  0.0779
  562TMC3    C7 8344   1.294   3.894  15.971 -0.7743  0.3222 -0.2960
  562TMC3    C8 8345   1.019   4.264  16.088  0.2317  0.1314 -0.1165
  562TMC3    O1 8346   1.211   3.824  15.918  0.5844  0.2237  0.3358
  562TMC3    O2 8347   0.965   4.327  16.178 -0.0784  0.0247  0.3528
  563MPD2     C 8348   3.499   1.193  15.592 -0.6072 -0.3353  0.2085
  563MPD2    C1 8349   3.505   1.270  15.709 -0.1634 -0.0733  0.1442
  563MPD2    C2 8350   3.628   1.272  15.765  0.0957  0.0011 -0.1341
  563MPD2    C3 8351   3.739   1.198  15.724  0.4054 -0.2183 -0.3879
  563MPD2    C4 8352   3.726   1.127  15.607 -0.2100  0.3028 -0.2614
  563MPD2    C5 8353   3.606   1.128  15.536  0.3709 -0.0826  0.9154
  563MPD2     H 8354   3.646   1.324  15.858 -0.5310  0.2922 -0.1739
  563MPD2    H1 8355   3.811   1.077  15.563  0.6973 -0.7613  2.6880
  563MPD2    H2 8356   3.408   1.188  15.533 -0.6267 -1.8874  0.3753
  563MPD2    H3 8357   3.585   1.076  15.443 -0.0709  0.7354  0.5624
  563MPD2     N 8358   3.844   1.200  15.817  0.0786 -0.2902 -0.4903
  563MPD2    H5 8359   3.832   1.264  15.894 -1.1279  2.2147 -2.7892
  563MPD2    N1 8360   3.389   1.333  15.767 -0.0517  0.4743 -0.0354
  563MPD2    H7 8361   3.301   1.329  15.717 -1.2717  1.3961  2.0715
  564TMC3    C1 8362   3.266   1.431  15.955  0.7477  0.5407  0.4338
  564TMC3    C2 8363   3.160   1.355  15.919 -0.3118 -0.0652 -0.0770
  564TMC3    C3 8364   3.085   1.291  16.018  0.0880 -0.6427  0.5298
  564TMC3    C4 8365   3.303   1.443  16.091 -0.4187  0.3857 -0.0303
  564TMC3    C5 8366   3.227   1.373  16.180  0.4708  0.5371 -0.9252
  564TMC3    C6 8367   3.125   1.291  16.150  0.2780  0.2078 -0.1553
  564TMC3     C 8368   3.391   1.416  15.880 -0.1677 -0.4018 -0.1792
  564TMC3     O 8369   3.489   1.453  15.940 -0.2006 -0.9144 -0.2452
  564TMC3     H 8370   3.115   1.356  15.820  0.6057  3.1907 -0.4582
  564TMC3    H1 8371   3.381   1.508  16.131 -0.4860  0.6171 -0.2804
  564TMC3    H2 8372   3.079   1.251  16.239 -2.0187  0.6534 -1.1541
  564TMC3    C7 8373   3.307   1.280  16.257 -0.2933  0.4890  0.6713
  564TMC3    C8 8374   3.008   1.177  15.975 -0.1592  0.1485  1.0508
  564TMC3    O1 8375   3.260   1.231  16.359 -0.1878 -0.1978  0.2455
  564TMC3    O2 8376   2.966   1.189  15.860 -0.2577  0.0035 -0.1779
  565TMC3    C1 8377   4.257   1.803  10.700 -0.4844  0.3125 -0.5562
  565TMC3    C2 8378   4.243   1.711  10.800 -0.8522 -0.3881  0.6848
  565TMC3    C3 8379   4.175   1.591  10.768 -1.3184  0.2468  0.3556
  565TMC3    C4 8380   4.222   1.765  10.572  0.1672 -0.3549 -0.3335
  565TMC3    C5 8381   4.155   1.646  10.547 -0.6496  0.2272 -0.1813
  565TMC3    C6 8382   4.124   1.559  10.644  0.1150 -0.3300  0.0096
  565TMC3     C 8383   4.306   1.937  10.718  0.2144  0.0945  0.6431
  565TMC3     O 8384   4.345   2.000  10.621  0.2195  0.0308  0.0907
  565TMC3     H 8385   4.289   1.735  10.895  0.0247 -0.9430  0.4074
  565TMC3    H1 8386   4.245   1.833  10.490 -1.3849  1.8400  1.0371
  565TMC3    H2 8387   4.052   1.481  10.621 -1.2015  1.2177 -1.0973
  565TMC3    C7 8388   4.104   1.612  10.416  0.3105 -0.5857  1.0779
  565TMC3    C8 8389   4.159   1.501  10.879 -0.2309  0.4370 -0.0766
  565TMC3    O1 8390   4.036   1.511  10.403 -0.0411  0.5666  0.1542
  565TMC3    O2 8391   4.200   1.536  10.991 -0.4770 -0.4748  0.6316
  566MPD2     C 8392   0.792   3.266  14.272  0.6088  0.1134 -0.2887
  566MPD2    C1 8393   0.913   3.268  14.197 -0.2314 -0.4249 -0.2474
  566MPD2    C2 8394   0.915   3.283  14.057  0.4000  0.3684 -0.3219
  566MPD2    C3 8395   0.796   3.297  13.989 -0.5069  0.2703 -0.3620
  566MPD2    C4 8396   0.683   3.284  14.060 -0.2896 -0.0132 -0.4284
  566MPD2    C5 8397   0.679   3.268  14.196 -0.5802  0.0357 -0.7874
  566MPD2     H 8398   1.012   3.283  14.009  0.7327  1.6190  0.3547
  566MPD2    H1 8399   0.584   3.290  14.016 -0.9041  0.4723  1.0378
  566MPD2    H2 8400   0.783   3.263  14.380  3.4288  1.1023 -0.0082
  566MPD2    H3 8401   0.586   3.260  14.251 -0.1243  1.3390  0.1676
  566MPD2     N 8402   0.775   3.303  13.845  0.4707 -0.2837  0.4631
  566MPD2    H5 8403   0.685   3.266  13.816  1.1976 -1.3411 -0.4306
  566MPD2    N1 8404   1.024   3.253  14.277 -0.0340  0.1223 -0.4313
  566MPD2    H7 8405   1.009   3.244  14.377 -0.9393  0.4112 -0.5403
  567TMC3    C1 8406   1.246   3.217  14.344 -0.2805 -0.0404  0.4134
  567TMC3    C2 8407   1.362   3.290  14.332  0.2902 -0.2882  0.5046
  567TMC3    C3 8408   1.439   3.318  14.443 -0.0874  0.2016  0.2856
  567TMC3    C4 8409   1.224   3.137  14.454 -0.7891  0.2201 -0.2255
  567TMC3    C5 8410   1.310   3.159  14.563  0.0010  0.6946 -0.8419
  567TMC3    C6 8411   1.408   3.252  14.560 -0.0354 -0.3204 -0.4558
  567TMC3     C 8412   1.155   3.240  14.233  0.0034  0.3129  0.1476
  567TMC3     O 8413   1.205   3.277  14.128 -0.5342  0.8489 -0.1151
  567TMC3     H 8414   1.375   3.366  14.256  0.4944 -1.5059 -0.6887
  567TMC3    H1 8415   1.142   3.068  14.467 -0.9260  0.5209  0.5362
  567TMC3    H2 8416   1.453   3.281  14.654 -0.9914 -0.3376 -0.0002
  567TMC3    C7 8417   1.268   3.116  14.690  0.0453  0.5901  0.3308
  567TMC3    C8 8418   1.494   3.455  14.456 -0.0027  0.3069 -0.4359
  567TMC3    O1 8419   1.344   3.036  14.749 -0.4568  0.2949 -0.1790
  567TMC3    O2 8420   1.462   3.538  14.374  0.3381  0.0068 -0.7927
  568MPD2     C 8421   3.094   4.302  16.531 -0.4921  0.1560  0.1413
  568MPD2    C1 8422   3.026   4.372  16.633  0.4854  0.2385  0.2969
  568MPD2    C2 8423   2.981   4.500  16.602  0.0322 -0.1136 -0.0992
  568MPD2    C3 8424   3.003   4.551  16.475  0.3100 -0.6223 -0.0412
  568MPD2    C4 8425   3.057   4.477  16.378  0.3387 -0.2707  0.1929
  568MPD2    C5 8426   3.114   4.358  16.414 -0.7187 -0.0676  0.2427
  568MPD2     H 8427   2.927   4.557  16.677 -0.9150  0.1073 -0.9535
  568MPD2    H1 8428   3.088   4.508  16.279 -0.5953 -1.1369 -0.3630
  568MPD2    H2 8429   3.142   4.205  16.533 -3.9141 -1.5064  1.3570
  568MPD2    H3 8430   3.184   4.314  16.344 -1.5062 -1.4619  0.3344
  568MPD2     N 8431   2.966   4.689  16.451  0.1454  0.3956  0.4782
  568MPD2    H5 8432   2.931   0.015  16.533 -1.6477 -1.8197  1.0267
  568MPD2    N1 8433   3.004   4.326  16.761 -0.0575  0.0770  0.1344
  568MPD2    H7 8434   2.951   4.384  16.825 -1.8342  2.0075 -3.0967
  569TMC3    C1 8435   2.989   0.187  16.355 -1.1060 -0.1118 -0.0271
  569TMC3    C2 8436   3.001   0.243  16.480 -0.0986  0.1100  0.3942
  569TMC3    C3 8437   3.042   0.370  16.480 -0.1639  0.3840  0.5057
  569TMC3    C4 8438   3.020   0.259  16.243 -0.2183  0.2757  0.0652
  569TMC3    C5 8439   3.077   0.382  16.256  0.1270 -0.8436  1.1772
  569TMC3    C6 8440   3.089   0.441  16.377  0.1955  0.5467  0.0542
  569TMC3     C 8441   3.004   0.041  16.339 -0.0640 -0.7403  0.2516
  569TMC3     O 8442   3.051   0.004  16.231  0.3871  0.2237 -0.9759
  569TMC3     H 8443   2.999   0.183  16.571  0.0804 -0.8061 -0.2121
  569TMC3    H1 8444   2.992   0.202  16.155  0.3207  1.6488 -0.9888
  569TMC3    H2 8445   3.124   0.543  16.390 -2.0968  1.4500 -0.8219
  569TMC3    C7 8446   3.069   0.465  16.134 -0.8697 -0.0650  1.0263
  569TMC3    C8 8447   3.052   0.434  16.606  0.0476  0.0147  0.2415
  569TMC3    O1 8448   3.028   0.406  16.033  0.3694  0.6196 -0.3969
  569TMC3    O2 8449   2.965   0.409  16.688  0.2148  0.2767 -0.3379
  570TMC3    C1 8450   2.419   3.286  16.333  1.3491  0.0766 -0.5614
  570TMC3    C2 8451   2.543   3.285  16.267  0.2889 -0.4340  0.3004
  570TMC3    C3 8452   2.609   3.397  16.245 -0.1469  0.4738  0.8970
  570TMC3    C4 8453   2.348   3.401  16.349 -0.0899 -0.1652  0.1346
  570TMC3    C5 8454   2.416   3.521  16.316 -0.3994  0.5829 -0.3703
  570TMC3    C6 8455   2.547   3.519  16.271 -0.8017 -0.0245  0.2361
  570TMC3     C 8456   2.365   3.166  16.388 -0.8045  0.3846  0.1567
  570TMC3     O 8457   2.412   3.063  16.334  0.0982 -0.7401 -0.2621
  570TMC3     H 8458   2.584   3.185  16.272  0.5135 -0.2198  2.5956
  570TMC3    H1 8459   2.255   3.402  16.404 -0.3203  1.5341 -0.2940
  570TMC3    H2 8460   2.597   3.614  16.255 -1.4769  0.1512 -0.8405
  570TMC3    C7 8461   2.361   3.657  16.333 -0.2305 -0.2350 -0.1490
  570TMC3    C8 8462   2.746   3.401  16.200 -0.2801  0.3452  0.5844
  570TMC3    O1 8463   2.440   3.750  16.342 -0.1515 -0.0985 -0.1925
  570TMC3    O2 8464   2.795   3.513  16.216 -0.3211  0.5453  0.2190
  571MPD2     C 8465   1.082   0.188  17.463 -0.6773  0.0650 -0.2000
  571MPD2    C1 8466   0.946   0.183  17.475  0.1177  0.0198  0.7029
  571MPD2    C2 8467   0.893   0.245  17.588  0.5005 -0.3243  0.9729
  571MPD2    C3 8468   0.978   0.318  17.673  0.4615  0.0422 -0.5347
  571MPD2    C4 8469   1.111   0.323  17.650  0.0267  0.5449 -0.7315
  571MPD2    C5 8470   1.162   0.264  17.542 -0.3601 -0.6660 -0.0268
  571MPD2     H 8471   0.787   0.242  17.610  0.3826 -0.8575  0.3409
  571MPD2    H1 8472   1.167   0.377   0.031  1.5341  0.5232 -1.8244
  571MPD2    H2 8473   1.137   0.135  17.386 -0.9652  0.9770 -1.0274
  571MPD2    H3 8474   1.268   0.243  17.540 -0.4586 -1.2899  0.9130
  571MPD2     N 8475   0.934   0.385   0.094 -0.2683 -0.1139 -0.4452
  571MPD2    H5 8476   1.002   0.435   0.150 -1.0191  1.0641 -0.5832
  571MPD2    N1 8477   0.870   0.118  17.381  0.8833  0.1562  0.0241
  571MPD2    H7 8478   0.907   0.059  17.308 -0.9008 -2.1187  0.9677
  572TMC3    C1 8479   0.797   0.472   0.259 -0.5459 -0.4780 -0.3914
  572TMC3    C2 8480   0.775   0.436   0.392  0.3083  0.3796 -0.8854
  572TMC3    C3 8481   0.828   0.507   0.498 -0.0510  0.3714  0.1434
  572TMC3    C4 8482   0.859   0.590   0.224 -0.7673  0.4254  0.4389
  572TMC3    C5 8483   0.913   0.664   0.333 -0.5229  0.2137  0.1544
  572TMC3    C6 8484   0.909   0.620   0.465  0.3304 -0.3698  0.0881
  572TMC3     C 8485   0.812   0.376   0.151  0.5315 -0.4466  0.1184
  572TMC3     O 8486   0.731   0.288   0.132 -0.3240  0.2987 -0.0059
  572TMC3     H 8487   0.745   0.334   0.412  0.4390  0.2359 -1.4266
  572TMC3    H1 8488   0.874   0.629   0.124  0.6407 -0.5141  0.2681
  572TMC3    H2 8489   0.958   0.679   0.542 -1.5228  1.1032  0.1624
  572TMC3    C7 8490   0.879   0.807   0.308 -0.2556  0.0642  0.2816
  572TMC3    C8 8491   0.783   0.505   0.639 -0.1018 -0.7984  0.1978
  572TMC3    O1 8492   0.812   0.831   0.205  0.1298  0.9530 -0.4623
  572TMC3    O2 8493   0.851   0.571   0.719  0.5728  0.1843  0.1894
  573MPD2     C 8494   1.661   1.079   1.142 -0.1786  0.3384 -0.4283
  573MPD2    C1 8495   1.745   0.997   1.070 -0.0844 -0.4496  0.3022
  573MPD2    C2 8496   1.727   0.988   0.935  0.0498  0.1364  0.4448
  573MPD2    C3 8497   1.622   1.052   0.869 -0.7332 -1.0956 -0.1615
  573MPD2    C4 8498   1.538   1.136   0.945  0.2070  0.0250 -0.4136
  573MPD2    C5 8499   1.558   1.141   1.078  1.1493  0.0182  0.4431
  573MPD2     H 8500   1.780   0.912   0.879 -0.2773 -0.0543  0.3941
  573MPD2    H1 8501   1.458   1.195   0.903 -0.2094 -0.0601  0.2516
  573MPD2    H2 8502   1.671   1.091   1.250 -0.1458 -1.5281 -0.2090
  573MPD2    H3 8503   1.489   1.191   1.146 -0.6291 -3.1390  0.9650
  573MPD2     N 8504   1.598   1.068   0.734  0.1869 -0.0918  0.3798
  573MPD2    H5 8505   1.520   1.112   0.688  0.6566 -0.3946 -0.7180
  573MPD2    N1 8506   1.845   0.932   1.150 -0.5027  0.2801 -0.7694
  573MPD2    H7 8507   1.843   0.955   1.249 -0.5150 -2.8091 -0.0449
  574TMC3    C1 8508   1.675   1.106   0.517  0.4958 -0.0358  0.3131
  574TMC3    C2 8509   1.561   1.087   0.455 -0.3305 -0.0962  0.1328
  574TMC3    C3 8510   1.546   1.135   0.326 -0.2577 -0.5563 -0.0939
  574TMC3    C4 8511   1.784   1.142   0.448  0.0488  0.2076 -0.9699
  574TMC3    C5 8512   1.771   1.182   0.317 -0.6514 -0.0601 -0.5934
  574TMC3    C6 8513   1.649   1.183   0.256 -0.2523  0.1173  0.4230
  574TMC3     C 8514   1.703   1.053   0.645 -0.6235 -0.5809  0.0712
  574TMC3     O 8515   1.812   0.995   0.659  0.4733  0.1135 -0.3711
  574TMC3     H 8516   1.481   1.038   0.509 -0.7453 -1.5579 -1.8150
  574TMC3    H1 8517   1.884   1.140   0.489  1.0735 -0.0352 -3.4431
  574TMC3    H2 8518   1.641   1.197   0.149 -0.5120 -0.8565  0.3153
  574TMC3    C7 8519   1.898   1.166   0.241  1.0332 -0.3330  0.2265
  574TMC3    C8 8520   1.418   1.091   0.270  0.5687 -0.6007  0.6723
  574TMC3    O1 8521   1.992   1.106   0.293 -0.7077  0.2112 -0.1761
  574TMC3    O2 8522   1.360   0.997   0.325 -0.1183 -0.7126  0.6909
  575TMC3    C1 8523   4.042   1.359  11.743 -0.2321 -0.7536 -0.2642
  575TMC3    C2 8524   4.033   1.236  11.785 -0.8901 -0.4243 -0.4569
  575TMC3    C3 8525   4.019   1.134  11.699  0.5375  0.0902  0.1464
  575TMC3    C4 8526   4.044   1.383  11.612  0.2822  0.3314  0.7672
  575TMC3    C5 8527   4.016   1.282  11.523  0.0221  0.0040  0.0561
  575TMC3    C6 8528   4.018   1.151  11.561  1.0142  0.4186  0.3940
  575TMC3     C 8529   4.025   1.476  11.824  0.0979 -0.4993  0.3319
  575TMC3     O 8530   4.033   1.582  11.767  0.7012 -0.7499 -0.2821
  575TMC3     H 8531   4.043   1.204  11.888 -0.7148  0.3859 -0.2261
  575TMC3    H1 8532   4.050   1.482  11.567 -0.2973  0.1354  0.2633
  575TMC3    H2 8533   3.998   1.068  11.494 -1.9116  0.3136  1.4131
  575TMC3    C7 8534   4.043   1.318  11.380 -0.1293  0.3297 -0.0693
  575TMC3    C8 8535   4.012   1.001  11.751 -0.1400  0.3264 -0.1555
  575TMC3    O1 8536   4.061   1.434  11.348  0.3248  0.3809 -0.4152
  575TMC3    O2 8537   3.972   0.981  11.866  0.3298  1.0420  0.6707
  576MPD2     C 8538   3.510   3.169  12.891  0.0035 -0.3799  0.1396
  576MPD2    C1 8539   3.573   3.262  12.811  0.0185  0.0028 -0.1715
  576MPD2    C2 8540   3.537   3.394  12.839  0.5031  0.3845  0.1039
  576MPD2    C3 8541   3.449   3.433  12.940  0.7607  0.0845  0.1087
  576MPD2    C4 8542   3.392   3.335  13.016  0.2505 -0.4490  0.6205
  576MPD2    C5 8543   3.426   3.209  12.994  0.8325  0.0614  0.0063
  576MPD2     H 8544   3.569   3.467  12.764 -1.6127  0.4800 -0.7114
  576MPD2    H1 8545   3.318   3.346  13.094 -0.9108 -3.3378 -0.0766
  576MPD2    H2 8546   3.530   3.062  12.884  2.0562  0.1322 -1.6523
  576MPD2    H3 8547   3.386   3.135  13.062  0.0768 -0.0035 -0.5165
  576MPD2     N 8548   3.406   3.571  12.938  0.6178 -0.3220  0.1572
  576MPD2    H5 8549   3.463   3.635  12.885  1.7809 -0.8231  0.8048
  576MPD2    N1 8550   3.678   3.237  12.721 -0.1299  0.5233  0.7927
  576MPD2    H7 8551   3.697   3.321  12.666  1.5538 -1.5949 -1.8852
  577TMC3    C1 8552   3.853   3.115  12.602 -0.3916  0.0094 -0.1648
  577TMC3    C2 8553   3.952   3.020  12.604 -0.2330  0.7586  0.0905
  577TMC3    C3 8554   4.037   3.009  12.503  0.2128  0.3221  0.2304
  577TMC3    C4 8555   3.844   3.208  12.501 -0.5617  0.0487 -0.7625
  577TMC3    C5 8556   3.937   3.195  12.399 -0.4204 -0.4997  0.0337
  577TMC3    C6 8557   4.029   3.094  12.399  0.2940  0.2560 -0.1473
  577TMC3     C 8558   3.751   3.115  12.709 -0.3711  0.4621 -0.4730
  577TMC3     O 8559   3.743   3.019  12.786  0.0535  0.2683 -0.0148
  577TMC3     H 8560   3.955   2.941  12.679 -0.9519  2.6862  2.1709
  577TMC3    H1 8561   3.772   3.288  12.489 -0.9863  0.0322  1.7117
  577TMC3    H2 8562   4.091   3.104  12.311 -0.0084 -2.8224 -0.7237
  577TMC3    C7 8563   3.936   3.306  12.301  0.6652 -0.2659  0.3807
  577TMC3    C8 8564   4.124   2.900  12.505  0.2565 -0.1888 -0.4935
  577TMC3    O1 8565   3.968   3.288  12.185  0.3062  0.1941 -0.0218
  577TMC3    O2 8566   4.163   2.865  12.617 -0.2473  0.2036  0.3410
  578MPD2     C 8567   2.101   3.089   1.137  0.2231 -0.5647  0.0947
  578MPD2    C1 8568   2.202   3.047   1.054 -0.1433  0.5852  0.2199
  578MPD2    C2 8569   2.288   2.943   1.097 -0.1053  0.3641 -0.1136
  578MPD2    C3 8570   2.264   2.883   1.221  0.3121  0.5678 -1.5747
  578MPD2    C4 8571   2.161   2.924   1.295 -0.0114  0.1159 -0.1847
  578MPD2    C5 8572   2.080   3.027   1.253  0.9537  0.9987  1.1305
  578MPD2     H 8573   2.362   2.895   1.034  0.3605  1.7935 -0.6459
  578MPD2    H1 8574   2.131   2.877   1.388  0.0648 -0.6410 -0.5431
  578MPD2    H2 8575   2.035   3.171   1.109 -0.2964 -0.5712  1.2804
  578MPD2    H3 8576   1.995   3.065   1.309 -0.9267 -0.2943 -0.8573
  578MPD2     N 8577   2.353   2.783   1.254  0.2005  0.2473 -0.1453
  578MPD2    H5 8578   2.431   2.762   1.192  2.0253  0.9641  1.9458
  578MPD2    N1 8579   2.209   3.109   0.927 -0.2664 -1.0780  0.3792
  578MPD2    H7 8580   2.126   3.156   0.892  0.3403 -1.9742 -2.2384
  579TMC3    C1 8581   2.475   2.636   1.398 -0.4610  0.3466  0.4468
  579TMC3    C2 8582   2.559   2.662   1.507 -0.6332  0.1602 -0.0681
  579TMC3    C3 8583   2.695   2.612   1.492 -0.1719 -0.4328 -0.2999
  579TMC3    C4 8584   2.519   2.560   1.291  0.4076 -0.0882 -0.3582
  579TMC3    C5 8585   2.650   2.508   1.289 -0.0267  0.2840 -0.4556
  579TMC3    C6 8586   2.739   2.534   1.389  0.1956 -0.6073 -0.1454
  579TMC3     C 8587   2.369   2.729   1.384  0.3123 -0.5495 -0.0034
  579TMC3     O 8588   2.320   2.759   1.488 -0.4525  0.6155 -0.2091
  579TMC3     H 8589   2.534   2.744   1.572  0.6128  0.6994 -0.2757
  579TMC3    H1 8590   2.442   2.538   1.218 -0.4679 -0.7717  0.7645
  579TMC3    H2 8591   2.841   2.496   1.385  0.8170  0.8586  2.1898
  579TMC3    C7 8592   2.681   2.376   1.233  0.5378 -0.6457 -0.0210
  579TMC3    C8 8593   2.785   2.651   1.589 -0.1329  0.3270 -0.5381
  579TMC3    O1 8594   2.746   2.293   1.299 -0.0403 -0.1618  0.2148
  579TMC3    O2 8595   2.737   2.683   1.700 -0.6661  0.5491 -0.7506
  580TMC3    C1 8596   1.099   2.411  12.000  0.7883 -0.6342  0.0169
  580TMC3    C2 8597   1.120   2.371  11.870 -0.4293 -1.1337  0.0203
  580TMC3    C3 8598   1.093   2.236  11.831 -0.0163  0.0106 -0.0360
  580TMC3    C4 8599   1.053   2.327  12.097 -0.9352 -0.1843 -0.5935
  580TMC3    C5 8600   1.034   2.197  12.060 -0.3048 -0.0373 -0.0720
  580TMC3    C6 8601   1.051   2.153  11.931  0.7128 -0.1938  0.4490
  580TMC3     C 8602   1.218   2.479  12.045  0.0367 -0.2556  0.7072
  580TMC3     O 8603   1.262   2.574  11.979 -0.2796  0.4221 -0.4494
  580TMC3     H 8604   1.139   2.444  11.793  2.4167 -0.3913  1.4424
  580TMC3    H1 8605   1.053   2.365  12.198 -0.4258 -0.9351 -0.3091
  580TMC3    H2 8606   1.053   2.048  11.903 -0.1982  0.3699 -1.6968
  580TMC3    C7 8607   1.061   2.104  12.169  0.2677 -0.2367 -0.0769
  580TMC3    C8 8608   1.147   2.174  11.703  0.4520 -0.5971  0.0326
  580TMC3    O1 8609   1.100   2.162  12.272 -0.5098 -0.1621 -0.1228
  580TMC3    O2 8610   1.085   2.085  11.647  0.3894 -0.0456 -0.0113
  581MPD2     C 8611   4.380   2.003  14.674  0.1356  0.1117 -0.0181
  581MPD2    C1 8612   4.356   2.044  14.808  0.3024  0.4441  0.4399
  581MPD2    C2 8613   4.234   2.104  14.842 -0.8130 -0.9880  0.7373
  581MPD2    C3 8614   4.131   2.098  14.752  0.1863  0.7648 -0.3531
  581MPD2    C4 8615   4.151   2.051  14.625  0.4268 -0.1307  0.0233
  581MPD2    C5 8616   4.277   2.011  14.589 -0.2387 -0.3995  0.2517
  581MPD2     H 8617   4.217   2.136  14.944  1.4967  2.0047  0.1540
  581MPD2    H1 8618   4.081   2.039  14.543 -0.2128  1.8565  0.2644
  581MPD2    H2 8619   4.462   1.951  14.625  0.0730  1.9606 -2.0779
  581MPD2    H3 8620   4.284   1.989  14.483 -0.3835 -0.9442  0.3594
  581MPD2     N 8621   4.001   2.137  14.798 -0.0692 -0.8780 -0.0709
  581MPD2    H5 8622   4.002   2.157  14.898  1.9223 -0.2486 -0.2086
  581MPD2    N1 8623   4.456   2.024  14.901 -0.3204 -0.1929 -0.1649
  581MPD2    H7 8624   4.536   1.970  14.870  1.8432  1.0452  3.3123
  582TMC3    C1 8625   4.579   2.038  15.105 -0.4773 -0.2968  0.2155
  582TMC3    C2 8626   4.637   2.119  15.199  1.3281  0.6683 -0.3126
  582TMC3    C3 8627   4.719   2.063  15.295  0.4330 -0.8129  0.2685
  582TMC3    C4 8628   4.613   1.906  15.089 -0.3064  1.4164 -0.1033
  582TMC3    C5 8629   4.670   1.846  15.198  0.2698 -0.6021 -0.2439
  582TMC3    C6 8630   0.011   1.928  15.287  0.2839  0.4208 -0.2570
  582TMC3     C 8631   4.463   2.079  15.027  0.4064  0.4932  0.1798
  582TMC3     O 8632   4.399   2.173  15.074  0.1734  0.2369 -0.2237
  582TMC3     H 8633   4.610   2.223  15.209 -1.2588  0.0778 -1.0063
  582TMC3    H1 8634   4.576   1.836  15.015  0.9414  1.1279 -0.4414
  582TMC3    H2 8635   0.061   1.873  15.366 -0.9509  1.9191  1.5838
  582TMC3    C7 8636   4.574   1.776  15.276 -0.1392 -0.2091 -0.5352
  582TMC3    C8 8637   4.697   2.120  15.429  0.2354  0.9722 -0.4185
  582TMC3    O1 8638   4.558   1.663  15.241 -0.1761 -0.4475 -0.2031
  582TMC3    O2 8639   4.624   2.217  15.440 -0.1093 -0.2321 -0.2047
  583MPD2     C 8640   4.295   3.765  16.935 -0.1550 -0.3837  0.2973
  583MPD2    C1 8641   4.241   3.839  16.840  0.2135 -0.0169  0.6270
  583MPD2    C2 8642   4.141   3.929  16.881  0.2447  0.2679 -0.4010
  583MPD2    C3 8643   4.122   3.952  17.019 -0.3452  0.4848  0.8998
  583MPD2    C4 8644   4.199   3.883  17.113 -0.3214 -0.1336  0.0445
  583MPD2    C5 8645   4.285   3.787  17.065  0.9075 -0.1111  0.5371
  583MPD2     H 8646   4.090   3.984  16.803  0.0830  2.5177  1.2838
  583MPD2    H1 8647   4.199   3.909  17.218 -2.9734  2.8978 -0.7000
  583MPD2    H2 8648   4.352   3.677  16.908 -2.1686 -1.8619  0.7946
  583MPD2    H3 8649   4.340   3.728  17.137  1.4251 -0.8159 -0.4317
  583MPD2     N 8650   4.034   4.054  17.053  0.1923 -0.0998 -0.1884
  583MPD2    H5 8651   3.993   4.109  16.978  0.2670 -0.8805 -0.8089
  583MPD2    N1 8652   4.264   3.830  16.706  0.1634 -0.3939 -0.3201
  583MPD2    H7 8653   4.200   3.883  16.648 -0.3580  0.1384  0.7306
  584TMC3    C1 8654   3.939   4.218  17.194 -0.5703  0.2986  0.4782
  584TMC3    C2 8655   3.974   4.318  17.105  0.1952 -0.1548  0.0128
  584TMC3    C3 8656   3.977   4.444  17.157 -0.3789 -0.0657 -0.2851
  584TMC3    C4 8657   3.892   4.252  17.319  0.6403  0.5721  0.4899
  584TMC3    C5 8658   3.884   4.378  17.355 -0.5121  0.2030  0.7052
  584TMC3    C6 8659   3.927   4.480  17.279 -0.3817  0.1092 -0.1840
  584TMC3     C 8660   4.006   4.090  17.180 -0.0617 -0.3880  0.4166
  584TMC3     O 8661   4.029   4.040  17.289  0.1171 -1.0760 -0.2099
  584TMC3     H 8662   4.012   4.301  17.005  0.3213 -3.8978  0.7093
  584TMC3    H1 8663   3.867   4.175  17.392 -0.9129  0.5827 -0.0341
  584TMC3    H2 8664   3.924   4.586  17.303 -2.5277 -0.5970  2.6935
  584TMC3    C7 8665   3.830   4.404  17.491 -0.3115  0.2224  0.6509
  584TMC3    C8 8666   4.025   4.545  17.083  0.0244  0.2737 -0.3712
  584TMC3    O1 8667   3.790   4.304  17.547  0.1055 -0.6713 -0.0032
  584TMC3    O2 8668   4.030   4.532  16.963  0.3745  0.2079 -0.7832
  585MPD2     C 8669   3.987   2.689   0.372  0.4452 -0.1651  0.3875
  585MPD2    C1 8670   3.991   2.771   0.260  0.3446 -0.2659 -0.1709
  585MPD2    C2 8671   4.030   2.719   0.137  0.3227  0.6262  0.0714
  585MPD2    C3 8672   4.076   2.592   0.120  0.1910  0.0870  0.1612
  585MPD2    C4 8673   4.082   2.515   0.238 -0.0651  0.1781 -0.3025
  585MPD2    C5 8674   4.035   2.563   0.361 -0.0183  0.2052 -0.4878
  585MPD2     H 8675   4.020   2.783   0.051  0.1369  1.0931  0.4411
  585MPD2    H1 8676   4.125   2.415   0.240 -0.0395  0.1945 -0.0741
  585MPD2    H2 8677   3.927   2.723   0.456 -3.1424  1.3777 -2.7517
  585MPD2    H3 8678   4.035   2.494   0.445  0.9785  0.1356 -0.5483
  585MPD2     N 8679   4.111   2.531  17.690 -0.1013  0.4233  1.0107
  585MPD2    H5 8680   4.135   2.432  17.694 -0.7203  0.3018  1.7183
  585MPD2    N1 8681   3.958   2.906   0.277 -0.1577 -0.0644  0.9711
  585MPD2    H7 8682   3.913   2.928   0.366  0.5231 -0.4680  1.4187
  586TMC3    C1 8683   4.089   2.467  17.468  0.2875  0.1177 -0.4578
  586TMC3    C2 8684   4.177   2.355  17.478 -0.7466 -0.6641 -0.6340
  586TMC3    C3 8685   4.150   2.254  17.393  0.4343 -0.5929  0.4445
  586TMC3    C4 8686   3.991   2.475  17.375  0.2183 -0.1345  0.5192
  586TMC3    C5 8687   3.967   2.368  17.285 -0.4776 -0.3443  0.3676
  586TMC3    C6 8688   4.047   2.260  17.302 -0.1585 -0.2418  0.2452
  586TMC3     C 8689   4.094   2.575  17.565  0.8259 -0.0248 -0.0799
  586TMC3     O 8690   4.053   2.682  17.523  0.3252  0.5534 -0.1111
  586TMC3     H 8691   4.259   2.343  17.547  0.5915 -0.2916 -2.1694
  586TMC3    H1 8692   3.924   2.560  17.368  3.2227  2.2302  0.2463
  586TMC3    H2 8693   4.009   2.170  17.254  1.4365 -1.8030  1.9367
  586TMC3    C7 8694   3.824   2.351  17.236 -0.3370  0.0815 -0.1411
  586TMC3    C8 8695   4.190   2.121  17.445 -0.0856  0.0418 -0.0904
  586TMC3    O1 8696   3.738   2.409  17.303 -0.1478 -0.1513  0.1910
  586TMC3    O2 8697   4.265   2.123  17.545  0.1879 -0.4738 -0.5393
  587TMC3    C1 8698   1.573   1.611  16.502 -0.0196 -0.5637  0.5516
  587TMC3    C2 8699   1.521   1.716  16.434 -0.6137  0.0234 -0.7137
  587TMC3    C3 8700   1.602   1.796  16.354 -0.3321 -0.5907  0.2541
  587TMC3    C4 8701   1.704   1.587  16.501 -0.2302  0.0789 -0.0637
  587TMC3    C5 8702   1.787   1.673  16.432 -0.9422  0.4480 -0.0482
  587TMC3    C6 8703   1.740   1.777  16.354  0.1228 -0.3937 -0.0031
  587TMC3     C 8704   1.491   1.514  16.571  0.3477  0.5027 -0.2202
  587TMC3     O 8705   1.537   1.403  16.585 -0.1402  0.5688  0.3436
  587TMC3     H 8706   1.413   1.725  16.422 -0.7446 -0.5780  0.0124
  587TMC3    H1 8707   1.748   1.512  16.565  1.7120  1.1387 -0.1579
  587TMC3    H2 8708   1.800   1.816  16.272 -0.8925 -2.2940 -1.6310
  587TMC3    C7 8709   1.931   1.670  16.455 -0.3431  0.0447  0.1414
  587TMC3    C8 8710   1.560   1.925  16.302 -0.4590 -0.1567 -0.4727
  587TMC3    O1 8711   1.999   1.752  16.392  0.0577  0.2039 -0.1921
  587TMC3    O2 8712   1.645   2.001  16.256 -0.3627  0.2133  0.4789
  588TMC3    C1 8713   3.438   3.576   9.601  0.3652  0.2600  0.8253
  588TMC3    C2 8714   3.439   3.442   9.570 -0.4896 -0.1772  0.2433
  588TMC3    C3 8715   3.517   3.361   9.652 -0.0714  0.1245 -1.0126
  588TMC3    C4 8716   3.503   3.637   9.707  0.3840 -0.5211  0.0876
  588TMC3    C5 8717   3.569   3.554   9.791  0.6201 -0.2489 -0.3952
  588TMC3    C6 8718   3.576   3.420   9.764  0.4153 -0.9937  0.0336
  588TMC3     C 8719   3.360   3.661   9.517 -0.2880  0.2203 -0.3815
  588TMC3     O 8720   3.275   3.606   9.448 -0.3878  0.3604  0.5518
  588TMC3     H 8721   3.378   3.406   9.488  1.7632  1.2987 -2.1037
  588TMC3    H1 8722   3.450   3.720   9.750  0.0012 -2.1579  2.7682
  588TMC3    H2 8723   3.621   3.371   9.850  1.0827 -1.4650 -0.5892
  588TMC3    C7 8724   3.645   3.612   9.892 -0.6193 -0.3945  0.3436
  588TMC3    C8 8725   3.513   3.220   9.619  0.4652  0.0214 -0.3999
  588TMC3    O1 8726   3.687   3.544   9.987 -0.1720 -0.2652  0.1513
  588TMC3    O2 8727   3.419   3.183   9.558 -0.0575  0.0561  0.6369
  589TMC3    C1 8728   2.531   1.389   1.174  0.3842  0.1835  0.0447
  589TMC3    C2 8729   2.591   1.466   1.259  0.2943  0.3676 -0.1424
  589TMC3    C3 8730   2.716   1.430   1.304 -0.4513 -0.1230  0.0619
  589TMC3    C4 8731   2.588   1.281   1.118  0.1293 -0.3261 -0.9796
  589TMC3    C5 8732   2.709   1.236   1.170  0.4365 -0.3033  0.3692
  589TMC3    C6 8733   2.779   1.315   1.258 -0.1934  0.8717 -0.1693
  589TMC3     C 8734   2.406   1.424   1.116  0.0376  0.2727 -0.8683
  589TMC3     O 8735   2.381   1.351   1.018  0.5451  0.0112  0.0973
  589TMC3     H 8736   2.548   1.558   1.298 -1.3149 -1.0410  1.3849
  589TMC3    H1 8737   2.543   1.214   1.046  1.8966 -1.2897 -1.1864
  589TMC3    H2 8738   2.872   1.280   1.302 -0.7523  0.7006  0.8799
  589TMC3    C7 8739   2.753   1.094   1.140 -0.8235 -0.8137 -0.8375
  589TMC3    C8 8740   2.796   1.532   1.376 -0.2438 -0.0393 -0.2962
  589TMC3    O1 8741   2.666   1.022   1.096  0.2789  0.1157  0.5399
  589TMC3    O2 8742   2.731   1.631   1.405 -0.4031  0.0465 -0.1755
  590MPD2     C 8743   2.238   0.191  17.048 -0.0556  0.2643 -0.6467
  590MPD2    C1 8744   2.209   0.157  16.918  0.6541  0.7688  0.3330
  590MPD2    C2 8745   2.295   0.183  16.817  1.3178  0.8802 -0.4679
  590MPD2    C3 8746   2.408   0.257  16.848 -0.7726 -0.0568 -0.7763
  590MPD2    C4 8747   2.439   0.299  16.977  1.0172 -0.3390 -0.0668
  590MPD2    C5 8748   2.351   0.265  17.075  0.3355  0.2798  0.0452
  590MPD2     H 8749   2.271   0.166  16.713  0.0740 -1.7377  0.2344
  590MPD2    H1 8750   2.514   0.375  16.996 -0.3260  1.1743 -0.8896
  590MPD2    H2 8751   2.169   0.172  17.130  0.1752 -0.1795 -0.5568
  590MPD2    H3 8752   2.359   0.309  17.173 -1.0391  1.6866 -0.4815
  590MPD2     N 8753   2.491   0.287  16.740  0.0147  0.1857 -0.2669
  590MPD2    H5 8754   2.461   0.252  16.650  0.9638 -1.5038  0.0655
  590MPD2    N1 8755   2.087   0.087  16.896  0.2780  0.4092  0.2711
  590MPD2    H7 8756   2.024   0.075  16.975  0.3663  1.2028  0.4587
  591TMC3    C1 8757   2.646   0.415  16.596 -0.1896  0.2064  0.7588
  591TMC3    C2 8758   2.641   0.335  16.480 -0.4103  0.1347  0.8408
  591TMC3    C3 8759   2.678   0.398  16.365 -0.5118 -0.1697 -0.3701
  591TMC3    C4 8760   2.702   0.536  16.588 -0.3746  0.4664 -0.0080
  591TMC3    C5 8761   2.754   0.589  16.472  0.3370  0.2713  0.1783
  591TMC3    C6 8762   2.745   0.515  16.356 -0.4963  0.5481 -0.0128
  591TMC3     C 8763   2.595   0.380  16.729 -0.3840  0.2660 -0.4266
  591TMC3     O 8764   2.632   0.455  16.823 -0.2494 -0.4156 -0.1452
  591TMC3     H 8765   2.600   0.235  16.480  0.5344 -0.2772  4.4823
  591TMC3    H1 8766   2.716   0.606  16.670 -1.9300  1.5171 -0.6426
  591TMC3    H2 8767   2.795   0.557  16.269 -0.1258 -0.5052 -0.3007
  591TMC3    C7 8768   2.808   0.719  16.476 -0.3832 -0.1316  0.1276
  591TMC3    C8 8769   2.688   0.316  16.243  0.0659 -0.3226  0.0887
  591TMC3    O1 8770   2.861   0.758  16.580 -0.1087 -0.2332  0.2839
  591TMC3    O2 8771   2.692   0.195  16.255 -0.8923 -0.4761 -0.6425
  592MPD2     C 8772   2.328   1.828  11.500 -0.2989 -0.5738  0.2916
  592MPD2    C1 8773   2.326   1.850  11.639 -0.2954 -0.4668 -0.9557
  592MPD2    C2 8774   2.242   1.780  11.718  0.6382  0.2831  0.3119
  592MPD2    C3 8775   2.152   1.686  11.660  0.9242  0.0626 -0.4596
  592MPD2    C4 8776   2.154   1.660  11.526  0.0776 -0.9804  0.7478
  592MPD2    C5 8777   2.244   1.725  11.450  0.0841  0.3555 -0.5308
  592MPD2     H 8778   2.246   1.799  11.824 -0.6281 -0.4385  0.4801
  592MPD2    H1 8779   2.085   1.590  11.480  0.5574 -2.3790  2.1548
  592MPD2    H2 8780   2.401   1.869  11.431 -1.1108  0.1842 -0.1108
  592MPD2    H3 8781   2.262   1.688  11.350 -2.7932  0.1934 -0.9822
  592MPD2     N 8782   2.063   1.620  11.744  0.2410  0.3590 -0.3036
  592MPD2    H5 8783   2.078   1.643  11.842 -0.7259 -0.6893  0.0955
  592MPD2    N1 8784   2.417   1.953  11.689  0.8761  0.1744 -0.1886
  592MPD2    H7 8785   2.489   1.996  11.633 -0.3068  1.7568 -0.4744
  593TMC3    C1 8786   2.534   2.096  11.837 -0.4710 -0.3786 -0.0001
  593TMC3    C2 8787   2.526   2.195  11.934 -0.4976  0.2561 -1.0644
  593TMC3    C3 8788   2.648   2.257  11.959  0.4672 -0.6147 -0.4607
  593TMC3    C4 8789   2.641   2.071  11.756  0.7441  0.2282 -0.6135
  593TMC3    C5 8790   2.750   2.156  11.773  0.1688  0.1228 -0.1063
  593TMC3    C6 8791   2.757   2.252  11.870  0.0625  0.4280  0.1018
  593TMC3     C 8792   2.425   2.000  11.818 -0.4628  0.0685  0.1397
  593TMC3     O 8793   2.349   1.990  11.913  0.1998  0.0419 -0.3845
  593TMC3     H 8794   2.443   2.214  12.001 -0.8919 -2.3116 -0.8393
  593TMC3    H1 8795   2.642   1.993  11.680 -2.2356 -0.3487 -0.0738
  593TMC3    H2 8796   2.850   2.306  11.884  0.7566  0.0267 -3.0091
  593TMC3    C7 8797   2.867   2.142  11.690  0.3337  0.3079 -0.0527
  593TMC3    C8 8798   2.660   2.352  12.067 -0.4906  0.3888 -0.4565
  593TMC3    O1 8799   2.973   2.191  11.729  1.1822  0.4385 -0.9242
  593TMC3    O2 8800   2.559   2.385  12.122  0.4008 -0.2760 -0.3969
  594MPD2     C 8801   1.250   0.802  14.215 -0.0812 -0.1482 -0.4571
  594MPD2    C1 8802   1.251   0.817  14.351  1.0466  0.1754 -0.4128
  594MPD2    C2 8803   1.367   0.870  14.414 -0.1727 -0.5921 -0.3292
  594MPD2    C3 8804   1.472   0.924  14.344 -0.2098 -0.6034  0.0125
  594MPD2    C4 8805   1.461   0.925  14.206  0.1849  0.1561 -0.2538
  594MPD2    C5 8806   1.351   0.861  14.144 -0.1632 -0.1571  0.4177
  594MPD2     H 8807   1.365   0.870  14.522 -1.3490  1.3980 -0.3462
  594MPD2    H1 8808   1.531   0.981  14.145  0.5529  2.0619  1.9027
  594MPD2    H2 8809   1.163   0.754  14.171  0.1107 -0.2166 -0.7590
  594MPD2    H3 8810   1.348   0.852  14.036  0.4247 -1.6080  0.5225
  594MPD2     N 8811   1.577   0.983  14.414 -0.0126  0.0047 -0.1068
  594MPD2    H5 8812   1.565   0.983  14.515  1.2326  1.6741  0.0497
  594MPD2    N1 8813   1.138   0.779  14.417  0.3266  0.2102 -0.6406
  594MPD2    H7 8814   1.066   0.735  14.361  0.2024 -2.4996  1.6510
  595TMC3    C1 8815   1.953   1.219  14.551  0.6311  0.4159 -0.3379
  595TMC3    C2 8816   1.888   1.149  14.452 -0.6158 -0.0791 -0.5600
  595TMC3    C3 8817   1.767   1.098  14.478 -0.4391  0.4617  0.5768
  595TMC3    C4 8818   1.905   1.242  14.677  0.0919  0.2513 -0.4886
  595TMC3    C5 8819   1.778   1.191  14.701 -0.5628  0.0797 -0.1407
  595TMC3    C6 8820   1.707   1.123  14.603  0.2130 -0.5696  0.1147
  595TMC3     C 8821   2.097   1.230  14.539  0.6181  0.6160 -0.3567
  595TMC3     O 8822   2.158   1.268  14.634  0.2855 -0.5989  0.1707
  595TMC3     H 8823   1.919   1.143  14.348 -1.4802 -1.9908 -0.7112
  595TMC3    H1 8824   1.957   1.296  14.756  1.6800 -0.2021 -1.2501
  595TMC3    H2 8825   1.609   1.081  14.622  0.3199 -0.5044  0.8238
  595TMC3    C7 8826   1.703   1.234  14.816  0.6680 -0.2500  0.6744
  595TMC3    C8 8827   1.689   1.036  14.371 -0.2921 -0.4537  0.8314
  595TMC3    O1 8828   1.582   1.249  14.794 -0.1562  0.0422  0.4175
  595TMC3    O2 8829   1.737   1.028  14.254 -0.0550  0.4077 -0.0911
  596MPD2     C 8830   0.519   3.678  16.700 -0.2086  0.5543  0.7237
  596MPD2    C1 8831   0.525   3.796  16.633  0.4107  0.2671  0.5366
  596MPD2    C2 8832   0.546   3.798  16.501  0.1554 -0.1955 -0.2839
  596MPD2    C3 8833   0.553   3.689  16.422  0.2064 -0.1646  0.2490
  596MPD2    C4 8834   0.540   3.577  16.490 -0.0393  0.5897 -0.4562
  596MPD2    C5 8835   0.525   3.568  16.625 -0.0358  0.0629 -0.2196
  596MPD2     H 8836   0.555   3.897  16.458  0.0429 -1.0941 -2.3307
  596MPD2    H1 8837   0.545   3.490  16.426  3.5551 -0.7730  1.6531
  596MPD2    H2 8838   0.504   3.676  16.807  2.1869 -0.7618  1.0356
  596MPD2    H3 8839   0.512   3.472  16.674  0.4132  0.4420  0.6599
  596MPD2     N 8840   0.555   3.693  16.274  0.1293 -0.5031  0.2057
  596MPD2    H5 8841   0.527   3.617  16.213 -1.0157  2.2213 -2.6644
  596MPD2    N1 8842   0.501   3.922  16.692 -0.3646  0.5510  0.0370
  596MPD2    H7 8843   0.532   3.998  16.633 -1.3175  1.6539  0.9641
  597TMC3    C1 8844   0.376   4.074  16.818 -0.1023 -0.2608  0.0766
  597TMC3    C2 8845   0.454   4.181  16.778  0.0245  0.4987  0.2494
  597TMC3    C3 8846   0.420   4.297  16.839 -0.1302  0.1784  0.1337
  597TMC3    C4 8847   0.262   4.084  16.893  0.8224  0.2103 -0.4594
  597TMC3    C5 8848   0.231   4.202  16.948  0.2192  0.3565  0.6709
  597TMC3    C6 8849   0.317   4.307  16.926 -0.8507 -0.0185 -0.5494
  597TMC3     C 8850   0.421   3.943  16.804  0.4030  0.9675  0.2189
  597TMC3     O 8851   0.356   3.853  16.857  0.0746 -0.1995 -0.3223
  597TMC3     H 8852   0.548   4.160  16.729 -0.9127 -0.6385 -1.0382
  597TMC3    H1 8853   0.197   3.998  16.908  0.0423  1.2404  2.1870
  597TMC3    H2 8854   0.312   4.405  16.972  0.1585 -0.4510  0.4934
  597TMC3    C7 8855   0.118   4.220  17.039 -0.2861 -0.2168  0.0670
  597TMC3    C8 8856   0.470   4.427  16.794 -0.6025 -0.8040 -0.2913
  597TMC3    O1 8857   0.071   4.121  17.098 -0.7713 -0.0355  0.3980
  597TMC3    O2 8858   0.421   4.529  16.841 -0.2015  0.3340 -0.0240
  598TMC3    C1 8859   3.293   0.713  15.228  0.0611 -0.0365  0.1013
  598TMC3    C2 8860   3.238   0.582  15.245 -0.1409 -0.3478 -0.1719
  598TMC3    C3 8861   3.270   0.491  15.153 -0.2491 -0.1980  0.1288
  598TMC3    C4 8862   3.379   0.746  15.139 -0.1977  0.7406 -0.0494
  598TMC3    C5 8863   3.431   0.649  15.055  0.2553  0.2790 -0.9607
  598TMC3    C6 8864   3.369   0.519  15.058 -0.3238 -0.7173  0.0714
  598TMC3     C 8865   3.293   0.795  15.348  0.2832 -0.7473  0.5534
  598TMC3     O 8866   3.319   0.916  15.336 -0.1897  0.5229 -0.6938
  598TMC3     H 8867   3.175   0.562  15.330  0.4458  2.2193  0.8692
  598TMC3    H1 8868   3.442   0.833  15.156 -1.4305  1.7438 -0.6763
  598TMC3    H2 8869   3.397   0.442  14.986 -0.2764  0.1532 -0.8485
  598TMC3    C7 8870   3.490   0.693  14.924  0.2151 -0.1245 -0.4884
  598TMC3    C8 8871   3.185   0.376  15.143 -0.3268  0.2431  0.3979
  598TMC3    O1 8872   3.461   0.636  14.820 -0.1682  0.0622 -0.0668
  598TMC3    O2 8873   3.124   0.338  15.242 -0.0567 -0.2261 -0.0932
  599MPD2     C 8874   3.513   3.236  16.040 -0.0104  0.5857  0.7470
  599MPD2    C1 8875   3.422   3.131  16.033 -0.5016 -0.5811 -0.4823
  599MPD2    C2 8876   3.308   3.136  16.116 -0.3660  0.6298  0.1624
  599MPD2    C3 8877   3.285   3.250  16.202  0.3599  0.2021  0.4307
  599MPD2    C4 8878   3.378   3.346  16.207  0.2597 -0.3803 -0.4011
  599MPD2    C5 8879   3.494   3.340  16.126  0.2561  0.2684 -0.3891
  599MPD2     H 8880   3.243   3.049  16.119  0.1871  0.2259  0.4960
  599MPD2    H1 8881   3.371   3.422  16.284  0.6938  0.5602 -1.2769
  599MPD2    H2 8882   3.610   3.234  15.991 -0.5935  1.6205 -0.4394
  599MPD2    H3 8883   3.578   3.407  16.140  1.4554 -1.2660 -0.2553
  599MPD2     N 8884   3.181   3.254  16.297  0.1664  0.3416  0.0534
  599MPD2    H5 8885   3.185   3.327  16.367  0.4104 -1.5334  2.0009
  599MPD2    N1 8886   3.445   3.035  15.934 -0.2715  0.6741 -0.3300
  599MPD2    H7 8887   3.525   3.054  15.874 -0.6899 -0.8910 -1.4060
  600TMC3    C1 8888   2.974   3.201  16.407 -0.2977  0.0076 -0.0701
  600TMC3    C2 8889   2.878   3.110  16.422  0.0704 -0.1787  0.3229
  600TMC3    C3 8890   2.777   3.127  16.512 -0.7934 -0.0093 -0.3641
  600TMC3    C4 8891   2.975   3.310  16.490 -0.0950 -0.3211  0.6994
  600TMC3    C5 8892   2.870   3.329  16.570  0.0461  0.1330  0.6048
  600TMC3    C6 8893   2.768   3.242  16.586  1.1460  0.0375  0.0218
  600TMC3     C 8894   3.075   3.167  16.304 -0.4726 -0.1577 -0.5792
  600TMC3     O 8895   3.053   3.060  16.250 -0.1753 -0.2967  0.2450
  600TMC3     H 8896   2.856   3.029  16.353 -2.4562  0.9831 -0.2551
  600TMC3    H1 8897   3.065   3.370  16.495  0.2197 -0.5513 -1.9757
  600TMC3    H2 8898   2.679   3.268  16.641 -0.5248  1.3597 -3.3465
  600TMC3    C7 8899   2.850   3.456  16.640 -0.4856  0.1102  0.4966
  600TMC3    C8 8900   2.675   3.019  16.530  0.2078  0.3604 -0.4196
  600TMC3    O1 8901   2.779   3.461  16.740  0.0391 -0.1764 -0.1690
  600TMC3    O2 8902   2.677   2.928  16.443  0.2357  0.0850  0.3842
  601MPD2     C 8903   0.965   1.308   0.336  1.0096  0.4374  0.0749
  601MPD2    C1 8904   0.856   1.234   0.295 -0.4274 -0.2399 -0.0113
  601MPD2    C2 8905   0.848   1.100   0.314  0.4286  0.0400  0.2742
  601MPD2    C3 8906   0.943   1.033   0.388  0.0179  0.3519 -0.9714
  601MPD2    C4 8907   1.049   1.111   0.436  0.6202  0.3512 -0.4478
  601MPD2    C5 8908   1.064   1.240   0.404 -0.3432 -0.6725  0.0290
  601MPD2     H 8909   0.759   1.043   0.292 -1.0323  2.4542 -0.0871
  601MPD2    H1 8910   1.135   1.057   0.474 -0.3596 -0.3408  0.7720
  601MPD2    H2 8911   0.993   1.411   0.315 -1.9064  1.1118 -0.4550
  601MPD2    H3 8912   1.148   1.306   0.423 -0.9886 -0.0089  0.5409
  601MPD2     N 8913   0.946   0.888   0.401  0.9283 -0.2028  0.4362
  601MPD2    H5 8914   1.023   0.841   0.446  1.3387  0.1657  0.1121
  601MPD2    N1 8915   0.760   1.290   0.216 -0.0961 -0.0869  0.2442
  601MPD2    H7 8916   0.690   1.238   0.163  1.3378 -0.8482 -0.9031
  602TMC3    C1 8917   0.672   1.444   0.069  0.1784  0.4327  0.0128
  602TMC3    C2 8918   0.678   1.570   0.010  0.3816 -0.4077 -0.6486
  602TMC3    C3 8919   0.597   1.598  17.600 -0.6954  0.9978 -0.0450
  602TMC3    C4 8920   0.596   1.341   0.014  0.3357  0.5960  0.2599
  602TMC3    C5 8921   0.507   1.383  17.607 -0.4105 -0.2593 -0.0870
  602TMC3    C6 8922   0.511   1.505  17.552 -0.2158  0.1429 -0.1591
  602TMC3     C 8923   0.754   1.423   0.189  0.1515 -0.5150 -0.5918
  602TMC3     O 8924   0.803   1.519   0.246  0.4189 -0.1257  0.2080
  602TMC3     H 8925   0.728   1.648   0.067  1.1497 -1.1558 -0.3007
  602TMC3    H1 8926   0.584   1.242   0.058  3.0365  0.0802 -0.1248
  602TMC3    H2 8927   0.461   1.529  17.459 -0.3699 -2.7428 -0.8130
  602TMC3    C7 8928   0.408   1.297  17.550  1.1095 -0.1615  0.4956
  602TMC3    C8 8929   0.566   1.734  17.562 -0.3606 -0.1782  0.1607
  602TMC3    O1 8930   0.429   1.177  17.558 -0.3255  0.4402 -0.0337
  602TMC3    O2 8931   0.664   1.808  17.573 -0.3417 -0.2074  0.2986
  603TMC3    C1 8932   3.235   1.131  10.946 -0.3437 -0.1706 -0.3748
  603TMC3    C2 8933   3.312   1.127  11.057  0.0416 -0.6950 -0.5075
  603TMC3    C3 8934   3.342   1.234  11.131 -0.2708 -0.2993 -0.1184
  603TMC3    C4 8935   3.173   1.252  10.908  0.2286  0.0239 -0.0011
  603TMC3    C5 8936   3.204   1.358  10.982  1.2622  0.0871 -0.8061
  603TMC3    C6 8937   3.300   1.355  11.082  1.0126 -0.0925  0.0267
  603TMC3     C 8938   3.185   1.000  10.899 -0.3135  0.3484  0.1285
  603TMC3     O 8939   3.226   0.894  10.937 -0.1468 -0.6146  0.1307
  603TMC3     H 8940   3.330   1.031  11.103  1.0821 -0.6373 -0.7921
  603TMC3    H1 8941   3.117   1.256  10.815 -0.0734  3.4227  0.3286
  603TMC3    H2 8942   3.311   1.448  11.136 -0.3372 -1.0093  1.8969
  603TMC3    C7 8943   3.149   1.488  10.946 -0.4945  0.0918 -0.0725
  603TMC3    C8 8944   3.399   1.212  11.262  0.3083  0.1466 -0.4219
  603TMC3    O1 8945   3.182   1.586  11.012  0.6151  0.1878  0.0371
  603TMC3    O2 8946   3.394   1.103  11.316 -0.3386 -0.2914 -0.2502
  604MPD2     C 8947   3.695   0.448  16.018  0.1649 -0.1089  0.2063
  604MPD2    C1 8948   3.774   0.429  16.137  0.3791 -0.3413  0.2137
  604MPD2    C2 8949   3.908   0.390  16.126  0.8325 -0.2394 -0.5829
  604MPD2    C3 8950   3.966   0.384  16.004  0.2277 -0.0574  0.4525
  604MPD2    C4 8951   3.898   0.408  15.889  0.0229  0.4670  0.0276
  604MPD2    C5 8952   3.767   0.439  15.895  0.7532  0.1156  0.1299
  604MPD2     H 8953   3.974   0.388  16.212  0.3739  0.4866 -0.2075
  604MPD2    H1 8954   3.953   0.413  15.795 -0.1169 -0.1508 -0.0854
  604MPD2    H2 8955   3.590   0.475  16.025  0.2572 -0.0049  1.1168
  604MPD2    H3 8956   3.729   0.480  15.802 -1.0033 -0.1269  0.7246
  604MPD2     N 8957   4.103   0.359  16.013  0.1562 -0.0007 -0.5312
  604MPD2    H5 8958   4.134   0.317  16.100 -0.4651 -0.2419 -0.4244
  604MPD2    N1 8959   3.718   0.470  16.256  0.1177  0.7850  0.2537
  604MPD2    H7 8960   3.632   0.524  16.251  0.0701  0.7700  0.8402
  605TMC3    C1 8961   3.719   0.520  16.489  0.0660  0.2667  0.1923
  605TMC3    C2 8962   3.790   0.520  16.605  0.0334 -0.4569  0.3651
  605TMC3    C3 8963   3.765   0.628  16.685  0.0643  0.0778 -0.5901
  605TMC3    C4 8964   3.621   0.613  16.465  0.5543  0.4996 -0.4239
  605TMC3    C5 8965   3.591   0.709  16.554  0.3102  0.5017 -0.2864
  605TMC3    C6 8966   3.668   0.727  16.665 -0.5890 -0.2441  0.0642
  605TMC3     C 8967   3.778   0.449  16.381  0.1477  0.2202 -0.0271
  605TMC3     O 8968   3.879   0.384  16.403  0.1742 -0.3545 -0.4916
  605TMC3     H 8969   3.855   0.437  16.632  1.4836  0.5033 -0.1427
  605TMC3    H1 8970   3.545   0.607  16.388 -1.0458  0.8393  1.1294
  605TMC3    H2 8971   3.644   0.807  16.734 -1.6094  0.5078 -1.1685
  605TMC3    C7 8972   3.547   0.830  16.493  0.3126  0.5667 -0.2146
  605TMC3    C8 8973   3.833   0.630  16.810 -0.6310  0.6336  0.0367
  605TMC3    O1 8974   3.488   0.916  16.555 -0.1530  0.7452  0.0617
  605TMC3    O2 8975   3.778   0.673  16.911 -0.3094  0.5465 -0.0969
  606TMC3    C1 8976   0.998   3.569  16.813  0.7942 -0.2727 -0.3959
  606TMC3    C2 8977   1.094   3.546  16.902  0.3504  0.2430  0.0132
  606TMC3    C3 8978   1.103   3.417  16.946 -0.4242  0.8961  0.3495
  606TMC3    C4 8979   0.907   3.469  16.782 -0.0713  0.2846 -0.0684
  606TMC3    C5 8980   0.909   3.350  16.838 -0.0264  0.7330  0.0413
  606TMC3    C6 8981   1.013   3.319  16.925  0.5144 -0.4982 -0.3784
  606TMC3     C 8982   0.926   3.692  16.827 -0.3566  0.0391  0.0246
  606TMC3     O 8983   0.846   3.735  16.743  0.5624  0.0684  0.4673
  606TMC3     H 8984   1.176   3.613  16.927  1.7685 -0.9636 -1.4192
  606TMC3    H1 8985   0.822   3.491  16.719 -0.2953  0.6576  0.3624
  606TMC3    H2 8986   1.015   3.215  16.955  1.3281 -0.5737 -0.6892
  606TMC3    C7 8987   0.787   3.273  16.834 -0.4121  0.6672 -0.4271
  606TMC3    C8 8988   1.190   3.399  17.060  0.3986  0.9439  0.4294
  606TMC3    O1 8989   0.745   3.258  16.719 -0.8097 -0.1547 -0.8234
  606TMC3    O2 8990   1.201   3.497  17.131 -0.5768 -0.0526 -0.3741
  607MPD2     C 8991   2.807   1.717  11.518 -0.3139  0.1640 -0.4867
  607MPD2    C1 8992   2.905   1.748  11.617  0.1857  1.0133  0.1498
  607MPD2    C2 8993   2.868   1.778  11.742 -0.5994 -0.4488 -0.7320
  607MPD2    C3 8994   2.745   1.753  11.790  0.2941  0.6248  0.3260
  607MPD2    C4 8995   2.645   1.721  11.697  0.6505  0.0436  0.0651
  607MPD2    C5 8996   2.678   1.708  11.562  0.5563 -0.2278 -0.0045
  607MPD2     H 8997   2.946   1.791  11.816 -2.3825 -0.7038  1.1885
  607MPD2    H1 8998   2.541   1.707  11.723  0.7815 -0.1136  0.5043
  607MPD2    H2 8999   2.829   1.677  11.420  1.7527  1.9521 -0.7575
  607MPD2    H3 9000   2.605   1.676  11.489 -0.4032  1.7952  0.0719
  607MPD2     N 9001   2.727   1.770  11.931 -0.5603  0.2690  0.3996
  607MPD2    H5 9002   2.804   1.807  11.986 -0.2350  0.1809 -0.0002
  607MPD2    N1 9003   3.045   1.751  11.582 -0.4234 -0.4694 -0.0821
  607MPD2    H7 9004   3.103   1.800  11.649 -0.5729  0.1964 -0.4376
  608TMC3    C1 9005   3.257   1.710  11.489 -0.6830  0.5072 -0.0249
  608TMC3    C2 9006   3.294   1.731  11.622  0.2250  0.6679 -0.1378
  608TMC3    C3 9007   3.423   1.752  11.642  0.4320  0.9016 -1.2605
  608TMC3    C4 9008   3.342   1.748  11.387 -0.0152 -0.5342 -0.0819
  608TMC3    C5 9009   3.479   1.767  11.419  0.2321 -0.0473  0.5790
  608TMC3    C6 9010   3.526   1.759  11.548 -0.3470 -1.1994  0.8239
  608TMC3     C 9011   3.108   1.705  11.465  0.2786  0.1652  0.2282
  608TMC3     O 9012   3.068   1.666  11.357  0.0532 -0.1826  0.2526
  608TMC3     H 9013   3.234   1.697  11.706  1.6700  1.5945  1.2728
  608TMC3    H1 9014   3.305   1.769  11.288 -1.9540 -0.8994  0.5769
  608TMC3    H2 9015   3.626   1.772  11.587 -0.0925 -0.2363 -0.1386
  608TMC3    C7 9016   3.556   1.833  11.315  0.4384  0.9452 -0.5212
  608TMC3    C8 9017   3.467   1.767  11.777 -0.2534  0.0438  0.3493
  608TMC3    O1 9018   3.509   1.814  11.204 -0.6799  0.5059  0.1859
  608TMC3    O2 9019   3.570   1.710  11.807 -0.1255 -0.3961 -0.5050
  609TMC3    C1 9020   1.717   0.600   9.291 -0.3176  0.0455  0.3460
  609TMC3    C2 9021   1.690   0.669   9.172  0.0139 -0.2051 -0.9473
  609TMC3    C3 9022   1.781   0.658   9.069 -0.1517 -0.0376 -0.4120
  609TMC3    C4 9023   1.827   0.518   9.307  0.2477 -0.3671 -0.0796
  609TMC3    C5 9024   1.906   0.505   9.193 -0.1237 -0.4685  0.4322
  609TMC3    C6 9025   1.882   0.568   9.073 -0.0284 -0.3934  0.1839
  609TMC3     C 9026   1.615   0.573   9.392 -0.5028 -0.2005  0.8848
  609TMC3     O 9027   1.642   0.475   9.456  0.4596 -0.0999  0.4694
  609TMC3     H 9028   1.616   0.744   9.149 -0.9306 -1.2404 -1.3045
  609TMC3    H1 9029   1.858   0.458   9.392  0.7826 -1.5650 -1.1096
  609TMC3    H2 9030   1.951   0.549   8.991 -0.3716  3.2527 -0.9173
  609TMC3    C7 9031   2.005   0.396   9.201 -0.6413  0.4868  0.1109
  609TMC3    C8 9032   1.758   0.736   8.947  0.3893  0.1470  0.5631
  609TMC3    O1 9033   2.045   0.364   9.312  0.4227  0.3161  0.1312
  609TMC3    O2 9034   1.695   0.839   8.956  0.1766  0.2064  0.5822
  610TMC3    C1 9035   2.911   1.364  13.048 -0.3833 -0.6956  0.1247
  610TMC3    C2 9036   2.986   1.425  12.953 -0.3255  0.5406 -0.1546
  610TMC3    C3 9037   3.114   1.465  12.984 -0.2598 -0.1827  0.3791
  610TMC3    C4 9038   2.963   1.343  13.174 -0.0458 -0.3404 -1.0496
  610TMC3    C5 9039   3.085   1.390  13.197 -0.5565  0.3484 -0.0238
  610TMC3    C6 9040   3.163   1.452  13.107  1.0134  0.8470 -0.3839
  610TMC3     C 9041   2.772   1.322  13.025  0.5216 -0.3305  0.1473
  610TMC3     O 9042   2.701   1.279  13.114  0.4260 -0.3357  0.0505
  610TMC3     H 9043   2.943   1.451  12.857  3.0718 -1.8354 -2.3290
  610TMC3    H1 9044   2.907   1.300  13.256  1.0471 -0.7160 -0.5117
  610TMC3    H2 9045   3.261   1.490  13.133  1.1283 -0.9472  1.8719
  610TMC3    C7 9046   3.141   1.368  13.323 -0.3297  0.2973 -0.1442
  610TMC3    C8 9047   3.211   1.482  12.872  0.3860  0.1044 -0.2110
  610TMC3    O1 9048   3.074   1.355  13.421  0.3346 -0.2533  0.1814
  610TMC3    O2 9049   3.331   1.485  12.898 -0.1920  0.1454  0.1402
  611MPD2     C 9050   1.995   1.279  10.491  0.3990 -0.5669  0.5594
  611MPD2    C1 9051   2.069   1.222  10.397 -0.5285  0.1442  0.5104
  611MPD2    C2 9052   2.189   1.280  10.357 -0.6300 -0.1374  0.6292
  611MPD2    C3 9053   2.226   1.399  10.421 -0.2137  0.0854  0.3114
  611MPD2    C4 9054   2.150   1.448  10.516 -0.4298  0.0236  1.0807
  611MPD2    C5 9055   2.029   1.392  10.552 -0.1297  0.1374 -1.0191
  611MPD2     H 9056   2.253   1.240  10.278 -1.5903 -0.7993  0.1825
  611MPD2    H1 9057   2.176   1.544  10.560 -0.0388  1.6630 -2.7185
  611MPD2    H2 9058   1.903   1.234  10.525 -0.4517 -0.8989 -2.1636
  611MPD2    H3 9059   1.971   1.448  10.624 -0.5302 -2.5960  0.7938
  611MPD2     N 9060   2.338   1.475  10.381  0.3524  0.3020  0.3796
  611MPD2    H5 9061   2.365   1.552  10.441  1.1739  0.0328  0.3518
  611MPD2    N1 9062   2.019   1.101  10.348 -0.2693 -0.1250 -0.5224
  611MPD2    H7 9063   1.935   1.067  10.393 -0.2512  1.3860  0.6155
  612TMC3    C1 9064   2.473   1.592  10.237 -0.0191  0.1186  0.0630
  612TMC3    C2 9065   2.561   1.630  10.338 -0.0849 -0.1954 -0.2520
  612TMC3    C3 9066   2.652   1.733  10.305  0.7354  0.6843 -0.3186
  612TMC3    C4 9067   2.460   1.655  10.115 -0.0179 -0.3522  0.0420
  612TMC3    C5 9068   2.548   1.756  10.092  0.2833  0.4297  0.8721
  612TMC3    C6 9069   2.647   1.792  10.181 -0.2616 -0.0191 -0.3917
  612TMC3     C 9070   2.378   1.478  10.255 -0.2404  0.0315 -0.5294
  612TMC3     O 9071   2.323   1.424  10.158  0.2090  0.5360 -0.1041
  612TMC3     H 9072   2.567   1.575  10.431 -0.5796  1.2774  0.6506
  612TMC3    H1 9073   2.392   1.625  10.036 -1.6308  2.1861  0.4884
  612TMC3    H2 9074   2.715   1.871  10.153 -3.1005  2.6926  0.3693
  612TMC3    C7 9075   2.535   1.829   9.965 -0.1994  0.4202  0.0991
  612TMC3    C8 9076   2.762   1.777  10.397 -0.1620 -0.0493  0.3753
  612TMC3    O1 9077   2.527   1.769   9.858 -0.4202  0.1896  0.0056
  612TMC3    O2 9078   2.775   1.899  10.401  0.2227 -0.5746  0.6739
  613MPD2     C 9079   1.956   4.394  16.286  0.2240  0.5116  0.4274
  613MPD2    C1 9080   1.878   4.300  16.218 -1.3887 -0.1886  0.7707
  613MPD2    C2 9081   1.936   4.181  16.179 -0.6078 -0.5923  0.4116
  613MPD2    C3 9082   2.063   4.154  16.216  0.4285 -0.0751  1.0401
  613MPD2    C4 9083   2.136   4.246  16.294  0.8014  0.6360  0.2021
  613MPD2    C5 9084   2.081   4.367  16.325  0.1766  0.0562  0.1561
  613MPD2     H 9085   1.885   4.110  16.114 -0.8307  1.1331 -1.3153
  613MPD2    H1 9086   2.239   4.227  16.323  0.4741  1.2213  1.7082
  613MPD2    H2 9087   1.912   4.489  16.314 -1.8782 -0.7105  1.3604
  613MPD2    H3 9088   2.134   4.441  16.383 -0.6208 -1.4128  2.7750
  613MPD2     N 9089   2.125   4.031  16.178 -0.4369  0.4172 -0.0955
  613MPD2    H5 9090   2.226   4.033  16.191 -0.2812 -0.0314 -1.2474
  613MPD2    N1 9091   1.756   4.346  16.161 -0.2051 -0.0751 -0.3558
  613MPD2    H7 9092   1.745   4.446  16.155  0.0141 -0.3411 -5.2427
  614TMC3    C1 9093   1.622   4.326  15.972  0.3010  0.2266  0.9168
  614TMC3    C2 9094   1.711   4.349  15.876 -0.5910 -0.0081  0.2526
  614TMC3    C3 9095   1.706   4.301  15.750  0.1707  0.6089  0.3156
  614TMC3    C4 9096   1.504   4.273  15.926 -0.2757  1.0276 -0.2026
  614TMC3    C5 9097   1.494   4.214  15.801  0.3313  0.2628 -0.4966
  614TMC3    C6 9098   1.596   4.234  15.710 -0.4226 -0.3371 -0.0069
  614TMC3     C 9099   1.673   4.264  16.084  0.2856  0.1827 -0.2154
  614TMC3     O 9100   1.642   4.147  16.098 -0.2894 -0.6771 -0.4528
  614TMC3     H 9101   1.803   4.393  15.913  0.1068 -1.0572 -0.2368
  614TMC3    H1 9102   1.424   4.261  15.999  2.1565 -0.7045  2.1568
  614TMC3    H2 9103   1.580   4.209  15.606 -1.8955 -0.5551  0.2649
  614TMC3    C7 9104   1.360   4.172  15.758 -0.3951  0.2288 -0.4953
  614TMC3    C8 9105   1.834   4.253  15.696 -0.3029 -0.6448 -0.9859
  614TMC3    O1 9106   1.263   4.223  15.817  0.7618  0.0956  0.1508
  614TMC3    O2 9107   1.928   4.283  15.765 -0.1522 -0.2409  0.1433
  615MPD2     C 9108   1.219   0.205  16.237 -0.3887 -0.1133 -0.0881
  615MPD2    C1 9109   1.201   0.305  16.148 -0.8269  0.4517 -0.2497
  615MPD2    C2 9110   1.081   0.309  16.079 -0.5703 -0.2189 -0.1737
  615MPD2    C3 9111   0.985   0.207  16.088 -0.2461  0.5580  0.9023
  615MPD2    C4 9112   1.010   0.101  16.175 -0.1190  0.1041 -0.0691
  615MPD2    C5 9113   1.124   0.104  16.250 -0.5853 -0.6107 -0.3144
  615MPD2     H 9114   1.063   0.393  16.013 -2.7576 -2.8738 -2.9467
  615MPD2    H1 9115   0.940   0.019  16.192 -1.6080  1.6999  1.5776
  615MPD2    H2 9116   1.306   0.190  16.299 -0.8724  1.0013  0.8535
  615MPD2    H3 9117   1.151   0.021  16.314 -0.8171  1.1516  2.0699
  615MPD2     N 9118   0.865   0.224  16.019 -0.5542  0.3748  0.7664
  615MPD2    H5 9119   0.845   0.302  15.957 -1.2074  0.3564  0.9479
  615MPD2    N1 9120   1.288   0.415  16.139  0.0762  0.6896  0.1545
  615MPD2    H7 9121   1.268   0.475  16.060  1.6008  0.9441 -0.0411
  616TMC3    C1 9122   1.475   0.562  16.176  0.5196  0.2449 -0.6375
  616TMC3    C2 9123   1.585   0.603  16.242  0.2523 -0.4775  0.7860
  616TMC3    C3 9124   1.628   0.733  16.226  0.0742  0.3662 -0.0140
  616TMC3    C4 9125   1.434   0.630  16.064 -0.2060 -0.0101 -0.3601
  616TMC3    C5 9126   1.479   0.757  16.047 -0.0509  0.0986  0.3378
  616TMC3    C6 9127   1.571   0.814  16.131  0.6396  0.0577 -0.6651
  616TMC3     C 9128   1.407   0.435  16.205 -0.0115  0.1321  0.3503
  616TMC3     O 9129   1.462   0.369  16.290  0.4767  0.0249  0.0744
  616TMC3     H 9130   1.618   0.538  16.323 -0.9951 -1.7390  0.2798
  616TMC3    H1 9131   1.371   0.592  15.985  1.1886 -0.9416 -1.0337
  616TMC3    H2 9132   1.604   0.917  16.120  0.2690  0.3938  1.3083
  616TMC3    C7 9133   1.532   0.763  15.916  0.3132 -0.0536 -0.0983
  616TMC3    C8 9134   1.743   0.780  16.298  0.0792 -0.4820  0.9787
  616TMC3    O1 9135   1.567   0.657  15.873  0.7159  0.8069 -0.0597
  616TMC3    O2 9136   1.812   0.696  16.349  0.0323  0.0660 -0.3387
  617MPD2     C 9137   4.075   3.563  13.922  0.0175 -0.2527 -0.9681
  617MPD2    C1 9138   4.085   3.467  14.020 -0.2656  0.2027  0.0425
  617MPD2    C2 9139   3.965   3.420  14.073 -0.4643  0.0339  0.2489
  617MPD2    C3 9140   3.844   3.466  14.029  0.2810  0.6634 -0.1625
  617MPD2    C4 9141   3.840   3.556  13.928 -0.1278 -0.5564  0.2263
  617MPD2    C5 9142   3.953   3.607  13.872  0.5016  0.3027  0.1410
  617MPD2     H 9143   3.981   3.356  14.159  0.0358 -0.9197 -0.5470
  617MPD2    H1 9144   3.740   3.581  13.893  0.7878  0.9571 -1.3018
  617MPD2    H2 9145   4.165   3.614  13.889  1.0487 -1.0838  0.5565
  617MPD2    H3 9146   3.940   3.679  13.792  1.3595 -0.8613 -1.0407
  617MPD2     N 9147   3.726   3.413  14.085 -0.0600  0.1878  0.5562
  617MPD2    H5 9148   3.644   3.439  14.032  1.1824  1.2301 -0.8561
  617MPD2    N1 9149   4.213   3.414  14.057 -0.6759 -0.1561 -0.3524
  617MPD2    H7 9150   4.287   3.454  14.000 -0.6756  0.7313  0.2751
  618TMC3    C1 9151   4.382   3.338  14.187 -0.4916 -0.6533  0.5953
  618TMC3    C2 9152   4.463   3.319  14.082 -0.3999 -0.4145 -0.5112
  618TMC3    C3 9153   4.591   3.384  14.083 -0.2098  0.6032  0.4195
  618TMC3    C4 9154   4.411   3.427  14.285  0.0081  0.6183 -0.2614
  618TMC3    C5 9155   4.528   3.502  14.273 -0.2440  0.5571 -0.5776
  618TMC3    C6 9156   4.630   3.472  14.181 -0.0516  0.5641  0.3686
  618TMC3     C 9157   4.242   3.334  14.159  0.0770 -0.1879 -0.1263
  618TMC3     O 9158   4.173   3.285  14.250  0.4488  0.0746  0.1087
  618TMC3     H 9159   4.444   3.229  14.025  0.0339 -1.2456  0.6633
  618TMC3    H1 9160   4.335   3.440  14.362  1.4498 -0.4153  1.3124
  618TMC3    H2 9161   0.000   3.527  14.179  1.1428 -1.4527  0.5258
  618TMC3    C7 9162   4.560   3.595  14.381  0.1424 -0.1628  0.1801
  618TMC3    C8 9163   4.680   3.366  13.971  0.4759  0.1521 -0.0629
  618TMC3    O1 9164   4.542   3.537  14.491  0.3957 -0.0114 -0.1233
  618TMC3    O2 9165   0.068   3.419  13.990 -0.2324 -0.1156 -0.7837
  619MPD2     C 9166   0.620   4.553  13.533 -0.3428 -0.4188  0.6484
  619MPD2    C1 9167   0.575   4.664  13.465  0.2746  0.0514 -0.5590
  619MPD2    C2 9168   0.436   4.679  13.459 -0.0153  0.1329  0.3790
  619MPD2    C3 9169   0.349   4.587  13.516 -0.0712 -0.0868  0.1045
  619MPD2    C4 9170   0.401   4.474  13.583  0.1436  0.1413  0.5975
  619MPD2    C5 9171   0.536   4.457  13.591 -0.3815  0.3154  0.0651
  619MPD2     H 9172   0.395   0.046  13.417  1.8267 -0.1799 -2.0564
  619MPD2    H1 9173   0.339   4.404  13.637  0.3437  1.3919  2.4656
  619MPD2    H2 9174   0.727   4.543  13.549 -0.0008  0.9102 -0.7670
  619MPD2    H3 9175   0.584   4.367  13.627 -2.0178  0.1116  1.7207
  619MPD2     N 9176   0.204   4.589  13.505  0.0764 -0.1000 -0.1238
  619MPD2    H5 9177   0.150   4.520  13.556  0.5891 -1.8707 -1.9708
  619MPD2    N1 9178   0.658   0.043  13.416 -0.1975 -0.3836 -0.0190
  619MPD2    H7 9179   0.608   0.132  13.412 -1.5971 -1.1414  0.8323
  620TMC3    C1 9180   0.830   0.173  13.347 -0.3278 -0.2627  0.3022
  620TMC3    C2 9181   0.741   0.253  13.271 -0.2780  0.1943 -0.0353
  620TMC3    C3 9182   0.769   0.390  13.265  0.3147  0.2687  0.2687
  620TMC3    C4 9183   0.942   0.226  13.398 -0.1682 -0.0120  0.2855
  620TMC3    C5 9184   0.948   0.362  13.407  0.4298  0.8878 -0.2128
  620TMC3    C6 9185   0.866   0.452  13.339  0.2315  0.5764 -0.0309
  620TMC3     C 9186   0.788   0.043  13.401 -0.0723  0.1927 -0.1914
  620TMC3     O 9187   0.877   4.691  13.425 -0.3875  0.4494 -0.0590
  620TMC3     H 9188   0.659   0.206  13.219  0.1847 -2.7166  1.9082
  620TMC3    H1 9189   0.994   0.173  13.477  1.9327  1.3695 -0.1601
  620TMC3    H2 9190   0.895   0.556  13.338  0.3988  0.5369  0.5043
  620TMC3    C7 9191   1.008   0.410  13.528  0.5097  0.2919  0.0820
  620TMC3    C8 9192   0.647   0.468  13.272  0.4188  0.2399 -0.1491
  620TMC3    O1 9193   1.105   0.346  13.574  0.7466 -0.4254  0.0203
  620TMC3    O2 9194   0.633   0.549  13.366  0.5422 -0.1655  0.7370
  621MPD2     C 9195   1.919   4.084   9.786  0.2656 -0.9438  0.3492
  621MPD2    C1 9196   1.832   4.188   9.798 -0.5395  0.4534 -0.3212
  621MPD2    C2 9197   1.861   4.276   9.900  0.2757 -0.3825 -0.4880
  621MPD2    C3 9198   1.976   4.273   9.969 -0.2329  0.4751  0.0405
  621MPD2    C4 9199   2.064   4.168   9.950 -0.1436  0.3727 -0.5607
  621MPD2    C5 9200   2.037   4.078   9.856  0.2027 -0.5167  0.1463
  621MPD2     H 9201   1.787   4.353   9.917 -1.3237 -2.1844  0.6518
  621MPD2    H1 9202   2.149   4.142  10.012  0.0679  1.1945 -0.5093
  621MPD2    H2 9203   1.905   4.013   9.704  2.8319  3.1548 -3.6614
  621MPD2    H3 9204   2.119   4.010   9.833  0.0357 -0.6742  0.0135
  621MPD2     N 9205   1.994   4.370  10.068  0.2336  0.6068  0.5109
  621MPD2    H5 9206   1.925   4.444  10.075 -0.7484 -0.1713 -1.1304
  621MPD2    N1 9207   1.706   4.189   9.728  0.6280 -0.7672  0.1410
  621MPD2    H7 9208   1.632   4.249   9.765  0.2022 -1.0590 -0.2393
  622TMC3    C1 9209   1.527   4.132   9.587 -0.1003  0.5562 -0.2207
  622TMC3    C2 9210   1.432   4.106   9.689  0.0448 -0.2035 -0.3281
  622TMC3    C3 9211   1.297   4.089   9.652 -0.0498  0.2112 -0.0368
  622TMC3    C4 9212   1.489   4.134   9.456  0.1329  0.1562  0.2946
  622TMC3    C5 9213   1.354   4.135   9.429  0.1216 -0.2642 -0.6379
  622TMC3    C6 9214   1.256   4.116   9.521 -0.6272  0.4836 -0.0881
  622TMC3     C 9215   1.665   4.104   9.630  0.9412  0.2788 -0.4785
  622TMC3     O 9216   1.735   4.033   9.564  0.1271 -0.0555  0.0030
  622TMC3     H 9217   1.468   4.111   9.791 -1.1711 -1.1720  0.1504
  622TMC3    H1 9218   1.560   4.159   9.378 -0.5959  1.8914  0.1718
  622TMC3    H2 9219   1.155   4.088   9.491 -0.5134 -0.1243  0.0890
  622TMC3    C7 9220   1.313   4.202   9.305 -0.5871 -0.0357 -1.2951
  622TMC3    C8 9221   1.213   4.007   9.728  0.2891  0.7241  0.4054
  622TMC3    O1 9222   1.378   4.201   9.204  0.2583  0.1227  0.1476
  622TMC3    O2 9223   1.151   3.920   9.666 -0.1862 -0.1572  0.6217
  623MPD2     C 9224   4.609   1.058  16.059 -0.3044  0.3200 -0.1301
  623MPD2    C1 9225   4.517   0.974  16.108  0.1069  0.3520  0.6633
  623MPD2    C2 9226   4.561   0.873  16.196 -0.0016  0.0543  0.0699
  623MPD2    C3 9227   4.689   0.875  16.246 -0.6019  0.1207  0.3464
  623MPD2    C4 9228   0.057   0.962  16.188 -0.1287 -0.1121  0.6253
  623MPD2    C5 9229   0.015   1.048  16.096 -0.0146 -0.1831 -0.4126
  623MPD2     H 9230   4.499   0.793  16.237  2.2361 -1.3167  0.7662
  623MPD2    H1 9231   0.161   0.973  16.218  0.3232 -0.0911 -0.9442
  623MPD2    H2 9232   4.581   1.138  15.992  2.2097  0.5776 -0.8680
  623MPD2    H3 9233   0.091   1.118  16.061 -0.8379  1.0769  0.3313
  623MPD2     N 9234   4.714   0.795  16.353  0.0260  0.4179 -0.0749
  623MPD2    H5 9235   4.643   0.725  16.372 -2.0979  2.3912 -0.7598
  623MPD2    N1 9236   4.380   0.990  16.063  0.4545 -0.4049 -0.4274
  623MPD2    H7 9237   4.349   1.065  16.002  3.0180  0.4597 -0.6984
  624TMC3    C1 9238   0.144   0.608  16.746 -0.2754  0.5734  0.0839
  624TMC3    C2 9239   0.017   0.570  16.784 -0.4796 -0.4063  0.0324
  624TMC3    C3 9240   4.634   0.617  16.701  0.0622 -0.2980 -0.0156
  624TMC3    C4 9241   0.165   0.682  16.637  0.0498  0.2623  0.2597
  624TMC3    C5 9242   0.059   0.722  16.556 -0.6124 -0.0919 -0.5757
  624TMC3    C6 9243   4.652   0.681  16.583  0.1367 -0.1365 -0.0889
  624TMC3     C 9244   0.264   0.570  16.818 -0.5864 -0.3895 -0.9090
  624TMC3     O 9245   0.365   0.632  16.796  0.5009 -0.1655 -0.2469
  624TMC3     H 9246   4.720   0.506  16.869 -1.1916  1.4430  1.2445
  624TMC3    H1 9247   0.262   0.723  16.610  0.5956  1.3000  3.6971
  624TMC3    H2 9248   4.568   0.732  16.537 -0.2291 -0.8599 -0.2196
  624TMC3    C7 9249   0.093   0.800  16.442  0.2265 -0.7601  0.6757
  624TMC3    C8 9250   4.493   0.591  16.728 -0.0122 -0.3053 -0.4894
  624TMC3    O1 9251   0.195   0.868  16.442  0.4718  0.5353  0.2061
  624TMC3    O2 9252   4.409   0.609  16.635  0.3315 -0.4721 -0.1760
  625MPD2     C 9253   0.010   1.355   0.401 -0.0431 -0.0235  0.0050
  625MPD2    C1 9254   0.066   1.450   0.480  0.1900 -0.2443 -0.1979
  625MPD2    C2 9255   0.139   1.409   0.590 -0.5158 -0.0872  0.5355
  625MPD2    C3 9256   0.159   1.275   0.609 -0.2461 -0.8192 -0.1672
  625MPD2    C4 9257   0.106   1.175   0.529  0.4574  0.4712  0.1881
  625MPD2    C5 9258   0.023   1.224   0.434 -1.2415  0.4871  0.7486
  625MPD2     H 9259   0.182   1.483   0.657 -0.1905 -0.4289  0.7031
  625MPD2    H1 9260   0.116   1.068   0.548 -0.6822  0.3367  0.0668
  625MPD2    H2 9261   4.654   1.369   0.328  0.0122 -0.8767 -0.2309
  625MPD2    H3 9262   4.692   1.156   0.369  0.4835  0.0415 -0.2278
  625MPD2     N 9263   0.229   1.225   0.721  0.1919  0.3458 -0.5238
  625MPD2    H5 9264   0.251   1.126   0.720 -0.8266  0.1132 -0.1625
  625MPD2    N1 9265   0.030   1.591   0.455  0.4971  0.0386  0.0119
  625MPD2    H7 9266   0.068   1.654   0.524 -0.7477 -1.7004  2.2960
  626TMC3    C1 9267   4.653   1.786   0.378 -0.4947  0.0426 -0.2070
  626TMC3    C2 9268   4.637   1.860   0.263 -0.1190  0.8224 -0.0932
  626TMC3    C3 9269   4.645   1.998   0.286 -0.1517 -0.2636  0.4715
  626TMC3    C4 9270   4.688   1.837   0.497  0.1019  0.1700  0.1142
  626TMC3    C5 9271   4.705   1.971   0.513  0.2608  0.2206  0.6627
  626TMC3    C6 9272   4.685   2.056   0.404 -0.3768 -1.0548  0.4853
  626TMC3     C 9273   4.665   1.643   0.363  0.5995  0.2948 -0.5861
  626TMC3     O 9274   4.623   1.594   0.259  0.1203 -0.5000 -0.9664
  626TMC3     H 9275   4.594   1.814   0.174 -0.2240 -1.8804  1.3715
  626TMC3    H1 9276   4.678   1.770   0.582 -0.1849  0.1975  0.1032
  626TMC3    H2 9277   4.716   2.160   0.411 -0.6803 -1.0078  1.1476
  626TMC3    C7 9278   0.047   2.011   0.635 -0.3462  0.4579  0.0043
  626TMC3    C8 9279   4.616   2.096   0.182 -0.6576  0.5130 -0.0956
  626TMC3    O1 9280   0.093   1.911   0.687  0.0889  0.6990  0.1347
  626TMC3    O2 9281   4.633   2.062   0.066  0.6621  0.0598 -0.1133
  627MPD2     C 9282   3.229   2.117  14.493  0.0252  0.3120  0.0213
  627MPD2    C1 9283   3.296   2.048  14.588  0.4688 -0.8086 -0.4113
  627MPD2    C2 9284   3.262   1.909  14.607 -0.0739 -0.0087 -0.4091
  627MPD2    C3 9285   3.166   1.849  14.528 -0.1869  0.9771  0.7368
  627MPD2    C4 9286   3.099   1.920  14.435 -0.2312  0.4606  0.0977
  627MPD2    C5 9287   3.140   2.048  14.412  0.5564  0.1785 -0.2251
  627MPD2     H 9288   3.317   1.843  14.673 -1.3676 -1.4002 -0.7388
  627MPD2    H1 9289   3.035   1.869  14.364  0.8927 -0.3556 -0.3242
  627MPD2    H2 9290   3.247   2.222  14.474  2.5857  0.4714  3.3156
  627MPD2    H3 9291   3.105   2.103  14.325  1.8754 -0.5000 -1.1868
  627MPD2     N 9292   3.139   1.710  14.541  0.4464  0.1726  0.0329
  627MPD2    H5 9293   3.170   1.671  14.629 -1.9886  3.5529  2.4041
  627MPD2    N1 9294   3.406   2.103  14.668  0.6033  0.2941 -0.3863
  627MPD2    H7 9295   3.459   2.047  14.735  1.1727  2.0068  0.5891
  628TMC3    C1 9296   3.555   2.261  14.742  0.6810 -0.1565  0.1083
  628TMC3    C2 9297   3.654   2.165  14.748  0.0601 -0.1541 -0.5077
  628TMC3    C3 9298   3.778   2.205  14.796  0.4313 -0.5562 -0.5214
  628TMC3    C4 9299   3.580   2.390  14.776 -0.6105  0.4780  0.0059
  628TMC3    C5 9300   3.704   2.418  14.830  0.1625  0.3512 -0.1814
  628TMC3    C6 9301   3.807   2.325  14.846  0.5989  0.0422  0.4130
  628TMC3     C 9302   3.431   2.243  14.668 -0.2756 -0.6357 -0.2240
  628TMC3     O 9303   3.358   2.338  14.638  0.0533 -0.0124  0.0340
  628TMC3     H 9304   3.635   2.064  14.713  0.4580 -0.4559  0.1701
  628TMC3    H1 9305   3.509   2.471  14.768  0.3265  1.3690  0.6971
  628TMC3    H2 9306   3.912   2.344  14.864  0.7970  0.5030 -1.2318
  628TMC3    C7 9307   3.752   2.560  14.835  0.8476 -0.5988 -0.3037
  628TMC3    C8 9308   3.883   2.143  14.727 -1.1758 -0.3694  0.0384
  628TMC3    O1 9309   3.871   2.571  14.863  0.1630  0.1973  0.3269
  628TMC3    O2 9310   3.865   2.135  14.609  0.4641 -0.1370 -0.1627
  629MPD2     C 9311   2.048   1.170  16.443  0.2591 -0.2164 -0.3920
  629MPD2    C1 9312   2.079   1.037  16.444 -0.5124  0.6059 -0.2027
  629MPD2    C2 9313   1.983   0.948  16.408 -0.1181  0.0092 -0.0281
  629MPD2    C3 9314   1.859   0.993  16.353  0.4548  0.6546 -0.0514
  629MPD2    C4 9315   1.826   1.125  16.375 -0.4129 -0.1090 -0.3090
  629MPD2    C5 9316   1.927   1.214  16.411 -0.2667 -0.1582  0.3730
  629MPD2     H 9317   2.008   0.845  16.384 -1.0559 -0.2041 -0.1039
  629MPD2    H1 9318   1.728   1.168  16.357  0.5217  1.1834 -2.2580
  629MPD2    H2 9319   2.117   1.239  16.490 -0.4884 -0.3095  0.8410
  629MPD2    H3 9320   1.903   1.320  16.420  1.3922  0.2713 -0.2470
  629MPD2     N 9321   1.760   0.914  16.284 -0.4936 -0.2599  0.0122
  629MPD2    H5 9322   1.686   0.975  16.250 -0.6870  0.5512  1.9102
  629MPD2    N1 9323   2.216   1.009  16.472  0.2299 -0.6539  0.0484
  629MPD2    H7 9324   2.276   1.081  16.511 -0.9909 -0.3814  1.4209
  630TMC3    C1 9325   2.389   0.887  16.556 -0.6525  0.6064  0.0446
  630TMC3    C2 9326   2.470   0.997  16.542 -1.0227  0.2969 -0.8085
  630TMC3    C3 9327   2.567   1.016  16.640 -0.5547 -0.3218 -0.3144
  630TMC3    C4 9328   2.409   0.792  16.659  0.0510 -0.0349 -0.3452
  630TMC3    C5 9329   2.507   0.810  16.758 -0.3824  0.2000 -0.0819
  630TMC3    C6 9330   2.581   0.927  16.749  0.0150 -0.6471 -0.1445
  630TMC3     C 9331   2.265   0.882  16.476 -0.1304 -0.3610 -0.7775
  630TMC3     O 9332   2.218   0.770  16.455  0.7243 -0.1031 -0.0922
  630TMC3     H 9333   2.467   1.056  16.451 -1.7417 -0.0645 -1.0255
  630TMC3    H1 9334   2.312   0.757  16.691  0.0842  0.4616  0.3260
  630TMC3    H2 9335   2.650   0.949  16.830 -0.1969  3.2682 -1.0054
  630TMC3    C7 9336   2.457   0.791  16.889  0.1081  0.1103 -0.2499
  630TMC3    C8 9337   2.627   1.154  16.658 -0.5454  0.3528 -0.0338
  630TMC3    O1 9338   2.452   0.892  16.958 -0.4155 -0.0295 -0.0973
  630TMC3    O2 9339   2.695   1.180  16.757  0.0024  0.3893 -0.2348
  631MPD2     C 9340   4.689   0.643  15.952 -0.6557  0.7815 -0.4403
  631MPD2    C1 9341   0.016   0.638  15.831 -0.4748  0.6797 -0.3636
  631MPD2    C2 9342   0.119   0.549  15.805  0.5499 -0.0188  0.0314
  631MPD2    C3 9343   0.161   0.455  15.892  0.2618 -0.0049 -0.5368
  631MPD2    C4 9344   0.101   0.458  16.017 -0.0566  0.8488  0.7999
  631MPD2    C5 9345   0.000   0.554  16.050  0.2804 -0.7143 -0.1532
  631MPD2     H 9346   0.156   0.549  15.703  0.4314 -0.7079 -0.0114
  631MPD2    H1 9347   0.124   0.378  16.086  2.7681  0.9972  0.0285
  631MPD2    H2 9348   4.625   0.727  15.980  0.6886  1.2637  1.2267
  631MPD2    H3 9349   4.698   0.560  16.155  0.1792 -1.1653 -0.1518
  631MPD2     N 9350   0.271   0.372  15.859  0.0295  0.1536 -0.4547
  631MPD2    H5 9351   0.322   0.399  15.776  0.4638  4.2970  1.2039
  631MPD2    N1 9352   4.712   0.746  15.740 -0.1307  0.0441  0.8958
  631MPD2    H7 9353   4.658   0.816  15.790  0.3812  0.6077  0.6530
  632TMC3    C1 9354   0.013   0.892  15.560  0.1503 -0.0023  0.1303
  632TMC3    C2 9355   4.706   0.996  15.639 -0.3425 -0.3716  0.1612
  632TMC3    C3 9356   4.711   1.121  15.583 -0.7136 -0.0923 -0.2619
  632TMC3    C4 9357   0.050   0.906  15.431  0.3747 -0.1978 -0.4769
  632TMC3    C5 9358   0.044   1.029  15.380 -0.3855  0.1051 -0.3335
  632TMC3    C6 9359   0.025   1.140  15.458 -0.2976  0.9085 -0.8644
  632TMC3     C 9360   0.018   0.759  15.608  0.0321 -0.4377  0.9761
  632TMC3     O 9361   0.052   0.671  15.529  0.0756 -0.2791  0.0466
  632TMC3     H 9362   4.685   0.992  15.746 -3.6026  0.1297 -0.4634
  632TMC3    H1 9363   0.072   0.825  15.362 -1.9417 -0.1508 -1.2694
  632TMC3    H2 9364   0.038   1.230  15.399 -0.5289 -0.4021 -2.9148
  632TMC3    C7 9365   0.150   1.044  15.284  0.3573  0.1935  0.4724
  632TMC3    C8 9366   4.668   1.226  15.666  0.2681  0.1696  0.1015
  632TMC3    O1 9367   0.119   1.084  15.175  0.7942  0.4006 -0.4430
  632TMC3    O2 9368   4.597   1.200  15.763  0.3514  0.0563  0.2143
  633MPD2     C 9369   4.615   3.575  17.500  0.2150 -0.3087 -0.3796
  633MPD2    C1 9370   4.701   3.529  17.403  0.0986 -0.2971 -0.1727
  633MPD2    C2 9371   0.042   3.410  17.435 -0.3378 -0.6343  0.1558
  633MPD2    C3 9372   0.017   3.338  17.554  0.0861 -0.3873  0.3687
  633MPD2    C4 9373   4.659   3.399  17.645  0.4719 -0.4135  0.0699
  633MPD2    C5 9374   4.592   3.510  17.615 -0.1269 -0.8867 -0.6012
  633MPD2     H 9375   0.117   3.369  17.368  0.5585  0.5086  0.4707
  633MPD2    H1 9376   4.637   3.356   0.048  0.0750 -1.3299 -0.4273
  633MPD2    H2 9377   4.557   3.667  17.491 -1.2576 -1.4118 -2.3507
  633MPD2    H3 9378   4.516   3.548  17.683  1.8102  0.9001  0.5650
  633MPD2     N 9379   0.082   3.223  17.593  0.4184 -0.0167 -0.3907
  633MPD2    H5 9380   0.060   3.194  17.688  2.2557  3.0644  0.9822
  633MPD2    N1 9381   0.015   3.589  17.277  0.5622 -0.9706  0.0194
  633MPD2    H7 9382   0.082   3.539  17.219 -0.9114 -1.4523 -1.2636
  634TMC3    C1 9383   0.000   3.742  17.102  0.7279 -0.1214 -0.2439
  634TMC3    C2 9384   0.066   3.644  17.033  0.6346  0.3088  0.6443
  634TMC3    C3 9385   0.083   3.674  16.898 -0.9348 -0.0091 -0.1920
  634TMC3    C4 9386   4.657   3.854  17.051 -0.4389  0.8649  0.3397
  634TMC3    C5 9387   4.684   3.872  16.916  0.4880  0.0768  0.4951
  634TMC3    C6 9388   0.031   3.785  16.837  0.1583  0.6471 -0.0060
  634TMC3     C 9389   4.697   3.712  17.243 -0.1746  0.1396 -0.3842
  634TMC3     O 9390   4.636   3.797  17.307 -0.7051  0.6515  0.1916
  634TMC3     H 9391   0.114   3.554  17.068  1.1678  1.7394  3.6575
  634TMC3    H1 9392   4.619   3.930  17.118 -2.4859 -0.4998  0.7257
  634TMC3    H2 9393   0.036   3.805  16.731 -3.0420 -3.7620 -0.9805
  634TMC3    C7 9394   4.640   3.995  16.851 -0.8669  0.0192 -0.1333
  634TMC3    C8 9395   0.130   3.568  16.813 -0.2299  0.6519  0.0903
  634TMC3    O1 9396   4.710   4.050  16.764 -0.3422 -0.2965 -0.4069
  634TMC3    O2 9397   0.152   3.463  16.876  0.5262 -0.0899 -0.3510
  635TMC3    C1 9398   0.688   0.030  17.263  0.2864 -0.1086  0.5463
  635TMC3    C2 9399   0.776   4.685  17.181  0.2924 -0.2719 -0.1813
  635TMC3    C3 9400   0.722   4.584  17.099  0.7346  0.3738 -0.5039
  635TMC3    C4 9401   0.556   4.714  17.276  0.3511 -0.1268 -0.1236
  635TMC3    C5 9402   0.499   4.622  17.191  0.0038 -0.1156  0.2504
  635TMC3    C6 9403   0.586   4.549  17.105  0.5722  0.5800  0.0786
  635TMC3     C 9404   0.738   0.126  17.364 -0.2118 -0.4274 -0.1213
  635TMC3     O 9405   0.659   0.196  17.427  0.1619  0.5381  0.7801
  635TMC3     H 9406   0.874   4.718  17.151  0.4750  0.7790  1.5738
  635TMC3    H1 9407   0.495   0.048  17.345 -1.1137 -1.7238 -0.0944
  635TMC3    H2 9408   0.539   4.468  17.050  1.2887  1.1360 -1.3614
  635TMC3    C7 9409   0.383   4.554  17.237  0.0527  0.0522  0.5429
  635TMC3    C8 9410   0.805   4.523  17.000 -0.6248 -0.0781 -0.2947
  635TMC3    O1 9411   0.376   4.435  17.212  0.2281  0.5830  0.3522
  635TMC3    O2 9412   0.896   4.586  16.958  0.5627  0.2838 -0.2957
  636MPD2     C 9413   1.463   3.709  15.796 -0.0323  0.5057  0.8671
  636MPD2    C1 9414   1.514   3.796  15.894 -0.2765 -0.8714  0.0754
  636MPD2    C2 9415   1.648   3.789  15.932  0.4563  0.2523  0.5898
  636MPD2    C3 9416   1.736   3.706  15.865  0.3656  0.3930  0.6649
  636MPD2    C4 9417   1.682   3.616  15.779 -0.3596  0.2218  0.0749
  636MPD2    C5 9418   1.550   3.622  15.742 -0.1186  0.0833 -0.5263
  636MPD2     H 9419   1.686   3.853  16.010  0.9242 -0.2077  0.7341
  636MPD2    H1 9420   1.743   3.534  15.745 -1.0239 -0.1724 -0.1740
  636MPD2    H2 9421   1.364   3.722  15.753 -0.3064 -2.0759  0.7331
  636MPD2    H3 9422   1.521   3.551  15.666 -0.5320  0.5203 -0.7721
  636MPD2     N 9423   1.873   3.711  15.899  0.1271  0.1170 -0.2377
  636MPD2    H5 9424   1.895   3.783  15.967 -1.0515 -0.8147  1.1295
  636MPD2    N1 9425   1.430   3.895  15.964  0.4406  0.5780 -1.4421
  636MPD2    H7 9426   1.480   3.962  16.022 -0.8327  2.5275 -2.5803
  637TMC3    C1 9427   2.099   3.673  15.888 -0.1100  0.8962  0.3469
  637TMC3    C2 9428   2.092   3.715  16.025 -0.1277 -1.3591 -0.1361
  637TMC3    C3 9429   2.170   3.823  16.069 -0.1499 -0.2060  0.6350
  637TMC3    C4 9430   2.178   3.739  15.802  0.1225  0.5832  0.9207
  637TMC3    C5 9431   2.261   3.842  15.847  0.6401 -0.0641  0.1609
  637TMC3    C6 9432   2.259   3.878  15.981  0.0680  0.4466  0.4829
  637TMC3     C 9433   1.972   3.636  15.838  0.0839  0.3691 -0.1220
  637TMC3     O 9434   1.967   3.558  15.746 -0.2457  0.1186  0.9936
  637TMC3     H 9435   2.014   3.674  16.088  0.1059 -1.8683 -0.1757
  637TMC3    H1 9436   2.191   3.701  15.701  0.2190  1.6209  0.5389
  637TMC3    H2 9437   2.314   3.966  16.014  0.3774  1.4311 -2.7001
  637TMC3    C7 9438   2.245   3.961  15.772 -0.0232 -0.0729  0.3847
  637TMC3    C8 9439   2.074   3.918  16.126 -0.0230 -0.2307 -0.2899
  637TMC3    O1 9440   2.249   4.070  15.823 -0.3610 -0.8220  0.1811
  637TMC3    O2 9441   1.958   3.886  16.108  0.1258  0.3457 -0.3206
  638MPD2     C 9442   1.312   2.721  15.044  0.2879 -0.2019 -0.6505
  638MPD2    C1 9443   1.262   2.604  14.991  1.1053  0.2409 -0.1837
  638MPD2    C2 9444   1.144   2.558  15.041 -0.3734 -0.2261  0.1051
  638MPD2    C3 9445   1.077   2.622  15.139 -0.3358 -0.8503  0.6427
  638MPD2    C4 9446   1.117   2.744  15.180  0.4265  0.5297 -0.1469
  638MPD2    C5 9447   1.242   2.787  15.134  0.4338  0.2305  1.4232
  638MPD2     H 9448   1.105   2.458  15.022 -0.8378 -0.0436  0.0860
  638MPD2    H1 9449   1.056   2.797  15.252 -1.7474  0.6553 -2.0925
  638MPD2    H2 9450   1.417   2.745  15.031  0.0738  1.6136  1.0168
  638MPD2    H3 9451   1.278   2.874  15.188 -1.1373  1.3482  0.6726
  638MPD2     N 9452   0.970   2.553  15.190  0.4556 -0.4577 -0.5039
  638MPD2    H5 9453   0.946   2.464  15.148  1.5056  0.3934 -2.9136
  638MPD2    N1 9454   1.333   2.545  14.882  0.3450 -0.3361 -0.3785
  638MPD2    H7 9455   1.412   2.595  14.842  1.1327 -0.2178  1.3101
  639TMC3    C1 9456   0.803   2.476  15.309  0.5240 -0.3404  0.6377
  639TMC3    C2 9457   0.758   2.404  15.203  0.4944  0.0150 -0.3554
  639TMC3    C3 9458   0.718   2.274  15.227 -0.5487 -0.2892 -0.0786
  639TMC3    C4 9459   0.813   2.418  15.431 -0.0549 -0.4344 -0.7445
  639TMC3    C5 9460   0.769   2.287  15.455  0.0667 -0.0656  0.2598
  639TMC3    C6 9461   0.719   2.212  15.350  0.6017  0.7987 -0.4218
  639TMC3     C 9462   0.892   2.584  15.295 -0.3426 -0.7703  0.3694
  639TMC3     O 9463   0.878   2.682  15.368  0.1173  0.6486  0.0277
  639TMC3     H 9464   0.756   2.448  15.104  0.0199 -2.5372 -1.4914
  639TMC3    H1 9465   0.857   2.469  15.516 -0.2993 -0.1982 -0.7589
  639TMC3    H2 9466   0.695   2.107  15.365 -0.4158  1.0885 -0.0056
  639TMC3    C7 9467   0.872   2.220  15.526 -0.0853 -0.8094  0.4541
  639TMC3    C8 9468   0.666   2.192  15.123 -0.0426  0.1387  0.1298
  639TMC3    O1 9469   0.895   2.262  15.641  0.2307  0.1303 -0.6777
  639TMC3    O2 9470   0.714   2.193  15.009  0.0075 -0.0150  0.2921
  640MPD2     C 9471   1.769   0.713   9.992 -0.0088  0.4789 -1.0853
  640MPD2    C1 9472   1.827   0.834   9.956  0.7357 -0.8260 -0.2056
  640MPD2    C2 9473   1.758   0.953   9.982  0.3172 -0.1050  0.7053
  640MPD2    C3 9474   1.636   0.951  10.042  0.0679 -0.5288 -0.9511
  640MPD2    C4 9475   1.582   0.829  10.080  0.7373 -0.3824 -0.4043
  640MPD2    C5 9476   1.647   0.711  10.059  0.2142 -0.1048  0.0894
  640MPD2     H 9477   1.799   1.049   9.952 -1.5207 -0.4408 -2.8759
  640MPD2    H1 9478   1.492   0.816  10.139  1.5801  0.3261  1.0305
  640MPD2    H2 9479   1.810   0.614   9.972 -1.4080  0.0871 -2.0412
  640MPD2    H3 9480   1.607   0.616  10.092 -2.5350  0.6239 -1.1876
  640MPD2     N 9481   1.568   1.072  10.068 -0.0055  0.2465 -0.6802
  640MPD2    H5 9482   1.480   1.057  10.117  1.2893  0.0912  1.5695
  640MPD2    N1 9483   1.950   0.837   9.887 -0.1870  0.0893 -0.2366
  640MPD2    H7 9484   1.998   0.749   9.878 -0.7194 -0.3419  1.1263
  641TMC3    C1 9485   2.122   0.916   9.738  0.3194 -0.2008  0.1180
  641TMC3    C2 9486   2.199   0.820   9.791 -0.2965  0.2059  0.5220
  641TMC3    C3 9487   2.297   0.772   9.713 -0.1759 -0.7816 -0.0761
  641TMC3    C4 9488   2.127   0.965   9.610 -0.1248 -0.4809  0.0293
  641TMC3    C5 9489   2.225   0.903   9.538  0.1307  0.4115  0.2544
  641TMC3    C6 9490   2.315   0.810   9.582 -0.0820 -0.7183  0.6653
  641TMC3     C 9491   1.991   0.941   9.806  0.4260 -0.1139 -0.9489
  641TMC3     O 9492   1.927   1.035   9.761  0.0044  0.1305 -0.6738
  641TMC3     H 9493   2.195   0.796   9.897 -2.4946 -0.5480  0.2703
  641TMC3    H1 9494   2.065   1.044   9.572 -0.5135 -0.5746  0.4655
  641TMC3    H2 9495   2.394   0.770   9.521 -3.0720 -3.9328 -1.0921
  641TMC3    C7 9496   2.217   0.910   9.390 -0.0395 -0.2403  0.4103
  641TMC3    C8 9497   2.357   0.651   9.742 -0.0769  0.7868  0.1558
  641TMC3    O1 9498   2.316   0.872   9.330 -0.2747  1.0781 -0.2489
  641TMC3    O2 9499   2.365   0.575   9.645  0.0739 -0.1332  0.0003
  642TMC3    C1 9500   2.203   2.464  12.540 -0.7236  0.0645 -0.4755
  642TMC3    C2 9501   2.314   2.436  12.618  0.2251  1.0614 -0.1253
  642TMC3    C3 9502   2.337   2.305  12.654 -0.5628  0.3727 -0.1912
  642TMC3    C4 9503   2.132   2.368  12.487  0.0415  0.7363  0.2347
  642TMC3    C5 9504   2.163   2.239  12.523  0.5209 -0.6661 -0.8332
  642TMC3    C6 9505   2.261   2.206  12.608 -0.3081 -0.0327 -0.1260
  642TMC3     C 9506   2.151   2.595  12.571 -0.4815  0.3257  0.0752
  642TMC3     O 9507   2.200   2.652  12.666  0.4564 -0.0913  0.2280
  642TMC3     H 9508   2.370   2.514  12.668 -1.4706  1.6772  0.8143
  642TMC3    H1 9509   2.046   2.382  12.422  0.5687 -2.0080 -1.0522
  642TMC3    H2 9510   2.275   2.102  12.635 -1.3749 -0.1275  0.0997
  642TMC3    C7 9511   2.087   2.121  12.466 -0.1324 -0.5817 -0.0506
  642TMC3    C8 9512   2.462   2.259  12.709 -0.7105  0.3366 -0.2775
  642TMC3    O1 9513   2.145   2.018  12.432  0.3074  0.3855 -0.5412
  642TMC3    O2 9514   2.460   2.153  12.770  0.1741  0.6275  0.5477
  643TMC3    C1 9515   1.683   1.632   0.501  0.4075  0.3283  0.4203
  643TMC3    C2 9516   1.650   1.766   0.499  0.1494  0.3452  0.4807
  643TMC3    C3 9517   1.679   1.840   0.385  0.2705 -0.2522  0.4881
  643TMC3    C4 9518   1.720   1.567   0.388  1.1897  0.6554 -0.6682
  643TMC3    C5 9519   1.730   1.638   0.273 -0.0348  0.0639 -0.2477
  643TMC3    C6 9520   1.718   1.774   0.269 -0.0441  0.3197  0.0484
  643TMC3     C 9521   1.699   1.565   0.626  0.1916  0.2970  0.0974
  643TMC3     O 9522   1.637   1.599   0.727 -0.1884  0.1335 -0.1842
  643TMC3     H 9523   1.614   1.813   0.590 -0.6269 -0.0543  0.3811
  643TMC3    H1 9524   1.742   1.461   0.386 -1.6044  0.0641  0.5101
  643TMC3    H2 9525   1.724   1.833   0.178  1.3037 -0.1269 -0.1448
  643TMC3    C7 9526   1.780   1.573   0.154  0.8128  0.4481 -0.1319
  643TMC3    C8 9527   1.577   1.936   0.364  0.3299  0.2740  0.5296
  643TMC3    O1 9528   1.863   1.646   0.095 -0.6744  1.0322  0.5793
  643TMC3    O2 9529   1.461   1.906   0.402 -0.0507  0.0436  0.1920
  644MPD2     C 9530   2.113   1.297   9.875  0.4695  0.6425  0.9590
  644MPD2    C1 9531   2.147   1.307   9.744  0.0016 -0.1541  0.3433
  644MPD2    C2 9532   2.060   1.376   9.659 -0.1678  0.0107 -0.4435
  644MPD2    C3 9533   1.941   1.432   9.703  0.1523 -0.3084 -0.2885
  644MPD2    C4 9534   1.912   1.423   9.835 -0.5457 -0.6556 -0.4346
  644MPD2    C5 9535   1.995   1.353   9.916 -0.0249 -0.0300  0.4991
  644MPD2     H 9536   2.077   1.375   9.552 -2.3848  0.7580 -0.8087
  644MPD2    H1 9537   1.813   1.457   9.864  0.0550  1.8822 -1.3586
  644MPD2    H2 9538   2.181   1.250   9.946  0.7470 -0.3441  0.0287
  644MPD2    H3 9539   1.968   1.340  10.020  0.4341 -2.1854  0.3584
  644MPD2     N 9540   1.859   1.502   9.615  0.4231 -0.6785 -0.5799
  644MPD2    H5 9541   1.892   1.518   9.521 -0.8274  1.5348 -0.6558
  644MPD2    N1 9542   2.273   1.264   9.705  0.4247  0.3436 -0.0664
  644MPD2    H7 9543   2.334   1.241   9.783 -1.1139  1.5274  1.5038
  645TMC3    C1 9544   1.681   1.628   9.541 -0.2157 -0.6630 -0.2912
  645TMC3    C2 9545   1.752   1.747   9.529  0.5376  0.0500 -0.1646
  645TMC3    C3 9546   1.674   1.861   9.509  0.7298  0.2610 -0.4273
  645TMC3    C4 9547   1.546   1.616   9.504  0.6252 -0.1486  0.0820
  645TMC3    C5 9548   1.478   1.732   9.478 -0.6616  0.1226  0.1897
  645TMC3    C6 9549   1.536   1.855   9.486 -0.4742  0.2720 -0.1762
  645TMC3     C 9550   1.729   1.531   9.637 -0.1129  0.4058 -0.3175
  645TMC3     O 9551   1.663   1.513   9.737  0.1944  1.2310 -0.1094
  645TMC3     H 9552   1.854   1.749   9.565  0.6746  2.9983 -0.7113
  645TMC3    H1 9553   1.501   1.518   9.513  0.2262  0.0119 -0.1654
  645TMC3    H2 9554   1.478   1.943   9.462  1.2362  1.1942 -0.9733
  645TMC3    C7 9555   1.339   1.739   9.426 -0.5070  0.3529  0.1019
  645TMC3    C8 9556   1.747   1.986   9.503  0.0181  0.1395  0.2519
  645TMC3    O1 9557   1.281   1.845   9.432 -0.4099 -0.0281 -1.0735
  645TMC3    O2 9558   1.865   1.982   9.494  0.4652 -0.8848  0.1650
  646MPD2     C 9559   1.373   1.453  14.667  1.3417 -0.1555 -0.2815
  646MPD2    C1 9560   1.280   1.394  14.749  0.4713  0.4754 -0.2042
  646MPD2    C2 9561   1.146   1.415  14.721  0.2054 -0.0166 -1.0624
  646MPD2    C3 9562   1.106   1.482  14.613  0.2447  0.4016 -0.5454
  646MPD2    C4 9563   1.201   1.538  14.530  0.3813  0.3271  0.6138
  646MPD2    C5 9564   1.336   1.519  14.557 -0.5134  0.5369 -0.2666
  646MPD2     H 9565   1.068   1.370  14.783 -0.6357  1.9775 -0.6800
  646MPD2    H1 9566   1.183   1.606  14.447 -0.6306  1.9510  2.1531
  646MPD2    H2 9567   1.480   1.445  14.680  1.3033 -1.0701 -0.4849
  646MPD2    H3 9568   1.405   1.554  14.481 -0.0868  1.5652  0.5997
  646MPD2     N 9569   0.967   1.485  14.583  0.7994  0.1445 -0.4618
  646MPD2    H5 9570   0.906   1.445  14.654  0.1870  0.2989 -0.9080
  646MPD2    N1 9571   1.320   1.308  14.854 -0.1216 -0.3801 -0.3141
  646MPD2    H7 9572   1.417   1.277  14.857 -0.4956 -1.5277 -0.1819
  647TMC3    C1 9573   1.310   1.171  15.052  0.9098  0.3107  0.8525
  647TMC3    C2 9574   1.243   1.178  15.179  0.1292 -0.4619 -0.2496
  647TMC3    C3 9575   1.315   1.134  15.282 -0.0722  0.0907 -0.3059
  647TMC3    C4 9576   1.427   1.116  15.026  0.2218  0.3582  0.5983
  647TMC3    C5 9577   1.489   1.081  15.141  0.5822 -0.3150 -0.0305
  647TMC3    C6 9578   1.442   1.098  15.267  0.9336  0.1763  0.1521
  647TMC3     C 9579   1.240   1.237  14.944 -0.3601 -0.2311  0.5595
  647TMC3     O 9580   1.118   1.243  14.959  0.7982 -0.3281 -0.3022
  647TMC3     H 9581   1.142   1.213  15.197 -0.0573 -1.4162  0.5749
  647TMC3    H1 9582   1.456   1.089  14.925  1.2791 -0.1990  1.0496
  647TMC3    H2 9583   1.492   1.055  15.354  1.1679 -0.9644 -0.5533
  647TMC3    C7 9584   1.551   0.956  15.130 -0.4260  0.2964  0.0608
  647TMC3    C8 9585   1.242   1.086  15.394 -0.1292  0.3517  0.0682
  647TMC3    O1 9586   1.668   0.942  15.171 -0.5854 -0.4104 -0.1719
  647TMC3    O2 9587   1.152   1.156  15.437  0.2066 -0.3031 -0.2192
  648TMC3    C1 9588   0.558   3.801  16.068 -0.3185 -0.1632  0.3632
  648TMC3    C2 9589   0.596   3.687  16.003 -0.3054  0.5630 -0.2705
  648TMC3    C3 9590   0.547   3.678  15.878 -0.0260  0.5820 -0.1653
  648TMC3    C4 9591   0.487   3.902  16.013  0.0128  0.1968  0.6803
  648TMC3    C5 9592   0.446   3.889  15.881  0.1130  0.3649 -0.0997
  648TMC3    C6 9593   0.482   3.778  15.807  0.5009  0.1421  0.2864
  648TMC3     C 9594   0.574   3.813  16.208  0.2149  0.2644  0.1215
  648TMC3     O 9595   0.601   3.928  16.246  0.4351  0.9014 -0.2782
  648TMC3     H 9596   0.649   3.608  16.056 -0.1688  1.1125  0.4081
  648TMC3    H1 9597   0.468   3.995  16.067 -0.6255  1.3914 -1.6139
  648TMC3    H2 9598   0.436   3.758  15.711  1.4310 -2.8027  0.4857
  648TMC3    C7 9599   0.372   3.990  15.811  0.0383  0.0127 -0.2892
  648TMC3    C8 9600   0.565   3.554  15.816  0.4079  0.0595 -0.3166
  648TMC3    O1 9601   0.405   4.017  15.695 -0.4329 -0.4958  0.2213
  648TMC3    O2 9602   0.491   3.526  15.719 -0.1347 -0.4337  0.1097
  649TMC3    C1 9603   3.798   4.590  12.812 -0.4391 -0.3825  0.7017
  649TMC3    C2 9604   3.894   4.680  12.766  0.1004  0.0643 -1.1117
  649TMC3    C3 9605   3.965   0.019  12.860  0.3286  0.3704 -0.1231
  649TMC3    C4 9606   3.769   4.561  12.942  0.4977  0.2700 -0.2128
  649TMC3    C5 9607   3.861   4.611  13.033  0.2342 -0.4448 -0.6627
  649TMC3    C6 9608   3.945   4.710  12.991  0.4400  0.1146 -0.1080
  649TMC3     C 9609   3.708   4.531  12.713  0.5996  0.0864 -0.3329
  649TMC3     O 9610   3.590   4.519  12.746  0.1850 -0.0052  0.1891
  649TMC3     H 9611   3.888   0.004  12.668  1.6645  1.8691 -0.3221
  649TMC3    H1 9612   3.702   4.479  12.964 -0.1533  0.1075 -2.7804
  649TMC3    H2 9613   4.011   0.016  13.072  0.9426  0.9590 -0.8138
  649TMC3    C7 9614   3.831   4.584  13.177 -0.7976  0.2632 -0.7148
  649TMC3    C8 9615   4.086   0.096  12.817 -0.3940 -0.2148 -0.5741
  649TMC3    O1 9616   3.884   4.660  13.262 -0.0432 -0.5857  0.4711
  649TMC3    O2 9617   4.111   0.079  12.694  0.0680 -0.1550 -0.0980
  650TMC3    C1 9618   1.629   1.981  12.786 -0.0550 -0.8374  0.2635
  650TMC3    C2 9619   1.565   2.098  12.776 -0.8207  0.6329 -0.4762
  650TMC3    C3 9620   1.433   2.095  12.747  0.8174  0.7252  0.4962
  650TMC3    C4 9621   1.578   1.857  12.753 -0.5318  1.0751 -0.8051
  650TMC3    C5 9622   1.446   1.856  12.706 -0.3483 -0.6137 -0.3696
  650TMC3    C6 9623   1.373   1.973  12.716  0.6396  0.3740 -0.1377
  650TMC3     C 9624   1.771   1.992  12.816 -0.3655 -0.5478  0.1356
  650TMC3     O 9625   1.831   2.097  12.808 -0.4029 -0.3531  0.2330
  650TMC3     H 9626   1.608   2.191  12.811  2.2579 -1.0781  0.2306
  650TMC3    H1 9627   1.643   1.776  12.723 -2.1650 -0.8426  0.8418
  650TMC3    H2 9628   1.267   1.960  12.696  1.1099  1.1072 -3.0201
  650TMC3    C7 9629   1.422   1.774  12.593 -0.2921  0.4957  0.6537
  650TMC3    C8 9630   1.366   2.218  12.709 -0.1870  0.6379  0.0162
  650TMC3    O1 9631   1.478   1.665  12.590 -0.5547 -0.0849  0.0271
  650TMC3    O2 9632   1.438   2.312  12.706  0.1752 -0.3807  0.2795
  651MPD2     C 9633   1.003   3.105  11.201 -0.7059  0.0903 -0.4484
  651MPD2    C1 9634   1.004   3.241  11.199 -0.2295  0.3143  0.3160
  651MPD2    C2 9635   1.105   3.302  11.125  0.3588  0.2903  0.3060
  651MPD2    C3 9636   1.203   3.226  11.058 -0.4412  0.0914 -0.1989
  651MPD2    C4 9637   1.194   3.092  11.063  0.6427  0.6614  0.2431
  651MPD2    C5 9638   1.094   3.034  11.136  0.2312 -0.8037 -0.2022
  651MPD2     H 9639   1.108   3.408  11.104  3.5834 -0.5706 -3.8410
  651MPD2    H1 9640   1.259   3.032  11.001  4.3512  2.6542  2.1965
  651MPD2    H2 9641   0.908   3.067  11.238 -0.0404 -0.4005  0.7713
  651MPD2    H3 9642   1.081   2.926  11.135 -0.7440 -0.7041  1.4143
  651MPD2     N 9643   1.305   3.298  10.993  0.2909 -0.4081 -0.0487
  651MPD2    H5 9644   1.300   3.397  11.014  0.6336 -0.3974 -0.0069
  651MPD2    N1 9645   0.897   3.319  11.241  0.1177 -0.6521  0.0303
  651MPD2    H7 9646   0.912   3.418  11.219  0.8865 -0.3724  1.8159
  652TMC3    C1 9647   1.695   3.433  10.776 -0.1922 -0.0613 -0.3391
  652TMC3    C2 9648   1.624   3.336  10.842 -0.0270 -0.2249 -0.3883
  652TMC3    C3 9649   1.486   3.350  10.852  0.0087  0.1755  0.3075
  652TMC3    C4 9650   1.632   3.556  10.749  0.4962 -0.0844  0.4275
  652TMC3    C5 9651   1.501   3.569  10.776 -0.3143  0.4954 -0.1579
  652TMC3    C6 9652   1.421   3.468  10.820  0.4168 -0.6397 -0.9411
  652TMC3     C 9653   1.837   3.431  10.793 -0.8457  0.3843 -0.3987
  652TMC3     O 9654   1.881   3.346  10.873 -0.1754  0.1938  0.3421
  652TMC3     H 9655   1.661   3.244  10.886 -0.4453 -0.7180 -1.0768
  652TMC3    H1 9656   1.688   3.634  10.698  1.1559 -2.2385 -2.1368
  652TMC3    H2 9657   1.315   3.486  10.838 -0.0081  0.3084 -4.3991
  652TMC3    C7 9658   1.457   3.694  10.824 -0.2158 -0.1865 -0.1190
  652TMC3    C8 9659   1.408   3.249  10.917  0.0904  0.0762 -0.0527
  652TMC3    O1 9660   1.336   3.715  10.835  0.2043  0.4242  0.5051
  652TMC3    O2 9661   1.455   3.137  10.909 -0.3885 -0.0725 -0.2771
  653MPD2     C 9662   4.237   3.638  17.533 -0.1948 -0.8670 -0.5814
  653MPD2    C1 9663   4.117   3.703  17.510  0.0915 -0.5913  0.2624
  653MPD2    C2 9664   4.005   3.631  17.473 -0.9204 -0.3646 -0.1363
  653MPD2    C3 9665   4.008   3.493  17.461 -0.8776  0.3981  0.7076
  653MPD2    C4 9666   4.133   3.435  17.485  0.1605 -0.3653  0.8488
  653MPD2    C5 9667   4.243   3.507  17.521 -0.1665  0.3410  0.0714
  653MPD2     H 9668   3.914   3.690  17.467  0.5623  1.8768 -0.7112
  653MPD2    H1 9669   4.148   3.329  17.465  1.8789 -0.0349  0.4318
  653MPD2    H2 9670   4.332   3.679  17.564 -1.9051  1.5880  1.4118
  653MPD2    H3 9671   4.335   3.452  17.537 -1.4055 -1.0892  2.2654
  653MPD2     N 9672   3.900   3.429  17.412  1.0618  0.2395  0.3367
  653MPD2    H5 9673   3.810   3.477  17.409 -0.6250 -3.0546 -1.6605
  653MPD2    N1 9674   4.111   3.846  17.524 -0.2636 -0.3790  0.0688
  653MPD2    H7 9675   4.021   3.892  17.524 -0.6748 -1.1643 -1.2880
  654TMC3    C1 9676   3.774   3.272  17.285 -0.6625 -0.2758  0.5810
  654TMC3    C2 9677   3.700   3.378  17.250 -0.4328 -0.4554  0.5986
  654TMC3    C3 9678   3.630   3.372  17.128  0.0622 -0.3296  0.3476
  654TMC3    C4 9679   3.785   3.161  17.205 -1.3409 -0.1598  0.0628
  654TMC3    C5 9680   3.735   3.173  17.072 -0.1041 -0.0576 -0.6765
  654TMC3    C6 9681   3.644   3.271  17.044  0.3677 -0.6795  0.4825
  654TMC3     C 9682   3.895   3.297  17.371 -0.0401 -0.3401  0.6157
  654TMC3     O 9683   3.986   3.217  17.357  0.6444  0.3803 -0.2549
  654TMC3     H 9684   3.681   3.461  17.317 -1.9756 -0.4237  0.1114
  654TMC3    H1 9685   3.857   3.090  17.243  2.6326  3.5258 -0.5611
  654TMC3    H2 9686   3.608   3.270  16.942  0.3217 -0.7725  0.4993
  654TMC3    C7 9687   3.783   3.084  16.970 -0.4488 -0.0754  0.4650
  654TMC3    C8 9688   3.533   3.472  17.104  0.2604  0.3733  0.4903
  654TMC3    O1 9689   3.735   3.097  16.857  0.2010 -0.5132  0.1900
  654TMC3    O2 9690   3.516   3.571  17.174  0.0690  0.3045 -0.2067
  655MPD2     C 9691   0.909   3.878  15.797 -0.2428  0.2278  0.6459
  655MPD2    C1 9692   0.820   3.955  15.727  0.2974  0.3070  0.0770
  655MPD2    C2 9693   0.787   3.927  15.592 -0.1829 -0.6690  0.7393
  655MPD2    C3 9694   0.849   3.822  15.528  0.8548 -0.0778 -0.3013
  655MPD2    C4 9695   0.941   3.747  15.602  0.2558  0.2318  0.3626
  655MPD2    C5 9696   0.970   3.774  15.732 -0.2127  0.0908  0.3294
  655MPD2     H 9697   0.707   3.989  15.554 -0.0523 -0.5525  0.6555
  655MPD2    H1 9698   0.994   3.665  15.557 -0.2967  0.4771 -0.7466
  655MPD2    H2 9699   0.938   3.903  15.898 -1.6607 -1.7634  1.5383
  655MPD2    H3 9700   1.042   3.720  15.793 -1.4298 -3.4225 -1.3598
  655MPD2     N 9701   0.833   3.799  15.388 -0.2579 -0.0559 -0.6537
  655MPD2    H5 9702   0.885   3.720  15.353  0.2444  1.0762 -2.4981
  655MPD2    N1 9703   0.745   4.058  15.785  0.2872  0.3930  0.0057
  655MPD2    H7 9704   0.663   4.095  15.737 -1.5141 -1.2671  1.8078
  656TMC3    C1 9705   0.654   4.213  15.946 -0.3206  0.5632  0.1012
  656TMC3    C2 9706   0.614   4.228  16.075 -0.3905  0.0578 -0.0492
  656TMC3    C3 9707   0.523   4.316  16.111 -0.4786  0.5398  0.0096
  656TMC3    C4 9708   0.605   4.286  15.841 -0.3900 -0.1158  0.1341
  656TMC3    C5 9709   0.525   4.382  15.886 -1.1868  0.6583 -0.3858
  656TMC3    C6 9710   0.468   4.395  16.011 -0.0240  0.6550  0.3288
  656TMC3     C 9711   0.743   4.095  15.921 -0.4664 -0.1665 -0.0820
  656TMC3     O 9712   0.804   4.043  16.015 -0.1667 -0.4979 -0.1274
  656TMC3     H 9713   0.640   4.160  16.155 -0.8078  0.1237  0.1432
  656TMC3    H1 9714   0.648   4.275  15.742  0.3839  1.8228  0.2521
  656TMC3    H2 9715   0.388   4.460  16.048 -0.5583  0.1604  0.0425
  656TMC3    C7 9716   0.472   4.468  15.778 -0.6462 -0.9562 -0.7147
  656TMC3    C8 9717   0.424   4.270  16.209  0.1002  0.4749  0.4723
  656TMC3    O1 9718   0.524   4.456  15.664 -0.0623 -0.0368  0.4376
  656TMC3    O2 9719   0.398   4.154  16.216 -0.1502 -0.5252  0.0011
  657TMC3    C1 9720   4.553   3.379  15.025  0.0814 -0.1244  0.0335
  657TMC3    C2 9721   4.638   3.400  15.132  0.2483  0.1397  1.0304
  657TMC3    C3 9722   4.583   3.435  15.251  0.0297  0.6397  0.0201
  657TMC3    C4 9723   4.424   3.418  15.033 -0.5195 -0.0760 -0.5780
  657TMC3    C5 9724   4.374   3.458  15.154  0.0652  0.6023 -0.3988
  657TMC3    C6 9725   4.452   3.475  15.265  0.5548 -0.5984  0.0253
  657TMC3     C 9726   4.605   3.351  14.893  0.0033  0.1083  0.3074
  657TMC3     O 9727   4.525   3.342  14.800  0.3399 -0.2392  0.0795
  657TMC3     H 9728   0.019   3.370  15.129 -0.1401 -0.9653 -1.2517
  657TMC3    H1 9729   4.347   3.419  14.957 -0.5775 -3.4646 -0.5915
  657TMC3    H2 9730   4.414   3.496  15.365 -1.7496 -1.9479 -0.5729
  657TMC3    C7 9731   4.235   3.481  15.166  0.2314  0.1612  0.0183
  657TMC3    C8 9732   4.679   3.470  15.356 -0.3163  0.1754  0.3464
  657TMC3    O1 9733   4.165   3.462  15.069  0.4723  0.2814  0.1495
  657TMC3    O2 9734   0.051   3.399  15.365 -0.5051 -0.1156 -0.2614
  658MPD2     C 9735   1.086   3.299  15.133 -0.7664 -0.2039  0.0924
  658MPD2    C1 9736   1.018   3.370  15.031 -0.4070 -0.7889  0.4031
  658MPD2    C2 9737   1.060   3.334  14.907 -0.2434  0.2715  0.1354
  658MPD2    C3 9738   1.144   3.229  14.883 -0.2099 -0.3849  0.0590
  658MPD2    C4 9739   1.199   3.157  14.986  0.4676  0.1848 -0.4405
  658MPD2    C5 9740   1.170   3.189  15.113  0.0122 -0.6131 -0.0985
  658MPD2     H 9741   1.015   3.391  14.826  2.0456 -0.4850 -1.6759
  658MPD2    H1 9742   1.273   3.080  14.968  2.2408  1.1259  2.7712
  658MPD2    H2 9743   1.069   3.332  15.235  0.1385 -2.8215  1.0723
  658MPD2    H3 9744   1.210   3.136  15.199 -0.0969 -0.3360  0.1244
  658MPD2     N 9745   1.184   3.213  14.743 -0.1021 -0.2230  0.3932
  658MPD2    H5 9746   1.144   3.273  14.672  0.1240 -1.8052 -1.0732
  658MPD2    N1 9747   0.936   3.475  15.069  0.3252 -0.3219 -0.3117
  658MPD2    H7 9748   0.945   3.498  15.168  4.1658  0.9084 -0.9364
  659TMC3    C1 9749   0.768   3.647  15.028 -0.0396  0.6338 -0.7918
  659TMC3    C2 9750   0.814   3.710  15.140 -0.7422  0.8567 -0.0985
  659TMC3    C3 9751   0.730   3.812  15.174  0.2232 -1.0024 -0.8518
  659TMC3    C4 9752   0.668   3.689  14.939 -0.5913 -0.7026 -0.0566
  659TMC3    C5 9753   0.599   3.799  14.981 -0.0675 -0.0954 -0.3897
  659TMC3    C6 9754   0.623   3.851  15.101 -0.6477 -0.2046 -0.0824
  659TMC3     C 9755   0.847   3.539  14.983  0.4083  0.5179  0.9861
  659TMC3     O 9756   0.835   3.511  14.862 -0.4304  0.0332  0.1394
  659TMC3     H 9757   0.904   3.691  15.197 -1.8662 -2.6280  0.5372
  659TMC3    H1 9758   0.638   3.628  14.854 -1.6236  0.3541 -0.4478
  659TMC3    H2 9759   0.549   3.917  15.147  0.0077  0.4678  0.0076
  659TMC3    C7 9760   0.471   3.833  14.921  0.0825  0.0876  0.2754
  659TMC3    C8 9761   0.745   3.868  15.313 -0.0762  0.1421 -0.3825
  659TMC3    O1 9762   0.382   3.869  14.993 -1.0524  0.2737 -0.7424
  659TMC3    O2 9763   0.670   3.964  15.333 -0.4129  0.6721 -0.4028
  660MPD2     C 9764   3.768   2.146  12.906 -0.1191  0.3768 -0.4995
  660MPD2    C1 9765   3.637   2.182  12.914 -0.4571 -0.2429  0.4210
  660MPD2    C2 9766   3.556   2.142  13.021  0.1701  0.2915  0.4773
  660MPD2    C3 9767   3.619   2.064  13.120  0.2978  0.4767 -0.6324
  660MPD2    C4 9768   3.750   2.021  13.108 -0.1608  0.2763  0.3661
  660MPD2    C5 9769   3.823   2.063  12.997  0.0897  0.4893  0.5407
  660MPD2     H 9770   3.451   2.169  13.020  0.0724 -0.0486  1.2548
  660MPD2    H1 9771   3.791   1.973  13.196 -1.4917  1.2838  1.5328
  660MPD2    H2 9772   3.826   2.158  12.815  0.4716 -0.5145 -0.2403
  660MPD2    H3 9773   3.925   2.025  12.990 -0.8535 -1.5223 -2.5783
  660MPD2     N 9774   3.567   2.036  13.242  0.0535  0.9456 -0.5892
  660MPD2    H5 9775   3.621   1.968  13.295 -0.1188  2.5973  1.7259
  660MPD2    N1 9776   3.584   2.245  12.805  0.8558  0.0060 -0.1292
  660MPD2    H7 9777   3.652   2.271  12.734  1.1960 -2.6018 -0.7591
  661TMC3    C1 9778   3.446   2.357  12.649 -0.3652 -0.5386 -1.1886
  661TMC3    C2 9779   3.554   2.361  12.558 -0.0231 -0.1220 -0.5308
  661TMC3    C3 9780   3.538   2.429  12.442  0.5180  0.8226  0.4664
  661TMC3    C4 9781   3.328   2.429  12.626 -0.0629  0.1460  0.5722
  661TMC3    C5 9782   3.325   2.505  12.510  0.2545 -0.8360  0.1317
  661TMC3    C6 9783   3.420   2.491  12.409 -0.6353 -0.4930 -0.0931
  661TMC3     C 9784   3.455   2.273  12.768  0.2251 -0.3520  0.1687
  661TMC3     O 9785   3.348   2.245  12.822  0.1173  0.3792  0.0442
  661TMC3     H 9786   3.641   2.300  12.580  0.0204 -0.5362 -1.8522
  661TMC3    H1 9787   3.256   2.431  12.707  0.2128  0.1395  0.8193
  661TMC3    H2 9788   3.421   2.558  12.324  0.0482 -1.0618 -0.5367
  661TMC3    C7 9789   3.210   2.582  12.479  0.3430  0.2151 -0.2840
  661TMC3    C8 9790   3.650   2.443  12.354  0.1562 -0.1430  0.3317
  661TMC3    O1 9791   3.160   2.615  12.587  0.2346 -0.4837 -0.2031
  661TMC3    O2 9792   3.630   2.489  12.239 -0.1805  0.1782  0.0990
  662MPD2     C 9793   4.202   1.616  17.462  0.1410  0.0557  0.4181
  662MPD2    C1 9794   4.198   1.708  17.562  0.2255 -0.0768 -0.0278
  662MPD2    C2 9795   4.179   1.843  17.531  0.6586 -0.6424  1.4608
  662MPD2    C3 9796   4.169   1.879  17.396 -0.2880 -0.0326  0.3581
  662MPD2    C4 9797   4.177   1.784  17.302 -0.0714  0.0937  0.7090
  662MPD2    C5 9798   4.193   1.649  17.333 -0.5799 -0.0173  0.5057
  662MPD2     H 9799   4.162   1.909  17.615 -0.2065  1.2917 -0.2401
  662MPD2    H1 9800   4.186   1.813  17.198 -2.1694  2.5341  1.2016
  662MPD2    H2 9801   4.200   1.512  17.493  1.3609  0.6845  2.6426
  662MPD2    H3 9802   4.196   1.569  17.260 -0.1923  1.0874 -0.6791
  662MPD2     N 9803   4.165   2.015  17.357  0.8388  0.7936  0.0166
  662MPD2    H5 9804   4.143   2.035  17.260 -1.1681 -2.9260 -0.2689
  662MPD2    N1 9805   4.197   1.666   0.004 -0.1954 -0.5673  0.0314
  662MPD2    H7 9806   4.192   1.735   0.079  1.6016 -0.6739  0.2377
  663TMC3    C1 9807   4.199   1.528   0.198  0.5589 -0.8363 -0.2876
  663TMC3    C2 9808   4.229   1.635   0.284  0.6332 -0.1082  0.1416
  663TMC3    C3 9809   4.206   1.620   0.417 -0.0924 -0.1302 -0.4541
  663TMC3    C4 9810   4.132   1.410   0.239  0.4955 -0.2421  0.3508
  663TMC3    C5 9811   4.107   1.409   0.375 -0.1023  0.6892 -1.0774
  663TMC3    C6 9812   4.135   1.515   0.462  1.2097 -0.0386  0.2750
  663TMC3     C 9813   4.214   1.534   0.053 -0.4487  0.7455 -0.5045
  663TMC3     O 9814   4.215   1.424  17.693 -0.4720  0.4541 -0.2343
  663TMC3     H 9815   4.313   1.697   0.256 -0.5337  0.1070 -2.8245
  663TMC3    H1 9816   4.134   1.314   0.188 -0.5446  0.1727 -0.4572
  663TMC3    H2 9817   4.160   1.496   0.565 -0.3345  0.6158  0.7731
  663TMC3    C7 9818   4.092   1.278   0.437 -0.0919  0.0866  0.0993
  663TMC3    C8 9819   4.326   1.604   0.486 -0.1301 -0.8258  0.2152
  663TMC3    O1 9820   4.160   1.241   0.532  0.0102 -0.4876  0.5001
  663TMC3    O2 9821   4.386   1.500   0.477 -0.2374 -0.0273 -0.5242
  664MPD2     C 9822   1.592   0.883  17.676 -0.6738  0.2494  0.0563
  664MPD2    C1 9823   1.713   0.923   0.021  0.3579  0.0526  0.2125
  664MPD2    C2 9824   1.760   0.879   0.148 -0.1406 -0.4286 -0.0934
  664MPD2    C3 9825   1.669   0.813   0.234 -0.2686 -0.2454  0.1588
  664MPD2    C4 9826   1.545   0.780   0.192 -0.1028 -0.3897  0.3123
  664MPD2    C5 9827   1.505   0.825   0.068 -0.5137 -0.4031  0.9433
  664MPD2     H 9828   1.859   0.909   0.180 -0.0338  0.7839 -1.5460
  664MPD2    H1 9829   1.475   0.740   0.264 -3.9232  2.3642 -1.8830
  664MPD2    H2 9830   1.554   0.892  17.574 -0.1572  0.8895 -0.0719
  664MPD2    H3 9831   1.408   0.793   0.032 -1.2472  1.7458  1.0041
  664MPD2     N 9832   1.720   0.777   0.362  0.4150 -0.2481 -0.4084
  664MPD2    H5 9833   1.818   0.801   0.379  0.1667  1.4354 -1.3959
  664MPD2    N1 9834   1.803   0.983  17.635 -0.6245 -0.1357 -0.5026
  664MPD2    H7 9835   1.897   0.982  17.672 -0.5941  1.1687 -0.5254
  665TMC3    C1 9836   1.713   0.679   0.583 -0.5804 -0.2447 -0.3382
  665TMC3    C2 9837   1.640   0.658   0.696 -0.4376  0.9710  0.1680
  665TMC3    C3 9838   1.713   0.623   0.808 -0.3227 -0.5001 -0.1588
  665TMC3    C4 9839   1.846   0.661   0.575 -0.4697 -0.3494 -0.0632
  665TMC3    C5 9840   1.915   0.611   0.685  0.3779  0.0415  0.4411
  665TMC3    C6 9841   1.844   0.586   0.800  0.2200 -0.3123  0.1110
  665TMC3     C 9842   1.647   0.716   0.463 -0.6656  0.1962 -0.5738
  665TMC3     O 9843   1.533   0.674   0.464  0.2935  0.3315 -0.0580
  665TMC3     H 9844   1.533   0.673   0.697 -0.3037  1.8709  0.4231
  665TMC3    H1 9845   1.893   0.676   0.478 -0.9880  0.8322 -0.1217
  665TMC3    H2 9846   1.898   0.549   0.887 -1.0685  1.5626  1.7070
  665TMC3    C7 9847   2.061   0.639   0.682  0.1046  0.2120  0.1128
  665TMC3    C8 9848   1.642   0.594   0.929  0.5440 -0.8227 -0.2249
  665TMC3    O1 9849   2.122   0.596   0.586  0.7233  0.7249  0.3573
  665TMC3    O2 9850   1.692   0.502   0.996  0.2733  0.5233  0.6447
  666TMC3    C1 9851   2.091   4.497  10.234 -0.0414 -0.1258 -0.2663
  666TMC3    C2 9852   2.157   4.497  10.353 -0.2257 -0.2823  0.9906
  666TMC3    C3 9853   2.139   4.607  10.431  0.3178 -0.9101  0.2936
  666TMC3    C4 9854   2.004   4.605  10.196 -0.4276  0.2036  0.1811
  666TMC3    C5 9855   1.992   4.708  10.282  0.3939  0.3531  0.7000
  666TMC3    C6 9856   2.062   4.715  10.397 -0.2591  0.3716 -0.5333
  666TMC3     C 9857   2.100   4.382  10.157  0.1140  0.6795  0.1546
  666TMC3     O 9858   2.197   4.313  10.174 -0.1401 -0.5452 -0.2257
  666TMC3     H 9859   2.227   4.418  10.376  0.2522 -0.2651 -0.4198
  666TMC3    H1 9860   1.954   4.605  10.100  1.3775 -0.0571 -0.7739
  666TMC3    H2 9861   2.043   0.066  10.473  1.0773 -0.7068  0.8718
  666TMC3    C7 9862   1.911   0.100  10.253 -0.0738 -0.1098  0.5398
  666TMC3    C8 9863   2.165   4.579  10.575 -0.2380  0.0828  0.4975
  666TMC3    O1 9864   1.938   0.201  10.315  0.1037 -0.6605 -0.1802
  666TMC3    O2 9865   2.143   4.465  10.610  0.1146  0.6696  0.2525
  667MPD2     C 9866   3.022   0.683  14.997 -0.0937 -0.3955 -0.2655
  667MPD2    C1 9867   2.928   0.663  15.095  0.2327 -0.6505 -0.0054
  667MPD2    C2 9868   2.830   0.565  15.082  0.3289 -0.1287  0.3376
  667MPD2    C3 9869   2.824   0.494  14.966  0.0620 -0.7651 -0.6009
  667MPD2    C4 9870   2.917   0.519  14.868 -1.0974 -0.8309 -0.0166
  667MPD2    C5 9871   3.018   0.610  14.882 -0.0395  0.3153 -0.1580
  667MPD2     H 9872   2.760   0.556  15.164 -0.6333  0.8419 -0.3780
  667MPD2    H1 9873   2.929   0.447  14.788 -0.7651 -1.0502  0.2284
  667MPD2    H2 9874   3.111   0.742  15.015 -0.3238 -0.7174  1.9156
  667MPD2    H3 9875   3.098   0.603  14.809  0.5029 -0.0517  0.4735
  667MPD2     N 9876   2.729   0.400  14.937  0.1564  0.4376  0.1288
  667MPD2    H5 9877   2.723   0.350  14.849  1.1171 -1.0146  0.8921
  667MPD2    N1 9878   2.925   0.759  15.202 -0.0457 -0.0244 -0.0485
  667MPD2    H7 9879   2.885   0.729  15.290 -2.0475 -1.1596 -1.3522
  668TMC3    C1 9880   2.961   0.957  15.323  0.8661 -0.2424  0.0075
  668TMC3    C2 9881   3.053   1.059  15.347 -0.2150 -0.1307  0.0658
  668TMC3    C3 9882   3.034   1.139  15.457 -0.1686 -0.7538  0.4871
  668TMC3    C4 9883   2.858   0.929  15.408  0.0861  0.3101 -0.6275
  668TMC3    C5 9884   2.859   1.003  15.524 -0.2978 -0.3858  0.2585
  668TMC3    C6 9885   2.942   1.106  15.548 -0.1879 -0.2262  0.1491
  668TMC3     C 9886   2.993   0.876  15.204  0.4253  0.6023 -0.0848
  668TMC3     O 9887   3.049   0.936  15.113  0.2920 -0.7796 -0.1956
  668TMC3     H 9888   3.137   1.069  15.279 -0.4119 -0.2796 -0.2027
  668TMC3    H1 9889   2.777   0.863  15.379 -0.0572 -0.7908  2.3435
  668TMC3    H2 9890   2.938   1.172  15.633 -0.4927 -1.0142  0.7479
  668TMC3    C7 9891   2.743   0.986  15.609  0.2733 -0.0519 -0.0023
  668TMC3    C8 9892   3.125   1.255  15.480  0.1404  0.0750  0.5222
  668TMC3    O1 9893   2.717   1.085  15.683 -0.1898  0.3976  0.2918
  668TMC3    O2 9894   3.160   1.298  15.593  0.2421  0.4525  0.3286
  669TMC3    C1 9895   0.846   0.635  14.763  0.1138  0.0915 -1.0136
  669TMC3    C2 9896   0.736   0.646  14.681  0.0682  0.7817 -0.2365
  669TMC3    C3 9897   0.760   0.687  14.550  0.4298  0.1249 -0.8094
  669TMC3    C4 9898   0.972   0.695  14.723  0.1330 -0.0070  0.9315
  669TMC3    C5 9899   0.990   0.727  14.596  0.5964 -0.0072  0.0181
  669TMC3    C6 9900   0.890   0.717  14.504 -0.0145 -0.0024  0.8063
  669TMC3     C 9901   0.816   0.608  14.903 -0.0722  0.3817 -0.0643
  669TMC3     O 9902   0.731   0.526  14.930  0.6412  0.2875 -0.1459
  669TMC3     H 9903   0.654   0.579  14.707  0.0070  0.8782 -0.1766
  669TMC3    H1 9904   1.052   0.689  14.796  0.4580 -2.5822  0.3574
  669TMC3    H2 9905   0.887   0.767  14.408 -0.4756 -0.2476  0.6961
  669TMC3    C7 9906   1.124   0.761  14.556  0.1404 -0.4649  0.0267
  669TMC3    C8 9907   0.659   0.652  14.459  0.1213  0.5107  0.5261
  669TMC3    O1 9908   1.207   0.771  14.643  0.4566  0.8433  0.2384
  669TMC3    O2 9909   0.704   0.615  14.349  0.2958  0.2890 -0.0837
  670MPD2     C 9910   3.951   3.212  13.594 -0.7361 -0.8004  0.0142
  670MPD2    C1 9911   4.047   3.250  13.683  0.1622 -0.2002 -0.2515
  670MPD2    C2 9912   4.044   3.198  13.815  0.2173 -0.5703  0.0849
  670MPD2    C3 9913   3.940   3.121  13.861 -0.0915 -0.3185 -0.0285
  670MPD2    C4 9914   3.846   3.084  13.769  0.5915 -0.3338 -0.2831
  670MPD2    C5 9915   3.853   3.122  13.635  0.7768 -0.8228 -0.5557
  670MPD2     H 9916   4.122   3.219  13.888  1.5843  1.2401 -1.8974
  670MPD2    H1 9917   3.752   3.035  13.791  0.0945 -0.1047 -1.9065
  670MPD2    H2 9918   3.939   3.250  13.493  0.8910  1.4997  0.6810
  670MPD2    H3 9919   3.786   3.084  13.559 -0.9859  1.7564 -0.2847
  670MPD2     N 9920   3.938   3.076  13.996 -0.2639  0.3152 -0.2531
  670MPD2    H5 9921   4.008   3.114  14.060  0.2911  0.3951 -0.9159
  670MPD2    N1 9922   4.149   3.345  13.655 -0.4184 -0.5710 -0.2051
  670MPD2    H7 9923   4.229   3.351  13.717 -1.5781 -1.9865  1.4323
  671TMC3    C1 9924   3.843   2.977  14.182 -0.0142 -0.9984  0.0595
  671TMC3    C2 9925   3.954   2.980  14.261  0.0525 -0.3904 -0.3664
  671TMC3    C3 9926   3.944   2.900  14.374  0.1190 -0.0816 -0.1448
  671TMC3    C4 9927   3.723   2.924  14.225 -0.0355 -0.5524  0.1896
  671TMC3    C5 9928   3.725   2.832  14.328 -0.2724  0.3303 -0.1855
  671TMC3    C6 9929   3.829   2.823  14.407 -1.0936 -0.0944 -0.0141
  671TMC3     C 9930   3.851   2.988  14.040  0.7238  0.2279  0.2502
  671TMC3     O 9931   3.770   2.923  13.972  0.1501  0.0749 -0.8310
  671TMC3     H 9932   4.055   2.990  14.222 -0.6546  2.9429 -1.3090
  671TMC3    H1 9933   3.638   2.940  14.159  0.6653  1.6100 -0.1955
  671TMC3    H2 9934   3.836   2.745  14.482 -1.3649  0.8909  1.0406
  671TMC3    C7 9935   3.632   2.726  14.313 -0.5712  0.6418  0.6030
  671TMC3    C8 9936   4.064   2.821  14.387 -0.1064 -0.1456  0.0234
  671TMC3    O1 9937   3.545   2.750  14.232 -0.2962 -0.0926 -0.6054
  671TMC3    O2 9938   4.123   2.774  14.290 -0.1320 -0.1831 -0.1936
  672MPD2     C 9939   3.914   3.406   0.711 -0.5359 -0.1161  0.4263
  672MPD2    C1 9940   4.037   3.431   0.769  0.1675  0.0834  0.0570
  672MPD2    C2 9941   4.048   3.423   0.906  0.4325  0.0550  0.9077
  672MPD2    C3 9942   3.933   3.405   0.988  0.3418  0.2477  0.6191
  672MPD2    C4 9943   3.811   3.410   0.923  0.5237 -0.7655  0.0563
  672MPD2    C5 9944   3.800   3.394   0.784  0.4590  0.0782  0.1106
  672MPD2     H 9945   4.147   3.429   0.951  0.9193  0.9912 -0.2872
  672MPD2    H1 9946   3.717   3.407   0.977 -0.3783  0.1400 -1.4686
  672MPD2    H2 9947   3.903   3.392   0.604  2.4827 -0.5903  0.1608
  672MPD2    H3 9948   3.709   3.394   0.725  0.5899 -0.0936 -0.0894
  672MPD2     N 9949   3.940   3.395   1.127 -0.3486 -0.6544 -0.4555
  672MPD2    H5 9950   3.858   3.406   1.185  0.0555 -2.5739  0.4853
  672MPD2    N1 9951   4.151   3.458   0.688 -0.2393  0.1044  0.3881
  672MPD2    H7 9952   4.243   3.464   0.731  0.6789  1.3954 -1.7825
  673TMC3    C1 9953   4.271   3.594   0.552 -0.4923 -0.3098 -0.0414
  673TMC3    C2 9954   4.379   3.521   0.579 -0.2569 -0.0475  0.2686
  673TMC3    C3 9955   4.487   3.582   0.637 -0.4220 -0.5445 -0.1035
  673TMC3    C4 9956   4.277   3.727   0.557 -0.0909 -0.8827 -0.0689
  673TMC3    C5 9957   4.382   3.785   0.625  0.7919 -0.0230  0.3963
  673TMC3    C6 9958   4.493   3.717   0.668 -0.5902 -0.1201 -0.1823
  673TMC3     C 9959   4.145   3.531   0.572  0.0237 -0.0029 -0.5737
  673TMC3     O 9960   4.046   3.568   0.508  0.5444 -0.0078 -0.4056
  673TMC3     H 9961   4.371   3.413   0.587 -0.3652 -0.0790 -0.2303
  673TMC3    H1 9962   4.187   3.781   0.529  1.1213  1.8800  1.3198
  673TMC3    H2 9963   4.573   3.771   0.717  0.2869 -2.9373  1.4322
  673TMC3    C7 9964   4.335   3.858   0.745  0.3286 -0.2276  0.2994
  673TMC3    C8 9965   4.612   3.504   0.658 -0.3614 -0.2054  0.3039
  673TMC3    O1 9966   4.380   3.846   0.857  0.2912 -0.3643 -0.4723
  673TMC3    O2 9967   4.610   3.382   0.681  0.1789  0.9095 -0.2018
  674MPD2     C 9968   4.414   3.800   0.200 -0.0250 -0.0678  0.7696
  674MPD2    C1 9969   4.453   3.673   0.223 -0.6067  0.0362  0.3061
  674MPD2    C2 9970   4.360   3.565   0.222  0.3047 -0.0840 -0.0449
  674MPD2    C3 9971   4.228   3.588   0.190 -0.0282  0.3390  0.2734
  674MPD2    C4 9972   4.192   3.722   0.171 -0.3268 -0.0611  0.3187
  674MPD2    C5 9973   4.284   3.825   0.178 -0.1499  0.0192 -0.0176
  674MPD2     H 9974   4.384   3.462   0.243 -0.4706 -0.2774 -0.1006
  674MPD2    H1 9975   4.093   3.760   0.148  0.0089  0.5457 -0.1368
  674MPD2    H2 9976   4.486   3.879   0.216 -0.7412  0.2292  2.5366
  674MPD2    H3 9977   4.250   3.927   0.162  0.3119  0.3566  1.1490
  674MPD2     N 9978   4.143   3.479   0.199 -0.0813 -0.0659  0.8645
  674MPD2    H5 9979   4.193   3.392   0.216 -0.7948 -0.9288 -1.4609
  674MPD2    N1 9980   4.594   3.654   0.248  0.5944 -0.0252 -0.0008
  674MPD2    H7 9981   4.665   3.727   0.245  0.3550  0.1775 -0.6979
  675TMC3    C1 9982   0.065   3.517   0.275  0.6729 -0.4512  0.0097
  675TMC3    C2 9983   0.148   3.440   0.357 -0.6390  0.5065 -0.1640
  675TMC3    C3 9984   0.277   3.420   0.325 -0.2454 -0.8690 -0.0586
  675TMC3    C4 9985   0.115   3.568   0.162  0.1201  0.3361  0.4113
  675TMC3    C5 9986   0.253   3.552   0.134  0.3534  0.7671  0.1751
  675TMC3    C6 9987   0.333   3.479   0.213  0.1109 -0.1242 -0.4776
  675TMC3     C 9988   4.646   3.531   0.294 -0.2249  0.1774  0.1883
  675TMC3     O 9989   4.587   3.436   0.337 -0.0474  0.0248 -0.0506
  675TMC3     H 9990   0.112   3.384   0.442 -0.9958 -0.7455 -1.1510
  675TMC3    H1 9991   0.053   3.629   0.098  1.4799  1.8634  0.5527
  675TMC3    H2 9992   0.439   3.461   0.202  0.7406  2.7935  0.9235
  675TMC3    C7 9993   0.309   3.576   0.004  0.0577 -0.2249  0.4363
  675TMC3    C8 9994   0.367   3.337   0.407 -0.0517 -0.7938 -0.3653
  675TMC3    O1 9995   0.414   3.520  17.657 -0.1638 -0.8168 -0.0843
  675TMC3    O2 9996   0.484   3.373   0.410  0.3538 -0.0717 -0.0078
  676MPD2     C 9997   1.569   1.591  11.087 -0.9091 -0.5090 -0.5535
  676MPD2    C1 9998   1.505   1.499  11.173 -0.0637 -0.4697 -0.4428
  676MPD2    C2 9999   1.509   1.363  11.143 -0.4123 -0.5979  1.0568
  676MPD2    C310000   1.583   1.312  11.032  0.7757 -0.3955  0.0945
  676MPD2    C410001   1.641   1.405  10.957 -0.2052 -0.6006  1.3850
  676MPD2    C510002   1.642   1.542  10.978 -0.6451 -0.0651 -0.3162
  676MPD2     H10003   1.450   1.300  11.207 -0.5408 -0.7301  0.8092
  676MPD2    H110004   1.701   1.371  10.874 -0.0794  0.8890  0.8611
  676MPD2    H210005   1.575   1.699  11.095  1.4868 -0.6798 -0.1283
  676MPD2    H310006   1.667   1.620  10.906 -0.4415 -0.0615 -0.2420
  676MPD2     N10007   1.605   1.175  11.002  0.2696  0.1090 -0.1186
  676MPD2    H510008   1.674   1.147  10.933  0.7291  1.1444 -0.0889
  676MPD2    N110009   1.437   1.542  11.292 -0.8338 -0.3122  0.1765
  676MPD2    H710010   1.394   1.473  11.353  2.4117 -2.4472  0.0497
  677TMC3    C110011   1.349   1.686  11.450  0.0942  0.1600 -0.7715
  677TMC3    C210012   1.231   1.617  11.458  0.5477 -0.8093 -0.4274
  677TMC3    C310013   1.163   1.613  11.574  0.3881 -0.0508 -0.2211
  677TMC3    C410014   1.396   1.759  11.548  0.0392 -0.6714  0.3211
  677TMC3    C510015   1.323   1.758  11.664  0.3643  0.6698 -0.8681
  677TMC3    C610016   1.208   1.688  11.681  0.8028  0.6508  0.7125
  677TMC3     C10017   1.438   1.669  11.336 -0.4849  0.6727  0.8781
  677TMC3     O10018   1.508   1.764  11.306  0.0316 -0.0439  0.0783
  677TMC3     H10019   1.191   1.554  11.379 -0.8284 -0.6190  0.1254
  677TMC3    H110020   1.489   1.813  11.535 -1.7970  2.0326 -1.6329
  677TMC3    H210021   1.150   1.703  11.772 -0.9144 -1.9327  0.0334
  677TMC3    C710022   1.340   1.852  11.774  0.3856 -0.1038  0.0287
  677TMC3    C810023   1.036   1.539  11.584 -0.2305 -0.0354 -0.3880
  677TMC3    O110024   1.242   1.887  11.837  0.2632 -0.8034 -0.4214
  677TMC3    O210025   0.952   1.542  11.497  0.7364 -0.1312  0.1857
  678MPD2     C10026   3.244   1.781   1.435 -0.0510  0.2190 -0.1560
  678MPD2    C110027   3.263   1.661   1.367  0.2017  0.1503 -0.5918
  678MPD2    C210028   3.156   1.576   1.347  0.3881  0.1594  0.2593
  678MPD2    C310029   3.028   1.610   1.387  0.3770  0.3186  0.2407
  678MPD2    C410030   3.011   1.725   1.464 -0.2810  0.8576 -0.6116
  678MPD2    C510031   3.118   1.802   1.493  0.4364 -0.4518  0.1570
  678MPD2     H10032   3.178   1.477   1.308 -3.0461 -1.2199  1.7963
  678MPD2    H110033   2.912   1.752   1.497 -1.6223 -1.3741 -2.7791
  678MPD2    H210034   3.325   1.850   1.452  0.6239 -0.6061  0.0151
  678MPD2    H310035   3.096   1.898   1.540 -0.0912 -1.5894  2.2205
  678MPD2     N10036   2.931   1.515   1.351 -0.3827 -0.0772  0.1458
  678MPD2    H510037   2.957   1.446   1.281 -1.8993  0.1409 -0.6305
  678MPD2    N110038   3.387   1.619   1.321 -0.2837 -0.8538  0.1654
  678MPD2    H710039   3.396   1.523   1.288 -3.6925 -0.5446 -1.6516
  679TMC3    C110040   3.753   1.421   1.319 -0.9148  0.3280  0.1803
  679TMC3    C210041   3.630   1.482   1.336 -0.0685  0.8295 -0.0415
  679TMC3    C310042   3.619   1.616   1.298  0.5272  0.4157  0.1209
  679TMC3    C410043   3.857   1.486   1.264  0.3975  0.1930  0.4522
  679TMC3    C510044   3.844   1.618   1.247  0.3906  0.1474  0.5510
  679TMC3    C610045   3.726   1.686   1.259 -0.4430 -0.2154 -0.4266
  679TMC3     C10046   3.752   1.276   1.310  0.0967  0.4688  0.6025
  679TMC3     O10047   3.857   1.217   1.318  0.6660 -0.1831  0.8180
  679TMC3     H10048   3.550   1.425   1.382  1.8326 -2.0626 -0.3251
  679TMC3    H110049   3.944   1.433   1.227  1.4198  2.3311 -0.2450
  679TMC3    H210050   3.724   1.795   1.254  0.7887 -0.1970 -0.5559
  679TMC3    C710051   3.964   1.694   1.227  0.1998  0.2360  0.3817
  679TMC3    C810052   3.505   1.690   1.329 -0.4425  0.1882 -0.1806
  679TMC3    O110053   3.957   1.801   1.168 -0.1673  0.0704 -0.3107
  679TMC3    O210054   3.517   1.812   1.327 -0.0158 -0.1458  0.1687
  680MPD2     C10055   4.167   0.343  13.739 -0.2622 -0.2380  0.1390
  680MPD2    C110056   4.116   0.313  13.862  0.0037 -0.3097 -0.7157
  680MPD2    C210057   4.121   0.405  13.963 -0.2072  0.2843 -0.1939
  680MPD2    C310058   4.186   0.532  13.941 -0.2036  0.2132  0.2502
  680MPD2    C410059   4.234   0.561  13.816 -0.3555 -0.4646 -0.0376
  680MPD2    C510060   4.223   0.463  13.718 -0.7757  0.1176 -0.2598
  680MPD2     H10061   4.073   0.372  14.054  2.3042  0.1497  1.0820
  680MPD2    H110062   4.268   0.656  13.777  0.0505  1.0075  3.8384
  680MPD2    H210063   4.174   0.267  13.662 -0.2379  1.2193 -1.2903
  680MPD2    H310064   4.272   0.489  13.625  0.8673 -1.8896  0.0419
  680MPD2     N10065   4.190   0.635  14.034  0.7412 -0.2314 -0.5597
  680MPD2    H510066   4.229   0.725  14.006 -1.7856  0.9047 -0.4284
  680MPD2    N110067   4.072   0.187  13.901  0.0493  0.3344  0.2718
  680MPD2    H710068   4.061   0.163  13.999 -1.6350 -1.5117 -0.3525
  681TMC3    C110069   3.983   4.696  13.876  0.1956  0.2021 -0.4102
  681TMC3    C210070   4.026   4.650  14.000  0.2900  0.1781 -0.2851
  681TMC3    C310071   3.958   4.546  14.051 -0.9060 -0.5611 -0.6632
  681TMC3    C410072   3.887   4.634  13.805 -0.8127 -0.0988  0.5379
  681TMC3    C510073   3.810   4.549  13.873 -0.5299 -0.0143  0.1676
  681TMC3    C610074   3.846   4.498  13.995  0.3896  0.1520 -0.0331
  681TMC3     C10075   4.043   0.088  13.809 -0.3607 -1.0862  0.1252
  681TMC3     O10076   4.045   0.088  13.687 -0.5748 -0.0645  0.1512
  681TMC3     H10077   4.102   4.710  14.048  1.9473 -3.7580  1.9764
  681TMC3    H110078   3.852   4.663  13.707 -0.4434 -1.3061  0.0451
  681TMC3    H210079   3.792   4.417  14.043  0.7460  1.0055  1.8106
  681TMC3    C710080   3.725   4.460  13.796  0.1607  0.2427 -0.8590
  681TMC3    C810081   4.011   4.480  14.164  1.2316  0.5747  0.2177
  681TMC3    O110082   3.625   4.410  13.850 -0.4770 -0.7144 -0.0123
  681TMC3    O210083   3.944   4.386  14.211 -0.0207 -0.2876  0.2619
  682MPD2     C10084   0.990   1.059  10.637  0.2432  0.8880  0.5511
  682MPD2    C110085   0.985   0.935  10.700  0.4084 -0.0041 -0.8736
  682MPD2    C210086   0.914   0.914  10.815  0.5566  0.4624 -0.1179
  682MPD2    C310087   0.835   1.022  10.867 -0.6462  0.0338 -0.1531
  682MPD2    C410088   0.856   1.151  10.820 -0.3928 -0.6341  0.4982
  682MPD2    C510089   0.940   1.162  10.712 -0.0263 -0.0326 -0.4706
  682MPD2     H10090   0.934   0.819  10.862 -4.0701 -0.5582 -0.1883
  682MPD2    H110091   0.813   1.245  10.854 -2.0692 -2.1810  2.6223
  682MPD2    H210092   1.056   1.081  10.554 -0.1283  0.6375  0.1878
  682MPD2    H310093   0.950   1.258  10.663 -1.6270  0.1004 -0.5302
  682MPD2     N10094   0.760   1.014  10.983  0.4393 -0.1459  0.3556
  682MPD2    H510095   0.724   1.103  11.017  2.2926  0.4270  0.7922
  682MPD2    N110096   1.058   0.823  10.647  0.0601 -0.5671  0.9097
  682MPD2    H710097   1.058   0.740  10.705  2.2754  1.0564  3.2125
  683TMC3    C110098   0.479   0.989  11.294 -0.1394  0.6711  0.3723
  683TMC3    C210099   0.459   0.871  11.359 -0.4888 -0.2835 -0.3432
  683TMC3    C310100   0.535   0.763  11.325 -0.0296 -0.2111  0.3233
  683TMC3    C410101   0.568   1.000  11.194 -0.3416 -0.0654  0.2268
  683TMC3    C510102   0.631   0.892  11.152  0.7781 -0.1532 -1.0083
  683TMC3    C610103   0.623   0.771  11.220  0.1866 -0.8055 -0.5560
  683TMC3     C10104   0.459   1.110  11.369  1.0728  0.0165 -0.0611
  683TMC3     O10105   0.472   1.208  11.299  0.1174  0.1482  0.0769
  683TMC3     H10106   0.406   0.863  11.453 -2.4745 -0.5973 -1.4970
  683TMC3    H110107   0.590   1.096  11.148 -0.1468  0.0071  0.4712
  683TMC3    H210108   0.690   0.690  11.196  0.6188  0.1001 -2.4032
  683TMC3    C710109   0.717   0.893  11.032  1.0187  0.1691  0.4987
  683TMC3    C810110   0.561   0.664  11.427 -0.7883  0.1724  0.2515
  683TMC3    O110111   0.733   0.784  10.976  0.2358  0.2346 -0.0462
  683TMC3    O210112   0.478   0.667  11.518 -0.0839  0.1072  0.0031
  684MPD2     C10113   3.683   1.207  16.490  0.1089  1.1018  0.2412
  684MPD2    C110114   3.741   1.279  16.391 -0.7099  0.5704 -0.0254
  684MPD2    C210115   3.724   1.417  16.396 -0.5257 -0.0690 -0.2260
  684MPD2    C310116   3.649   1.482  16.496  0.0945 -0.2375  0.2914
  684MPD2    C410117   3.601   1.403  16.594  0.1423 -0.3796  0.8096
  684MPD2    C510118   3.615   1.268  16.589 -0.4997  0.7695 -0.4255
  684MPD2     H10119   3.770   1.473  16.315  0.3818 -1.4896 -0.7005
  684MPD2    H110120   3.553   1.448  16.679 -0.4896 -0.4482  0.4909
  684MPD2    H210121   3.684   1.100  16.502  0.0128  1.1167  0.3796
  684MPD2    H310122   3.591   1.203  16.672  0.2338  0.7924 -0.1944
  684MPD2     N10123   3.624   1.623  16.502  0.0855 -0.4036  0.2103
  684MPD2    H510124   3.586   1.671  16.583  2.6134 -1.2045  1.8729
  684MPD2    N110125   3.814   1.223  16.286 -0.6578  0.0082 -0.9021
  684MPD2    H710126   3.843   1.291  16.216  0.9712 -1.7092 -1.9026
  685TMC3    C110127   3.974   1.088  16.187  0.1397 -0.4788 -0.3098
  685TMC3    C210128   3.944   1.147  16.069  0.1597 -0.3581 -0.1537
  685TMC3    C310129   4.010   1.111  15.952  0.9683 -0.4166  0.5511
  685TMC3    C410130   4.083   1.007  16.201 -0.2340 -0.3339 -0.0547
  685TMC3    C510131   4.148   0.970  16.089 -0.1424  0.3622  0.4937
  685TMC3    C610132   4.113   1.014  15.962 -0.0283  0.3053  0.0497
  685TMC3     C10133   3.885   1.103  16.303 -1.0490  0.7997  0.4347
  685TMC3     O10134   3.902   1.032  16.402 -0.0753 -0.2032  0.0286
  685TMC3     H10135   3.846   1.190  16.051 -0.1911 -1.1544 -0.1831
  685TMC3    H110136   4.096   0.963  16.299 -1.0966  0.1955  0.2959
  685TMC3    H210137   4.162   0.976  15.873 -0.4877 -1.7094  0.6811
  685TMC3    C710138   4.280   0.908  16.116 -0.2064  0.2065 -0.4283
  685TMC3    C810139   3.949   1.113  15.821  0.3258 -0.2035 -0.2252
  685TMC3    O110140   4.275   0.832  16.210  0.5319 -0.4303 -0.1143
  685TMC3    O210141   3.977   1.013  15.755  0.3390  0.3912  0.0387
  686MPD2     C10142   0.365   0.643  15.515  0.3250  0.3309 -0.3614
  686MPD2    C110143   0.445   0.610  15.628  0.2905 -1.0044  0.0523
  686MPD2    C210144   0.534   0.501  15.608 -0.2373 -0.1607 -0.1535
  686MPD2    C310145   0.527   0.415  15.496  0.1670  0.5603  0.4413
  686MPD2    C410146   0.446   0.446  15.395 -0.5870  0.6916 -0.2290
  686MPD2    C510147   0.363   0.555  15.404  0.2826 -0.9976  0.8944
  686MPD2     H10148   0.613   0.496  15.682  0.2665 -0.2514 -0.6973
  686MPD2    H110149   0.434   0.381  15.309  0.2452  1.4943 -0.9558
  686MPD2    H210150   0.290   0.722  15.521 -0.5731 -0.5026 -0.4719
  686MPD2    H310151   0.296   0.570  15.321  2.6195  0.0791 -0.8075
  686MPD2     N10152   0.590   0.292  15.482  0.1231 -0.0601 -0.0734
  686MPD2    H510153   0.589   0.251  15.389  0.8020  1.1714 -0.6145
  686MPD2    N110154   0.426   0.676  15.751 -0.2210 -0.5974  0.0060
  686MPD2    H710155   0.359   0.751  15.766  0.7496  0.1061  0.9300
  687TMC3    C110156   0.596   0.224  15.716  0.3105 -0.6499 -0.4895
  687TMC3    C210157   0.463   0.235  15.758  0.1650  0.3444  0.4355
  687TMC3    C310158   0.439   0.222  15.893 -0.3065 -0.3923  0.7277
  687TMC3    C410159   0.690   0.189  15.806 -0.5045 -0.5077 -0.2152
  687TMC3    C510160   0.657   0.182  15.942  0.3100 -0.6755  0.5006
  687TMC3    C610161   0.528   0.195  15.987 -0.1046  0.1371  0.9324
  687TMC3     C10162   0.645   0.215  15.580 -0.8267 -0.4364  0.6090
  687TMC3     O10163   0.709   0.114  15.558  0.2899  0.8053 -0.5969
  687TMC3     H10164   0.381   0.246  15.688  0.9302  2.6648 -0.0837
  687TMC3    H110165   0.792   0.164  15.778 -0.4652 -1.0181  0.3872
  687TMC3    H210166   0.517   0.187  16.095  1.3496 -1.7596  0.9379
  687TMC3    C710167   0.759   0.145  16.037 -0.3297  0.4212 -0.2673
  687TMC3    C810168   0.312   0.265  15.938  0.3273 -0.1142 -0.4580
  687TMC3    O110169   0.733   0.065  16.130 -0.1166  0.0798 -0.0836
  687TMC3    O210170   0.264   0.214  16.038  0.0378 -0.1010  0.2852
  688MPD2     C10171   4.433   4.492  17.158  0.6733 -0.0519  1.1631
  688MPD2    C110172   4.479   4.380  17.211  0.2700 -0.0444  0.1984
  688MPD2    C210173   4.593   4.324  17.163 -0.3199 -0.1234  0.4284
  688MPD2    C310174   4.664   4.396  17.071 -0.4230 -0.3129  0.2386
  688MPD2    C410175   4.620   4.520  17.018  0.9373 -0.5541  0.2957
  688MPD2    C510176   4.507   4.566  17.068 -0.0856 -0.5931  1.0405
  688MPD2     H10177   4.626   4.229  17.203 -0.1003 -0.5837 -0.8516
  688MPD2    H110178   4.667   4.578  16.939 -0.6939 -0.3518 -0.5231
  688MPD2    H210179   4.345   4.546  17.191 -2.3200 -2.3935 -3.0221
  688MPD2    H310180   4.447   4.646  17.026  1.1067  0.1571  0.7622
  688MPD2     N10181   0.064   4.345  17.022  0.3440 -0.3609  0.8188
  688MPD2    H510182   0.112   4.398  16.950  0.1980 -0.3786  0.7075
  688MPD2    N110183   4.418   4.320  17.317 -0.1727 -0.5021  0.3051
  688MPD2    H710184   4.468   4.235  17.343  1.7411  0.5281 -0.0494
  689TMC3    C110185   4.262   4.277  17.487  0.0313  0.3705  0.0637
  689TMC3    C210186   4.207   4.335  17.600 -0.0238 -0.2544  0.2815
  689TMC3    C310187   4.139   4.246  17.686  0.2686 -0.3418  0.4846
  689TMC3    C410188   4.242   4.146  17.447  0.6403  0.6620 -0.3924
  689TMC3    C510189   4.170   4.069  17.536 -0.1055  0.4018  0.1688
  689TMC3    C610190   4.126   4.113  17.657  0.1490 -0.4947 -0.6689
  689TMC3     C10191   4.307   4.370  17.382  0.1158 -0.2912 -0.2614
  689TMC3     O10192   4.257   4.481  17.388  0.1381  0.0653  0.1787
  689TMC3     H10193   4.224   4.441  17.614 -0.2438 -0.1231 -0.4650
  689TMC3    H110194   4.279   4.102  17.355 -1.4489  0.8765 -1.3353
  689TMC3    H210195   4.070   4.042   0.024 -0.2308  1.9230  1.7772
  689TMC3    C710196   4.220   3.934  17.532 -0.0643  0.1041 -0.3334
  689TMC3    C810197   4.139   4.286   0.131 -0.6098 -0.1095  0.0807
  689TMC3    O110198   4.339   3.912  17.535 -0.2508 -0.7234  0.4037
  689TMC3    O210199   4.075   4.212   0.203 -0.1374  0.7752 -0.5648
  690MPD2     C10200   2.384   1.594  16.219  0.0347 -0.1510  0.3029
  690MPD2    C110201   2.353   1.538  16.092 -0.0551  0.1506 -0.6228
  690MPD2    C210202   2.430   1.587  15.985  0.4229  0.1057  0.0779
  690MPD2    C310203   2.519   1.691  16.002 -0.0240 -0.2228  0.0466
  690MPD2    C410204   2.545   1.744  16.125  0.9036  0.6779 -0.2697
  690MPD2    C510205   2.476   1.696  16.233  0.0486  0.0758  0.1948
  690MPD2     H10206   2.419   1.558  15.881  1.9206  1.3797 -0.4382
  690MPD2    H110207   2.617   1.822  16.142  1.9606 -0.3495 -0.0182
  690MPD2    H210208   2.330   1.565  16.309  1.7521 -1.2272  0.9889
  690MPD2    H310209   2.491   1.752  16.324  1.0410 -2.0066  1.3145
  690MPD2     N10210   2.589   1.742  15.885 -0.0113 -0.0512  0.1754
  690MPD2    H510211   2.547   1.709  15.798 -0.7420 -1.2999  0.9991
  690MPD2    N110212   2.243   1.456  16.064  0.1518  0.3405  0.0109
  690MPD2    H710213   2.213   1.444  15.968 -0.2215 -1.1220  0.3047
  691TMC3    C110214   2.061   1.304  16.091  0.0616 -0.4997 -0.4523
  691TMC3    C210215   1.930   1.332  16.093 -0.7361 -0.2373  0.2471
  691TMC3    C310216   1.842   1.231  16.052  0.2339 -0.4351  0.0716
  691TMC3    C410217   2.110   1.181  16.058  0.2438  0.0634 -0.1674
  691TMC3    C510218   2.014   1.083  16.030  0.2169  0.0925  0.2435
  691TMC3    C610219   1.880   1.104  16.030 -0.1370  0.2110 -1.1134
  691TMC3     C10220   2.152   1.400  16.156 -0.1436 -0.2884  0.1367
  691TMC3     O10221   2.139   1.434  16.276 -0.0062 -0.1934 -0.3332
  691TMC3     H10222   1.890   1.430  16.115  0.1985 -0.3272  2.2856
  691TMC3    H110223   2.217   1.164  16.070  0.0407 -0.4114  0.9300
  691TMC3    H210224   1.811   1.026  16.000  0.2114 -0.5260 -0.0183
  691TMC3    C710225   2.056   0.946  16.050  0.2038 -0.2705 -0.4043
  691TMC3    C810226   1.702   1.244  16.086  0.9117  0.2037  0.9974
  691TMC3    O110227   2.162   0.922  16.113 -0.1105  0.0372  0.3498
  691TMC3    O210228   1.647   1.140  16.120  0.1316  1.0134  0.1498
  692TMC3    C110229   3.420   2.851  15.794  0.0629  0.3803  0.1352
  692TMC3    C210230   3.484   2.939  15.708  0.5005 -0.5461  0.3263
  692TMC3    C310231   3.588   2.901  15.628  0.2146  0.0788 -0.0338
  692TMC3    C410232   3.466   2.723  15.806 -0.2039 -0.2099 -0.0506
  692TMC3    C510233   3.567   2.682  15.722  0.3068  0.6052 -0.1578
  692TMC3    C610234   3.633   2.776  15.638  1.0902  0.4220  0.2711
  692TMC3     C10235   3.366   2.922  15.908 -0.2123  0.4017 -0.1274
  692TMC3     O10236   3.277   2.871  15.975  0.6150 -0.0612  0.0945
  692TMC3     H10237   3.426   3.028  15.686 -0.3530 -1.5209 -1.4002
  692TMC3    H110238   3.426   2.661  15.886  0.0199  0.4619  0.5823
  692TMC3    H210239   3.688   2.736  15.553 -0.6196 -0.0220 -0.6275
  692TMC3    C710240   3.597   2.542  15.714 -0.0586  0.7967  0.3674
  692TMC3    C810241   3.691   2.989  15.679  0.7484 -0.3340  0.0349
  692TMC3    O110242   3.644   2.517  15.604 -0.3986  0.0597  0.1498
  692TMC3    O210243   3.642   3.071  15.755  0.3854 -0.6126  0.0457
  693MPD2     C10244   2.946   0.570  10.999 -0.8294 -0.2673  0.1750
  693MPD2    C110245   2.922   0.463  10.920 -0.0465 -0.1139 -1.0184
  693MPD2    C210246   3.036   0.390  10.882  0.5184 -0.2647 -0.2245
  693MPD2    C310247   3.160   0.426  10.920 -0.9272 -0.9558 -0.3622
  693MPD2    C410248   3.184   0.540  10.994 -0.2915  0.8557  0.2854
  693MPD2    C510249   3.074   0.602  11.037  0.5690 -0.1522 -0.4169
  693MPD2     H10250   3.025   0.297  10.826 -0.8057  0.1224 -0.6107
  693MPD2    H110251   3.278   0.580  11.030 -0.7784  1.5273  0.8237
  693MPD2    H210252   2.869   0.631  11.044 -0.3981  1.5146 -1.4509
  693MPD2    H310253   3.085   0.693  11.095 -0.7104  0.6717 -1.4771
  693MPD2     N10254   3.273   0.345  10.894  0.3164 -0.2701 -0.7772
  693MPD2    H510255   3.357   0.359  10.950 -1.3528  2.9296  0.9545
  693MPD2    N110256   2.793   0.428  10.908 -0.3692  1.0259 -0.0902
  693MPD2    H710257   2.723   0.483  10.957 -0.9487 -1.4070  1.8405
  694TMC3    C110258   2.630   0.265  10.876 -0.9263  0.0466  0.3853
  694TMC3    C210259   2.620   0.139  10.828 -0.2308 -0.1021 -0.0244
  694TMC3    C310260   2.598   0.033  10.908  0.1103 -0.1148 -0.2691
  694TMC3    C410261   2.599   0.287  11.008  0.5997 -0.1899 -0.5067
  694TMC3    C510262   2.565   0.181  11.086 -0.0204 -0.0259 -0.1978
  694TMC3    C610263   2.578   0.052  11.041  0.2747 -0.6094 -0.5797
  694TMC3     C10264   2.750   0.328  10.829  0.6136 -0.4621 -0.4861
  694TMC3     O10265   2.804   0.271  10.733  0.1522 -0.1347  0.2315
  694TMC3     H10266   2.635   0.127  10.721 -0.5368  0.6903 -0.1569
  694TMC3    H110267   2.594   0.387  11.051 -3.8970 -0.4507 -0.3974
  694TMC3    H210268   2.563   4.690  11.105  1.5455 -0.2027  0.2489
  694TMC3    C710269   2.567   0.219  11.230  0.1223 -0.9693  0.9804
  694TMC3    C810270   2.598   4.616  10.856 -0.9828 -0.4612  0.0227
  694TMC3    O110271   2.521   0.326  11.264  0.1767 -1.1899 -0.4844
  694TMC3    O210272   2.589   4.524  10.940 -0.3286  0.0622 -0.8901
  695MPD2     C10273   4.127   2.025  13.722 -0.9270  0.0401  0.4496
  695MPD2    C110274   4.097   2.109  13.826 -0.2168  0.2001 -0.3867
  695MPD2    C210275   3.973   2.177  13.832  0.5682  0.3099 -0.7444
  695MPD2    C310276   3.873   2.155  13.737  0.0025 -0.0616  0.4045
  695MPD2    C410277   3.902   2.069  13.633  0.6403  0.4035 -0.4257
  695MPD2    C510278   4.028   2.017  13.625  0.9539 -0.4159  0.2101
  695MPD2     H10279   3.950   2.243  13.914 -1.3972 -0.3730 -0.7512
  695MPD2    H110280   3.829   2.048  13.557 -0.5031  1.9609  0.2420
  695MPD2    H210281   4.224   1.985  13.694 -0.5788  0.2647  1.3556
  695MPD2    H310282   4.052   1.956  13.539 -0.1306  2.1308 -1.9167
  695MPD2     N10283   3.750   2.222  13.757  0.3909  0.4872 -0.0117
  695MPD2    H510284   3.728   2.285  13.833  0.4938  0.8945 -0.3187
  695MPD2    N110285   4.182   2.127  13.936 -0.1171 -0.0417  0.5299
  695MPD2    H710286   4.147   2.176  14.017 -2.8341 -0.1322 -0.5966
  696TMC3    C110287   3.545   2.310  13.695 -0.2395 -0.1899  0.2372
  696TMC3    C210288   3.490   2.292  13.818 -0.6962 -0.6066  1.1489
  696TMC3    C310289   3.383   2.356  13.855 -0.5570 -0.0698 -0.4616
  696TMC3    C410290   3.476   2.380  13.602  0.4039  0.5139  0.1810
  696TMC3    C510291   3.370   2.458  13.642 -0.1305  0.2619  0.4940
  696TMC3    C610292   3.319   2.433  13.766 -0.0695  0.5061  0.3679
  696TMC3     C10293   3.657   2.230  13.658 -0.3942 -0.1643 -0.5811
  696TMC3     O10294   3.655   2.202  13.541 -0.0745  0.2718 -0.6249
  696TMC3     H10295   3.538   2.216  13.879  2.0184  0.3704  0.2256
  696TMC3    H110296   3.508   2.375  13.499  0.8272  1.1521  0.2854
  696TMC3    H210297   3.230   2.490  13.787 -0.3811  0.7550 -1.5764
  696TMC3    C710298   3.382   2.596  13.592  0.5838  0.2641  0.3478
  696TMC3    C810299   3.399   2.410  13.992 -0.3385  0.5493  1.2240
  696TMC3    O110300   3.429   2.602  13.479  0.2019 -0.4798 -0.2400
  696TMC3    O210301   3.358   2.524  14.010 -0.3773 -0.1240 -0.1653
  697MPD2     C10302   3.369   4.339  16.085 -0.5323 -0.0474  0.2186
  697MPD2    C110303   3.406   4.297  15.959 -0.0439  0.2152  0.1850
  697MPD2    C210304   3.425   4.385  15.855  0.1976  0.1577  0.4058
  697MPD2    C310305   3.394   4.519  15.872  0.1584  0.4158  0.0368
  697MPD2    C410306   3.346   4.565  16.001  0.2533 -0.0533 -0.2297
  697MPD2    C510307   3.351   4.473  16.104  0.3342 -0.0994  0.2509
  697MPD2     H10308   3.450   4.353  15.754 -0.2337  0.4512  0.2098
  697MPD2    H110309   3.330   4.670  16.024  1.2437 -0.1848  1.0464
  697MPD2    H210310   3.357   4.275  16.171  0.2240 -1.2089 -0.5471
  697MPD2    H310311   3.324   4.506  16.204  1.1018 -0.3608  0.5416
  697MPD2     N10312   3.417   4.605  15.761  0.1781  0.0180  0.3895
  697MPD2    H510313   3.443   4.563  15.673 -1.1778  0.7681 -0.3779
  697MPD2    N110314   3.420   4.156  15.923 -0.2203  0.2716 -0.5161
  697MPD2    H710315   3.430   4.132  15.825 -2.8072  2.1342 -1.2488
  698TMC3    C110316   3.437   0.083  15.632 -0.2679  0.3902 -0.0838
  698TMC3    C210317   3.489   0.206  15.618  0.6426  0.0707 -0.5422
  698TMC3    C310318   3.475   0.278  15.503 -0.1958 -0.0657 -0.0789
  698TMC3    C410319   3.367   0.027  15.528  0.5646 -0.1579  0.4410
  698TMC3    C510320   3.348   0.104  15.416 -0.6300 -0.0660 -0.5830
  698TMC3    C610321   3.413   0.223  15.396 -0.9028  0.7282  0.1113
  698TMC3     C10322   3.419   0.022  15.763  0.3530  0.3145  0.5405
  698TMC3     O10323   3.424   0.092  15.862 -0.1000 -0.1632  0.1745
  698TMC3     H10324   3.546   0.252  15.698 -0.8155  2.3225 -0.8190
  698TMC3    H110325   3.323   4.653  15.545 -0.1575  0.0002 -0.5171
  698TMC3    H210326   3.403   0.279  15.304  0.1836  2.9057  1.3289
  698TMC3    C710327   3.322   0.022  15.302  0.3870 -0.6557 -0.5221
  698TMC3    C810328   3.529   0.412  15.481  0.6895 -0.2843  0.6455
  698TMC3    O110329   3.256   4.640  15.316  0.2720 -0.1329 -0.2549
  698TMC3    O210330   3.450   0.500  15.453  0.1481  0.2077  0.6583
  699TMC3    C110331   3.398   2.013  13.395  0.1140 -0.3652  0.1925
  699TMC3    C210332   3.476   1.925  13.457 -0.4471 -0.0867  0.7264
  699TMC3    C310333   3.445   1.901  13.593 -0.4437 -0.7257  0.7322
  699TMC3    C410334   3.298   2.085  13.454  0.7745 -0.4306  0.8255
  699TMC3    C510335   3.264   2.056  13.584  0.1335  0.4586 -0.0249
  699TMC3    C610336   3.341   1.969  13.654  0.0273  0.3675 -0.0902
  699TMC3     C10337   3.441   2.071  13.273  0.3167  0.1005  0.2972
  699TMC3     O10338   3.372   2.160  13.226 -0.0502  0.4072  0.1448
  699TMC3     H10339   3.551   1.870  13.402  1.4342  3.0769  0.1138
  699TMC3    H110340   3.248   2.166  13.403  0.8749 -1.1830 -0.4623
  699TMC3    H210341   3.321   1.946  13.758 -1.5688  2.1378 -0.0073
  699TMC3    C710342   3.156   2.119  13.655 -0.2663 -0.1133  0.7530
  699TMC3    C810343   3.517   1.802  13.675 -0.4002  1.0543  0.7811
  699TMC3    O110344   3.150   2.109  13.777  0.2235 -0.5015  0.3492
  699TMC3    O210345   3.464   1.779  13.784 -0.1339 -0.6360  0.3230
  700TMC3    C110346   2.421   4.684   0.114 -0.1928  0.1140 -0.3893
  700TMC3    C210347   2.400   4.554   0.086  0.6924  0.4290 -0.4033
  700TMC3    C310348   2.500   4.469   0.116 -0.2280  0.3952  0.1951
  700TMC3    C410349   2.535   0.007   0.174 -0.2091 -0.7446 -0.0401
  700TMC3    C510350   2.626   4.639   0.215 -0.0886 -0.0280  0.2395
  700TMC3    C610351   2.620   4.508   0.170 -1.3132  0.0433  0.2414
  700TMC3     C10352   2.316   0.062   0.076  0.1242 -0.3116 -0.1731
  700TMC3     O10353   2.199   0.027   0.086  0.4912 -0.0530  0.5677
  700TMC3     H10354   2.312   4.525   0.031 -0.7594  0.7166  1.8024
  700TMC3    H110355   2.536   0.109   0.210  1.0868 -0.0923 -1.9208
  700TMC3    H210356   2.690   4.431   0.201 -0.1756  1.4379  1.1276
  700TMC3    C710357   2.750   4.684   0.275 -0.6124  0.0922  0.1590
  700TMC3    C810358   2.523   4.362   0.021  0.1707  0.0853  0.0314
  700TMC3    O110359   2.811   4.591   0.329  0.3217  0.4817 -0.0365
  700TMC3    O210360   2.641   4.325   0.015 -0.9916  0.3940  0.4725
  701TMC3    C110361   2.550   3.473  15.853  0.0432 -0.6176 -0.1106
  701TMC3    C210362   2.588   3.402  15.743 -0.4829  0.0193  0.4857
  701TMC3    C310363   2.715   3.417  15.695 -0.6921  0.2598 -0.2742
  701TMC3    C410364   2.626   3.570  15.910  0.1924  0.3889 -0.6953
  701TMC3    C510365   2.752   3.582  15.862 -0.6650 -0.5553  0.6578
  701TMC3    C610366   2.796   3.511  15.751  0.1881 -0.4884  0.4734
  701TMC3     C10367   2.436   3.432  15.921  0.2670  0.3763  0.0975
  701TMC3     O10368   2.379   3.518  15.986  0.0822 -0.3818  0.0184
  701TMC3     H10369   2.509   3.357  15.683  0.8021 -1.5754 -0.0152
  701TMC3    H110370   2.579   3.627  15.989  2.4968  1.9042 -0.4267
  701TMC3    H210371   2.899   3.510  15.716  0.7123 -1.3210  2.0539
  701TMC3    C710372   2.827   3.704  15.896  0.0664  0.3319 -0.1313
  701TMC3    C810373   2.761   3.361  15.569  0.1085  0.0686 -0.4495
  701TMC3    O110374   2.894   3.752  15.808  0.4666  0.1098  0.1745
  701TMC3    O210375   2.860   3.415  15.518 -0.1503  0.2035  0.3669
  702MPD2     C10376   2.188   0.772  10.829  0.0041  0.2393 -0.1769
  702MPD2    C110377   2.059   0.719  10.805 -0.0893 -0.1534  0.0838
  702MPD2    C210378   2.036   0.643  10.693 -0.0579 -0.4503  0.6011
  702MPD2    C310379   2.128   0.645  10.591 -0.7650  0.1693 -0.0974
  702MPD2    C410380   2.254   0.700  10.618  0.0697  0.8825  0.2778
  702MPD2    C510381   2.287   0.762  10.734  0.0483  0.0231 -0.0649
  702MPD2     H10382   1.934   0.618  10.668  0.6794 -1.5754 -1.3606
  702MPD2    H110383   2.339   0.695  10.550  1.1607  1.4487  1.5943
  702MPD2    H210384   2.218   0.822  10.921  0.3999  1.0414 -0.7431
  702MPD2    H310385   2.389   0.790  10.759  0.0009  0.6716 -0.5969
  702MPD2     N10386   2.094   0.605  10.463 -0.7029  0.0196 -0.0190
  702MPD2    H510387   1.995   0.596  10.445 -0.5305 -0.9449 -0.4970
  702MPD2    N110388   1.958   0.734  10.892 -0.1620 -0.0298 -0.4141
  702MPD2    H710389   1.874   0.679  10.879  0.7525 -1.9310  1.7800
  703TMC3    C110390   2.076   0.663  10.239  0.1457  0.4786  0.6113
  703TMC3    C210391   1.949   0.634  10.288 -0.4356 -0.7960 -0.6322
  703TMC3    C310392   1.858   0.728  10.318 -0.0745 -0.0581 -0.1252
  703TMC3    C410393   2.106   0.789  10.214  0.1866 -0.3895  0.5090
  703TMC3    C510394   2.024   0.886  10.260  0.1883 -0.0527 -0.7250
  703TMC3    C610395   1.901   0.860  10.322 -0.1795  0.2285 -0.7082
  703TMC3     C10396   2.171   0.621  10.346  0.2451  0.1126 -0.2328
  703TMC3     O10397   2.289   0.648  10.342 -0.6620 -0.2398 -0.0652
  703TMC3     H10398   1.917   0.530  10.280  1.0071 -1.3256  0.6101
  703TMC3    H110399   2.207   0.811  10.180 -0.6462  0.9076 -1.0684
  703TMC3    H210400   1.851   0.932  10.386  1.3963 -0.4002  1.2467
  703TMC3    C710401   2.083   1.015  10.257 -0.0469  0.4500  0.7094
  703TMC3    C810402   1.765   0.681  10.424 -0.2512  0.5858  0.3514
  703TMC3    O110403   2.190   1.031  10.200 -0.2929 -0.1303 -0.2533
  703TMC3    O210404   1.798   0.576  10.477  0.1326  0.1811 -0.4447
  704TMC3    C110405   4.327   3.839  12.200 -0.7484 -0.0019 -0.1056
  704TMC3    C210406   4.438   3.884  12.273 -0.4583  0.4314  0.3577
  704TMC3    C310407   4.465   3.825  12.392  0.0186  0.0771  0.2199
  704TMC3    C410408   4.252   3.732  12.236  0.0634 -0.4882  0.0224
  704TMC3    C510409   4.282   3.676  12.354 -0.4459  0.6760  0.5691
  704TMC3    C610410   4.381   3.726  12.435  0.0314 -0.2420 -0.6965
  704TMC3     C10411   4.326   3.866  12.058  0.2934  0.5681  0.1227
  704TMC3     O10412   4.219   3.863  11.999  0.3510 -0.0006 -0.9413
  704TMC3     H10413   4.498   3.968  12.238  0.1430  0.7291  2.0940
  704TMC3    H110414   4.184   3.686  12.165  1.6713 -1.2989 -0.9981
  704TMC3    H210415   4.399   3.671  12.526 -0.3248  1.2634  0.2884
  704TMC3    C710416   4.270   3.532  12.360  0.7588 -0.6149 -0.7084
  704TMC3    C810417   4.598   3.853  12.462 -0.7469 -0.2269  0.2890
  704TMC3    O110418   4.275   3.466  12.257  0.3479 -0.1562  0.1412
  704TMC3    O210419   4.686   3.903  12.392 -0.3884  0.3582 -0.0715
  705MPD2     C10420   4.150   2.392  16.672 -0.1585  0.4342  0.2974
  705MPD2    C110421   4.082   2.426  16.556  0.4600  0.1938  0.1273
  705MPD2    C210422   3.951   2.455  16.580 -0.0421 -0.1097 -0.1625
  705MPD2    C310423   3.896   2.463  16.705  0.6695 -0.1905  0.2935
  705MPD2    C410424   3.966   2.430  16.817  0.5169 -0.2847  0.1460
  705MPD2    C510425   4.087   2.379  16.792 -0.0366  0.1861  0.7636
  705MPD2     H10426   3.890   2.483  16.494 -0.9353 -1.3719  0.0559
  705MPD2    H110427   3.925   2.436  16.917  0.9937  3.2719  0.1426
  705MPD2    H210428   4.254   2.362  16.666 -0.9216 -2.3760  1.1076
  705MPD2    H310429   4.153   2.356  16.875  1.5948 -2.7159 -1.3150
  705MPD2     N10430   3.767   2.518  16.731 -0.4189  0.0309  0.3301
  705MPD2    H510431   3.728   2.522  16.825 -1.0881 -0.9187  0.0902
  705MPD2    N110432   4.139   2.440  16.428  0.2063 -0.4105 -0.4231
  705MPD2    H710433   4.084   2.468  16.347  2.3577  0.6499 -1.5127
  706TMC3    C110434   4.477   2.385  16.098 -1.0163  0.5190 -0.2994
  706TMC3    C210435   4.444   2.496  16.023  0.5200  0.0993  1.2821
  706TMC3    C310436   4.343   2.573  16.074 -0.3595  0.0470  0.2285
  706TMC3    C410437   4.418   2.352  16.216  0.0852  0.5903 -0.9321
  706TMC3    C510438   4.309   2.426  16.252 -0.3570 -0.4554 -0.6932
  706TMC3    C610439   4.269   2.540  16.185 -0.1979 -0.4034 -0.0483
  706TMC3     C10440   4.574   2.287  16.061  0.7664  0.2878  0.0443
  706TMC3     O10441   4.625   2.216  16.148 -0.1456 -0.1621  0.2799
  706TMC3     H10442   4.508   2.523  15.940 -2.7253 -1.5570 -1.7491
  706TMC3    H110443   4.442   2.257  16.262  0.9982  0.7197 -1.1467
  706TMC3    H210444   4.189   2.600  16.227  2.3535  0.8993  2.9662
  706TMC3    C710445   4.276   2.412  16.399  0.1980 -1.0645 -0.0252
  706TMC3    C810446   4.325   2.711  16.023 -0.0659  0.4408 -0.2833
  706TMC3    O110447   4.373   2.375  16.468 -0.1732 -1.0045  0.5241
  706TMC3    O210448   4.266   2.789  16.100  0.4483 -0.3836  0.0841
  707TMC3    C110449   1.970   1.318   2.019  0.4425  0.5529 -0.5023
  707TMC3    C210450   1.856   1.243   2.034  0.4692  1.2562 -0.3171
  707TMC3    C310451   1.794   1.248   2.157 -0.1718  0.2209 -0.0048
  707TMC3    C410452   2.029   1.392   2.117  0.3833  0.4066  0.4140
  707TMC3    C510453   1.961   1.396   2.239 -0.6670  0.2330 -0.1114
  707TMC3    C610454   1.842   1.327   2.253  0.5639 -0.4304 -0.1433
  707TMC3     C10455   2.057   1.265   1.920 -0.2729  0.2159  0.2361
  707TMC3     O10456   2.003   1.258   1.810 -0.1043  0.4754 -0.1151
  707TMC3     H10457   1.810   1.201   1.945  3.5768  2.9219 -2.7580
  707TMC3    H110458   2.119   1.447   2.094 -0.1779  1.4201  0.6375
  707TMC3    H210459   1.791   1.333   2.348 -1.4695 -1.4722 -1.1828
  707TMC3    C710460   1.985   1.508   2.332 -0.4501 -0.3132 -0.1434
  707TMC3    C810461   1.672   1.161   2.175  0.0468  1.1019 -0.1772
  707TMC3    O110462   1.900   1.542   2.414 -0.3822 -0.6734 -0.6876
  707TMC3    O210463   1.586   1.183   2.255 -0.5645 -0.1695 -0.3324
  708MPD2     C10464   1.384   0.421  14.484  0.4671 -0.7439  0.4479
  708MPD2    C110465   1.504   0.492  14.486 -0.1008 -0.6271  0.2983
  708MPD2    C210466   1.561   0.518  14.612 -0.3812 -0.2501  0.4456
  708MPD2    C310467   1.500   0.475  14.728 -0.4374 -0.1503 -0.2757
  708MPD2    C410468   1.372   0.424  14.725 -0.1291  0.4746 -0.3097
  708MPD2    C510469   1.317   0.397  14.602 -0.0820 -0.2952 -0.7098
  708MPD2     H10470   1.660   0.562  14.611 -0.2732 -0.5089 -2.6029
  708MPD2    H110471   1.309   0.408  14.813 -3.0568 -0.4478 -2.5664
  708MPD2    H210472   1.322   0.406  14.396 -2.1235  2.0440  1.8396
  708MPD2    H310473   1.215   0.359  14.603 -0.4820  0.7454 -1.6774
  708MPD2     N10474   1.566   0.482  14.852  0.8902  0.5006  0.0937
  708MPD2    H510475   1.512   0.474  14.938  1.8664 -1.4750  0.5223
  708MPD2    N110476   1.555   0.536  14.362 -0.1986  0.7124 -0.0358
  708MPD2    H710477   1.512   0.507  14.275 -1.6862  0.3799  0.7943
  709TMC3    C110478   1.735   0.620  14.239 -0.1443 -0.7880  0.4919
  709TMC3    C210479   1.674   0.687  14.140  0.7452  0.0123 -0.4330
  709TMC3    C310480   1.741   0.781  14.068 -0.6676  0.2977  0.3661
  709TMC3    C410481   1.865   0.635  14.269  0.0548 -0.0749  0.5000
  709TMC3    C510482   1.931   0.727  14.198 -0.4998 -0.6730  0.2717
  709TMC3    C610483   1.881   0.794  14.091  0.4203 -0.1330  0.0628
  709TMC3     C10484   1.668   0.614  14.365  0.9501  0.3581  0.9050
  709TMC3     O10485   1.733   0.673  14.452  0.6211  0.3615 -0.2501
  709TMC3     H10486   1.571   0.669  14.114  0.8160 -0.2641 -0.5208
  709TMC3    H110487   1.916   0.570  14.339  1.3437 -1.7060 -1.9598
  709TMC3    H210488   1.944   0.874  14.054  1.5784 -0.9464  0.2638
  709TMC3    C710489   2.038   0.793  14.275 -0.0271 -0.4724 -0.4334
  709TMC3    C810490   1.664   0.833  13.950  0.4919 -0.5732 -0.2797
  709TMC3    O110491   2.139   0.832  14.222  0.3531  0.4006 -0.3625
  709TMC3    O210492   1.556   0.784  13.919 -0.0126 -0.5760 -0.2890
  710TMC3    C110493   4.359   2.404   1.084  0.5308  0.2456 -0.5541
  710TMC3    C210494   4.402   2.338   0.978  0.3261  0.1993  0.0171
  710TMC3    C310495   4.468   2.220   0.997  0.7082  0.3188 -0.2287
  710TMC3    C410496   4.372   2.346   1.211  0.4142  0.1478  0.7571
  710TMC3    C510497   4.454   2.248   1.228 -0.2548 -0.1981 -0.4044
  710TMC3    C610498   4.510   2.180   1.119 -0.0450  0.5977  0.3199
  710TMC3     C10499   4.273   2.511   1.054  0.2962 -0.1922  0.0088
  710TMC3     O10500   4.300   2.577   0.954 -0.2563 -0.3001  0.0422
  710TMC3     H10501   4.383   2.377   0.878 -0.3181 -0.0311  0.0498
  710TMC3    H110502   4.335   2.399   1.298  1.0320  2.6651 -0.4988
  710TMC3    H210503   4.554   2.082   1.136  1.0497  0.9957 -0.1918
  710TMC3    C710504   4.407   2.157   1.327 -0.3452 -0.5599 -0.2618
  710TMC3    C810505   4.453   2.124   0.885 -0.0095  0.2686 -0.5678
  710TMC3    O110506   4.385   2.199   1.442 -0.1699 -0.0959  0.2383
  710TMC3    O210507   4.398   2.165   0.784  0.3251 -0.1416 -0.5809
  711TMC3    C110508   3.088   2.883  14.867 -0.3230  0.1933  0.7332
  711TMC3    C210509   3.082   2.988  14.953  0.3304  0.1338 -0.3539
  711TMC3    C310510   3.185   3.005  15.043  0.4108  0.0585 -0.3202
  711TMC3    C410511   3.186   2.788  14.881 -0.8297  0.3900  0.3743
  711TMC3    C510512   3.294   2.808  14.973 -0.4549  0.7408 -0.3714
  711TMC3    C610513   3.293   2.917  15.058 -0.3081 -0.2187 -0.1409
  711TMC3     C10514   2.964   2.819  14.833 -0.4025 -0.3257  0.0701
  711TMC3     O10515   2.968   2.698  14.831 -0.1263  0.0602 -0.1835
  711TMC3     H10516   3.011   3.070  14.943 -3.0277 -2.5279  1.8781
  711TMC3    H110517   3.193   2.706  14.811 -0.1493  0.0890  0.7991
  711TMC3    H210518   3.368   2.916  15.136 -1.0694  2.5757  0.6170
  711TMC3    C710519   3.367   2.696  15.023  0.1213 -0.6042  0.7659
  711TMC3    C810520   3.160   3.105  15.148 -0.2538  0.6384  0.2160
  711TMC3    O110521   3.460   2.718  15.097 -0.4080 -0.5661  0.0220
  711TMC3    O210522   3.044   3.128  15.173 -0.0286 -0.5494 -0.3191
  712MPD2     C10523   4.326   3.991  13.702  0.4676  0.9340  0.2646
  712MPD2    C110524   4.293   4.029  13.573  0.1184 -0.4922  0.3024
  712MPD2    C210525   4.354   4.144  13.521 -0.5708  0.0578 -0.0174
  712MPD2    C310526   4.445   4.221  13.599 -0.3387  0.2411 -0.2829
  712MPD2    C410527   4.471   4.178  13.726  0.0999  0.0167 -0.0367
  712MPD2    C510528   4.417   4.062  13.774 -0.1647 -0.1015 -0.1555
  712MPD2     H10529   4.315   4.182  13.427  0.1205  2.2639  0.5749
  712MPD2    H110530   4.546   4.228  13.787 -1.4277  0.6790  1.2913
  712MPD2    H210531   4.279   3.899  13.737  0.1946  1.1700  0.5239
  712MPD2    H310532   4.439   4.038  13.877  3.3397  0.9336 -0.6489
  712MPD2     N10533   4.508   4.331  13.550 -0.0831 -0.3094 -0.1318
  712MPD2    H510534   4.587   4.368  13.601  0.7565 -1.0477 -0.9201
  712MPD2    N110535   4.188   3.973  13.497  1.0743  0.2047 -0.2066
  712MPD2    H710536   4.167   4.018  13.409  0.1851 -0.7478 -0.4809
  713TMC3    C110537   4.532   4.537  13.438  0.3423  0.3217 -0.6347
  713TMC3    C210538   4.666   4.539  13.450  0.1185 -0.5258 -0.1879
  713TMC3    C310539   4.722   4.667  13.429 -0.3117 -0.3241 -0.8956
  713TMC3    C410540   4.448   4.646  13.426  0.0607  0.3973 -0.3587
  713TMC3    C510541   4.512   0.039  13.410 -0.2538 -0.2288  0.3905
  713TMC3    C610542   4.645   0.049  13.398  0.4112 -0.6222 -0.9229
  713TMC3     C10543   4.459   4.405  13.444 -0.3611 -0.0441  0.0050
  713TMC3     O10544   4.350   4.398  13.388  0.6112 -0.0462 -0.0847
  713TMC3     H10545   4.721   4.448  13.469 -0.2823 -1.1418 -1.9854
  713TMC3    H110546   4.342   4.622  13.430  0.5964 -2.2704 -2.5031
  713TMC3    H210547   4.696   0.144  13.386  1.6154 -1.3944 -1.9561
  713TMC3    C710548   4.430   0.158  13.395 -0.3083  0.1580 -0.1293
  713TMC3    C810549   0.144   4.688  13.435 -0.0384  0.6562  0.0674
  713TMC3    O110550   4.488   0.268  13.393 -0.3309 -0.1519  0.2762
  713TMC3    O210551   0.181   0.071  13.390 -0.8878 -0.1207 -0.0298
  714MPD2     C10552   2.132   2.417   1.368 -0.4752  0.3041 -0.0836
  714MPD2    C110553   2.178   2.362   1.256 -0.2107 -0.1263 -0.5814
  714MPD2    C210554   2.158   2.422   1.130 -0.0763  0.4496  0.2616
  714MPD2    C310555   2.078   2.536   1.123  0.3101  0.2896  0.0536
  714MPD2    C410556   2.039   2.600   1.238 -0.6746  0.6914  0.0119
  714MPD2    C510557   2.066   2.542   1.367  0.4397 -0.2233 -0.0583
  714MPD2     H10558   2.195   2.376   1.039 -1.7163  2.8057 -1.5858
  714MPD2    H110559   1.975   2.687   1.246 -1.4250  0.1672 -0.2742
  714MPD2    H210560   2.146   2.368   1.464 -0.8925  1.6092  0.6353
  714MPD2    H310561   2.025   2.587   1.457 -0.2069  0.7796 -0.8475
  714MPD2     N10562   2.040   2.586   0.991 -0.1891  0.1284 -0.2847
  714MPD2    H510563   2.087   2.541   0.913  0.4034 -2.1194  1.3597
  714MPD2    N110564   2.243   2.234   1.268 -0.3936 -0.4550  0.1660
  714MPD2    H710565   2.260   2.205   1.364 -1.1783 -0.1552  0.3951
  715TMC3    C110566   2.394   2.063   1.213  1.0185 -0.1175 -0.5747
  715TMC3    C210567   2.430   1.969   1.123  0.7404  0.2804  0.1292
  715TMC3    C310568   2.531   1.881   1.161 -0.0385  0.5189 -0.2822
  715TMC3    C410569   2.448   2.076   1.337 -0.3352 -0.4121  0.4205
  715TMC3    C510570   2.548   1.988   1.367 -0.6555  0.0392 -1.0099
  715TMC3    C610571   2.600   1.896   1.279 -0.6037 -0.5471  0.4167
  715TMC3     C10572   2.303   2.161   1.166  0.9811 -0.2365 -0.1152
  715TMC3     O10573   2.277   2.174   1.046  0.0960 -0.1872 -0.1699
  715TMC3     H10574   2.368   1.951   1.036  1.8714 -2.2221 -0.1620
  715TMC3    H110575   2.430   2.166   1.396 -0.0620  0.4652 -0.8416
  715TMC3    H210576   2.679   1.826   1.303  1.2650  1.0809 -1.1058
  715TMC3    C710577   2.614   2.008   1.497  0.2656 -0.8782 -0.3290
  715TMC3    C810578   2.565   1.781   1.063 -0.4227  0.5914 -0.0525
  715TMC3    O110579   2.600   2.118   1.549 -0.1494 -0.1602  0.3195
  715TMC3    O210580   2.469   1.761   0.987 -0.1369  0.8043 -0.3833
  716MPD2     C10581   2.548   0.515  10.023 -0.6074  0.2049 -0.2964
  716MPD2    C110582   2.454   0.509   9.915 -0.3262 -0.1377 -0.3077
  716MPD2    C210583   2.457   0.391   9.843  0.3226 -1.1669 -0.4228
  716MPD2    C310584   2.524   0.278   9.874  0.2585 -0.0476 -1.1190
  716MPD2    C410585   2.603   0.278   9.986 -0.3293  0.7377  0.9770
  716MPD2    C510586   2.616   0.400  10.054 -0.1312  0.3116  0.4663
  716MPD2     H10587   2.396   0.386   9.754 -1.9485  0.4879  1.0172
  716MPD2    H110588   2.670   0.198  10.015 -0.8357  0.3416  1.0569
  716MPD2    H210589   2.578   0.610  10.064 -0.7206 -0.2668  0.8883
  716MPD2    H310590   2.682   0.404  10.141  0.4574  0.0469  0.0345
  716MPD2     N10591   2.498   0.167   9.789  0.2258  0.3324 -0.2279
  716MPD2    H510592   2.435   0.181   9.710 -1.4995  0.9973  1.2694
  716MPD2    N110593   2.393   0.626   9.869 -0.2816  0.1376  0.3258
  716MPD2    H710594   2.397   0.710   9.926 -1.2777  0.6607 -0.3778
  717TMC3    C110595   2.516   4.683   9.680  0.1679  0.9905  0.0366
  717TMC3    C210596   2.425   0.008   9.591 -0.1094 -0.1273  0.3081
  717TMC3    C310597   2.390   4.656   9.482  0.3963 -0.0365  0.2017
  717TMC3    C410598   2.590   4.575   9.651 -0.5168 -0.0741  0.8371
  717TMC3    C510599   2.551   4.504   9.541 -0.0991 -0.0944  0.1406
  717TMC3    C610600   2.445   4.534   9.460  0.3874 -0.4944  0.4425
  717TMC3     C10601   2.565   0.050   9.784 -0.1065  0.0296  0.5365
  717TMC3     O10602   2.646   0.009   9.869  0.2900  0.0227 -0.2860
  717TMC3     H10603   2.357   0.090   9.612 -2.8428 -2.1729 -0.6540
  717TMC3    H110604   2.672   4.544   9.714 -1.4117  0.8361  2.4652
  717TMC3    H210605   2.407   4.484   9.372  0.2145 -0.4435  0.4896
  717TMC3    C710606   2.594   4.369   9.529 -0.1595 -0.2997 -0.4037
  717TMC3    C810607   2.283   4.703   9.398  0.0317 -0.3511 -0.5346
  717TMC3    O110608   2.622   4.309   9.637 -0.0378  0.0372 -0.0510
  717TMC3    O210609   2.192   0.042   9.450  0.3674  0.2856 -0.3575
  718MPD2     C10610   1.634   4.486  13.179 -0.4014  0.7504  0.4913
  718MPD2    C110611   1.582   4.515  13.058 -0.3198 -0.0952  0.8794
  718MPD2    C210612   1.439   4.513  13.053 -0.5188  0.1549 -0.9001
  718MPD2    C310613   1.366   4.489  13.167  0.1894  0.1485  0.6366
  718MPD2    C410614   1.427   4.484  13.291 -0.2425  0.2369  0.4040
  718MPD2    C510615   1.561   4.467  13.293  0.7363 -0.3580 -0.0294
  718MPD2     H10616   1.390   4.529  12.957  1.3561  0.0711 -1.8620
  718MPD2    H110617   1.372   4.471  13.383  0.6452 -1.3370  0.7300
  718MPD2    H210618   1.742   4.482  13.184 -0.5606 -2.5429  0.8981
  718MPD2    H310619   1.605   4.448  13.389 -0.9938 -0.7016  0.6994
  718MPD2     N10620   1.233   4.497  13.138 -0.3936 -0.2628  0.8536
  718MPD2    H510621   1.208   4.500  13.040 -1.4212  1.8890  1.1724
  718MPD2    N110622   1.662   4.543  12.945  0.0747 -0.4569 -1.1384
  718MPD2    H710623   1.760   4.520  12.959  0.3890  0.7455 -1.3360
  719TMC3    C110624   1.717   4.634  12.734  0.4613 -0.1182  0.2848
  719TMC3    C210625   1.657   4.673  12.613 -0.2576  0.1382  0.2469
  719TMC3    C310626   1.683   0.072  12.549  0.1184  0.3236 -0.4115
  719TMC3    C410627   1.822   4.711  12.784 -0.1351  0.0938 -0.5840
  719TMC3    C510628   1.860   0.092  12.707 -0.2500 -0.1140 -0.6669
  719TMC3    C610629   1.796   0.135  12.594 -0.2413 -0.6200  0.3667
  719TMC3     C10630   1.620   4.598  12.827  0.3183  0.7221  0.3149
  719TMC3     O10631   1.507   4.643  12.801 -0.2403  0.2183  0.4707
  719TMC3     H10632   1.575   4.608  12.581  0.2037 -1.1239  1.6396
  719TMC3    H110633   1.875   4.684  12.875 -0.3114  1.6715 -0.0122
  719TMC3    H210634   1.809   0.239  12.565 -1.0179 -0.4610  0.5875
  719TMC3    C710635   1.993   0.137  12.704  0.4823 -0.8703 -0.0229
  719TMC3    C810636   1.564   0.160  12.539  0.5066  0.6411 -0.1646
  719TMC3    O110637   2.026   0.200  12.603  0.1557  0.3173 -0.5529
  719TMC3    O210638   1.577   0.263  12.471  0.5570  0.0939  0.1797
  720MPD2     C10639   4.642   1.033  14.083 -0.7466 -0.1055  0.3326
  720MPD2    C110640   0.012   1.124  14.040  0.0507  0.3720  0.6307
  720MPD2    C210641   0.127   1.156  14.110  0.1184 -0.1890 -0.3926
  720MPD2    C310642   0.152   1.087  14.233 -0.3313  0.8227  0.4507
  720MPD2    C410643   0.067   0.981  14.263 -0.9479  0.2949 -0.1513
  720MPD2    C510644   4.681   0.952  14.191  0.0442  1.0391 -0.0752
  720MPD2     H10645   0.207   1.224  14.082 -0.0419  0.4451  0.6960
  720MPD2    H110646   0.088   0.908  14.340  1.3753  0.2624 -0.8018
  720MPD2    H210647   4.554   1.005  14.026 -0.2485  0.4739 -0.7172
  720MPD2    H310648   4.625   0.862  14.211  0.3638  0.4243 -1.9494
  720MPD2     N10649   0.260   1.111  14.316  0.0104  0.7431  0.3201
  720MPD2    H510650   0.338   1.164  14.277 -0.7113  0.6997 -1.2058
  720MPD2    N110651   4.715   1.187  13.911  0.0323  0.4023  0.8465
  720MPD2    H710652   0.067   1.254  13.896  1.1981 -0.6474  1.9628
  721TMC3    C110653   0.410   1.034  14.484 -0.0959  0.5523  0.3743
  721TMC3    C210654   0.432   0.998  14.611  0.3599 -1.2023  0.1222
  721TMC3    C310655   0.555   0.976  14.654 -0.4132  0.2296 -0.0997
  721TMC3    C410656   0.518   1.048  14.395  0.2151 -0.4110 -0.3084
  721TMC3    C510657   0.642   1.021  14.445  0.1870 -0.5670  0.7324
  721TMC3    C610658   0.664   0.985  14.576  0.1816  0.2701  0.2268
  721TMC3     C10659   0.269   1.054  14.443  0.8827  0.4820  0.0756
  721TMC3     O10660   0.185   1.011  14.525  0.4656 -0.0431 -0.1515
  721TMC3     H10661   0.349   0.991  14.680 -0.1884 -1.1553 -0.5457
  721TMC3    H110662   0.511   1.068  14.289  0.8976  0.9415 -0.1053
  721TMC3    H210663   0.759   0.954  14.616  1.3392  1.7854 -1.3625
  721TMC3    C710664   0.754   1.064  14.364 -0.3964  0.1053  0.3100
  721TMC3    C810665   0.593   0.969  14.798  1.0861  0.9609 -0.5199
  721TMC3    O110666   0.748   1.052  14.239 -0.6871 -0.2064  0.4684
  721TMC3    O210667   0.711   0.946  14.823  0.2422 -0.6464  0.3393
  722MPD2     C10668   3.232   4.518  13.520  0.0255  0.0542  0.0553
  722MPD2    C110669   3.212   4.547  13.388 -0.7757 -0.0938 -0.3405
  722MPD2    C210670   3.110   4.485  13.326 -0.5965  0.6297  0.4936
  722MPD2    C310671   3.029   4.388  13.391 -0.2581  0.0341 -0.7719
  722MPD2    C410672   3.053   4.361  13.524  0.6070 -0.0438  0.0722
  722MPD2    C510673   3.161   4.418  13.581 -0.2878  0.0594  0.3910
  722MPD2     H10674   3.091   4.505  13.221  1.0196 -1.1740 -0.1359
  722MPD2    H110675   3.001   4.284  13.581 -1.0799  0.1543 -1.2040
  722MPD2    H210676   3.317   4.562  13.571  0.1598  0.1420 -0.2447
  722MPD2    H310677   3.186   4.391  13.683  2.1730 -0.4104 -0.3275
  722MPD2     N10678   2.919   4.331  13.321  0.2390 -0.3498 -0.1839
  722MPD2    H510679   2.893   4.368  13.231  3.6419 -1.2260 -1.5081
  722MPD2    N110680   3.300   4.628  13.309 -0.4951  0.2931 -0.0347
  722MPD2    H710681   3.289   4.615  13.209  1.2799 -1.6682  0.0162
  723TMC3    C110682   2.697   4.240  13.306 -0.2622  0.0675  0.3067
  723TMC3    C210683   2.671   4.140  13.219  0.1309  0.0496  0.1556
  723TMC3    C310684   2.603   4.169  13.099 -0.2077 -0.0381  0.0034
  723TMC3    C410685   2.648   4.367  13.298 -0.0686  0.4313 -1.1445
  723TMC3    C510686   2.567   4.381  13.184 -0.4806  0.7306  0.2202
  723TMC3    C610687   2.543   4.291  13.084  0.0439 -0.0487 -0.3418
  723TMC3     C10688   2.827   4.243  13.375  0.4014 -0.0533 -0.1897
  723TMC3     O10689   2.841   4.180  13.475  0.6077  0.3136 -0.0616
  723TMC3     H10690   2.734   4.052  13.223  0.7530  0.4744 -0.3326
  723TMC3    H110691   2.661   4.437  13.380  2.3159 -0.3107 -0.8988
  723TMC3    H210692   2.481   4.313  12.999 -2.3229 -0.4225  1.3032
  723TMC3    C710693   2.487   4.499  13.174 -0.2404 -0.2633 -0.2510
  723TMC3    C810694   2.657   4.119  12.974 -0.3938  0.0633  0.3342
  723TMC3    O110695   2.378   4.484  13.115  0.1279  0.4718 -0.3965
  723TMC3    O210696   2.658   4.194  12.880  0.2277  0.0435 -0.5447
  724TMC3    C110697   4.139   2.391  10.697 -0.8730 -0.5885  0.1053
  724TMC3    C210698   4.220   2.391  10.587  0.1381  1.1187  0.2268
  724TMC3    C310699   4.276   2.514  10.559 -0.1399  0.7666 -0.4202
  724TMC3    C410700   4.102   2.499  10.772 -0.4215  0.1360  0.2646
  724TMC3    C510701   4.146   2.617  10.730  0.9759 -0.3201  0.5023
  724TMC3    C610702   4.237   2.629  10.627  0.1227  0.4559 -0.2706
  724TMC3     C10703   4.075   2.261  10.729 -0.6057 -0.3050 -0.5303
  724TMC3     O10704   4.022   2.259  10.838 -0.1209 -0.8453  0.4246
  724TMC3     H10705   4.277   2.307  10.551 -1.0603  0.2152  0.4327
  724TMC3    H110706   4.048   2.486  10.865 -1.7322  0.5725 -0.4293
  724TMC3    H210707   4.241   2.729  10.587  0.2079  0.8774  0.8084
  724TMC3    C710708   4.116   2.737  10.802  0.3592  0.1133  0.0616
  724TMC3    C810709   4.376   2.520  10.456  0.1935  0.2567 -0.6174
  724TMC3    O110710   4.200   2.829  10.789 -0.0708 -0.0316 -0.1699
  724TMC3    O210711   4.395   2.421  10.386  0.5972 -0.3721 -0.6184
  725TMC3    C110712   0.267   1.597  12.658  0.3313 -0.7036  0.3760
  725TMC3    C210713   0.149   1.600  12.585  0.0485  0.1327  0.3680
  725TMC3    C310714   0.069   1.488  12.588 -0.0273  0.7023 -0.0084
  725TMC3    C410715   0.307   1.489  12.738  0.2175 -0.9020 -0.1459
  725TMC3    C510716   0.229   1.377  12.728  0.2225 -0.4185  0.2640
  725TMC3    C610717   0.107   1.379  12.665 -0.0556  0.2046 -0.4933
  725TMC3     C10718   0.314   1.727  12.705  0.1904  0.5108 -0.4739
  725TMC3     O10719   0.298   1.826  12.634  0.3528 -0.6728  0.5338
  725TMC3     H10720   0.121   1.696  12.543  0.7656  0.2802  0.2309
  725TMC3    H110721   0.410   1.480  12.772  0.9215  1.3689 -1.7149
  725TMC3    H210722   0.044   1.291  12.672 -2.6818  1.9014 -2.6138
  725TMC3    C710723   0.301   1.248  12.729 -0.5345 -0.2348  0.2344
  725TMC3    C810724   4.691   1.461  12.493 -0.5892  0.0127  0.8261
  725TMC3    O110725   0.280   1.171  12.637 -0.6094  0.7512 -0.4239
  725TMC3    O210726   4.590   1.401  12.525  0.5356 -0.4762 -0.2480
  726MPD2     C10727   3.007   2.210  10.673  0.1218 -0.1789  0.4559
  726MPD2    C110728   3.109   2.295  10.722  0.2495 -0.4077  0.8307
  726MPD2    C210729   3.115   2.321  10.854  0.3893  0.4901  0.3781
  726MPD2    C310730   3.007   2.284  10.931  0.2082 -0.6039  0.7771
  726MPD2    C410731   2.916   2.195  10.888 -0.1600  0.2469  0.1594
  726MPD2    C510732   2.918   2.149  10.759 -0.3519 -0.6010 -0.7185
  726MPD2     H10733   3.200   2.373  10.895  0.6707  0.3580 -0.0421
  726MPD2    H110734   2.832   2.171  10.952  0.0398 -0.6175  0.0957
  726MPD2    H210735   3.008   2.179  10.569 -0.6753  0.8555  0.1377
  726MPD2    H310736   2.844   2.076  10.730 -1.6620  0.1796  0.6659
  726MPD2     N10737   2.994   2.327  11.063 -0.2019  0.3574  0.0896
  726MPD2    H510738   2.899   2.319  11.100 -0.1999  1.2392  0.2958
  726MPD2    N110739   3.198   2.348  10.637  0.3542 -0.2617  0.0684
  726MPD2    H710740   3.181   2.332  10.538 -1.0981  1.2976  0.0567
  727TMC3    C110741   3.362   2.495  10.548  0.2129 -0.1125 -0.3198
  727TMC3    C210742   3.474   2.565  10.577 -0.6696  0.2804  0.3381
  727TMC3    C310743   3.515   2.653  10.487 -0.2011 -0.2891  0.1616
  727TMC3    C410744   3.286   2.516  10.439 -0.4207 -0.3266  0.4893
  727TMC3    C510745   3.331   2.610  10.346  0.0354 -0.6383  0.5922
  727TMC3    C610746   3.452   2.673  10.369 -0.3943 -0.2555  0.1066
  727TMC3     C10747   3.310   2.421  10.658  0.0618 -0.6903 -0.3070
  727TMC3     O10748   3.371   2.421  10.763 -0.2259 -0.6465 -0.3070
  727TMC3     H10749   3.524   2.566  10.674 -2.0749 -2.6088  1.0977
  727TMC3    H110750   3.183   2.483  10.437 -0.3997 -0.4450  1.2937
  727TMC3    H210751   3.496   2.740  10.296  0.8340 -1.0840  0.0933
  727TMC3    C710752   3.277   2.614  10.212  0.3963  0.6931 -0.6004
  727TMC3    C810753   3.589   2.771  10.530 -0.2882  0.5140  0.2896
  727TMC3    O110754   3.328   2.704  10.143 -0.2623 -0.3647  0.3020
  727TMC3    O210755   3.620   2.851  10.444  0.2715 -0.3483  0.1533
  728TMC3    C110756   2.722   1.890  15.756  0.0051  0.1047 -0.0846
  728TMC3    C210757   2.753   2.021  15.759 -0.1320 -0.3343 -0.0497
  728TMC3    C310758   2.776   2.087  15.645 -0.9413 -0.3985  0.0582
  728TMC3    C410759   2.706   1.811  15.649  0.1018  0.1286 -0.2852
  728TMC3    C510760   2.716   1.882  15.528  0.2859 -0.5452 -0.2371
  728TMC3    C610761   2.758   2.014  15.528  0.0945  0.3364 -0.0354
  728TMC3     C10762   2.689   1.832  15.884  0.5507  0.0290 -0.1029
  728TMC3     O10763   2.746   1.882  15.976 -0.5444  0.0231  1.1658
  728TMC3     H10764   2.747   2.078  15.851 -0.2916  0.2713 -0.4383
  728TMC3    H110765   2.669   1.709  15.647 -1.2358  0.6460 -1.7711
  728TMC3    H210766   2.799   2.063  15.441 -0.1017  0.7768  0.1209
  728TMC3    C710767   2.670   1.814  15.407  0.1536  0.3612  0.8649
  728TMC3    C810768   2.835   2.218  15.648 -0.7266 -0.1153  0.7061
  728TMC3    O110769   2.631   1.700  15.428  0.5129 -0.8957  0.2195
  728TMC3    O210770   2.796   2.290  15.558  0.2318 -0.0364 -0.0812
  729MPD2     C10771   4.503   2.892  17.057  0.1897 -0.3788 -0.1960
  729MPD2    C110772   4.618   2.823  17.064 -0.2902 -0.9774 -0.7167
  729MPD2    C210773   4.673   2.788  17.186  0.2535 -0.2120 -0.4578
  729MPD2    C310774   4.613   2.832  17.301 -0.2056  0.6926 -0.8452
  729MPD2    C410775   4.491   2.896  17.287  0.5057 -0.3640  0.2749
  729MPD2    C510776   4.434   2.934  17.165  0.4714 -0.6300  0.0305
  729MPD2     H10777   0.054   2.757  17.187  0.2819 -0.0975  0.1465
  729MPD2    H110778   4.441   2.927  17.379  2.4146 -1.6423  1.7429
  729MPD2    H210779   4.460   2.920  16.961 -0.9101 -3.3739 -0.5941
  729MPD2    H310780   4.340   2.989  17.161 -0.2001 -1.7197  0.6471
  729MPD2     N10781   4.671   2.829  17.419 -0.6089 -0.5404 -0.1247
  729MPD2    H510782   4.629   2.886  17.491 -0.8616 -2.2501  1.0867
  729MPD2    N110783   4.690   2.812  16.943  0.8171 -0.1418  0.5937
  729MPD2    H710784   4.643   2.851  16.861  3.1223 -2.4890 -1.8471
  730TMC3    C110785   0.168   2.820  17.508  0.4078 -0.1703 -0.8071
  730TMC3    C210786   0.294   2.779  17.466 -0.3960  0.1007 -0.3359
  730TMC3    C310787   0.386   2.879  17.454 -0.2139 -0.0735  0.5077
  730TMC3    C410788   0.144   2.941  17.564 -0.4370 -0.4745  0.6216
  730TMC3    C510789   0.238   3.036  17.566  0.1493  0.3856  0.3172
  730TMC3    C610790   0.358   3.002  17.507 -0.1836 -0.2858  0.2849
  730TMC3     C10791   0.059   2.747  17.442  0.2534 -0.2204  0.1200
  730TMC3     O10792   0.085   2.636  17.400  0.5108  0.1693  0.0037
  730TMC3     H10793   0.314   2.678  17.432 -0.3258  0.6819 -1.9981
  730TMC3    H110794   0.046   2.954  17.609 -1.6431  1.1422 -2.4472
  730TMC3    H210795   0.420   3.090  17.492  1.7094 -1.8730 -1.1555
  730TMC3    C710796   0.186   3.165  17.520 -0.4356  0.1881  0.5562
  730TMC3    C810797   0.455   2.878  17.331 -0.5040  0.1611 -0.4814
  730TMC3    O110798   0.229   3.190  17.411 -0.1670 -0.2604 -0.5470
  730TMC3    O210799   0.472   2.769  17.279  0.4037 -0.4406  0.1495
  731MPD2     C10800   4.493   1.029  12.470  0.3983 -0.0055  0.4129
  731MPD2    C110801   4.585   0.926  12.451 -0.1343 -0.4480 -0.0693
  731MPD2    C210802   4.682   0.899  12.549 -0.0693 -0.2927 -0.2660
  731MPD2    C310803   4.673   0.968  12.668 -0.0832 -0.4436 -0.1567
  731MPD2    C410804   4.571   1.064  12.686 -0.4343 -0.0439  0.2269
  731MPD2    C510805   4.482   1.092  12.586 -0.6634 -0.2850  0.3825
  731MPD2     H10806   0.032   0.820  12.536 -0.4433 -0.9029  1.2676
  731MPD2    H110807   4.560   1.126  12.774 -0.7906 -1.0611  0.8925
  731MPD2    H210808   4.426   1.053  12.388 -1.1379  1.2395  2.0573
  731MPD2    H310809   4.409   1.172  12.593 -1.2337 -0.7415 -0.3692
  731MPD2     N10810   0.044   0.940  12.770 -0.0019 -0.0601  0.2579
  731MPD2    H510811   0.081   0.848  12.750 -0.9183 -0.5225  0.7633
  731MPD2    N110812   4.574   0.868  12.326 -0.3182  0.4268 -0.5132
  731MPD2    H710813   4.507   0.907  12.260 -2.5205 -0.3417  1.2851
  732TMC3    C110814   4.630   0.763  12.135 -0.1000 -0.1857  0.0295
  732TMC3    C210815   4.517   0.697  12.089  0.1030  1.0830  0.1172
  732TMC3    C310816   4.510   0.659  11.954 -0.2273  0.2071 -0.0913
  732TMC3    C410817   0.018   0.765  12.059  0.3160 -0.8338  0.3094
  732TMC3    C510818   0.017   0.702  11.935  0.5405 -0.3425 -0.4391
  732TMC3    C610819   4.623   0.653  11.878  0.1069 -0.9898  0.5751
  732TMC3     C10820   4.657   0.775  12.275  0.8628  0.3852 -0.2178
  732TMC3     O10821   0.033   0.721  12.323 -0.6529 -0.3830  0.4575
  732TMC3     H10822   4.433   0.690  12.157 -0.7275  1.1020 -0.9206
  732TMC3    H110823   0.110   0.815  12.086  0.4760 -0.4188 -1.0169
  732TMC3    H210824   4.634   0.614  11.777  0.2175  0.8189 -0.1116
  732TMC3    C710825   0.141   0.692  11.864 -0.0665  0.3885  0.1956
  732TMC3    C810826   4.419   0.554  11.917  0.5591  0.6436 -0.3021
  732TMC3    O110827   0.132   0.696  11.745  0.7483  0.1026 -0.3916
  732TMC3    O210828   4.456   0.488  11.821  0.8603 -0.6405  0.0488
  733TMC3    C110829   0.799   4.588  13.117 -1.1228  0.1315 -0.2094
  733TMC3    C210830   0.889   4.531  13.188  0.2310  0.2164  1.0127
  733TMC3    C310831   1.020   4.556  13.157  0.1647  0.4592 -0.2646
  733TMC3    C410832   0.820   4.692  13.032  0.6279 -0.4231  0.2936
  733TMC3    C510833   0.952   0.009  13.021  0.1278 -0.5391 -0.0753
  733TMC3    C610834   1.058   4.665  13.086  1.1555  0.2597  0.2149
  733TMC3     C10835   0.658   4.555  13.127  0.1716 -0.5743  0.5385
  733TMC3     O10836   0.596   4.634  13.062 -1.3883  0.2502 -0.5687
  733TMC3     H10837   0.868   4.455  13.263  3.4966 -1.5508  0.1004
  733TMC3    H110838   0.752   0.026  12.969  1.2639 -1.3995 -1.2490
  733TMC3    H210839   1.161   4.697  13.079  1.0539  1.3123  3.6333
  733TMC3    C710840   0.976   0.112  12.924 -0.0554 -0.1777  0.2368
  733TMC3    C810841   1.129   4.504  13.226 -0.4048  0.0278  0.0111
  733TMC3    O110842   0.916   0.219  12.934  0.3656  0.2210 -0.4909
  733TMC3    O210843   1.123   4.478  13.346 -0.2427  0.0014 -0.0029
  734MPD2     C10844   3.319   1.859  12.264 -0.8836 -0.6827 -0.6456
  734MPD2    C110845   3.209   1.878  12.184  0.4326  0.0767 -0.4804
  734MPD2    C210846   3.245   1.876  12.047 -0.1939 -0.1310 -0.7722
  734MPD2    C310847   3.370   1.857  11.991  0.3559 -0.2424 -0.7135
  734MPD2    C410848   3.481   1.848  12.073  0.1698  0.7256  0.3006
  734MPD2    C510849   3.444   1.850  12.208 -0.6718 -0.0007  0.2375
  734MPD2     H10850   3.168   1.894  11.973 -0.6290  2.3933  0.3019
  734MPD2    H110851   3.575   1.811  12.034 -0.0606  1.4659 -0.9424
  734MPD2    H210852   3.316   1.857  12.372 -1.9447  2.1457 -0.6380
  734MPD2    H310853   3.527   1.829  12.275  0.1678 -1.8939 -1.3854
  734MPD2     N10854   3.376   1.835  11.851 -0.0725  0.3426 -0.6810
  734MPD2    H510855   3.298   1.872  11.797 -0.2628 -0.3622 -0.9013
  734MPD2    N110856   3.077   1.891  12.235 -0.2070  0.7801 -0.0441
  734MPD2    H710857   3.073   1.885  12.336  1.3700  0.4064  0.0022
  735TMC3    C110858   2.847   1.842  12.221  0.2604  0.9922  0.5015
  735TMC3    C210859   2.734   1.867  12.141 -0.1785 -0.6791 -0.3101
  735TMC3    C310860   2.644   1.763  12.132  0.0472 -0.0901  0.3783
  735TMC3    C410861   2.867   1.720  12.289  0.0327  0.0444  0.3959
  735TMC3    C510862   2.763   1.629  12.280 -0.5574  0.4503 -0.2482
  735TMC3    C610863   2.654   1.649  12.203 -1.5064 -0.2404  0.2255
  735TMC3     C10864   2.966   1.897  12.156 -0.0371  0.8852  0.0652
  735TMC3     O10865   2.948   1.926  12.038  0.1080  0.4292  0.1756
  735TMC3     H10866   2.714   1.962  12.094  1.3424  1.5287  3.5184
  735TMC3    H110867   2.954   1.698  12.350  0.9582  3.5630  0.3487
  735TMC3    H210868   2.586   1.566  12.191 -1.4375 -0.3860  0.8223
  735TMC3    C710869   2.788   1.494  12.335 -0.0625 -0.1451 -0.7140
  735TMC3    C810870   2.615   1.733  11.998 -0.0651  0.1859 -0.0732
  735TMC3    O110871   2.706   1.442  12.411  0.2394  0.2433  0.1551
  735TMC3    O210872   2.521   1.657  11.975 -0.1542  0.5731 -0.2881
  736MPD2     C10873   2.893   1.231  12.385  0.1599 -0.2108  0.7975
  736MPD2    C110874   2.949   1.310  12.288  0.0788  0.0140  1.1138
  736MPD2    C210875   3.056   1.257  12.222  0.1540  0.1131  0.1131
  736MPD2    C310876   3.100   1.129  12.247  0.5733 -0.0610 -0.2450
  736MPD2    C410877   3.036   1.044  12.332 -0.1813 -0.0306 -0.5963
  736MPD2    C510878   2.932   1.095  12.403 -0.1825 -0.4053 -0.2164
  736MPD2     H10879   3.115   1.328  12.165 -1.6186 -0.0270 -1.8445
  736MPD2    H110880   3.076   0.943  12.344  1.2013  0.3859 -1.7366
  736MPD2    H210881   2.814   1.257  12.454  1.9385 -0.6912  2.9963
  736MPD2    H310882   2.882   1.037  12.480  0.9646 -1.8470 -0.5600
  736MPD2     N10883   3.218   1.082  12.183 -0.3354  0.1606  0.6604
  736MPD2    H510884   3.243   0.984  12.194  2.4682  0.8016  0.0244
  736MPD2    N110885   2.898   1.441  12.268  0.2860  0.1731 -0.4748
  736MPD2    H710886   2.939   1.501  12.197  0.2900  0.3091 -0.3598
  737TMC3    C110887   3.422   1.068  12.064  0.5296  0.1494 -0.1286
  737TMC3    C210888   3.538   1.137  12.023 -0.9119 -0.0141  0.3757
  737TMC3    C310889   3.606   1.093  11.925  0.5889  0.5215 -0.3455
  737TMC3    C410890   3.386   0.955  12.011  0.6000  0.4821 -0.1952
  737TMC3    C510891   3.453   0.908  11.903  0.0762 -0.0642  0.3006
  737TMC3    C610892   3.572   0.979  11.862  1.0839 -0.1293 -0.4170
  737TMC3     C10893   3.313   1.156  12.114  0.0967 -0.5004  0.1379
  737TMC3     O10894   3.327   1.274  12.102 -0.0256 -0.1230 -0.2012
  737TMC3     H10895   3.556   1.227  12.081  1.1636  0.7414 -1.4951
  737TMC3    H110896   3.286   0.914  12.016  1.1172 -0.6556  0.7841
  737TMC3    H210897   3.641   0.925  11.797 -1.7377 -3.3541 -0.7632
  737TMC3    C710898   3.459   0.762  11.903 -0.2558 -0.3510 -0.6769
  737TMC3    C810899   3.668   1.193  11.847  0.2696  0.3246 -0.2954
  737TMC3    O110900   3.403   0.714  12.000  0.0784  0.1278  0.5178
  737TMC3    O210901   3.731   1.281  11.900  0.4504 -0.0297  0.3200
  738MPD2     C10902   3.694   0.656  15.525 -0.0569 -0.1827  0.3465
  738MPD2    C110903   3.742   0.528  15.514 -0.9030 -0.1415 -0.4815
  738MPD2    C210904   3.876   0.507  15.500 -0.0796  0.4716 -0.7921
  738MPD2    C310905   3.958   0.617  15.491 -0.8783 -0.5798 -0.0293
  738MPD2    C410906   3.912   0.739  15.504 -0.1712  0.3614 -0.0631
  738MPD2    C510907   3.785   0.755  15.530 -0.0218 -0.0841  0.9320
  738MPD2     H10908   3.918   0.407  15.506  0.3375  0.6484 -0.7206
  738MPD2    H110909   3.981   0.822  15.514 -2.3626  2.3481 -1.2337
  738MPD2    H210910   3.590   0.675  15.547  0.3042  3.2880 -0.9787
  738MPD2    H310911   3.744   0.853  15.551 -1.0165 -0.1498 -0.7204
  738MPD2     N10912   4.103   0.607  15.485 -0.0046  0.0668 -0.1212
  738MPD2    H510913   4.164   0.687  15.499 -2.5400  2.1544 -0.9746
  738MPD2    N110914   3.660   0.413  15.509  0.1058  0.1042 -0.1559
  738MPD2    H710915   3.704   0.322  15.523  1.9321  1.3950  2.5457
  739TMC3    C110916   4.323   0.516  15.455 -0.5792  0.3615  0.6560
  739TMC3    C210917   4.345   0.626  15.373 -0.1221  0.4498  0.4299
  739TMC3    C310918   4.442   0.621  15.271 -0.9933  0.0509  0.5157
  739TMC3    C410919   4.395   0.406  15.436 -0.2432 -0.1711 -0.2888
  739TMC3    C510920   4.487   0.402  15.333  0.1470  0.1959  0.0160
  739TMC3    C610921   4.518   0.507  15.253  0.3458 -0.2669 -0.0172
  739TMC3     C10922   4.182   0.491  15.474  0.2386  0.4719  0.0842
  739TMC3     O10923   4.146   0.381  15.456  0.0675  0.4075 -0.0788
  739TMC3     H10924   4.290   0.719  15.385 -1.4576 -0.4035  1.0007
  739TMC3    H110925   4.384   0.326  15.508 -0.6008 -1.3151 -1.6198
  739TMC3    H210926   4.599   0.522  15.182  0.1263 -0.6035 -0.3329
  739TMC3    C710927   4.537   0.275  15.282  0.7470  0.0315  0.2395
  739TMC3    C810928   4.468   0.750  15.208  0.0263 -0.1102 -0.2584
  739TMC3    O110929   4.570   0.280  15.167  0.4117 -0.0152 -0.1699
  739TMC3    O210930   4.484   0.841  15.289 -0.5649  0.6968  0.4691
  740TMC3    C110931   4.626   1.600  14.171 -0.0959  0.2929 -0.5306
  740TMC3    C210932   4.692   1.596  14.295  0.6018 -0.0892 -0.0355
  740TMC3    C310933   0.101   1.565  14.297 -0.0934  0.7376  0.0858
  740TMC3    C410934   4.695   1.576  14.055 -0.3840  0.6766 -0.1395
  740TMC3    C510935   0.104   1.541  14.065  0.5255 -0.3175  0.8226
  740TMC3    C610936   0.165   1.536  14.182 -0.2960  0.0321  0.8313
  740TMC3     C10937   4.490   1.646  14.160 -0.0805  0.2455 -0.5813
  740TMC3     O10938   4.455   1.683  14.045  0.1266  0.3340  0.4265
  740TMC3     H10939   4.646   1.634  14.386 -0.1162 -0.3361 -0.2951
  740TMC3    H110940   4.639   1.584  13.963  0.0926  0.0449 -0.4857
  740TMC3    H210941   0.266   1.498  14.183  0.1856  1.2950  0.3898
  740TMC3    C710942   0.173   1.502  13.944 -0.4327 -0.2773  0.0758
  740TMC3    C810943   0.157   1.512  14.419 -0.1261  0.4108 -0.1116
  740TMC3    O110944   0.269   1.423  13.952 -1.0692  0.0404 -0.6052
  740TMC3    O210945   0.273   1.532  14.437 -0.0427 -0.0142  0.5129
  741TMC3    C110946   3.890   0.857  14.367 -0.0854  0.1785  0.3129
  741TMC3    C210947   3.834   0.731  14.381  0.2989 -0.4304 -0.7165
  741TMC3    C310948   3.824   0.687  14.510  0.0354 -0.5183  1.0626
  741TMC3    C410949   3.958   0.919  14.475 -0.3352 -0.2836  0.1337
  741TMC3    C510950   3.949   0.859  14.597  0.2590  0.1006  0.0644
  741TMC3    C610951   3.880   0.741  14.618 -0.0935  0.5488  0.2054
  741TMC3     C10952   3.920   0.905  14.231  0.2273 -0.3671  0.7441
  741TMC3     O10953   3.986   1.010  14.218  0.2768 -0.1455 -0.8318
  741TMC3     H10954   3.780   0.670  14.309 -0.9768 -1.5267  1.1752
  741TMC3    H110955   4.004   1.017  14.482  1.3172 -1.1108  0.6038
  741TMC3    H210956   3.855   0.702  14.716  0.1392 -1.9990 -0.7485
  741TMC3    C710957   4.004   0.930  14.711  0.3274  0.7221  0.1172
  741TMC3    C810958   3.745   0.564  14.536  0.8354  0.0908 -0.2616
  741TMC3    O110959   4.026   1.054  14.713  0.3468  0.0463 -0.6628
  741TMC3    O210960   3.794   0.483  14.617 -0.4982 -0.1608  0.0580
  742TMC3    C110961   3.816   4.133  15.591  0.2724  0.3397  0.1731
  742TMC3    C210962   3.736   4.098  15.484  0.0909  1.0162 -0.0714
  742TMC3    C310963   3.786   4.000  15.410 -0.6797  1.2247  0.9830
  742TMC3    C410964   3.948   4.090  15.605  0.1383 -0.2518  0.0333
  742TMC3    C510965   3.986   3.986  15.527  0.2630  0.1258 -0.6962
  742TMC3    C610966   3.904   3.935  15.438  0.1754  0.1460 -0.4947
  742TMC3     C10967   3.767   4.236  15.687 -0.3209  0.0821  0.4109
  742TMC3     O10968   3.687   4.313  15.643 -0.8639 -0.0788 -0.2960
  742TMC3     H10969   3.632   4.125  15.493  0.0194  0.2223  1.4986
  742TMC3    H110970   4.004   4.114  15.694  0.8629  0.5039 -0.6330
  742TMC3    H210971   3.934   3.854  15.372  0.7347  0.7618 -1.0108
  742TMC3    C710972   4.131   3.964  15.493  0.2697 -0.1851 -1.3074
  742TMC3    C810973   3.729   3.977  15.280  0.6326 -0.7440  0.1015
  742TMC3    O110974   4.159   3.904  15.389  0.2184 -0.2818 -0.1288
  742TMC3    O210975   3.762   3.873  15.222 -0.4502 -0.1491  0.4631
  743MPD2     C10976   2.064   0.033   1.878  0.8696 -0.1739 -0.0892
  743MPD2    C110977   1.979   0.054   1.768  0.0059 -0.4071  0.5864
  743MPD2    C210978   2.016   4.708   1.651 -0.5606  0.0718 -0.0624
  743MPD2    C310979   2.130   4.633   1.648  0.6746 -1.1231 -0.5290
  743MPD2    C410980   2.199   4.598   1.761 -0.7957 -0.1297  0.1225
  743MPD2    C510981   2.171   4.666   1.880  0.4303  0.2677 -0.0278
  743MPD2     H10982   1.973   0.023   1.559  1.9489  0.7344 -0.9571
  743MPD2    H110983   2.290   4.540   1.762 -0.2074  0.7763 -0.7356
  743MPD2    H210984   2.042   0.081   1.973  2.9657 -0.6233  0.6220
  743MPD2    H310985   2.230   4.659   1.970  0.9468 -2.3011 -0.5599
  743MPD2     N10986   2.171   4.587   1.519  0.3792  0.0708  1.0009
  743MPD2    H510987   2.114   4.616   1.440  0.9026 -0.5416  0.4005
  743MPD2    N110988   1.870   0.136   1.787  0.3866 -0.0871  0.0236
  743MPD2    H710989   1.858   0.177   1.879 -0.7556  0.1357 -0.2285
  744TMC3    C110990   1.685   0.283   1.701 -0.1691 -0.5312 -0.6825
  744TMC3    C210991   1.723   0.395   1.764  0.0492  0.3344  0.7504
  744TMC3    C310992   1.664   0.510   1.731  0.0507  0.2010  0.4535
  744TMC3    C410993   1.607   0.294   1.589  0.9287 -0.4458 -0.0919
  744TMC3    C510994   1.560   0.419   1.551  0.4594  0.2731  0.0539
  744TMC3    C610995   1.578   0.530   1.626  0.1603 -0.1331  0.0917
  744TMC3     C10996   1.778   0.164   1.686  0.2448 -0.0564 -0.8755
  744TMC3     O10997   1.772   0.110   1.576 -0.3314  0.3353 -0.5148
  744TMC3     H10998   1.804   0.393   1.836  1.7269 -2.1305 -1.1679
  744TMC3    H110999   1.571   0.214   1.526 -0.2701 -2.2196  2.8611
  744TMC3    H211000   1.537   0.626   1.596 -1.4596 -1.1697 -0.9923
  744TMC3    C711001   1.524   0.430   1.412  0.7242 -0.2206 -0.8527
  744TMC3    C811002   1.654   0.609   1.834  0.0883  0.5460 -0.9516
  744TMC3    O111003   1.565   0.350   1.325 -0.3914 -0.5340 -0.5581
  744TMC3    O211004   1.742   0.606   1.923 -0.3748 -0.4777 -0.9992
  745TMC3    C111005   3.978   3.902  13.459 -1.4573 -0.0488 -0.1803
  745TMC3    C211006   3.860   3.915  13.528  0.0850  0.2609 -0.1442
  745TMC3    C311007   3.786   4.033  13.525 -0.3890  0.4707  0.4746
  745TMC3    C411008   3.990   3.981  13.347  0.4272  0.2523 -0.8433
  745TMC3    C511009   3.903   4.090  13.338  0.4222 -0.4396 -1.3145
  745TMC3    C611010   3.811   4.123  13.430  0.3534  0.5427  0.2373
  745TMC3     C11011   4.096   3.887  13.543  0.4649  0.2484  0.0090
  745TMC3     O11012   4.091   3.826  13.651 -0.0269 -0.9590 -0.5661
  745TMC3     H11013   3.855   3.853  13.617 -1.5331  2.9912  1.6640
  745TMC3    H111014   4.057   3.960  13.264 -1.9374 -1.4168 -2.2999
  745TMC3    H211015   3.741   4.205  13.419  1.2387  1.0070 -1.9152
  745TMC3    C711016   3.890   4.167  13.216 -0.5203 -0.0583 -0.2220
  745TMC3    C811017   3.793   4.087  13.657 -0.1603  0.3922  0.0963
  745TMC3    O111018   3.781   4.210  13.182 -0.3613 -0.2097  0.1861
  745TMC3    O211019   3.724   4.031  13.744  0.2824  0.0465 -0.2125
  746TMC3    C111020   1.618   0.948  11.059  0.2841  0.1067 -0.5848
  746TMC3    C211021   1.747   0.946  11.020  0.5754  0.5948  0.2438
  746TMC3    C311022   1.822   0.829  11.039 -0.2015  0.8734  0.8570
  746TMC3    C411023   1.561   0.844  11.121 -0.3929 -0.0812 -0.2236
  746TMC3    C511024   1.636   0.731  11.143 -0.0606 -0.0953  0.6226
  746TMC3    C611025   1.769   0.725  11.102  0.2392 -0.5760 -1.0398
  746TMC3     C11026   1.548   1.075  11.073  0.5682  0.0474  0.4632
  746TMC3     O11027   1.444   1.073  11.138 -0.3941  0.0061 -0.5218
  746TMC3     H11028   1.793   1.032  10.973 -0.8063  2.3248  2.0781
  746TMC3    H111029   1.462   0.845  11.164  0.2601  1.6277  1.2203
  746TMC3    H211030   1.827   0.633  11.103  0.8681 -0.1715  0.0343
  746TMC3    C711031   1.574   0.623  11.217  0.0920  0.0408 -0.5876
  746TMC3    C811032   1.953   0.828  10.988  0.0214  0.0868  0.8947
  746TMC3    O111033   1.465   0.573  11.186 -0.1074 -0.2071  0.5191
  746TMC3    O211034   2.033   0.914  11.018 -0.6953  0.1127 -0.0228
  747TMC3    C111035   3.903   0.288  11.189  0.0129  0.1229 -0.2526
  747TMC3    C211036   3.825   0.286  11.303  0.6339  0.6648  1.2588
  747TMC3    C311037   3.874   0.213  11.406  0.3992  0.1937  0.1724
  747TMC3    C411038   4.026   0.221  11.180  0.4009 -0.3133  0.4590
  747TMC3    C511039   4.071   0.159  11.288 -0.4351  0.6719 -0.9695
  747TMC3    C611040   3.990   0.140  11.400  0.6729  0.3357  0.1204
  747TMC3     C11041   3.851   0.337  11.062  0.4198  0.5248  0.3357
  747TMC3     O11042   3.747   0.403  11.063 -0.2479  0.2716 -0.1296
  747TMC3     H11043   3.740   0.352  11.302  0.1292  0.0394  2.0922
  747TMC3    H111044   4.089   0.242  11.094  0.9064 -0.1471  0.8712
  747TMC3    H211045   4.026   0.082  11.484  2.4525 -0.4102 -1.1539
  747TMC3    C711046   4.213   0.172  11.315 -0.4589  0.2455  0.5365
  747TMC3    C811047   3.805   0.229  11.536 -0.3378 -0.2106  0.7270
  747TMC3    O111048   4.242   0.179  11.430 -0.3834 -0.2844  0.2582
  747TMC3    O211049   3.830   0.142  11.621 -0.6852 -0.1072 -0.1286
  748MPD2     C11050   0.829   2.192   1.502  0.0842  0.3832  0.4416
  748MPD2    C111051   0.860   2.059   1.545  0.6238  0.5711 -0.1518
  748MPD2    C211052   0.996   2.021   1.534 -0.3777  0.6014 -0.7095
  748MPD2    C311053   1.092   2.106   1.484  0.0510  0.1004 -0.2072
  748MPD2    C411054   1.062   2.234   1.448  0.1859 -0.3706 -0.8429
  748MPD2    C511055   0.930   2.270   1.447  0.0749  0.3745  0.1715
  748MPD2     H11056   1.029   1.926   1.573 -0.9705  0.0295 -1.6209
  748MPD2    H111057   1.141   2.300   1.414 -0.0976  1.1032  1.3641
  748MPD2    H211058   0.725   2.222   1.514 -0.9093 -2.6313 -0.5254
  748MPD2    H311059   0.906   2.370   1.413  0.6658  0.4488 -0.0250
  748MPD2     N11060   1.225   2.055   1.463 -0.1598  0.2386 -0.0694
  748MPD2    H511061   1.234   1.957   1.489 -1.4003 -0.3562 -1.8895
  748MPD2    N111062   0.754   1.989   1.597 -0.0301 -1.0787  0.3478
  748MPD2    H711063   0.659   2.021   1.617  0.8871  1.0836  1.2819
  749TMC3    C111064   1.428   2.020   1.356 -0.6226  0.0709  0.6270
  749TMC3    C211065   1.452   1.914   1.436  0.3870  0.0646 -0.6178
  749TMC3    C311066   1.568   1.845   1.406 -0.4037 -0.1449 -1.0450
  749TMC3    C411067   1.504   2.056   1.249 -0.0053  0.4646 -0.1204
  749TMC3    C511068   1.600   1.970   1.210 -0.4953  0.6113  0.2563
  749TMC3    C611069   1.639   1.867   1.285 -0.1701 -0.3690 -0.0345
  749TMC3     C11070   1.325   2.114   1.397  0.4780 -0.4598  0.6855
  749TMC3     O11071   1.340   2.227   1.349 -0.1007 -0.9104 -0.4889
  749TMC3     H11072   1.413   1.902   1.537 -1.4477 -1.3474 -1.5004
  749TMC3    H111073   1.486   2.154   1.205  0.0547  0.0475 -1.0677
  749TMC3    H211074   1.726   1.814   1.250 -0.4686 -0.3836 -0.7436
  749TMC3    C711075   1.670   1.999   1.086  0.1207 -0.2516  0.9502
  749TMC3    C811076   1.648   1.789   1.512 -0.7945  0.1704  0.8057
  749TMC3    O111077   1.785   1.954   1.069 -0.0212  0.1180 -0.0796
  749TMC3    O211078   1.607   1.808   1.625  0.4480  0.4059  0.1707
  750MPD2     C11079   1.562   2.497  11.541 -0.1314 -0.5844  0.1583
  750MPD2    C111080   1.696   2.462  11.536 -0.3831 -0.0351  0.1657
  750MPD2    C211081   1.751   2.423  11.412 -0.3088  0.1720 -0.1786
  750MPD2    C311082   1.680   2.407  11.302 -0.2091 -0.2033 -0.8892
  750MPD2    C411083   1.553   2.452  11.306 -0.8004  0.6810  0.6166
  750MPD2    C511084   1.492   2.492  11.422 -0.1881 -0.5845 -0.1145
  750MPD2     H11085   1.856   2.395  11.408 -0.0300  1.0750  0.7207
  750MPD2    H111086   1.490   2.443  11.219 -1.9654 -0.9805  1.6319
  750MPD2    H211087   1.509   2.535  11.629  1.7261 -0.1654  1.1031
  750MPD2    H311088   1.387   2.521  11.431  0.0555  0.8060 -1.7734
  750MPD2     N11089   1.728   2.350  11.181  0.4538  0.4187  0.1486
  750MPD2    H511090   1.655   2.333  11.112  0.9522 -2.3443  0.2973
  750MPD2    N111091   1.768   2.489  11.657 -0.4614 -0.3406 -0.5121
  750MPD2    H711092   1.718   2.514  11.741 -0.9269  0.0639 -0.9084
  751TMC3    C111093   1.851   2.217  11.041 -0.3839  0.5500  0.1430
  751TMC3    C211094   1.734   2.160  11.002 -0.6784 -0.3454 -0.5302
  751TMC3    C311095   1.733   2.082  10.893 -0.1448  0.1729  0.4777
  751TMC3    C411096   1.970   2.201  10.975 -0.2670 -0.0096 -0.0556
  751TMC3    C511097   1.960   2.110  10.872  0.0280 -0.0708 -0.0977
  751TMC3    C611098   1.848   2.056  10.823  0.0775 -0.2216 -0.3343
  751TMC3     C11099   1.850   2.293  11.165  0.3062 -0.0863 -0.5622
  751TMC3     O11100   1.960   2.312  11.216 -0.0900 -0.3236  0.1146
  751TMC3     H11101   1.652   2.157  11.072  0.2871  1.9742  0.6934
  751TMC3    H111102   2.063   2.250  11.004 -0.0842 -0.0015 -0.6437
  751TMC3    H211103   1.834   1.986  10.741  0.8051  1.1912 -1.6780
  751TMC3    C711104   2.089   2.080  10.809 -0.9715 -0.0119  0.3812
  751TMC3    C811105   1.621   1.997  10.872 -0.0860  0.5631  0.0385
  751TMC3    O111106   2.180   2.162  10.828  0.2785 -0.6850  0.3815
  751TMC3    O211107   1.639   1.887  10.820  0.4439 -0.0195  0.0523
  752TMC3    C111108   1.031   2.434  17.054 -0.0526 -0.9765  0.3150
  752TMC3    C211109   1.163   2.404  17.081 -0.5156  0.0117  0.1720
  752TMC3    C311110   1.191   2.347  17.205 -0.5780 -0.0590  1.0732
  752TMC3    C411111   0.929   2.421  17.139  0.1062  0.0398 -0.0402
  752TMC3    C511112   0.965   2.364  17.253 -0.4645  0.4505  0.4134
  752TMC3    C611113   1.089   2.315  17.286  0.1051 -0.9642  0.6402
  752TMC3     C11114   1.005   2.463  16.915  0.4314 -0.6356  0.4097
  752TMC3     O11115   1.083   2.415  16.829 -0.1690 -0.5781  0.0279
  752TMC3     H11116   1.238   2.433  17.008 -1.5772 -1.2393 -1.4391
  752TMC3    H111117   0.823   2.441  17.126  0.6002  1.8356 -1.1586
  752TMC3    H211118   1.110   2.275  17.385  0.8882  1.1508  1.3187
  752TMC3    C711119   0.864   2.390  17.354 -0.3305  0.1672 -0.1121
  752TMC3    C811120   1.328   2.311  17.221  0.3180 -0.2362  0.6623
  752TMC3    O111121   0.800   2.499  17.353  0.2243  0.1458  0.5164
  752TMC3    O211122   1.418   2.371  17.162 -0.3265  0.1542 -0.1514
  753TMC3    C111123   2.784   3.430  14.025 -0.1629  0.5030 -0.6946
  753TMC3    C211124   2.852   3.461  14.136 -0.0042 -0.1526 -0.5996
  753TMC3    C311125   2.913   3.362  14.205  0.5059 -0.3154  0.6710
  753TMC3    C411126   2.772   3.298  13.984 -0.0546 -0.4374 -1.1345
  753TMC3    C511127   2.826   3.203  14.062  0.2151 -0.5096 -0.2560
  753TMC3    C611128   2.896   3.228  14.173  0.3139  0.8607  0.2092
  753TMC3     C11129   2.711   3.531  13.949 -0.3086  0.7507  0.5764
  753TMC3     O11130   2.708   3.503  13.831 -0.1244 -0.5224 -0.5481
  753TMC3     H11131   2.868   3.568  14.147  0.1584 -0.0736 -1.5777
  753TMC3    H111132   2.733   3.276  13.885 -0.3056  0.1954 -1.1746
  753TMC3    H211133   2.930   3.148  14.237 -1.1297 -1.4502 -1.9167
  753TMC3    C711134   2.805   3.062  14.025 -0.1154  0.9512  0.4516
  753TMC3    C811135   3.000   3.394  14.323  0.0899  0.1428  0.2397
  753TMC3    O111136   2.890   2.985  14.062 -0.0806  0.4300 -0.3806
  753TMC3    O211137   3.051   3.297  14.382  0.1972 -0.1161 -0.0139
  754MPD2     C11138   1.205   2.702  13.147  0.5211 -0.7798  0.7218
  754MPD2    C111139   1.145   2.585  13.116 -0.1818  0.5022 -0.3025
  754MPD2    C211140   1.007   2.583  13.095  0.6247  0.2311 -0.0352
  754MPD2    C311141   0.929   2.692  13.100 -0.4552 -0.1706  0.5812
  754MPD2    C411142   0.991   2.809  13.120 -0.4296 -0.1191  0.0017
  754MPD2    C511143   1.125   2.816  13.154 -0.8125 -0.2158  0.5007
  754MPD2     H11144   0.963   2.485  13.089 -0.7430  0.9503 -1.9292
  754MPD2    H111145   0.937   2.901  13.141 -0.9218 -0.1950 -0.9071
  754MPD2    H211146   1.310   2.706  13.174  0.0349  1.4398  2.2826
  754MPD2    H311147   1.170   2.908  13.191 -0.0378 -1.1601  1.9112
  754MPD2     N11148   0.793   2.687  13.070 -0.3127 -0.3643  0.2305
  754MPD2    H511149   0.747   2.765  13.025  1.2603  0.2303 -0.3212
  754MPD2    N111150   1.231   2.468  13.108  0.2396 -0.2568  0.5926
  754MPD2    H711151   1.327   2.468  13.139  0.6872 -0.5495 -0.7761
  755MPD2     C11152   0.265   3.229  12.776 -0.1006  0.2329 -0.1780
  755MPD2    C111153   0.180   3.145  12.851  0.5749  0.5264 -0.4363
  755MPD2    C211154   0.216   3.014  12.877 -0.0649 -0.5862 -0.1305
  755MPD2    C311155   0.345   2.980  12.848 -0.0114  0.6741  0.6566
  755MPD2    C411156   0.427   3.071  12.782  0.3397  0.3608  0.2215
  755MPD2    C511157   0.387   3.189  12.730  0.2550 -0.9459 -0.5634
  755MPD2     H11158   0.170   2.944  12.946 -1.7222 -0.1451 -0.7878
  755MPD2    H111159   0.524   3.036  12.751  0.9690  1.6616  0.7008
  755MPD2    H211160   0.238   3.330  12.747  2.1923  0.4010 -1.7671
  755MPD2    H311161   0.451   3.241  12.659 -0.5110 -0.4237 -0.8696
  755MPD2     N11162   0.396   2.855  12.882 -0.4330 -0.6496  0.0979
  755MPD2    H511163   0.497   2.849  12.889 -0.5961 -1.7431  1.4448
  755MPD2    N111164   0.054   3.185  12.907 -0.3929  0.3809  0.3023
  755MPD2    H711165   0.004   3.122  12.969 -1.4830  2.1460  1.2315
  756MPD2     C11166   1.868   2.980   9.661  0.4122 -0.1246  0.1092
  756MPD2    C111167   1.817   2.929   9.779  0.6169  0.4820  0.5128
  756MPD2    C211168   1.685   2.898   9.783 -0.0573 -0.2652  0.1505
  756MPD2    C311169   1.612   2.895   9.663  0.3072  0.2216 -0.6860
  756MPD2    C411170   1.671   2.934   9.546  0.3302 -0.0646 -0.7401
  756MPD2    C511171   1.793   2.987   9.546  0.0264  0.0710  0.4096
  756MPD2     H11172   1.634   2.843   9.862  0.0092 -0.2400  0.2115
  756MPD2    H111173   1.616   2.927   9.453 -0.4679  0.8170 -0.3360
  756MPD2    H211174   1.968   3.019   9.644 -0.0768  1.0508 -0.0421
  756MPD2    H311175   1.837   3.017   9.452  0.9879 -2.2198  0.1298
  756MPD2     N11176   1.480   2.842   9.663 -0.3022 -0.3476 -0.5715
  756MPD2    H511177   1.453   2.796   9.749  1.3724 -1.0251 -0.3923
  756MPD2    N111178   1.889   2.921   9.903 -0.4968  0.5401 -1.2535
  756MPD2    H711179   1.838   2.886   9.983  3.7953 -0.1714  1.1895
  757MPD2     C11180   1.159   2.060  10.049 -0.5405 -0.3855 -0.2188
  757MPD2    C111181   1.114   2.042   9.918 -0.0062  0.0483  0.4974
  757MPD2    C211182   1.088   2.168   9.850  0.0422 -0.0543  0.3509
  757MPD2    C311183   1.130   2.291   9.902 -1.0476  0.2435  0.6654
  757MPD2    C411184   1.184   2.298  10.025 -0.2088 -0.1314  0.5127
  757MPD2    C511185   1.192   2.186  10.098 -0.5240  0.0771  0.1201
  757MPD2     H11186   1.037   2.169   9.754  3.4183 -2.3247 -1.4713
  757MPD2    H111187   1.201   2.392  10.077  1.4098 -1.0318  1.6028
  757MPD2    H211188   1.166   1.972  10.113  0.8034 -1.0233 -1.2402
  757MPD2    H311189   1.233   2.191  10.199 -1.0330  2.1819  0.2301
  757MPD2     N11190   1.114   2.409   9.823 -0.0158  0.4320  0.2572
  757MPD2    H511191   1.058   2.406   9.739  0.6664  2.0240 -0.2452
  757MPD2    N111192   1.084   1.914   9.868 -0.3630 -0.4936 -0.2464
  757MPD2    H711193   1.094   1.836   9.932  1.0655  1.4610  1.9444
  758MPD2     C11194   1.720   2.829  15.901  0.0426 -0.5664 -0.0669
  758MPD2    C111195   1.730   2.699  15.940 -0.0141 -0.0716 -0.1515
  758MPD2    C211196   1.672   2.661  16.062  0.6873 -0.1727  0.7106
  758MPD2    C311197   1.609   2.760  16.142  1.2700  0.5374 -0.2832
  758MPD2    C411198   1.607   2.889  16.095  0.6010  0.3040  1.0344
  758MPD2    C511199   1.672   2.925  15.981 -0.1703 -0.2813 -0.9058
  758MPD2     H11200   1.698   2.562  16.099  0.0035 -1.5289 -2.4344
  758MPD2    H111201   1.578   2.972  16.159 -1.3826  1.9481 -1.9533
  758MPD2    H211202   1.761   2.860  15.805 -0.6743 -0.2895 -0.2816
  758MPD2    H311203   1.674   3.029  15.950  1.5653  0.8073  2.8213
  758MPD2     N11204   1.553   2.728  16.270  0.0723 -0.0499  0.3289
  758MPD2    H511205   1.524   2.813  16.317 -0.1041 -1.7433  3.2787
  758MPD2    N111206   1.799   2.604  15.863  0.0659 -0.1082 -0.0482
  758MPD2    H711207   1.809   2.513  15.908  1.0326 -0.9603 -1.9966
  759MPD2     C11208   1.524   4.572  10.519  0.1269 -0.8280  1.2854
  759MPD2    C111209   1.446   4.476  10.466 -0.0540  0.5864  0.3412
  759MPD2    C211210   1.344   4.514  10.384 -0.0702  0.3810  0.3651
  759MPD2    C311211   1.334   4.646  10.348  0.3644 -0.0197 -1.2007
  759MPD2    C411212   1.421   0.019  10.395  0.1895 -0.1436 -0.5831
  759MPD2    C511213   1.517   4.702  10.486  0.9989  0.4491 -0.3178
  759MPD2     H11214   1.266   4.451  10.344  0.1217 -0.9575  2.1065
  759MPD2    H111215   1.422   0.120  10.355 -0.1288  0.9766  2.1802
  759MPD2    H211216   1.604   4.556  10.591  1.3738 -2.6365 -0.5244
  759MPD2    H311217   1.591   0.044  10.531  0.2392  1.4615 -0.5362
  759MPD2     N11218   1.236   4.679  10.249  0.5381 -0.3715 -0.4661
  759MPD2    H511219   1.194   4.601  10.200  1.1845 -0.5888 -0.6718
  759MPD2    N111220   1.459   4.336  10.498 -0.5401 -0.3801  1.1881
  759MPD2    H711221   1.393   4.272  10.454 -3.3470  3.1426  0.3440
  760MPD2     C11222   4.713   2.271  11.768 -0.8258 -0.8361 -0.6099
  760MPD2    C111223   0.106   2.220  11.710  0.3482  0.6952  0.1864
  760MPD2    C211224   0.106   2.090  11.664  0.2108  0.8193  0.1515
  760MPD2    C311225   4.722   2.006  11.684 -0.6694 -0.4309  0.2068
  760MPD2    C411226   4.615   2.045  11.760  0.5152 -0.1985 -0.5022
  760MPD2    C511227   4.609   2.174  11.800  0.0789  0.2464  0.3656
  760MPD2     H11228   0.188   2.055  11.603 -0.3390  0.1009 -0.1720
  760MPD2    H111229   4.542   1.973  11.795 -1.7737  2.0774 -0.6018
  760MPD2    H211230   4.704   2.373  11.802 -0.5901 -1.0272  0.0243
  760MPD2    H311231   4.538   2.204  11.876  1.5042  3.1522  0.5479
  760MPD2     N11232   4.715   1.874  11.636 -0.1650  0.6183 -0.4856
  760MPD2    H511233   4.628   1.828  11.662  1.7723 -1.9374  1.4217
  760MPD2    N111234   0.224   2.296  11.687  0.0207  0.3570 -0.5073
  760MPD2    H711235   0.300   2.246  11.642  0.9167 -0.8633  2.4160
  761MPD2     C11236   1.128   1.866  10.989 -0.4268 -0.0333 -0.2286
  761MPD2    C111237   1.233   1.791  10.941 -0.0369  0.5320 -0.0485
  761MPD2    C211238   1.356   1.851  10.922  0.0496  0.1427 -0.5272
  761MPD2    C311239   1.371   1.993  10.933 -1.1199 -0.2841 -0.3464
  761MPD2    C411240   1.257   2.067  10.970 -0.3375  0.3496  0.3834
  761MPD2    C511241   1.144   2.002  11.012  0.1665 -0.5482 -0.2183
  761MPD2     H11242   1.439   1.782  10.914 -0.0427 -0.1249  0.8233
  761MPD2    H111243   1.256   2.175  10.975  0.9762  0.3688  0.2083
  761MPD2    H211244   1.032   1.818  11.006 -0.5460  0.5968  0.8486
  761MPD2    H311245   1.062   2.064  11.045  1.7143  2.3354 -1.7600
  761MPD2     N11246   1.500   2.053  10.918 -0.1882  1.1881 -0.5707
  761MPD2    H511247   1.512   2.149  10.948  0.9808  0.2567  1.9791
  761MPD2    N111248   1.210   1.654  10.919 -0.2327 -0.6056 -0.1350
  761MPD2    H711249   1.120   1.614  10.943 -0.9115  0.9877  0.0045
  762MPD2     C11250   1.432   0.769  10.812 -0.2537  0.2439 -0.2887
  762MPD2    C111251   1.440   0.882  10.736 -0.1068  0.0840  0.1932
  762MPD2    C211252   1.517   0.887  10.624  0.2424 -0.3772  0.4811
  762MPD2    C311253   1.593   0.776  10.585  0.0992 -0.2693  0.4856
  762MPD2    C411254   1.594   0.658  10.664 -0.5951  0.7319 -0.7616
  762MPD2    C511255   1.508   0.662  10.768  0.6536  1.5022 -0.5687
  762MPD2     H11256   1.526   0.971  10.556 -2.9055 -0.1460  0.3775
  762MPD2    H111257   1.650   0.567  10.648 -2.8116 -1.0808  1.8910
  762MPD2    H211258   1.365   0.754  10.895  0.8082  1.4736  0.7788
  762MPD2    H311259   1.506   0.569  10.824  0.7413  2.3372  0.8306
  762MPD2     N11260   1.679   0.785  10.472  0.2125  0.3360  0.1199
  762MPD2    H511261   1.679   0.877  10.429 -2.4297  0.2191 -0.1455
  762MPD2    N111262   1.364   0.989  10.787 -0.4971  0.2228  0.1076
  762MPD2    H711263   1.307   0.967  10.868 -2.7721  2.7465 -0.8150
  763MPD2     C11264   3.311   2.059  16.283  0.7407  0.1618 -0.5419
  763MPD2    C111265   3.345   2.115  16.163 -0.2766 -0.5160  0.3789
  763MPD2    C211266   3.347   2.249  16.152  0.6866 -0.0123 -0.0527
  763MPD2    C311267   3.320   2.333  16.258  0.4079 -0.1463 -0.4417
  763MPD2    C411268   3.282   2.276  16.378 -0.4127 -0.1948 -0.1880
  763MPD2    C511269   3.282   2.135  16.389  0.2742 -0.3798 -0.2600
  763MPD2     H11270   3.384   2.285  16.057  2.0252  0.2849  0.5717
  763MPD2    H111271   3.238   2.324  16.465 -2.0914 -2.3619  0.1702
  763MPD2    H211272   3.312   1.951  16.294 -1.6884  0.4849  2.7339
  763MPD2    H311273   3.238   2.091  16.477 -1.8440  2.5709  0.1818
  763MPD2     N11274   3.342   2.474  16.251  0.2958 -0.4536  0.5065
  763MPD2    H511275   3.297   2.523  16.329  0.2555  0.3178  0.0037
  763MPD2    N111276   3.375   2.040  16.048  0.2940 -0.5702  1.2355
  763MPD2    H711277   3.380   2.086  15.958  3.9256 -0.2276  1.6178
  764MPD2     C11278   1.114   4.229  17.567 -0.2591  0.0867 -0.0456
  764MPD2    C111279   1.153   4.128  17.476  0.2480  0.3635  0.4243
  764MPD2    C211280   1.182   4.005  17.527  0.7814 -0.1643 -0.4547
  764MPD2    C311281   1.190   3.991  17.668 -0.6294 -0.0355 -0.2546
  764MPD2    C411282   1.149   4.087   0.061 -0.9250  0.3964  0.3680
  764MPD2    C511283   1.106   4.207   0.011  0.3379 -0.6197  0.0064
  764MPD2     H11284   1.204   3.919  17.465 -0.7311 -1.5701  0.9940
  764MPD2    H111285   1.151   4.072   0.169 -1.6883  2.0692  0.6220
  764MPD2    H211286   1.076   4.324  17.532  1.5064  0.7109 -0.2733
  764MPD2    H311287   1.078   4.289   0.076 -2.3770 -1.8556  0.3752
  764MPD2     N11288   1.228   3.854   0.014  0.0995 -0.7961 -0.3161
  764MPD2    H511289   1.256   3.793  17.632  0.6886  1.2916 -1.7567
  764MPD2    N111290   1.158   4.147  17.343  0.5557 -0.1820  0.0917
  764MPD2    H711291   1.183   4.068  17.285  1.0355 -0.5926  0.8687
  765MPD2     C11292   1.287   1.467  16.256  0.8806  0.1807  0.2359
  765MPD2    C111293   1.344   1.552  16.165  0.0968 -0.4071  0.2366
  765MPD2    C211294   1.464   1.515  16.107 -0.0188 -0.1438  0.2609
  765MPD2    C311295   1.527   1.399  16.145 -0.1465 -0.5001 -0.6588
  765MPD2    C411296   1.467   1.317  16.240  0.2759  0.1341 -0.0058
  765MPD2    C511297   1.350   1.354  16.292  0.3101  0.6728  0.1008
  765MPD2     H11298   1.516   1.569  16.029  0.1482  0.0329  0.4964
  765MPD2    H111299   1.507   1.226  16.283  0.6670  1.4116  2.3437
  765MPD2    H211300   1.184   1.482  16.286  0.0372  1.6998 -3.4428
  765MPD2    H311301   1.300   1.286  16.360 -2.5022  3.9939  1.3383
  765MPD2     N11302   1.653   1.374  16.091  0.3624 -0.3033 -0.4425
  765MPD2    H511303   1.701   1.441  16.031 -0.0594  1.2608  0.9403
  765MPD2    N111304   1.282   1.684  16.156 -0.1763 -0.0308  0.6061
  765MPD2    H711305   1.200   1.701  16.213  0.4653  0.1789  1.4678
  766MPD2     C11306   0.660   1.992  15.714 -0.2576  0.5276  0.3860
  766MPD2    C111307   0.778   1.931  15.743 -0.0239 -0.6063  0.2297
  766MPD2    C211308   0.832   1.843  15.658  0.6626  0.2386  0.0718
  766MPD2    C311309   0.782   1.813  15.539  0.0111  0.6729 -0.0590
  766MPD2    C411310   0.664   1.879  15.504 -0.4041 -0.4069  0.5036
  766MPD2    C511311   0.610   1.965  15.590  0.1490  0.4870  0.1980
  766MPD2     H11312   0.931   1.810  15.689 -0.5913 -1.0835  2.6008
  766MPD2    H111313   0.615   1.869  15.409  1.5782 -1.4040 -0.4285
  766MPD2    H211314   0.616   2.075  15.767  2.1768  0.4514  2.5321
  766MPD2    H311315   0.522   2.016  15.553 -0.7067  1.0642  3.0284
  766MPD2     N11316   0.851   1.742  15.445 -0.0715  0.1153  0.5491
  766MPD2    H511317   0.826   1.757  15.348  1.4960  1.4096  0.3410
  766MPD2    N111318   0.838   1.970  15.861  0.4711  0.7555  0.5290
  766MPD2    H711319   0.795   2.053  15.900  0.0522  0.6492  0.2949
  767MPD2     C11320   0.413   1.935  15.186 -0.3153 -0.1514 -0.0561
  767MPD2    C111321   0.503   2.006  15.109  0.0607 -0.0526 -0.4420
  767MPD2    C211322   0.546   1.956  14.982  0.1885  0.4936 -0.0491
  767MPD2    C311323   0.500   1.835  14.935 -0.5110 -0.6210  0.0516
  767MPD2    C411324   0.402   1.769  15.009 -0.3602 -0.0793 -0.4692
  767MPD2    C511325   0.354   1.827  15.123 -0.4385  0.3070  0.3016
  767MPD2     H11326   0.616   2.007  14.915  0.3634  0.7516  0.3288
  767MPD2    H111327   0.342   1.681  14.989 -1.1434 -0.0155  1.6347
  767MPD2    H211328   0.395   1.966  15.288 -2.0530  0.6821 -0.6300
  767MPD2    H311329   0.275   1.785  15.184 -0.7253 -2.0510 -1.6689
  767MPD2     N11330   0.549   1.790  14.812  0.2335  0.5015 -0.1928
  767MPD2    H511331   0.613   1.849  14.760 -2.1079  0.0265 -3.6064
  767MPD2    N111332   0.562   2.114  15.170 -0.5344  0.0071  0.4917
  767MPD2    H711333   0.534   2.129  15.266 -2.0341 -0.1069  0.0618
  768MPD2     C11334   1.656   4.435  11.003  0.0627 -1.0696  0.1557
  768MPD2    C111335   1.638   4.477  11.135  0.2410 -0.0474  0.8494
  768MPD2    C211336   1.740   4.548  11.207  0.2283 -0.0523  0.0761
  768MPD2    C311337   1.858   4.571  11.138  0.6606  0.0918  0.2810
  768MPD2    C411338   1.865   4.539  11.006 -1.1185 -0.0101  0.4364
  768MPD2    C511339   1.767   4.476  10.937 -0.7159 -0.3598 -0.4936
  768MPD2     H11340   1.721   4.578  11.309  1.2101 -1.4569  0.6687
  768MPD2    H111341   1.957   4.574  10.961  0.7418  0.1035  4.3696
  768MPD2    H211342   1.574   4.393  10.945 -1.6138  0.0912  1.6672
  768MPD2    H311343   1.783   4.453  10.832  0.2837  1.6963 -0.7892
  768MPD2     N11344   1.964   4.641  11.197 -0.5525  0.0556 -1.2011
  768MPD2    H511345   2.023   4.701  11.141  1.8725  0.0729  1.3701
  768MPD2    N111346   1.512   4.456  11.200  0.2092  0.7934  0.2026
  768MPD2    H711347   1.507   4.492  11.295  2.5572  2.6470 -0.3728
  769MPD2     C11348   2.616   3.125  15.135 -0.0766  0.7171 -0.1444
  769MPD2    C111349   2.536   3.082  15.239  0.5652 -0.9691 -0.4848
  769MPD2    C211350   2.560   3.140  15.365 -0.3016 -0.3556  0.6865
  769MPD2    C311351   2.666   3.226  15.390 -0.4356 -0.1900 -0.0978
  769MPD2    C411352   2.746   3.263  15.284 -0.3693  0.1451 -0.7004
  769MPD2    C511353   2.720   3.212  15.165 -0.2995 -0.0290  0.0178
  769MPD2     H11354   2.502   3.108  15.451 -3.1017 -0.4455 -1.2399
  769MPD2    H111355   2.833   3.326  15.300  0.0574 -0.7373  0.4949
  769MPD2    H211356   2.612   3.094  15.032 -1.0638 -0.5151  0.2595
  769MPD2    H311357   2.775   3.243  15.077 -0.9101  0.4478 -0.1999
  769MPD2     N11358   2.680   3.264  15.522 -0.7563 -0.2038  0.4951
  769MPD2    H511359   2.617   3.214  15.583 -1.1620 -0.4740 -0.1426
  769MPD2    N111360   2.452   2.972  15.220  0.1446  0.3114  0.0137
  769MPD2    H711361   2.464   2.922  15.132 -1.1596  2.1808 -1.2064
  770MPD2     C11362   1.499   2.476  15.188  0.0274  0.3161  0.5983
  770MPD2    C111363   1.598   2.394  15.150  0.1388  0.6714 -0.4899
  770MPD2    C211364   1.722   2.435  15.183  0.0208  0.2552 -0.0501
  770MPD2    C311365   1.748   2.553  15.249 -0.4756 -0.1464  0.3529
  770MPD2    C411366   1.646   2.633  15.288  0.6093  0.0037 -0.4663
  770MPD2    C511367   1.522   2.594  15.257 -0.1825  0.2428  0.3370
  770MPD2     H11368   1.805   2.374  15.149 -0.3574 -0.5403  0.4508
  770MPD2    H111369   1.659   2.715  15.358  0.5794 -2.6588  2.6453
  770MPD2    H211370   1.397   2.445  15.172  0.0923  0.9561 -1.0715
  770MPD2    H311371   1.445   2.662  15.290 -2.0122 -0.5743 -2.2633
  770MPD2     N11372   1.883   2.569  15.276 -0.4791 -0.3496 -0.5526
  770MPD2    H511373   1.941   2.488  15.257 -0.5519 -0.8662  1.4337
  770MPD2    N111374   1.574   2.263  15.102 -0.0373 -0.6859 -0.1800
  770MPD2    H711375   1.479   2.240  15.076 -0.7051  0.2153  1.4152
  771MPD2     C11376   3.416   0.722  13.786 -0.5558 -0.7821 -0.1181
  771MPD2    C111377   3.330   0.814  13.833 -0.2364 -0.8292  0.2551
  771MPD2    C211378   3.193   0.798  13.797 -0.3784  0.3073 -0.4928
  771MPD2    C311379   3.152   0.689  13.726 -0.2383  0.0555 -0.0220
  771MPD2    C411380   3.242   0.590  13.692  0.4184  0.0932 -0.3559
  771MPD2    C511381   3.372   0.604  13.728  0.0606 -0.1377 -0.5990
  771MPD2     H11382   3.124   0.872  13.836 -1.5115 -0.8471 -0.3316
  771MPD2    H111383   3.219   0.507  13.627  1.9993 -0.2510 -0.4899
  771MPD2    H211384   3.523   0.732  13.801 -0.6858 -3.0157  2.1518
  771MPD2    H311385   3.450   0.541  13.686  2.3233  1.5113  1.1190
  771MPD2     N11386   3.016   0.681  13.700  0.0203  0.0822  0.2641
  771MPD2    H511387   2.956   0.754  13.737  0.8008  1.8580 -1.9577
  771MPD2    N111388   3.365   0.929  13.915  0.2908 -0.0626  0.0523
  771MPD2    H711389   3.299   1.006  13.916 -0.4341 -0.7081  1.3770
  772MPD2     C11390   3.217   1.540  13.858  0.4620 -0.4872  0.2918
  772MPD2    C111391   3.174   1.466  13.965 -0.0135  0.2978 -0.2879
  772MPD2    C211392   3.037   1.465  13.993 -0.3872 -0.1530 -0.5348
  772MPD2    C311393   2.950   1.555  13.932  0.0680 -0.1612  0.2784
  772MPD2    C411394   2.993   1.633  13.824 -0.1281  0.3814  0.0808
  772MPD2    C511395   3.129   1.623  13.787 -0.8858  0.4756 -0.0617
  772MPD2     H11396   3.003   1.391  14.064 -0.0553  0.9310  0.7625
  772MPD2    H111397   2.933   1.713  13.781  0.1955 -0.6667 -2.3295
  772MPD2    H211398   3.318   1.536  13.820  1.2580  2.5121  2.1243
  772MPD2    H311399   3.174   1.682  13.709  0.4270  0.5696  0.7674
  772MPD2     N11400   2.816   1.552  13.959  0.2347 -0.0311 -0.1433
  772MPD2    H511401   2.754   1.603  13.897  1.3125 -0.6045 -1.6894
  772MPD2    N111402   3.257   1.391  14.045 -0.1842 -0.2374 -0.2734
  772MPD2    H711403   3.220   1.322  14.111 -3.7295 -0.6090 -2.6909
  773MPD2     C11404   2.218   2.764   0.565 -0.3681 -0.7379  0.2562
  773MPD2    C111405   2.231   2.669   0.463  0.0755  0.2762  0.2911
  773MPD2    C211406   2.337   2.582   0.475  0.4537 -0.1914 -0.4253
  773MPD2    C311407   2.435   2.591   0.576 -0.2246  0.5672 -0.2300
  773MPD2    C411408   2.406   2.679   0.682  0.3718  0.2155  0.0561
  773MPD2    C511409   2.301   2.763   0.673  0.0132 -1.0423 -0.0382
  773MPD2     H11410   2.355   2.509   0.397 -2.2697  0.5152 -1.6847
  773MPD2    H111411   2.476   2.701   0.761  0.3162 -0.2306  0.2288
  773MPD2    H211412   2.147   2.845   0.555 -0.0820 -0.7761 -2.0096
  773MPD2    H311413   2.301   2.833   0.756 -2.3378 -2.9086  1.5183
  773MPD2     N11414   2.546   2.501   0.561 -0.1985 -0.1095 -0.2411
  773MPD2    H511415   2.545   2.433   0.485  0.7432  2.5029 -2.5957
  773MPD2    N111416   2.150   2.671   0.346 -0.1596 -0.2101 -0.8966
  773MPD2    H711417   2.171   2.608   0.269 -0.0271 -3.1996  1.5618
  774MPD2     C11418   1.115   1.492  13.406 -0.1992  0.7128 -0.0464
  774MPD2    C111419   1.235   1.526  13.448 -0.3932 -0.0127 -1.4292
  774MPD2    C211420   1.305   1.631  13.381  0.5197 -0.2505  0.4930
  774MPD2    C311421   1.248   1.700  13.270  0.1695 -0.8222 -0.5410
  774MPD2    C411422   1.118   1.664  13.238 -0.6843  0.1026  0.3133
  774MPD2    C511423   1.058   1.556  13.297 -0.0230  0.8269  0.2465
  774MPD2     H11424   1.400   1.667  13.419  1.5653  0.2837 -2.6184
  774MPD2    H111425   1.057   1.714  13.164  0.0145 -1.0429 -1.0310
  774MPD2    H211426   1.045   1.424  13.453  0.6058 -0.2716 -0.2777
  774MPD2    H311427   0.953   1.540  13.277 -0.2118  2.0461  0.2188
  774MPD2     N11428   1.312   1.813  13.211  0.3872  0.0005 -0.5715
  774MPD2    H511429   1.382   1.860  13.268  0.3609 -1.9977  1.1121
  774MPD2    N111430   1.303   1.476  13.560 -0.2670  0.4695 -0.1476
  774MPD2    H711431   1.389   1.526  13.581 -1.2381  2.3557 -0.6218
  775MPD2     C11432   2.936   3.193  15.966  0.0752 -0.1480 -0.1087
  775MPD2    C111433   2.908   3.311  16.037 -0.1322 -0.2498 -0.2032
  775MPD2    C211434   2.986   3.426  16.024  0.1973 -0.0155  0.5678
  775MPD2    C311435   3.103   3.406  15.948 -0.4075 -0.1625 -0.0360
  775MPD2    C411436   3.127   3.291  15.873 -0.2914 -0.0301  0.1338
  775MPD2    C511437   3.035   3.189  15.876  0.2696  0.2363 -0.1472
  775MPD2     H11438   2.961   3.519  16.075  0.0859  0.7140 -0.8192
  775MPD2    H111439   3.218   3.276  15.816  0.6781  1.7777  1.1950
  775MPD2    H211440   2.864   3.113  15.978 -0.9649  0.7672 -0.1640
  775MPD2    H311441   3.043   3.095  15.823  3.7583 -0.3400  1.3705
  775MPD2     N11442   3.201   3.505  15.930  0.5961 -0.7886  0.2222
  775MPD2    H511443   3.269   3.471  15.863 -1.8020 -0.2192 -2.4955
  775MPD2    N111444   2.797   3.297  16.127 -0.2683  0.1524  0.2000
  775MPD2    H711445   2.744   3.212  16.111 -0.8552  0.1264  2.3020
  776MPD2     C11446   2.513   2.831  12.107  0.2649  0.0400 -0.2808
  776MPD2    C111447   2.394   2.866  12.044  0.1895  0.4757 -0.1007
  776MPD2    C211448   2.371   3.000  12.017  0.6057  0.6121  0.2046
  776MPD2    C311449   2.471   3.097  12.039 -0.0220 -0.7708  0.5432
  776MPD2    C411450   2.594   3.057  12.076 -0.1592 -0.0924 -0.0230
  776MPD2    C511451   2.612   2.928  12.120 -0.2898 -0.1752 -0.4023
  776MPD2     H11452   2.278   3.039  11.978  0.4295 -1.1875 -1.1419
  776MPD2    H111453   2.681   3.121  12.089 -0.1982  0.0075 -0.2537
  776MPD2    H211454   2.527   2.730  12.141 -1.9261  0.5869  2.2374
  776MPD2    H311455   2.711   2.889  12.143  0.6852  1.7693 -1.2823
  776MPD2     N11456   2.454   3.231  12.007  0.7394 -0.0500 -0.8171
  776MPD2    H511457   2.541   3.283  12.008  0.9148 -0.3811  0.6949
  776MPD2    N111458   2.299   2.763  12.010  0.1068  0.1314 -0.2364
  776MPD2    H711459   2.299   2.674  12.059  1.2297  0.4700  0.3800
  777MPD2     C11460   2.485   0.809   0.929 -0.2735 -0.8805  0.9310
  777MPD2    C111461   2.373   0.876   0.970  0.3963  0.3035  0.2499
  777MPD2    C211462   2.247   0.842   0.930 -0.3417  0.7822  0.1183
  777MPD2    C311463   2.231   0.750   0.826  0.3644 -0.1588  0.3036
  777MPD2    C411464   2.343   0.688   0.774 -0.2942 -0.3440 -0.0351
  777MPD2    C511465   2.463   0.727   0.828 -0.4144  0.4471  0.2502
  777MPD2     H11466   2.158   0.887   0.972 -1.1090  0.3366 -1.0460
  777MPD2    H111467   2.339   0.613   0.697  1.7949  1.2350 -1.6983
  777MPD2    H211468   2.587   0.834   0.952 -0.6318  1.0758  0.3690
  777MPD2    H311469   2.551   0.677   0.789 -1.8284 -2.4474  0.8217
  777MPD2     N11470   2.100   0.719   0.786 -0.1088  0.0521 -0.0829
  777MPD2    H511471   2.031   0.754   0.851 -1.6166 -0.2038 -1.5467
  777MPD2    N111472   2.391   0.956   1.087 -0.0898 -0.9398 -0.5239
  777MPD2    H711473   2.487   0.961   1.119 -0.0224 -0.1633 -0.8689
  778MPD2     C11474   3.352   1.421  15.399 -0.2349  0.1036  0.1222
  778MPD2    C111475   3.254   1.378  15.311  0.4023  0.5379 -0.0554
  778MPD2    C211476   3.266   1.393  15.180  0.4939  0.1520 -0.1842
  778MPD2    C311477   3.377   1.451  15.123 -0.3424  0.6133 -0.6001
  778MPD2    C411478   3.479   1.492  15.212 -0.3726 -0.5522  0.4343
  778MPD2    C511479   3.454   1.485  15.350  0.8686 -0.1182  0.1091
  778MPD2     H11480   3.179   1.369  15.119  0.6714  1.3577 -0.9271
  778MPD2    H111481   3.570   1.543  15.182 -0.2623 -1.1446 -0.2282
  778MPD2    H211482   3.339   1.402  15.505 -1.7202 -1.4150 -0.3094
  778MPD2    H311483   3.529   1.512  15.424  2.1478 -0.8819 -0.9124
  778MPD2     N11484   3.388   1.457  14.991 -0.3736  0.1213 -0.1135
  778MPD2    H511485   3.309   1.421  14.938 -0.9418 -1.6988  2.0035
  778MPD2    N111486   3.150   1.293  15.352 -0.6763  0.1632  0.6552
  778MPD2    H711487   3.090   1.245  15.286 -1.0291  0.9844  0.3772
  779MPD2     C11488   2.570   4.602  14.468  0.4594 -0.0664  0.1476
  779MPD2    C111489   2.709   4.608  14.478  0.1723  0.4382 -0.2988
  779MPD2    C211490   2.781   4.704  14.413  0.3129  0.0877 -0.6328
  779MPD2    C311491   2.711   0.069  14.333 -0.4703  0.3441 -0.0693
  779MPD2    C411492   2.576   0.061  14.323  0.4452  0.6123  0.2214
  779MPD2    C511493   2.503   4.695  14.396 -0.3352  0.2055  0.0618
  779MPD2     H11494   2.884   0.010  14.431  0.5959 -0.6294 -1.0981
  779MPD2    H111495   2.513   0.129  14.267  0.8145  0.7697 -0.0018
  779MPD2    H211496   2.517   4.531  14.530 -0.5539 -0.5899 -1.3492
  779MPD2    H311497   2.394   4.701  14.398 -0.3499  0.5053 -1.5074
  779MPD2     N11498   2.787   0.173  14.272 -0.3246 -0.0147 -0.1908
  779MPD2    H511499   2.886   0.160  14.290  0.4815  2.5782 -2.6142
  779MPD2    N111500   2.789   4.513  14.543  0.4002 -0.3518  0.2635
  779MPD2    H711501   2.887   4.534  14.555  0.2230  1.3526 -1.2941
  780MPD2     C11502   2.515   4.161   1.293 -0.8316  0.6949 -0.0906
  780MPD2    C111503   2.453   4.152   1.174 -0.0294  0.0096  0.5526
  780MPD2    C211504   2.526   4.176   1.055 -0.2142 -0.2172  0.1139
  780MPD2    C311505   2.661   4.203   1.059 -1.0028 -0.4039  0.0590
  780MPD2    C411506   2.722   4.212   1.181 -0.4878  0.2622  0.3237
  780MPD2    C511507   2.652   4.193   1.298 -0.1001  0.2995  0.6160
  780MPD2     H11508   2.476   4.167   0.959 -0.6093  3.5358 -0.0275
  780MPD2    H111509   2.830   4.217   1.193 -0.5558 -0.4117  1.2198
  780MPD2    H211510   2.458   4.156   1.386 -1.3536  0.0794 -0.4380
  780MPD2    H311511   2.702   4.201   1.394  0.2020 -2.0716  0.6593
  780MPD2     N11512   2.731   4.233   0.938 -0.6615 -0.1832  0.2856
  780MPD2    H511513   2.669   4.224   0.858 -0.2445 -1.7156  0.1447
  780MPD2    N111514   2.311   4.130   1.169 -0.1296 -0.4032  0.0891
  780MPD2    H711515   2.260   4.109   1.255 -1.2691  0.3611 -0.4007
  781MPD2     C11516   4.367   1.486  11.828 -0.5066 -0.2676  0.0564
  781MPD2    C111517   4.351   1.373  11.901 -0.4783  0.0338 -0.5885
  781MPD2    C211518   4.363   1.248  11.834 -0.9779 -0.1280  0.0319
  781MPD2    C311519   4.394   1.242  11.697  0.2872  0.1613 -0.1099
  781MPD2    C411520   4.398   1.365  11.625  0.7209 -0.5746  0.1771
  781MPD2    C511521   4.387   1.485  11.694  1.0842 -0.6587 -1.1428
  781MPD2     H11522   4.355   1.158  11.894  1.3031 -0.1440  0.3362
  781MPD2    H111523   4.411   1.369  11.518 -0.4962 -0.5023  0.0294
  781MPD2    H211524   4.360   1.583  11.876 -1.9946  0.1443 -0.9971
  781MPD2    H311525   4.395   1.580  11.642 -0.2525  0.3971  0.5682
  781MPD2     N11526   4.417   1.127  11.626  0.2375 -0.8059  0.8943
  781MPD2    H511527   4.446   1.152  11.532  1.4067  0.1206  1.5000
  781MPD2    N111528   4.319   1.386  12.043 -0.4240 -0.4923 -0.1796
  781MPD2    H711529   4.317   1.480  12.082  1.4663 -1.7091  2.8480
  782MPD2     C11530   2.779   2.828  10.659 -0.3312 -0.2785  0.3706
  782MPD2    C111531   2.815   2.692  10.690  0.4889 -0.0277 -0.3922
  782MPD2    C211532   2.861   2.662  10.814  0.0261  0.2331 -0.3292
  782MPD2    C311533   2.872   2.753  10.912  0.2951 -0.1434  0.4325
  782MPD2    C411534   2.847   2.885  10.883  0.2412  0.1607 -0.2717
  782MPD2    C511535   2.801   2.919  10.756 -0.4643  0.3383 -0.2430
  782MPD2     H11536   2.884   2.560  10.840 -0.1518  0.1526 -0.4809
  782MPD2    H111537   2.856   2.968  10.952 -0.4637 -0.3260  0.4074
  782MPD2    H211538   2.776   2.859  10.555 -1.3733  1.5539  0.9516
  782MPD2    H311539   2.801   3.024  10.731  0.3085  0.4433  0.2105
  782MPD2     N11540   2.917   2.702  11.033  0.2820 -0.3372  0.5718
  782MPD2    H511541   2.939   2.603  11.046 -1.5297 -0.9777 -1.2087
  782MPD2    N111542   2.808   2.597  10.582 -0.0679 -0.5325  0.3369
  782MPD2    H711543   2.835   2.627  10.489  0.1510  1.4646  1.0523
  783MPD2     C11544   2.125   1.853  10.524  0.6517 -0.3785  0.5461
  783MPD2    C111545   2.156   1.955  10.610  0.1236  0.3353 -0.4368
  783MPD2    C211546   2.268   2.028  10.581  0.0091  0.7258 -0.3623
  783MPD2    C311547   2.354   2.002  10.474  0.0149  0.6443 -0.9299
  783MPD2    C411548   2.321   1.905  10.377 -0.0532 -0.5988 -0.4213
  783MPD2    C511549   2.207   1.832  10.408  0.2109  0.2306 -0.3427
  783MPD2     H11550   2.295   2.113  10.642  0.8012 -0.7548  1.3331
  783MPD2    H111551   2.371   1.892  10.282 -0.1029 -1.3070 -0.3480
  783MPD2    H211552   2.050   1.778  10.548  0.1129 -0.8096 -2.4806
  783MPD2    H311553   2.186   1.753  10.337  1.9913 -0.1500 -0.4479
  783MPD2     N11554   2.462   2.098  10.469 -0.1344 -0.0603  0.3343
  783MPD2    H511555   2.468   2.156  10.552  0.0322  1.5597 -0.8152
  783MPD2    N111556   2.079   1.976  10.721  0.8286  0.1021 -0.6718
  783MPD2    H711557   2.001   1.912  10.733  0.0960  1.5465  2.1039
  784MPD2     C11558   0.381   3.501   0.818  0.0870 -0.1824  0.8895
  784MPD2    C111559   0.274   3.419   0.851  0.3156  0.2807 -0.5538
  784MPD2    C211560   0.155   3.434   0.790 -0.5673  0.6248  0.2270
  784MPD2    C311561   0.129   3.544   0.708 -0.4208 -0.1811 -0.2526
  784MPD2    C411562   0.238   3.634   0.682 -0.1605 -0.6130 -1.0693
  784MPD2    C511563   0.362   3.603   0.736 -0.1590  0.6810  0.6217
  784MPD2     H11564   0.074   3.367   0.816 -1.6246  1.3082 -1.3108
  784MPD2    H111565   0.223   3.724   0.625  0.3420  1.9723  2.8439
  784MPD2    H211566   0.479   3.499   0.864  0.2162  1.4359  0.7145
  784MPD2    H311567   0.446   3.671   0.723  1.3628 -1.4529 -0.7339
  784MPD2     N11568   0.005   3.582   0.649  0.1654 -0.1223  0.0309
  784MPD2    H511569   0.003   3.666   0.590 -0.4371  0.6545  1.1561
  784MPD2    N111570   0.284   3.323   0.946 -0.0443 -0.4799  0.1138
  784MPD2    H711571   0.203   3.263   0.953 -1.2787  1.0332 -1.0344
  785MPD2     C11572   0.410   0.117  10.583 -0.4907 -0.2258 -0.6517
  785MPD2    C111573   0.515   0.203  10.571 -0.4876 -0.1969 -0.0765
  785MPD2    C211574   0.506   0.322  10.634  0.4428 -0.5381 -0.1843
  785MPD2    C311575   0.388   0.360  10.691 -0.5746  0.1913  0.0072
  785MPD2    C411576   0.288   0.271  10.705 -0.0478 -0.1442  0.1695
  785MPD2    C511577   0.298   0.153  10.646 -0.6121 -0.0003  0.2671
  785MPD2     H11578   0.579   0.398  10.612 -0.9082  0.6715 -0.4865
  785MPD2    H111579   0.193   0.298  10.751  0.8425 -0.2003  2.0207
  785MPD2    H211580   0.414   0.028  10.521  0.9463 -0.1395 -0.6881
  785MPD2    H311581   0.217   0.081  10.656  0.8716 -1.6373  0.5342
  785MPD2     N11582   0.392   0.484  10.746  0.3772 -0.4184 -0.9685
  785MPD2    H511583   0.473   0.540  10.722  0.0613  1.5445  2.4010
  785MPD2    N111584   0.628   0.189  10.478  0.1008  0.5775  0.0111
  785MPD2    H711585   0.693   0.267  10.480  2.9909 -1.8623  0.7467
  786MPD2     C11586   3.461   4.137  14.886  0.5516  0.2328 -0.0304
  786MPD2    C111587   3.527   4.024  14.903 -0.7290  0.3298 -0.1050
  786MPD2    C211588   3.602   4.005  15.016  0.6653  0.1600  0.1894
  786MPD2    C311589   3.596   4.097  15.116 -0.2040  0.0376  0.1424
  786MPD2    C411590   3.520   4.205  15.100 -0.1142  0.4836  0.7585
  786MPD2    C511591   3.462   4.240  14.981  0.8418 -0.5319  0.1849
  786MPD2     H11592   3.652   3.909  15.024  1.0484  0.2420 -1.2948
  786MPD2    H111593   3.494   4.269  15.183 -0.9126 -0.6012  1.3517
  786MPD2    H211594   3.409   4.164  14.794 -0.0747  2.2170  0.9081
  786MPD2    H311595   3.412   4.336  14.974  0.4520 -0.6449  1.4991
  786MPD2     N11596   3.656   4.079  15.241 -0.0719 -0.1266 -0.1156
  786MPD2    H511597   3.653   4.154  15.309  2.7673 -0.7577  0.7026
  786MPD2    N111598   3.535   3.916  14.809  0.7915  0.5299  0.8994
  786MPD2    H711599   3.609   3.850  14.831  0.0733 -0.2765  0.8801
  787MPD2     C11600   3.611   3.279  14.936  0.2094  0.6062  0.5549
  787MPD2    C111601   3.709   3.366  14.886  0.2062  0.4921  0.9518
  787MPD2    C211602   3.836   3.347  14.927  0.7460  0.6092  0.2573
  787MPD2    C311603   3.873   3.251  15.024  0.3361  0.1859 -0.2388
  787MPD2    C411604   3.772   3.168  15.069 -0.1370 -0.5823 -0.3515
  787MPD2    C511605   3.640   3.179  15.021  0.5385  0.0334 -0.0738
  787MPD2     H11606   3.911   3.415  14.891  0.2297  0.1332 -1.6999
  787MPD2    H111607   3.791   3.091  15.143  1.0565  1.2532  1.2718
  787MPD2    H211608   3.505   3.286  14.919  0.2265 -1.5875 -0.5811
  787MPD2    H311609   3.562   3.127  15.075  0.6582  0.5294  0.5750
  787MPD2     N11610   4.009   3.224  15.059 -0.7702 -0.0988  0.6235
  787MPD2    H511611   4.071   3.287  15.011 -2.0121  0.3600 -0.3779
  787MPD2    N111612   3.676   3.456  14.783 -0.0393 -0.7834  0.0382
  787MPD2    H711613   3.738   3.536  14.784  0.1688 -0.9523  1.0143
  788MPD2     C11614   0.670   1.612   1.281  0.5881  0.1889  0.0410
  788MPD2    C111615   0.578   1.600   1.179 -0.1203  0.0932  0.2704
  788MPD2    C211616   0.534   1.711   1.116 -0.2433 -0.0285 -0.2406
  788MPD2    C311617   0.585   1.837   1.142 -0.0230  0.8790 -0.4626
  788MPD2    C411618   0.668   1.849   1.249 -0.4761 -0.4835  0.0081
  788MPD2    C511619   0.715   1.740   1.314  0.4426  0.1894 -0.7362
  788MPD2     H11620   0.462   1.708   1.035  1.1303  0.4354 -1.4672
  788MPD2    H111621   0.702   1.949   1.274 -0.7476 -0.3321 -0.2184
  788MPD2    H211622   0.705   1.527   1.338 -1.3458 -0.4317  0.2980
  788MPD2    H311623   0.793   1.760   1.387 -0.4436  0.1250  0.2326
  788MPD2     N11624   0.554   1.951   1.066 -0.4800  0.1938  0.4672
  788MPD2    H511625   0.617   2.030   1.080  0.7765 -0.9054  1.0861
  788MPD2    N111626   0.519   1.479   1.139 -0.4279  0.2138  0.6529
  788MPD2    H711627   0.448   1.477   1.067  0.1816  2.0081  0.0052
  789MPD2     C11628   1.437   2.196  16.276 -0.1986 -0.2274  0.3950
  789MPD2    C111629   1.374   2.088  16.339 -0.1406 -0.3108  0.2360
  789MPD2    C211630   1.248   2.100  16.393  0.0447 -0.1325 -0.3337
  789MPD2    C311631   1.170   2.212  16.369 -0.0289 -0.0877 -0.3214
  789MPD2    C411632   1.223   2.313  16.294 -0.1850 -0.2722 -0.1754
  789MPD2    C511633   1.352   2.304  16.239 -0.9208  0.2835  0.0646
  789MPD2     H11634   1.199   2.017  16.442 -1.2257  0.3641 -0.7553
  789MPD2    H111635   1.173   2.406  16.273 -1.1616 -0.9253 -0.7281
  789MPD2    H211636   1.534   2.196  16.228 -1.9362  0.0298 -3.1034
  789MPD2    H311637   1.400   2.380  16.179 -1.2820 -0.2429 -0.9005
  789MPD2     N11638   1.042   2.223  16.421  0.2783 -0.0352 -0.7724
  789MPD2    H511639   0.989   2.293  16.370  0.4876 -1.5414 -3.0175
  789MPD2    N111640   1.436   1.962  16.348 -0.4660  0.3632 -0.0894
  789MPD2    H711641   1.387   1.900  16.412 -1.6181  0.8306 -0.5152
  790MPD2     C11642   1.910   3.573  13.640  0.8221  0.2234 -0.6673
  790MPD2    C111643   2.018   3.503  13.679 -0.3960  0.5814 -0.2182
  790MPD2    C211644   2.050   3.390  13.607  0.1274  0.3297 -0.3625
  790MPD2    C311645   1.972   3.347  13.500 -0.2854 -0.5221  0.4222
  790MPD2    C411646   1.863   3.423  13.454 -0.2599 -0.0654 -0.0733
  790MPD2    C511647   1.831   3.534  13.530  0.2900 -0.8579  0.0805
  790MPD2     H11648   2.143   3.338  13.628 -1.1420 -0.6519  2.7731
  790MPD2    H111649   1.790   3.397  13.379  0.9035  3.2092 -2.3252
  790MPD2    H211650   1.881   3.663  13.693  0.3284 -0.1252 -0.3453
  790MPD2    H311651   1.746   3.596  13.505 -0.2812 -0.5565  2.8031
  790MPD2     N11652   2.002   3.230  13.427  0.1046  0.4504  0.7172
  790MPD2    H511653   1.942   3.224  13.346 -0.4762  1.1809  1.0962
  790MPD2    N111654   2.086   3.552  13.798  0.1462  0.3729  0.6894
  790MPD2    H711655   2.044   3.626  13.854  3.2716  1.7115  1.2392
  791MPD2     C11656   1.753   2.555  12.945  0.2566 -0.4877  0.6506
  791MPD2    C111657   1.740   2.678  13.005  0.6043 -0.6101 -0.7636
  791MPD2    C211658   1.625   2.748  12.984  0.1833  0.9001 -0.4581
  791MPD2    C311659   1.536   2.696  12.895 -0.0927  0.4814 -0.4561
  791MPD2    C411660   1.556   2.578  12.829  0.7054 -1.0085  0.1074
  791MPD2    C511661   1.663   2.507  12.850  0.1885  0.2840 -1.0674
  791MPD2     H11662   1.602   2.837  13.042  1.6815  1.9941 -1.5513
  791MPD2    H111663   1.488   2.529  12.761 -0.8504 -0.0423  0.9736
  791MPD2    H211664   1.843   2.496  12.963 -0.6581 -2.3268 -0.8216
  791MPD2    H311665   1.670   2.410  12.801  0.5276  0.0515 -0.5655
  791MPD2     N11666   1.423   2.765  12.884 -0.5691 -0.5564  0.3034
  791MPD2    H511667   1.409   2.836  12.955 -1.0063 -0.6366  0.3013
  791MPD2    N111668   1.838   2.730  13.091 -0.1544 -0.6558 -0.1250
  791MPD2    H711669   1.924   2.676  13.088  0.3255  0.1381 -0.6071
  792MPD2     C11670   2.479   3.093  11.626 -0.0440  0.6070 -0.0399
  792MPD2    C111671   2.460   3.126  11.497 -0.0731 -0.1950 -0.5226
  792MPD2    C211672   2.419   3.029  11.414  0.7725 -0.4283 -0.2662
  792MPD2    C311673   2.401   2.901  11.453  0.6436  0.1016 -0.0428
  792MPD2    C411674   2.421   2.869  11.584  0.7323 -0.0603 -0.4425
  792MPD2    C511675   2.462   2.965  11.669  0.8304  0.3774  0.6350
  792MPD2     H11676   2.387   3.046  11.312  0.1568  1.1170  0.1836
  792MPD2    H111677   2.411   2.767  11.618 -1.6970  0.7290  1.2187
  792MPD2    H211678   2.505   3.157  11.710  2.2912 -1.3607  0.7466
  792MPD2    H311679   2.489   2.945  11.772 -0.1662  2.3707  1.2989
  792MPD2     N11680   2.343   2.814  11.364 -0.4647  0.5159  0.1711
  792MPD2    H511681   2.319   2.724  11.406  1.0864 -0.4442 -0.9988
  792MPD2    N111682   2.464   3.258  11.455  0.4692 -0.4204  0.4210
  792MPD2    H711683   2.501   3.325  11.522 -2.2203 -1.6981  3.1937
  793MPD2     C11684   1.809   2.985  10.673 -0.1809 -0.5233 -0.1079
  793MPD2    C111685   1.903   2.896  10.616 -0.3749 -0.0331  0.1803
  793MPD2    C211686   1.951   2.793  10.694  0.1674 -0.6327 -0.1327
  793MPD2    C311687   1.919   2.786  10.830  0.3257  0.5637 -0.4280
  793MPD2    C411688   1.817   2.865  10.877  0.4378 -0.3455  0.3250
  793MPD2    C511689   1.758   2.961  10.798  0.0017 -0.3111  0.3016
  793MPD2     H11690   2.027   2.725  10.657 -0.5812 -0.0802 -2.7074
  793MPD2    H111691   1.784   2.860  10.981 -2.6583  0.1154 -0.6375
  793MPD2    H211692   1.776   3.074  10.620 -2.2908 -1.3932 -0.2338
  793MPD2    H311693   1.686   3.031  10.838  1.2714  1.1850 -0.0439
  793MPD2     N11694   1.970   2.677  10.914 -0.3269 -0.5773 -0.6499
  793MPD2    H511695   2.030   2.610  10.865  1.6753  0.6625  0.1031
  793MPD2    N111696   1.951   2.900  10.485  0.4923 -0.3740 -0.3571
  793MPD2    H711697   2.029   2.838  10.464 -2.2640 -3.1564 -2.3749
  794MPD2     C11698   1.729   3.274  17.574 -0.1038  1.3074  0.0549
  794MPD2    C111699   1.729   3.158  17.506  0.0689 -0.2565  0.3419
  794MPD2    C211700   1.692   3.148  17.371 -0.1928 -0.0932 -0.1506
  794MPD2    C311701   1.669   3.269  17.306 -0.1957 -0.2681  0.1253
  794MPD2    C411702   1.665   3.387  17.377 -0.1648  0.5168 -0.0928
  794MPD2    C511703   1.698   3.389  17.508  0.4929  0.1963 -0.1103
  794MPD2     H11704   1.683   3.060  17.308 -2.7808  0.9894 -1.2958
  794MPD2    H111705   1.633   3.483  17.337 -1.8018  0.0714  0.1297
  794MPD2    H211706   1.762   3.283  17.677  0.5029 -1.4338  0.0851
  794MPD2    H311707   1.699   3.490  17.547  1.1701  0.3454 -0.5131
  794MPD2     N11708   1.647   3.272  17.166  0.6772  0.3888 -0.1165
  794MPD2    H511709   1.633   3.370  17.145 -1.3295 -0.3452 -2.2294
  794MPD2    N111710   1.765   3.034  17.574 -0.2566 -0.3845  0.0764
  794MPD2    H711711   1.756   2.948  17.521 -0.3020 -0.4275  0.1548
  795MPD2     C11712   3.992   0.404  13.380  0.1224 -0.4649  0.1102
  795MPD2    C111713   3.963   0.268  13.368 -0.4610 -0.9544  0.2716
  795MPD2    C211714   4.070   0.183  13.364 -0.6409  0.5923 -0.1764
  795MPD2    C311715   4.200   0.218  13.382  0.0150  0.5308 -0.8763
  795MPD2    C411716   4.224   0.356  13.397  0.3807 -0.1599 -0.5156
  795MPD2    C511717   4.122   0.440  13.392 -0.8635  0.1688 -0.6127
  795MPD2     H11718   4.056   0.076  13.353 -1.7715  0.8034 -0.8296
  795MPD2    H111719   4.322   0.402  13.402  1.1820 -1.7381 -1.9411
  795MPD2    H211720   3.924   0.488  13.374 -0.1016 -0.9624 -3.8883
  795MPD2    H311721   4.141   0.546  13.404 -0.3560 -0.1932  1.6764
  795MPD2     N11722   4.303   0.123  13.389  0.1521 -0.3390 -0.3617
  795MPD2    H511723   4.279   0.025  13.373  0.8901 -0.6113  0.2301
  795MPD2    N111724   3.838   0.216  13.325  0.0649 -0.4057  0.5682
  795MPD2    H711725   3.824   0.115  13.327  1.0897 -0.5382  0.8621
  796MPD2     C11726   3.711   2.065  15.884 -0.3791 -0.1931  0.0287
  796MPD2    C111727   3.706   2.143  15.999 -0.2604  0.0491  0.3997
  796MPD2    C211728   3.672   2.281  15.980  0.2917 -0.4716 -0.0156
  796MPD2    C311729   3.661   2.339  15.852  0.6194 -0.0766 -0.8633
  796MPD2    C411730   3.700   2.259  15.742 -0.1728 -0.7080  0.4372
  796MPD2    C511731   3.722   2.124  15.756  0.4400 -0.2400  0.7548
  796MPD2     H11732   3.665   2.350  16.064  1.8883  1.0342 -1.1087
  796MPD2    H111733   3.704   2.289  15.638 -1.3262 -0.2431  0.5181
  796MPD2    H211734   3.723   1.958  15.896 -2.5469 -0.3286  1.1085
  796MPD2    H311735   3.731   2.060  15.670 -1.4936  0.4314  0.0623
  796MPD2     N11736   3.604   2.470  15.833  0.6620 -0.9244 -0.1572
  796MPD2    H511737   3.563   2.506  15.918  2.9264 -1.1003  1.0262
  796MPD2    N111738   3.731   2.083  16.121 -0.4065  0.0706 -0.5505
  796MPD2    H711739   3.745   1.982  16.125  0.5034  0.0622 -3.6399
  797MPD2     C11740   0.193   1.189  17.378 -0.3729  0.3727 -0.0227
  797MPD2    C111741   0.199   1.324  17.420  0.8802 -0.0363  0.1511
  797MPD2    C211742   0.107   1.416  17.378 -0.1250  0.5702  0.2955
  797MPD2    C311743   0.002   1.387  17.293 -0.3335  0.4328  0.2175
  797MPD2    C411744   0.005   1.255  17.240  0.0947 -0.4246  0.2545
  797MPD2    C511745   0.103   1.161  17.275  0.4453  0.0318 -0.7913
  797MPD2     H11746   0.115   1.518  17.415  4.6357  1.3666 -2.8541
  797MPD2    H111747   4.653   1.221  17.169  1.0245  2.4822 -2.0664
  797MPD2    H211748   0.254   1.111  17.422 -0.7482  0.3089  0.3850
  797MPD2    H311749   0.104   1.058  17.242 -1.3400 -0.0204 -0.6763
  797MPD2     N11750   4.637   1.496  17.260  0.3950  0.1448 -0.3333
  797MPD2    H511751   4.673   1.580  17.305 -0.9563  1.3210 -1.4505
  797MPD2    N111752   0.307   1.370  17.497 -0.6331 -0.5192 -0.3059
  797MPD2    H711753   0.312   1.471  17.510  2.0153 -0.6143 -0.4051
  798MPD2     C11754   0.273   2.046  17.294  0.3564 -0.3047 -0.4425
  798MPD2    C111755   0.191   1.948  17.345 -0.3216  0.1802 -0.1299
  798MPD2    C211756   0.254   1.854  17.430 -0.1932  0.4150  0.0450
  798MPD2    C311757   0.389   1.860  17.465 -0.3042  0.0407 -0.2085
  798MPD2    C411758   0.470   1.958  17.412 -0.4633 -0.9036  0.2566
  798MPD2    C511759   0.413   2.053  17.334  0.5117  0.0606 -0.1066
  798MPD2     H11760   0.201   1.764  17.462 -1.0231 -0.1165 -2.8430
  798MPD2    H111761   0.574   1.972  17.437  0.1844 -1.6316 -1.9949
  798MPD2    H211762   0.231   2.129  17.236 -1.7972 -1.3935 -0.4298
  798MPD2    H311763   0.468   2.143  17.311 -1.7897  1.2272 -1.1109
  798MPD2     N11764   0.435   1.755  17.539  0.0861  0.1968 -0.5648
  798MPD2    H511765   0.372   1.686  17.578 -0.3489 -0.1617 -1.9007
  798MPD2    N111766   0.062   1.939  17.298 -0.1833 -0.2170 -0.4012
  798MPD2    H711767   0.039   2.008  17.228 -2.1931 -0.4982 -0.0242
  799MPD2     C11768   3.806   2.845  14.829  0.4808  0.2262 -0.8007
  799MPD2    C111769   3.712   2.783  14.753  0.4863 -0.3419 -0.1508
  799MPD2    C211770   3.638   2.860  14.669  0.3520 -0.1977  0.8969
  799MPD2    C311771   3.664   3.000  14.650  0.9456 -0.1310 -0.6606
  799MPD2    C411772   3.772   3.049  14.721 -0.1439  0.2220 -0.7940
  799MPD2    C511773   3.839   2.978  14.814 -0.0712 -0.2404 -0.5670
  799MPD2     H11774   3.562   2.804  14.616 -0.3547  1.2618  0.3682
  799MPD2    H111775   3.809   3.151  14.720 -0.8651  0.4922  1.2911
  799MPD2    H211776   3.858   2.790  14.906 -0.4213 -0.6065 -0.7814
  799MPD2    H311777   3.926   3.019  14.865 -1.6080  2.7356 -0.3118
  799MPD2     N11778   3.597   3.079  14.560 -0.3019  1.2554  0.1158
  799MPD2    H511779   3.609   3.179  14.557 -0.0706  1.1549 -2.9166
  799MPD2    N111780   3.674   2.646  14.763 -0.1944  0.2885 -0.9381
  799MPD2    H711781   3.582   2.621  14.730 -0.7458 -0.0797  0.8676
  800MPD2     C11782   4.153   4.228  13.999 -0.0875 -0.1444 -0.4408
  800MPD2    C111783   4.163   4.310  13.886  0.5487 -0.0782 -0.2674
  800MPD2    C211784   4.080   4.295  13.774  0.7339 -0.6490  0.2864
  800MPD2    C311785   3.983   4.200  13.781 -0.4278  0.2553  0.6183
  800MPD2    C411786   3.969   4.128  13.898  0.7938  0.6645  0.0987
  800MPD2    C511787   4.047   4.136  14.008 -0.1836 -0.6485  0.2743
  800MPD2     H11788   4.090   4.354  13.683 -0.6803 -1.1622 -0.1886
  800MPD2    H111789   3.906   4.040  13.894  2.2489 -0.3274 -0.9420
  800MPD2    H211790   4.217   4.243  14.086  1.2829 -1.9467 -1.1353
  800MPD2    H311791   4.025   4.083  14.100 -0.8526  1.1419  1.1434
  800MPD2     N11792   3.901   4.179  13.664 -0.0060 -0.1525  0.6087
  800MPD2    H511793   3.943   4.217  13.579  0.3207 -0.4905  0.6167
  800MPD2    N111794   4.271   4.395  13.890 -0.0338  0.5980 -0.6830
  800MPD2    H711795   4.333   4.376  13.968 -1.2689 -0.2703  0.0700
  801MPD2     C11796   4.533   0.476  14.019 -0.3175 -0.1407 -1.0514
  801MPD2    C111797   4.488   0.354  14.075 -0.1389  0.2852 -0.2227
  801MPD2    C211798   4.468   0.342  14.208  0.1404  0.4267  0.2146
  801MPD2    C311799   4.501   0.440  14.294  0.4901  0.6539  1.1002
  801MPD2    C411800   4.547   0.561  14.248  0.0935 -0.4247 -1.0166
  801MPD2    C511801   4.551   0.579  14.108  0.3146 -0.2667  0.2472
  801MPD2     H11802   4.441   0.244  14.247  0.4125  0.7972  1.3173
  801MPD2    H111803   4.577   0.637  14.319 -1.2137  0.0494 -0.9585
  801MPD2    H211804   4.543   0.486  13.912  1.9303  0.5843 -0.7642
  801MPD2    H311805   4.581   0.674  14.066 -1.4095  0.4883  0.7579
  801MPD2     N11806   4.495   0.425  14.435  0.6348  0.5183  0.7333
  801MPD2    H511807   4.540   0.496  14.492 -1.3787 -0.8967  4.0280
  801MPD2    N111808   4.468   0.240  13.994 -0.4454 -0.5926 -0.2027
  801MPD2    H711809   4.431   0.155  14.036 -2.0118  0.4211  0.4847
  802MPD2     C11810   3.030   0.164  17.051  0.2298 -0.1135 -0.7556
  802MPD2    C111811   3.087   0.086  17.149 -0.3529 -0.5235 -0.3235
  802MPD2    C211812   3.148   4.696  17.106  0.5484 -0.6861 -0.5042
  802MPD2    C311813   3.167   4.654  16.973 -0.1911 -0.5506 -0.0211
  802MPD2    C411814   3.118   0.016  16.877 -0.5844  0.3598 -0.1964
  802MPD2    C511815   3.045   0.131  16.918  0.1866 -0.9523 -0.5597
  802MPD2     H11816   3.195   4.636  17.183  0.9056  0.5102  0.2063
  802MPD2    H111817   3.113   4.721  16.770 -0.7864  0.7543 -0.2552
  802MPD2    H211818   2.983   0.261  17.065 -0.3235 -0.5225  0.2054
  802MPD2    H311819   2.988   0.194  16.852  1.6117  0.9123  0.0023
  802MPD2     N11820   3.240   4.533  16.953 -0.9269  0.3446  0.0714
  802MPD2    H511821   3.237   4.473  17.035  0.1825  0.9339  0.5405
  802MPD2    N111822   3.083   0.114  17.287  0.2267  0.3596 -0.4185
  802MPD2    H711823   3.142   0.065  17.354  0.6686  0.0246 -1.0616
  803MPD2     C11824   0.700   3.461  12.172  0.3851  0.2093  0.5160
  803MPD2    C111825   0.613   3.493  12.275  0.3048 -0.7142 -0.3179
  803MPD2    C211826   0.513   3.405  12.310  0.7092  0.9613 -0.5233
  803MPD2    C311827   0.505   3.284  12.245  1.0931 -0.2935  0.2039
  803MPD2    C411828   0.584   3.256  12.136 -0.0426  0.9834  0.2494
  803MPD2    C511829   0.676   3.347  12.093  0.1248 -0.4871  0.6783
  803MPD2     H11830   0.455   3.427  12.399  1.1291 -0.3148  0.0683
  803MPD2    H111831   0.565   3.170  12.073 -2.1821  1.3305  0.4304
  803MPD2    H211832   0.781   3.530  12.152  0.1404  0.2128 -0.4589
  803MPD2    H311833   0.743   3.328  12.010  0.1470 -0.5570  0.7126
  803MPD2     N11834   0.406   3.187  12.281  0.4802  0.2197 -0.4266
  803MPD2    H511835   0.401   3.106  12.219 -0.5812  0.0989 -0.2014
  803MPD2    N111836   0.618   3.610  12.347  0.4898 -0.0597 -0.2625
  803MPD2    H711837   0.554   3.623  12.425 -0.1065 -0.7027 -0.6509
  804MPD2     C11838   4.143   0.082  16.973  0.6195 -0.0843  0.0056
  804MPD2    C111839   4.164   0.024  17.104 -0.4202  0.1448 -0.1765
  804MPD2    C211840   4.254   0.077  17.181 -0.0542 -0.5813 -0.8121
  804MPD2    C311841   4.322   0.192  17.153 -0.4790 -0.7805  1.0060
  804MPD2    C411842   4.309   0.256  17.027  0.1588  0.2576 -0.5491
  804MPD2    C511843   4.218   0.197  16.937 -0.1301 -0.3811 -1.0866
  804MPD2     H11844   4.271   0.029  17.277 -1.2117 -0.2704 -0.4414
  804MPD2    H111845   4.362   0.343  16.991  1.1321  0.1192  0.5423
  804MPD2    H211846   4.064   0.044  16.908  0.2480  0.3069  0.2298
  804MPD2    H311847   4.209   0.238  16.837  1.4975 -1.9224 -1.8700
  804MPD2     N11848   4.409   0.235  17.252 -0.2797  0.4721 -0.8534
  804MPD2    H511849   4.409   0.178  17.336  0.9790  0.5879 -0.7802
  804MPD2    N111850   4.091   4.636  17.154  0.2265  0.1338 -0.0285
  804MPD2    H711851   4.095   4.624  17.254 -1.9805  1.7891  0.2451
  805MPD2     C11852   3.179   3.256  15.403 -1.0036 -0.2238 -0.1693
  805MPD2    C111853   3.292   3.209  15.342  0.2433  0.0112 -0.0208
  805MPD2    C211854   3.414   3.233  15.397 -0.3493 -0.1764 -0.7393
  805MPD2    C311855   3.423   3.300  15.528 -0.7523  0.3826 -0.7093
  805MPD2    C411856   3.307   3.357  15.580 -0.6912 -0.3480  0.0215
  805MPD2    C511857   3.190   3.340  15.512  0.3804  0.5628  1.3451
  805MPD2     H11858   3.503   3.218  15.338  0.4307  0.6892  0.2161
  805MPD2    H111859   3.313   3.430  15.659 -1.7365 -1.2012  0.8823
  805MPD2    H211860   3.078   3.235  15.370 -0.8594 -0.5029 -0.4283
  805MPD2    H311861   3.095   3.370  15.554 -0.4210  1.0690 -0.8552
  805MPD2     N11862   3.550   3.307  15.595 -0.1711  0.2923  0.0758
  805MPD2    H511863   3.633   3.270  15.550 -1.2742 -1.1297 -0.7838
  805MPD2    N111864   3.281   3.144  15.216  0.3077  0.5508 -0.4839
  805MPD2    H711865   3.366   3.098  15.188 -1.0442 -2.3085  0.0765
  806MPD2     C11866   0.453   2.944   0.727  0.6560  0.1442  0.7329
  806MPD2    C111867   0.324   2.993   0.756 -0.7617 -0.4034 -0.6779
  806MPD2    C211868   0.279   3.102   0.685 -0.5295 -0.0461  0.3620
  806MPD2    C311869   0.361   3.155   0.580 -1.2413 -0.1669 -0.4591
  806MPD2    C411870   0.488   3.105   0.556  0.5384  0.2503  0.2250
  806MPD2    C511871   0.533   2.999   0.630  0.3934  0.5024  0.4160
  806MPD2     H11872   0.184   3.153   0.688 -0.6072 -0.3217  2.2212
  806MPD2    H111873   0.555   3.140   0.478 -1.6899  1.6847 -1.0286
  806MPD2    H211874   0.488   2.850   0.770  0.8764  0.0451  0.3359
  806MPD2    H311875   0.629   2.955   0.605 -0.0409  0.5825 -1.4223
  806MPD2     N11876   0.301   3.247   0.490 -0.4284  0.2212  0.3478
  806MPD2    H511877   0.200   3.242   0.481 -0.6595  3.3172  1.2325
  806MPD2    N111878   0.246   2.928   0.852  0.1445 -0.0732  0.7141
  806MPD2    H711879   0.285   2.843   0.891  2.5878 -0.4686 -2.5898
  807MPD2     C11880   4.157   2.956   1.225  0.3842  0.3359  0.0242
  807MPD2    C111881   4.251   2.883   1.296 -0.3784  0.4179 -0.3195
  807MPD2    C211882   4.215   2.804   1.403  0.1573  0.5352 -0.0536
  807MPD2    C311883   4.086   2.803   1.447  0.2022  0.7801  0.4254
  807MPD2    C411884   4.002   2.886   1.386 -0.1738  0.6864  0.3767
  807MPD2    C511885   4.031   2.954   1.273 -0.1326  0.1045  0.1443
  807MPD2     H11886   4.281   2.730   1.448 -3.2716 -1.4892  1.6234
  807MPD2    H111887   3.904   2.897   1.432  0.2737  3.5596  0.6595
  807MPD2    H211888   4.180   3.010   1.134  0.5685 -0.2678 -0.2806
  807MPD2    H311889   3.964   3.021   1.221  1.0042  1.5516  0.5087
  807MPD2     N11890   4.046   2.708   1.544  0.0884 -0.2334 -0.4048
  807MPD2    H511891   4.116   2.643   1.577 -0.6835 -0.5686  0.5481
  807MPD2    N111892   4.386   2.869   1.260 -0.3990 -0.1795  0.2106
  807MPD2    H711893   4.450   2.802   1.301 -1.0081 -0.4771  0.6703
  808MPD2     C11894   4.674   3.828  10.435  0.3734  0.4929  0.3484
  808MPD2    C111895   0.067   3.770  10.388 -0.4283  0.5257  0.2778
  808MPD2    C211896   0.161   3.848  10.335 -0.0897 -0.2893  0.1367
  808MPD2    C311897   0.149   3.987  10.328  0.2153  0.3661 -0.9441
  808MPD2    C411898   0.033   4.047  10.381  0.2890  0.3005  0.3097
  808MPD2    C511899   4.655   3.967  10.428 -0.4397  0.0897 -0.3338
  808MPD2     H11900   0.246   3.791  10.299  0.2795  0.9430 -0.9286
  808MPD2    H111901   0.018   4.154  10.375  1.9117  0.2583 -4.6048
  808MPD2    H211902   4.593   3.763  10.467 -1.6325  2.7501 -0.1660
  808MPD2    H311903   4.558   4.004  10.462  0.1793  0.5834  0.8787
  808MPD2     N11904   0.243   4.076  10.287 -0.2740  0.1231 -0.1342
  808MPD2    H511905   0.223   4.175  10.281 -2.1111 -0.1405  1.7047
  808MPD2    N111906   0.096   3.636  10.389 -0.2596 -0.2136 -0.4153
  808MPD2    H711907   0.180   3.606  10.341  0.7822  1.7267  0.2128
  809MPD2     C11908   0.126   4.653   9.722 -1.3863  0.2227  0.0193
  809MPD2    C111909   0.263   4.613   9.725 -0.2261  0.4356 -0.3662
  809MPD2    C211910   0.324   4.558   9.833  0.3575  0.5064  0.2889
  809MPD2    C311911   0.252   4.546   9.949  0.4090  0.6367  0.0495
  809MPD2    C411912   0.117   4.584   9.948 -0.7177  0.2233 -0.4299
  809MPD2    C511913   0.058   4.629   9.837 -0.5109 -0.3602 -0.2794
  809MPD2     H11914   0.429   4.532   9.832  0.2430  0.0956 -0.7221
  809MPD2    H111915   0.067   4.565  10.042 -0.5002 -1.0210 -0.5756
  809MPD2    H211916   0.067   4.698   9.644 -0.3016  2.0517  0.2307
  809MPD2    H311917   4.674   4.647   9.837 -0.2347  1.2791  0.3022
  809MPD2     N11918   0.307   4.501  10.073  0.4417 -0.1038  0.5204
  809MPD2    H511919   0.253   4.514  10.158 -3.0193 -1.6329 -1.4214
  809MPD2    N111920   0.339   4.613   9.605 -0.7403  0.4249 -0.4916
  809MPD2    H711921   0.430   4.571   9.615 -0.1027  2.5390  2.4908
  810MPD2     C11922   4.575   3.283  10.036 -0.4175 -0.3293  0.2256
  810MPD2    C111923   4.492   3.192  10.085  0.2770  0.3645 -0.6976
  810MPD2    C211924   4.428   3.218  10.206 -0.7999  0.1744 -0.4571
  810MPD2    C311925   4.430   3.346  10.254  0.1289  0.2626 -0.4409
  810MPD2    C411926   4.511   3.446  10.194  0.2085 -0.3009 -0.4152
  810MPD2    C511927   4.587   3.411  10.090  0.2142  0.3786 -0.1767
  810MPD2     H11928   4.374   3.134  10.248  0.6634 -0.1488  0.7516
  810MPD2    H111929   4.517   3.548  10.230  2.2790 -0.3280 -0.7194
  810MPD2    H211930   4.638   3.267   9.950 -0.4693 -0.2028  0.1630
  810MPD2    H311931   4.658   3.481  10.047 -0.7081  1.8050  0.5963
  810MPD2     N11932   4.352   3.392  10.366 -0.3495 -0.5795  0.0191
  810MPD2    H511933   4.366   3.483  10.408  2.2023  0.3338 -2.8729
  810MPD2    N111934   4.475   3.070  10.018  0.2363 -0.8005  0.2972
  810MPD2    H711935   4.523   3.056   9.930 -0.9730  0.9276 -0.6417
  811MPD2     C11936   3.787   2.774   9.564  0.0475  0.4805 -0.4571
  811MPD2    C111937   3.869   2.869   9.635  0.2621 -0.4113  0.5885
  811MPD2    C211938   3.803   2.993   9.678  0.0347 -0.3747  0.3827
  811MPD2    C311939   3.673   3.022   9.637  0.5246 -0.0618  0.0332
  811MPD2    C411940   3.604   2.927   9.556 -0.0276  0.0449  0.0953
  811MPD2    C511941   3.654   2.804   9.535  0.2868  0.1474  0.3751
  811MPD2     H11942   3.852   3.072   9.733  2.1838 -0.6768 -1.1093
  811MPD2    H111943   3.504   2.940   9.517 -0.6255 -1.2654  1.1748
  811MPD2    H211944   3.832   2.679   9.537 -0.5430 -0.1244  0.6872
  811MPD2    H311945   3.590   2.729   9.490 -0.0255  1.3669 -1.2201
  811MPD2     N11946   3.626   3.158   9.666  0.0213 -0.9148  0.8427
  811MPD2    H511947   3.693   3.215   9.717 -0.3078  0.4202 -0.2158
  811MPD2    N111948   3.991   2.819   9.695  0.5931 -0.2142  0.2714
  811MPD2    H711949   4.006   2.720   9.677 -1.7751 -0.3682 -0.7659
  812MPD2     C11950   2.798   3.081  12.600 -0.0358  0.2024 -1.0614
  812MPD2    C111951   2.913   3.035  12.544 -0.4236 -0.3009  0.3336
  812MPD2    C211952   2.982   2.933  12.607  1.2021  0.5708  0.7526
  812MPD2    C311953   2.926   2.856  12.709 -0.2647 -0.6292 -0.4636
  812MPD2    C411954   2.804   2.897  12.760 -0.3128 -0.2523 -0.9925
  812MPD2    C511955   2.746   3.013  12.708  0.5584  0.0654 -0.0745
  812MPD2     H11956   3.075   2.902  12.561  2.0437  1.0950  2.1161
  812MPD2    H111957   2.760   2.845  12.844  1.0968 -0.4700 -0.3898
  812MPD2    H211958   2.740   3.166  12.565 -0.3011  1.3174  2.0378
  812MPD2    H311959   2.652   3.049  12.747  0.9311 -0.1111  0.9716
  812MPD2     N11960   2.993   2.740  12.766  0.5870  0.3987  0.2079
  812MPD2    H511961   3.081   2.714  12.722 -0.8676 -0.9890 -1.8785
  812MPD2    N111962   2.965   3.116  12.449  0.5700 -0.1324 -0.2110
  812MPD2    H711963   2.915   3.203  12.439  0.6579 -0.3313 -2.3974
  813MPD2     C11964   2.374   0.739  13.213 -0.0543  0.2811  0.3870
  813MPD2    C111965   2.276   0.830  13.168 -0.1787 -0.0394 -0.3249
  813MPD2    C211966   2.153   0.784  13.123  0.7302 -0.2301 -0.0045
  813MPD2    C311967   2.134   0.650  13.114  0.1233 -0.1762 -0.4524
  813MPD2    C411968   2.233   0.563  13.146 -0.2477  0.3190 -0.3300
  813MPD2    C511969   2.346   0.605  13.205  0.3660 -1.3082 -0.4191
  813MPD2     H11970   2.076   0.851  13.087 -0.3053 -1.2499  0.2797
  813MPD2    H111971   2.226   0.455  13.142  1.7016  0.1427  1.3410
  813MPD2    H211972   2.468   0.776  13.252  0.0623  2.7688 -2.2589
  813MPD2    H311973   2.434   0.543  13.218 -0.7023 -2.3231  2.0244
  813MPD2     N11974   2.004   0.603  13.081 -0.9801 -0.0606 -0.3622
  813MPD2    H511975   1.936   0.677  13.065 -1.3362 -0.4656 -0.7456
  813MPD2    N111976   2.306   0.972  13.178 -0.1477 -0.1617  0.0624
  813MPD2    H711977   2.400   1.000  13.205 -0.6120  1.7815 -0.2802
  814MPD2     C11978   1.652   1.914  12.284  0.5716  0.0752  0.5277
  814MPD2    C111979   1.785   1.886  12.255  0.2121 -0.2644 -0.3056
  814MPD2    C211980   1.886   1.966  12.314 -0.2049  0.1162 -0.2037
  814MPD2    C311981   1.856   2.072  12.397  0.2500 -0.5895  0.2435
  814MPD2    C411982   1.724   2.097  12.424  0.1856  0.2155  0.4529
  814MPD2    C511983   1.625   2.023  12.364 -0.6985 -0.1253  0.4811
  814MPD2     H11984   1.988   1.950  12.283 -0.2663  0.7615 -0.7202
  814MPD2    H111985   1.705   2.181  12.491  1.4395  1.1640 -0.3796
  814MPD2    H211986   1.568   1.862  12.239  1.9182 -1.2197 -0.4842
  814MPD2    H311987   1.526   2.039  12.407 -1.0325 -0.5490 -0.1337
  814MPD2     N11988   1.956   2.156  12.450  0.0205  0.3123  0.4312
  814MPD2    H511989   1.921   2.240  12.495 -1.7699 -0.7984  1.1036
  814MPD2    N111990   1.821   1.780  12.169 -1.0076  0.3269  0.3524
  814MPD2    H711991   1.919   1.780  12.141 -0.6736 -0.6788  1.5294
  815MPD2     C11992   3.261   0.234  12.006 -0.1459 -0.4311  0.1713
  815MPD2    C111993   3.151   0.232  11.923 -0.8348 -0.2315 -0.1542
  815MPD2    C211994   3.034   0.301  11.954 -0.2231 -0.4808 -0.6906
  815MPD2    C311995   3.031   0.362  12.077 -0.4088 -0.9328 -0.3197
  815MPD2    C411996   3.143   0.370  12.157 -0.3267 -0.1096  0.2788
  815MPD2    C511997   3.254   0.307  12.119  0.0648 -0.9803 -0.0257
  815MPD2     H11998   2.941   0.295  11.898 -0.0805  0.8317 -1.0578
  815MPD2    H111999   3.142   0.428  12.249  0.8645 -0.9572  0.8198
  815MPD2    H212000   3.354   0.179  11.991  0.3765  0.5158 -0.0405
  815MPD2    H312001   3.338   0.321  12.186 -0.9890 -1.6189  1.4084
  815MPD2     N12002   2.904   0.406  12.124 -0.0064 -0.6645  0.8719
  815MPD2    H512003   2.835   0.371  12.058 -0.4811 -0.6762  1.3737
  815MPD2    N112004   3.159   0.149  11.807 -0.0494 -0.0234  0.5672
  815MPD2    H712005   3.229   0.075  11.802 -1.6500 -1.3477 -2.3777
  816MPD2     C12006   2.306   4.313  17.430 -0.3727  0.0677 -0.2346
  816MPD2    C112007   2.418   4.280  17.505 -0.2658  0.3235 -0.1784
  816MPD2    C212008   2.535   4.234  17.445  0.3808  0.5371  0.5292
  816MPD2    C312009   2.531   4.218  17.304 -0.0569  0.6091  0.0049
  816MPD2    C412010   2.414   4.243  17.235 -0.1915  0.2236  0.9275
  816MPD2    C512011   2.297   4.271  17.303  1.0207 -0.3102  0.5063
  816MPD2     H12012   2.626   4.227  17.503  0.7721  0.6872 -0.0732
  816MPD2    H112013   2.396   4.231  17.128  2.3621 -2.6547  0.8230
  816MPD2    H212014   2.212   4.354  17.464 -0.3860  2.6023 -3.2982
  816MPD2    H312015   2.200   4.278  17.255  1.5701  0.5927 -0.4781
  816MPD2     N12016   2.652   4.184  17.245  0.0858 -0.7785 -0.0711
  816MPD2    H512017   2.730   4.158  17.305  0.0861  0.4653  0.4655
  816MPD2    N112018   2.415   4.327  17.638  0.1497  0.1772  0.2015
  816MPD2    H712019   2.322   4.351  17.670 -0.3688 -0.5712 -0.7182
  817MPD2     C12020   2.909   0.616  10.057 -0.2302 -0.0767 -1.2972
  817MPD2    C112021   2.883   0.565   9.933 -0.3530 -0.6989 -0.0154
  817MPD2    C212022   2.810   0.637   9.838 -0.4832  0.3936  0.9955
  817MPD2    C312023   2.775   0.771   9.864  0.7075 -0.0669 -0.2372
  817MPD2    C412024   2.809   0.818   9.987 -0.1873  1.0195 -0.6986
  817MPD2    C512025   2.879   0.745  10.076  0.2553  0.1388 -0.1769
  817MPD2     H12026   2.761   0.590   9.754  1.6986  1.0808 -0.6712
  817MPD2    H112027   2.791   0.920  10.018 -1.0680  0.4455  0.6775
  817MPD2    H212028   2.961   0.560  10.134  0.7329 -0.1171 -1.9715
  817MPD2    H312029   2.875   0.781  10.178  1.1005  0.0295 -0.1046
  817MPD2     N12030   2.705   0.840   9.762 -0.2484 -0.1435  0.1841
  817MPD2    H512031   2.705   0.803   9.668  0.2884 -0.5542  0.3431
  817MPD2    N112032   2.909   0.434   9.892 -0.1136  0.2611 -0.1514
  817MPD2    H712033   2.910   0.410   9.793  0.5005  0.3235 -0.1593
  818MPD2     C12034   1.514   0.350  10.065  0.1256  0.2682  0.5365
  818MPD2    C112035   1.568   0.349  10.190 -0.0617  0.1389  0.6635
  818MPD2    C212036   1.664   0.251  10.219  0.1283  0.4355 -0.0540
  818MPD2    C312037   1.718   0.168  10.127 -0.1392  0.0570  0.5560
  818MPD2    C412038   1.661   0.162  10.004  0.5684  0.6864 -0.2799
  818MPD2    C512039   1.559   0.251   9.981  0.4501  0.0110  0.4507
  818MPD2     H12040   1.693   0.238  10.323  0.5889 -1.5619 -0.4467
  818MPD2    H112041   1.695   0.084   9.937 -0.7093 -0.7678  0.7669
  818MPD2    H212042   1.436   0.419  10.035  0.8460 -0.0918 -2.2267
  818MPD2    H312043   1.522   0.261   9.880 -1.1730  1.5024  1.2099
  818MPD2     N12044   1.822   0.079  10.161  0.3493 -0.3342 -0.4538
  818MPD2    H512045   1.830   4.717  10.106  2.0184 -0.7663  0.4590
  818MPD2    N112046   1.509   0.424  10.298  0.1233  0.2018  0.0821
  818MPD2    H712047   1.539   0.402  10.392  0.9735  0.1199 -0.2035
  819MPD2     C12048   4.249   2.677  15.280  0.7427  0.4705 -0.1396
  819MPD2    C112049   4.249   2.625  15.409  0.4499  0.5715  0.0660
  819MPD2    C212050   4.363   2.592  15.480  0.0109  0.4117 -0.0767
  819MPD2    C312051   4.486   2.615  15.419 -0.6534  0.4388 -0.3544
  819MPD2    C412052   4.488   2.662  15.291 -0.7359 -0.3240 -0.0934
  819MPD2    C512053   4.373   2.696  15.223  0.1397  0.2503 -0.8392
  819MPD2     H12054   4.362   2.549  15.579 -0.1227 -1.8912 -1.0840
  819MPD2    H112055   4.581   2.666  15.235 -0.8135 -0.2329 -0.2169
  819MPD2    H212056   4.155   2.693  15.230  1.0752 -0.8409 -1.1622
  819MPD2    H312057   4.386   2.719  15.118 -1.5403  1.7941 -0.7054
  819MPD2     N12058   4.612   2.577  15.475  0.1897 -0.0966  0.5895
  819MPD2    H512059   4.689   2.604  15.415 -0.0847  0.9473  0.6970
  819MPD2    N112060   4.119   2.585  15.446  0.0127 -0.3791  0.1080
  819MPD2    H712061   4.042   2.627  15.395  0.3859 -0.8348 -0.8267
  820MPD2     C12062   3.278   2.332  15.032  0.6175  0.3284  0.1629
  820MPD2    C112063   3.351   2.448  15.054 -0.1282 -0.5775  0.1631
  820MPD2    C212064   3.479   2.432  15.100  0.0221 -0.2037 -0.4610
  820MPD2    C312065   3.531   2.309  15.127  0.0758 -0.6714  0.2359
  820MPD2    C412066   3.461   2.190  15.101 -0.3518 -0.2099  0.0574
  820MPD2    C512067   3.339   2.213  15.038 -1.0457  0.1415 -0.0033
  820MPD2     H12068   3.548   2.514  15.115  1.1949 -0.9353 -1.8882
  820MPD2    H112069   3.496   2.088  15.114  2.7571  1.0685  1.5153
  820MPD2    H212070   3.179   2.349  14.989  0.0563  1.9608  2.0843
  820MPD2    H312071   3.292   2.122  15.002  0.2860 -0.0530 -1.2331
  820MPD2     N12072   3.658   2.287  15.189 -0.7173 -0.4523 -0.1577
  820MPD2    H512073   3.693   2.194  15.208  0.8152  0.3469  0.9424
  820MPD2    N112074   3.301   2.574  15.015 -0.3817 -0.6222 -0.1713
  820MPD2    H712075   3.210   2.573  14.969  0.2166  1.5680 -1.4159
  821MPD2     C12076   3.952   4.239  12.943 -0.1101 -0.0372  0.1709
  821MPD2    C112077   4.040   4.249  13.048  0.4549 -0.1996 -0.1135
  821MPD2    C212078   4.152   4.324  13.028 -0.1252  0.2858  0.1740
  821MPD2    C312079   4.187   4.383  12.909 -0.3023 -1.1050 -0.2013
  821MPD2    C412080   4.098   4.365  12.808 -0.1335  1.1656  0.2094
  821MPD2    C512081   3.978   4.298  12.825  0.2117 -0.1348 -0.1087
  821MPD2     H12082   4.224   4.314  13.108 -0.4397  1.0334  0.5404
  821MPD2    H112083   4.131   4.396  12.710  0.2407 -3.0991 -0.9865
  821MPD2    H212084   3.865   4.175  12.957 -0.3465  0.1474 -0.4483
  821MPD2    H312085   3.906   4.289  12.745 -0.8455  1.0539  0.7168
  821MPD2     N12086   4.302   4.458  12.885  0.0952 -0.6187  0.3120
  821MPD2    H512087   4.324   4.483  12.789 -1.7611  0.0263  0.0519
  821MPD2    N112088   4.013   4.195  13.175 -0.1269 -0.4860 -0.0782
  821MPD2    H712089   4.083   4.201  13.248 -0.7281  2.5525  0.2601
  822MPD2     C12090   0.196   4.224  15.743  0.0048  0.3647 -0.4176
  822MPD2    C112091   0.207   4.165  15.867  0.3465  0.4466 -0.4771
  822MPD2    C212092   0.139   4.209  15.983  0.5553 -0.1158 -0.4668
  822MPD2    C312093   0.074   4.333  15.977  0.8543 -0.0962 -0.3395
  822MPD2    C412094   0.059   4.397  15.852 -0.2547  0.2431  0.2811
  822MPD2    C512095   0.119   4.339  15.738  0.1563 -0.2693  0.3479
  822MPD2     H12096   0.143   4.154  16.076 -0.7565  0.5813  0.0126
  822MPD2    H112097   4.709   4.476  15.839  0.1760  0.3846 -1.2830
  822MPD2    H212098   0.238   4.194  15.648 -0.8447 -1.7299 -0.1366
  822MPD2    H312099   0.111   4.388  15.642 -1.0370  2.9196  2.1041
  822MPD2     N12100   0.010   4.384  16.094  0.3113  0.3084 -0.0688
  822MPD2    H512101   4.721   4.324  16.175 -0.0538 -0.2995 -0.5772
  822MPD2    N112102   0.284   4.048  15.893  0.1734 -0.4536  0.0828
  822MPD2    H712103   0.274   4.013  15.988 -2.5034  1.6560  0.5648
  823MPD2     C12104   4.324   4.386  16.823  0.2303 -0.5016 -1.0121
  823MPD2    C112105   4.402   4.337  16.728  0.3911 -0.4997  0.2512
  823MPD2    C212106   4.471   4.223  16.752  0.5504  0.7409  0.0226
  823MPD2    C312107   4.446   4.151  16.865  0.5732  0.3541 -0.0971
  823MPD2    C412108   4.350   4.188  16.957 -0.3527  0.4780 -0.1614
  823MPD2    C512109   4.287   4.310  16.935  0.3938  0.3670  0.4798
  823MPD2     H12110   4.531   4.178  16.673  0.2778  0.6531 -0.1342
  823MPD2    H112111   4.327   4.140  17.051 -2.6103 -0.1435 -1.0214
  823MPD2    H212112   4.269   4.478  16.808  0.4554 -0.2081 -0.0382
  823MPD2    H312113   4.214   4.351  17.003  1.4746  1.6505  0.8467
  823MPD2     N12114   4.516   4.039  16.900 -0.0820  0.1084  0.0653
  823MPD2    H512115   4.476   3.984  16.976 -1.4418 -0.8097 -1.3339
  823MPD2    N112116   4.425   4.422  16.623  0.2089 -0.4260 -0.1261
  823MPD2    H712117   4.407   4.521  16.632  1.2399 -0.0833 -1.8632
  824MPD2     C12118   0.641   3.274  15.753 -0.1243  0.3901 -0.2821
  824MPD2    C112119   0.733   3.360  15.807  0.5268  0.0535  0.8644
  824MPD2    C212120   0.857   3.315  15.839  0.5614 -0.0055  0.1515
  824MPD2    C312121   0.895   3.185  15.809 -0.3181  0.3169  0.7971
  824MPD2    C412122   0.798   3.095  15.760 -0.3287  0.7097  0.3456
  824MPD2    C512123   0.672   3.145  15.728  0.1046  0.2568  0.1611
  824MPD2     H12124   0.932   3.381  15.882  1.1458 -1.7527  1.8178
  824MPD2    H112125   0.801   2.992  15.727 -1.9145  0.6282  0.4833
  824MPD2    H212126   0.536   3.299  15.735 -0.0143 -0.1831 -1.7388
  824MPD2    H312127   0.602   3.074  15.685 -1.7324  0.5136  2.7508
  824MPD2     N12128   1.028   3.150  15.837 -0.7239 -0.3871 -0.8020
  824MPD2    H512129   1.093   3.225  15.862  0.5952 -2.1230  0.9946
  824MPD2    N112130   0.687   3.497  15.847 -0.0652  1.0604  0.0138
  824MPD2    H712131   0.757   3.549  15.899  0.4678 -0.5537  0.8966
  825MPD2     C12132   1.554   3.016  15.266  0.3812 -0.4282 -0.1700
  825MPD2    C112133   1.497   3.120  15.336  0.3871 -0.2564  0.2503
  825MPD2    C212134   1.455   3.238  15.270  0.0731  0.2690 -1.0715
  825MPD2    C312135   1.487   3.256  15.139 -0.6108 -0.1402 -0.4866
  825MPD2    C412136   1.547   3.155  15.065 -0.0177  0.8802 -0.4580
  825MPD2    C512137   1.566   3.030  15.125 -0.9443 -0.3017  0.0498
  825MPD2     H12138   1.402   3.315  15.325 -1.2914 -1.1289 -0.4368
  825MPD2    H112139   1.562   3.160  14.958  0.2299 -1.0766 -0.5122
  825MPD2    H212140   1.565   2.921  15.317  0.4851 -0.0973  0.4309
  825MPD2    H312141   1.588   2.942  15.066  0.8432 -0.3209  0.7404
  825MPD2     N12142   1.442   3.372  15.065 -0.0129  0.1496 -0.0164
  825MPD2    H512143   1.455   3.378  14.965  2.7050 -0.0719  0.3192
  825MPD2    N112144   1.473   3.104  15.473  0.4802 -0.3282 -0.2164
  825MPD2    H712145   1.491   3.011  15.509 -1.5264 -0.5082  0.3109
  826MPD2     C12146   1.822   3.379  13.968  0.2097 -0.8454  0.3701
  826MPD2    C112147   1.759   3.335  13.851  0.1077  0.1074  0.4198
  826MPD2    C212148   1.629   3.371  13.815 -0.1615  0.4619  0.7546
  826MPD2    C312149   1.562   3.461  13.889 -0.9657  0.5097  0.4167
  826MPD2    C412150   1.631   3.509  14.001  0.4651  0.7890 -0.2270
  826MPD2    C512151   1.754   3.476  14.042  0.0560 -0.0374  0.3131
  826MPD2     H12152   1.590   3.320  13.728  0.3547 -0.1939  0.9067
  826MPD2    H112153   1.584   3.593  14.052  3.3865  2.7201 -0.7268
  826MPD2    H212154   1.927   3.356  13.985  0.8319  1.2273 -0.6489
  826MPD2    H312155   1.797   3.529  14.125  1.9663  0.9559 -1.3206
  826MPD2     N12156   1.429   3.505  13.866 -0.7570 -0.7610  0.0658
  826MPD2    H512157   1.390   3.562  13.940  2.3331 -1.9184  2.6007
  826MPD2    N112158   1.825   3.227  13.790 -0.4676 -0.5202 -0.7536
  826MPD2    H712159   1.921   3.212  13.819 -0.8708  1.6087  1.6712
  827MPD2     C12160   1.828   4.227  10.415 -0.2447  0.0424  0.1748
  827MPD2    C112161   1.845   4.093  10.451 -0.4629  0.5570 -0.2815
  827MPD2    C212162   1.798   3.989  10.370 -0.2293 -0.5980  0.0488
  827MPD2    C312163   1.735   4.021  10.255  0.3450 -0.7195  0.2033
  827MPD2    C412164   1.709   4.154  10.220 -0.3504 -0.2637  0.4353
  827MPD2    C512165   1.758   4.254  10.301 -0.3079 -0.4045  0.1575
  827MPD2     H12166   1.812   3.885  10.395  2.4105  0.2054  1.9240
  827MPD2    H112167   1.662   4.184  10.127 -0.7133 -1.8589  0.1168
  827MPD2    H212168   1.867   4.311  10.472 -0.6464 -0.6628  1.4786
  827MPD2    H312169   1.730   4.358  10.287 -0.6207 -0.4429  0.4910
  827MPD2     N12170   1.691   3.910  10.180 -0.1383  0.4992  0.2313
  827MPD2    H512171   1.724   3.818  10.206  0.9175  0.0851 -2.6543
  827MPD2    N112172   1.911   4.075  10.577  0.2059  0.1629  0.5913
  827MPD2    H712173   1.957   4.155  10.620  0.7865 -0.2528  0.7428
  828MPD2     C12174   0.024   4.166  12.842 -0.0316  1.0602  0.0942
  828MPD2    C112175   0.040   4.207  12.709 -0.8944 -0.0420  0.2219
  828MPD2    C212176   0.157   4.254  12.665 -0.0086  0.1529 -1.1234
  828MPD2    C312177   0.270   4.246  12.752 -0.5406 -0.4020  0.4563
  828MPD2    C412178   0.249   4.202  12.881  0.7958 -0.2122  1.0575
  828MPD2    C512179   0.130   4.151  12.924  0.4009  0.9746  0.8344
  828MPD2     H12180   0.173   4.270  12.558 -0.3043  1.0059 -1.0345
  828MPD2    H112181   0.321   4.187  12.960  1.2202  0.6716  0.8340
  828MPD2    H212182   4.657   4.123  12.884  0.4924  2.8536  3.0606
  828MPD2    H312183   0.117   4.100  13.019 -0.2204  3.2301  1.9374
  828MPD2     N12184   0.403   4.284  12.710  0.3321 -0.2891  0.3754
  828MPD2    H512185   0.473   4.281  12.783  1.8422  1.3871 -1.0132
  828MPD2    N112186   4.655   4.218  12.618  0.2615  0.1592  0.0598
  828MPD2    H712187   4.685   4.215  12.521 -0.8170 -0.3756 -0.2499
  829MPD2     C12188   0.074   4.291  11.776  0.5626  0.1934 -0.0750
  829MPD2    C112189   4.663   4.315  11.773  0.5778 -0.2518 -0.1730
  829MPD2    C212190   4.588   4.309  11.892  0.3703 -0.1447 -0.3446
  829MPD2    C312191   4.649   4.272  12.013 -0.1575 -0.0987 -0.3849
  829MPD2    C412192   0.060   4.245  12.016  0.1164 -0.6752  0.1752
  829MPD2    C512193   0.129   4.257  11.897 -0.1208 -0.7158  0.3733
  829MPD2     H12194   4.480   4.322  11.890  0.6530  2.0818 -0.1503
  829MPD2    H112195   0.116   4.218  12.105  0.1190 -0.4536  0.2404
  829MPD2    H212196   0.140   4.289  11.691 -1.2798  1.3803 -1.5270
  829MPD2    H312197   0.234   4.231  11.902  0.8194  2.9673 -0.2669
  829MPD2     N12198   4.580   4.271  12.145 -0.0430 -0.5386  0.5523
  829MPD2    H512199   4.635   4.240  12.224 -0.0890  3.2292  2.0719
  829MPD2    N112200   4.610   4.331  11.645 -0.5537 -0.4594 -0.7636
  829MPD2    H712201   4.676   4.323  11.568 -0.9025 -0.7219 -1.0282
  830MPD2     C12202   0.357   2.344  15.125 -0.2189 -0.1757  0.8065
  830MPD2    C112203   0.385   2.445  15.216 -0.3282 -0.1243  0.6640
  830MPD2    C212204   0.446   2.563  15.174 -0.5422  0.4437  0.0132
  830MPD2    C312205   0.502   2.572  15.050  0.5102 -0.4283 -0.9007
  830MPD2    C412206   0.477   2.467  14.959 -0.9596  0.1659 -1.0937
  830MPD2    C512207   0.411   2.358  14.997 -0.0241 -0.6469 -0.5491
  830MPD2     H12208   0.453   2.649  15.240 -1.5015  0.0159  0.6796
  830MPD2    H112209   0.527   2.456  14.863  2.5103 -1.9994  0.9823
  830MPD2    H212210   0.315   2.250  15.161  0.6467  0.1520  2.6787
  830MPD2    H312211   0.407   2.275  14.927  0.3396 -1.8075  0.7974
  830MPD2     N12212   0.583   2.681  15.015  0.2615  0.1218 -0.3897
  830MPD2    H512213   0.630   2.669  14.926  0.6167 -1.5345  0.0145
  830MPD2    N112214   0.343   2.439  15.354 -0.7423  0.2757 -0.0571
  830MPD2    H712215   0.330   2.530  15.396 -0.6391  1.3605 -2.3898
  831MPD2     C12216   0.269   4.441  16.492 -0.1154  0.2867 -0.3425
  831MPD2    C112217   0.274   4.346  16.387  0.4813 -0.1997 -0.0071
  831MPD2    C212218   0.187   4.241  16.379 -0.2877  0.4995  0.3950
  831MPD2    C312219   0.095   4.215  16.479  0.2783 -0.2959 -0.0210
  831MPD2    C412220   0.099   4.292  16.594  0.6807  0.6876  0.0688
  831MPD2    C512221   0.191   4.394  16.598 -0.2714 -0.5384  0.9363
  831MPD2     H12222   0.186   4.180  16.289  0.2579  2.9477 -1.2707
  831MPD2    H112223   0.035   4.281  16.680  0.3866  0.0452 -0.2370
  831MPD2    H212224   0.333   4.528  16.494  0.6300 -0.2840  0.6123
  831MPD2    H312225   0.177   4.463  16.681 -0.3044  0.7388 -0.1270
  831MPD2     N12226   0.004   4.114  16.478 -0.3274  0.9439  0.4062
  831MPD2    H512227   4.661   4.106  16.555  1.2108  0.4496  1.6730
  831MPD2    N112228   0.371   4.375  16.287  0.1051 -0.0906 -0.3149
  831MPD2    H712229   0.427   4.459  16.298  1.8895 -1.5471  1.6326
  832MPD2     C12230   3.347   0.425  17.313 -0.2832  0.2449 -0.0020
  832MPD2    C112231   3.305   0.537  17.380 -0.6681  0.4779  0.1474
  832MPD2    C212232   3.200   0.609  17.326  0.3160  0.3219 -0.3190
  832MPD2    C312233   3.131   0.551  17.214 -0.3803 -0.0461 -0.2575
  832MPD2    C412234   3.179   0.445  17.154  0.5387  0.6054  0.1389
  832MPD2    C512235   3.293   0.382  17.196  0.5086  0.6756  0.4703
  832MPD2     H12236   3.152   0.682  17.390  1.3636  1.6792 -1.0654
  832MPD2    H112237   3.122   0.397  17.076 -0.1015  3.0178 -0.8687
  832MPD2    H212238   3.434   0.365  17.338  0.5756  1.5117  0.0683
  832MPD2    H312239   3.335   0.303  17.135  0.0052  1.2869 -0.6534
  832MPD2     N12240   3.001   0.593  17.179  0.1507 -0.5020  0.1893
  832MPD2    H512241   2.945   0.538  17.114 -0.6865 -0.9623  1.3083
  832MPD2    N112242   3.380   0.584  17.498  0.1274  0.7227  0.4547
  832MPD2    H712243   3.351   0.676  17.528 -0.9777  0.0243  1.5070
  833MPD2     C12244   0.657   1.751  12.321 -0.2219 -0.2282  0.7879
  833MPD2    C112245   0.697   1.865  12.264 -0.4523 -0.4615 -0.0230
  833MPD2    C212246   0.757   1.858  12.135  0.4744  0.0082 -0.6855
  833MPD2    C312247   0.783   1.738  12.068 -0.2989  0.0779 -0.4289
  833MPD2    C412248   0.756   1.619  12.145 -0.6980 -0.2261  0.6315
  833MPD2    C512249   0.694   1.629  12.264  0.1481  0.1467  0.0846
  833MPD2     H12250   0.769   1.950  12.080 -0.1230  0.4873 -0.0110
  833MPD2    H112251   0.764   1.520  12.101  1.5465  1.2811 -2.3375
  833MPD2    H212252   0.606   1.751  12.417 -2.0651  1.2414 -0.1842
  833MPD2    H312253   0.666   1.538  12.316  1.5357 -0.2031  0.2018
  833MPD2     N12254   0.807   1.717  11.930  0.0599  0.0105  0.0772
  833MPD2    H512255   0.791   1.623  11.895  0.6654 -0.2980  0.6303
  833MPD2    N112256   0.661   1.987  12.326  0.1957 -0.1992 -0.1619
  833MPD2    H712257   0.607   1.989  12.412 -0.1917 -2.8512 -0.3502
  834MPD2     C12258   0.378   1.170  11.710 -0.2976  0.5609  0.2219
  834MPD2    C112259   0.417   1.205  11.590  0.7478 -0.2437  0.5076
  834MPD2    C212260   0.421   1.339  11.555 -0.8284 -0.2459 -0.3524
  834MPD2    C312261   0.393   1.436  11.655 -0.7047  0.1789  0.5287
  834MPD2    C412262   0.345   1.398  11.781 -0.7748  0.1634  0.2329
  834MPD2    C512263   0.337   1.267  11.806  0.0777  0.6421  0.4519
  834MPD2     H12264   0.466   1.367  11.461  2.6443 -2.7912  0.5543
  834MPD2    H112265   0.318   1.472  11.856 -2.7263  1.8377 -2.1169
  834MPD2    H212266   0.381   1.067  11.744  0.6585  0.7912  0.8613
  834MPD2    H312267   0.322   1.234  11.908 -2.1137 -0.1018 -0.1062
  834MPD2     N12268   0.436   1.565  11.619  0.7600 -0.0300  0.0750
  834MPD2    H512269   0.482   1.580  11.530  0.3121 -1.0196 -0.3192
  834MPD2    N112270   0.441   1.096  11.505 -0.7581  0.4454 -0.3159
  834MPD2    H712271   0.442   0.999  11.535  0.6634  0.8061  0.7979
  835MPD2     C12272   0.994   4.129  11.055  0.2710  0.1294 -0.3442
  835MPD2    C112273   0.912   4.236  11.026 -0.0387 -0.5074  0.6616
  835MPD2    C212274   0.851   4.295  11.141 -0.2773 -0.7505  0.0778
  835MPD2    C312275   0.863   4.241  11.275  0.2482  0.1409 -0.1018
  835MPD2    C412276   0.962   4.149  11.296  0.1856  0.3068  0.0900
  835MPD2    C512277   1.028   4.100  11.186  0.5204  0.3050 -0.3142
  835MPD2     H12278   0.782   4.377  11.126  2.4030  1.4923 -0.1092
  835MPD2    H112279   0.984   4.105  11.392 -0.5807 -0.8664 -0.2767
  835MPD2    H212280   1.045   4.069  10.980 -2.5534 -0.5221 -1.7097
  835MPD2    H312281   1.094   4.020  11.216 -2.4463 -0.3443  4.4101
  835MPD2     N12282   0.786   4.293  11.386  0.1062 -0.1736 -0.6188
  835MPD2    H512283   0.809   4.259  11.479  1.1921 -1.4795 -1.3647
  835MPD2    N112284   0.878   4.266  10.895 -0.1536  0.5147  0.9196
  835MPD2    H712285   0.913   4.202  10.824  0.2721  1.3251  0.3914
  836MPD2     C12286   0.052   4.562  11.273 -0.6601  0.1466  0.3291
  836MPD2    C112287   0.088   4.567  11.403 -0.4372 -0.7265  0.4594
  836MPD2    C212288   4.717   4.622  11.492 -0.3726  0.0613  0.3156
  836MPD2    C312289   4.595   4.686  11.453 -0.4651 -0.7075  0.1455
  836MPD2    C412290   4.567   4.683  11.317 -0.2873  0.0513  0.2297
  836MPD2    C512291   4.658   4.611  11.234 -0.1780  0.3104 -0.0851
  836MPD2     H12292   0.020   4.625  11.597  1.7088 -0.6159 -0.1953
  836MPD2    H112293   4.472   4.721  11.280 -1.3734 -3.0802 -0.2995
  836MPD2    H212294   0.105   4.516  11.191 -2.0778 -0.7444 -0.0854
  836MPD2    H312295   4.644   4.616  11.127  0.0138  1.0023 -0.0749
  836MPD2     N12296   4.511   0.026  11.540 -0.4927  0.0399  0.1133
  836MPD2    H512297   4.423   0.068  11.510  0.1930  1.3377 -0.0660
  836MPD2    N112298   0.209   4.499  11.433 -0.5804  0.3673 -0.5472
  836MPD2    H712299   0.242   4.436  11.361 -1.6147  0.0019 -0.7084
  837MPD2     C12300   3.691   3.811  10.117  0.2271  0.5602  0.0792
  837MPD2    C112301   3.665   3.834   9.981  0.4608  0.2101  0.2933
  837MPD2    C212302   3.642   3.960   9.937  0.1765 -0.6564  0.9254
  837MPD2    C312303   3.616   4.062  10.031 -1.0985 -0.2632  0.0458
  837MPD2    C412304   3.625   4.039  10.164  0.1894 -0.1347 -0.1429
  837MPD2    C512305   3.672   3.919  10.203  0.1876 -0.2783  0.4647
  837MPD2     H12306   3.606   3.982   9.837  0.9921 -0.7750  0.6073
  837MPD2    H112307   3.615   4.119  10.236 -0.8744 -1.1221  0.8029
  837MPD2    H212308   3.714   3.713  10.160  0.7290 -0.2460 -2.0488
  837MPD2    H312309   3.682   3.915  10.311  0.7056 -1.5529  0.3646
  837MPD2     N12310   3.550   4.175   9.983 -0.4135  0.5458 -0.4860
  837MPD2    H512311   3.547   4.188   9.882  2.1648 -0.7284 -0.7290
  837MPD2    N112312   3.648   3.742   9.876 -0.1096 -0.0497 -0.1944
  837MPD2    H712313   3.633   3.768   9.779 -0.1295 -1.6669 -0.6341
  838MPD2     C12314   1.531   2.069  11.379  0.2792 -0.0983 -0.1923
  838MPD2    C112315   1.579   2.122  11.500  0.4834  0.2046 -0.1844
  838MPD2    C212316   1.498   2.171  11.597  0.1854 -0.5030  0.8748
  838MPD2    C312317   1.362   2.168  11.578  0.0723 -0.3591 -0.3836
  838MPD2    C412318   1.312   2.120  11.459  0.6084 -0.6043  1.0760
  838MPD2    C512319   1.397   2.068  11.369  0.0096 -0.4290 -0.4184
  838MPD2     H12320   1.528   2.194  11.699 -2.1671  2.5278  0.8839
  838MPD2    H112321   1.206   2.131  11.437  1.0007 -0.0349 -0.5360
  838MPD2    H212322   1.583   2.012  11.303  0.1869  0.6522 -0.8115
  838MPD2    H312323   1.353   2.022  11.282 -1.9466  2.6214 -1.0571
  838MPD2     N12324   1.279   2.214  11.683 -0.3968  0.2096  0.0163
  838MPD2    H512325   1.324   2.268  11.756  1.8649  0.3744 -1.5001
  838MPD2    N112326   1.720   2.122  11.531  0.6064 -0.1229 -0.2540
  838MPD2    H712327   1.737   2.170  11.619  0.5995 -0.5050 -0.0462
  839MPD2     C12328   1.450   2.052  11.974  0.5701 -0.4392  0.2425
  839MPD2    C112329   1.524   1.970  11.884  0.1315 -0.0966 -0.3004
  839MPD2    C212330   1.657   1.976  11.891 -0.4139 -0.2419 -1.2071
  839MPD2    C312331   1.728   2.072  11.963  0.3196 -0.7864  0.1847
  839MPD2    C412332   1.660   2.163  12.040 -0.0682  0.3387 -0.3233
  839MPD2    C512333   1.520   2.140  12.051 -0.6528  0.0371  0.4087
  839MPD2     H12334   1.704   1.907  11.821  0.0421 -0.9463 -0.2045
  839MPD2    H112335   1.704   2.238  12.105 -0.1691  1.9526 -2.1121
  839MPD2    H212336   1.342   2.044  11.984  0.5449 -1.5172 -0.8131
  839MPD2    H312337   1.462   2.204  12.116 -1.4745 -1.4073  1.0988
  839MPD2     N12338   1.867   2.084  11.944  0.0129 -0.1535  0.2664
  839MPD2    H512339   1.908   2.171  11.977  0.1202 -0.4481  0.9112
  839MPD2    N112340   1.478   1.880  11.793 -0.6068  0.3326 -0.5003
  839MPD2    H712341   1.542   1.828  11.734  0.3368 -1.2705  1.9541
  840MPD2     C12342   2.491   4.290  10.466  0.0716  0.8518  0.5057
  840MPD2    C112343   2.469   4.285  10.601 -0.1900 -0.0599 -0.6708
  840MPD2    C212344   2.505   4.393  10.683 -0.4246 -0.5987 -0.2139
  840MPD2    C312345   2.558   4.509  10.632  0.2649 -0.3250 -0.6334
  840MPD2    C412346   2.581   4.514  10.501 -0.5387  0.4861 -0.1762
  840MPD2    C512347   2.538   4.411  10.422 -0.0696 -0.1428 -0.2379
  840MPD2     H12348   2.474   4.394  10.787 -0.4360  3.1386 -0.2564
  840MPD2    H112349   2.641   4.591  10.454 -1.5894  1.4024 -0.0440
  840MPD2    H212350   2.478   4.214  10.390  0.6413  2.3220 -1.0870
  840MPD2    H312351   2.553   4.412  10.314  0.5377 -0.0632 -0.1522
  840MPD2     N12352   2.594   4.619  10.717  0.4765  0.2443  0.3903
  840MPD2    H512353   2.606   4.705  10.665 -3.3203  0.0390 -0.8634
  840MPD2    N112354   2.400   4.165  10.648 -0.0746 -0.4433  0.2090
  840MPD2    H712355   2.380   4.099  10.573  0.9208 -0.5979  0.0723
  841MPD2     C12356   1.790   4.652  15.138  0.6041 -0.2220 -0.0403
  841MPD2    C112357   1.841   4.604  15.023  0.2231  0.2893  0.4776
  841MPD2    C212358   1.940   4.674  14.970 -0.0028  0.5450  0.2560
  841MPD2    C312359   1.994   0.067  15.027  0.2653 -0.5526 -0.6693
  841MPD2    C412360   1.940   0.115  15.144  0.5780 -0.0021  0.3467
  841MPD2    C512361   1.831   0.043  15.198  0.7514  0.6291 -0.1479
  841MPD2     H12362   1.978   4.649  14.872  0.5328  0.7244  0.4154
  841MPD2    H112363   1.965   0.205  15.198  0.5005  1.1721 -1.5521
  841MPD2    H212364   1.712   4.596  15.190 -0.3210  1.1966  0.1064
  841MPD2    H312365   1.790   0.078  15.292 -0.0485  0.8715 -0.5969
  841MPD2     N12366   2.112   0.120  14.965  0.5170  0.1305  0.1148
  841MPD2    H512367   2.156   0.073  14.887 -1.2429 -1.7397  0.2700
  841MPD2    N112368   1.806   4.478  14.967 -0.2113  0.1156  0.1142
  841MPD2    H712369   1.840   4.460  14.873 -0.9457  3.1813 -0.7271
  842MPD2     C12370   2.200   0.544  16.964  0.2398 -0.1867 -0.1955
  842MPD2    C112371   2.287   0.645  16.992  0.4740  0.3017  0.3297
  842MPD2    C212372   2.273   0.725  17.106 -0.1896  0.2609 -0.0619
  842MPD2    C312373   2.151   0.724  17.178  0.3874 -0.7150 -0.4063
  842MPD2    C412374   2.070   0.608  17.151 -0.5037 -0.6700 -0.2608
  842MPD2    C512375   2.093   0.521  17.051 -0.3797 -0.3805  0.2995
  842MPD2     H12376   2.346   0.799  17.136 -0.6495  0.3922  0.7339
  842MPD2    H112377   1.983   0.592  17.214  0.8105  0.6812  1.9306
  842MPD2    H212378   2.218   0.483  16.876 -0.5585  0.3128 -0.7030
  842MPD2    H312379   2.028   0.437  17.027  0.5830 -0.7611 -0.9615
  842MPD2     N12380   2.109   0.824  17.272 -0.3324  0.2945 -0.1709
  842MPD2    H512381   2.019   0.821  17.317  0.3926  0.1164  1.2702
  842MPD2    N112382   2.385   0.673  16.897 -0.3849 -0.3766 -0.0114
  842MPD2    H712383   2.397   0.608  16.819 -0.3672  1.7755 -1.8224
  843MPD2     C12384   4.358   1.014  17.468  0.6333 -0.0090 -1.5585
  843MPD2    C112385   4.424   0.934  17.565 -1.2260  0.2084  0.3674
  843MPD2    C212386   4.538   0.981  17.632 -0.6486 -0.3033 -0.3489
  843MPD2    C312387   4.575   1.114  17.611 -0.2726  0.7030  0.0348
  843MPD2    C412388   4.515   1.193  17.509  0.2838  0.6020 -0.9587
  843MPD2    C512389   4.402   1.141  17.445 -0.3850  0.0095 -0.4815
  843MPD2     H12390   4.607   0.917  17.686 -0.8711  2.1648  2.8543
  843MPD2    H112391   4.538   1.296  17.483  2.9403  0.5769  1.3739
  843MPD2    H212392   4.269   0.972  17.422  0.8020 -1.8651 -0.1630
  843MPD2    H312393   4.348   1.202  17.374 -0.3550 -1.0154 -1.3869
  843MPD2     N12394   4.693   1.171  17.670 -0.0273 -0.0620  0.2730
  843MPD2    H512395   4.720   1.258  17.625 -4.8551  0.9542 -0.6594
  843MPD2    N112396   4.370   0.808  17.602  0.0255 -0.0391 -0.3478
  843MPD2    H712397   4.298   0.770  17.541  0.8762 -1.0110 -0.7420
  844MPD2     C12398   3.104   0.643  16.813 -0.2839  0.3658  0.4879
  844MPD2    C112399   3.202   0.572  16.748  0.0061 -0.3500  0.0149
  844MPD2    C212400   3.329   0.574  16.806  0.4651 -0.3703 -0.5029
  844MPD2    C312401   3.367   0.650  16.920 -0.5976  0.1258 -0.2887
  844MPD2    C412402   3.264   0.727  16.970  0.4341 -0.1940 -0.1183
  844MPD2    C512403   3.143   0.725  16.919  0.9058 -0.6398  0.1729
  844MPD2     H12404   3.397   0.496  16.774  0.2121 -1.9240  2.8314
  844MPD2    H112405   3.259   0.783  17.062  1.0473 -2.3872  1.2607
  844MPD2    H212406   3.001   0.641  16.779 -0.7388  2.4877  1.7185
  844MPD2    H312407   3.065   0.786  16.964 -1.2576 -2.1851 -1.5212
  844MPD2     N12408   3.490   0.636  16.982  0.0973  0.4624  0.8157
  844MPD2    H512409   3.547   0.562  16.943  0.7327  1.4702 -0.1929
  844MPD2    N112410   3.177   0.487  16.641 -0.0997  0.5491  0.4952
  844MPD2    H712411   3.256   0.456  16.586 -1.4404 -1.1788 -0.4826
  845MPD2     C12412   4.093   1.103  17.642 -0.8378 -0.2220  0.3209
  845MPD2    C112413   4.016   1.148  17.532 -0.1960  0.5685 -0.3216
  845MPD2    C212414   3.939   1.055  17.456  0.5209  0.6433 -0.2682
  845MPD2    C312415   3.943   0.921  17.493 -0.1523 -0.0307  0.0096
  845MPD2    C412416   4.019   0.878  17.596 -0.2467 -0.2876  0.2635
  845MPD2    C512417   4.085   0.966  17.670 -0.2119 -0.1317 -0.4845
  845MPD2     H12418   3.874   1.084  17.374 -1.0575  2.9130  1.8141
  845MPD2    H112419   4.026   0.772  17.618  1.1328 -0.1826  0.3528
  845MPD2    H212420   4.136   1.177   0.013 -0.0580 -2.9022  2.8413
  845MPD2    H312421   4.124   0.932   0.071  0.0918 -0.6735 -0.8066
  845MPD2     N12422   3.861   0.829  17.424 -0.1755 -0.6913 -0.7833
  845MPD2    H512423   3.810   0.862  17.342  0.2535 -0.2919 -0.8954
  845MPD2    N112424   4.008   1.291  17.527  0.3090  0.3713 -0.4603
  845MPD2    H712425   4.047   1.336  17.609 -1.4468  2.1564 -0.5902
  846MPD2     C12426   0.264   1.537  13.440  0.5273 -0.6312  0.2724
  846MPD2    C112427   0.182   1.645  13.476  0.7858 -0.8539 -0.2121
  846MPD2    C212428   0.141   1.656  13.613 -0.1409  0.0246  0.7584
  846MPD2    C312429   0.177   1.564  13.706  0.6805 -0.1167  0.8910
  846MPD2    C412430   0.263   1.462  13.668 -0.0271  0.2430  0.1021
  846MPD2    C512431   0.304   1.455  13.536 -0.3253  0.5530 -0.5589
  846MPD2     H12432   0.075   1.740  13.633 -0.1472 -0.1319  1.4065
  846MPD2    H112433   0.279   1.372  13.725 -1.0964 -0.6901 -1.0855
  846MPD2    H212434   0.306   1.520  13.341 -0.2331  0.7469 -0.3012
  846MPD2    H312435   0.359   1.366  13.507 -1.1540 -0.1144 -0.0959
  846MPD2     N12436   0.131   1.577  13.833  0.6430 -0.1968  0.0118
  846MPD2    H512437   0.057   1.645  13.847  1.3658  0.6387 -0.1958
  846MPD2    N112438   0.138   1.742  13.382 -0.0735  1.0628 -0.1114
  846MPD2    H712439   0.072   1.815  13.408  0.4937  1.5698 -0.1012
  847MPD2     C12440   0.204   2.311  13.787  0.5021  0.4164 -0.8979
  847MPD2    C112441   0.250   2.369  13.903  0.4037 -0.2879  0.1340
  847MPD2    C212442   0.382   2.419  13.906  0.1330 -0.2288  0.0033
  847MPD2    C312443   0.470   2.408  13.806 -0.3875  0.5364  0.0582
  847MPD2    C412444   0.428   2.341  13.686 -0.1979  0.3006 -0.8591
  847MPD2    C512445   0.293   2.305  13.680 -0.0642 -0.1682  0.3737
  847MPD2     H12446   0.407   2.471  13.998 -1.1166  2.1898 -1.0340
  847MPD2    H112447   0.491   2.343  13.597  1.1217 -1.6499  0.0363
  847MPD2    H212448   0.100   2.281  13.786  0.4994  0.4087 -0.6255
  847MPD2    H312449   0.272   2.263  13.582 -0.2606  2.9182 -0.9172
  847MPD2     N12450   0.597   2.463  13.830 -0.9078  0.2973 -0.4352
  847MPD2    H512451   0.611   2.520  13.913 -0.8109 -0.5807  0.1499
  847MPD2    N112452   0.165   2.389  14.016 -0.5476  0.2124  0.4168
  847MPD2    H712453   0.210   2.450  14.084 -0.2602  0.2164  0.2219
  848MPD2     C12454   2.644   1.196  17.547 -0.0649 -0.0480  0.6968
  848MPD2    C112455   2.651   1.188  17.409 -0.2555 -0.1370  0.5562
  848MPD2    C212456   2.671   1.313  17.345 -0.3169 -0.5588 -0.2403
  848MPD2    C312457   2.705   1.432  17.408 -0.2804  0.0175  0.5816
  848MPD2    C412458   2.713   1.429  17.541  0.9318 -0.9768 -0.2772
  848MPD2    C512459   2.669   1.315  17.604 -0.4606  0.0411 -0.2954
  848MPD2     H12460   2.677   1.307  17.237 -0.6804 -1.5511 -0.2089
  848MPD2    H112461   2.747   1.517  17.595 -0.3179  0.3699 -1.6730
  848MPD2    H212462   2.622   1.111  17.611  2.6385 -2.9116 -2.1205
  848MPD2    H312463   2.672   1.313   0.018  0.2359  1.0193 -0.2958
  848MPD2     N12464   2.742   1.546  17.333  0.8421 -0.4017 -0.6361
  848MPD2    H512465   2.780   1.615  17.398  1.0206  1.2308 -2.4571
  848MPD2    N112466   2.629   1.071  17.329 -0.5112  0.7810  0.8315
  848MPD2    H712467   2.638   1.068  17.228 -2.7458  2.8144  0.5733
  849MPD2     C12468   2.192   0.860  14.514  0.6309 -0.2775 -0.2773
  849MPD2    C112469   2.061   0.837  14.518 -0.3861  0.2804  0.1759
  849MPD2    C212470   1.984   0.846  14.637  0.1694  0.0096 -0.1274
  849MPD2    C312471   2.052   0.877  14.760  0.8412 -0.3143 -0.3347
  849MPD2    C412472   2.189   0.894  14.758  0.0937 -0.3003 -0.4269
  849MPD2    C512473   2.251   0.885  14.637  0.2352  0.6744 -0.2017
  849MPD2     H12474   1.879   0.820  14.630  0.6205 -1.5302 -1.1962
  849MPD2    H112475   2.249   0.900  14.847  0.3465  0.1174 -0.6285
  849MPD2    H212476   2.248   0.864  14.421  1.1338 -0.5930  0.0081
  849MPD2    H312477   2.358   0.901  14.633  0.2588  0.3224 -1.0202
  849MPD2     N12478   1.995   0.874  14.891 -0.1895  0.7260 -0.9170
  849MPD2    H512479   2.048   0.882  14.977  0.2686 -0.2799 -1.1128
  849MPD2    N112480   1.989   0.804  14.398 -0.0275 -0.0477 -0.2091
  849MPD2    H712481   1.889   0.802  14.411  0.1912  1.8903  1.7554
  850MPD2     C12482   0.141   3.599  14.618  0.1319 -0.1089  0.2026
  850MPD2    C112483   0.124   3.664  14.735 -0.2657 -0.3027 -0.3962
  850MPD2    C212484   0.224   3.745  14.780  0.8899  0.4133  1.4309
  850MPD2    C312485   0.352   3.740  14.730  0.0481  0.1206  0.8973
  850MPD2    C412486   0.371   3.675  14.616 -0.1939 -0.9045  0.4067
  850MPD2    C512487   0.268   3.602  14.559  0.7152  0.5503  0.0520
  850MPD2     H12488   0.202   3.819  14.856 -0.1093  1.5695  0.0191
  850MPD2    H112489   0.467   3.663  14.567 -0.1232 -0.5482  0.4555
  850MPD2    H212490   0.061   3.543  14.571 -2.0478  2.9788  0.2005
  850MPD2    H312491   0.280   3.538  14.473  0.1887  0.3544  0.1276
  850MPD2     N12492   0.465   3.794  14.791  0.2771  0.0347  0.5350
  850MPD2    H512493   0.555   3.778  14.747 -0.3238 -2.1911  0.1072
  850MPD2    N112494   4.714   3.659  14.794 -0.4567  0.3071 -0.0705
  850MPD2    H712495   4.653   3.603  14.736 -0.1185  0.4262 -0.5324
  851MPD2     C12496   0.579   3.573  15.429  0.4699 -0.4239  0.1746
  851MPD2    C112497   0.507   3.543  15.321  0.3420 -0.6380  0.3562
  851MPD2    C212498   0.544   3.440  15.245 -0.1843 -0.0110 -0.0734
  851MPD2    C312499   0.650   3.355  15.273  0.0123 -0.2055 -0.3970
  851MPD2    C412500   0.718   3.380  15.389  0.2511 -0.2950 -0.1504
  851MPD2    C512501   0.675   3.486  15.472 -0.1952 -0.3047  0.2198
  851MPD2     H12502   0.494   3.425  15.150 -1.8678 -0.0673  0.8080
  851MPD2    H112503   0.801   3.322  15.426 -1.3735 -1.2066  2.0175
  851MPD2    H212504   0.569   3.665  15.485  0.4842 -1.4698  1.8838
  851MPD2    H312505   0.740   3.516  15.554 -0.9123  2.2432 -0.1536
  851MPD2     N12506   0.688   3.260  15.179 -0.4377  0.7747 -0.2429
  851MPD2    H512507   0.623   3.249  15.101  0.4457 -0.1516 -0.8399
  851MPD2    N112508   0.396   3.631  15.295 -0.4053 -0.1119 -0.3305
  851MPD2    H712509   0.382   3.714  15.351 -2.6609  0.4553 -1.7426
  852MPD2     C12510   4.716   1.061  10.459 -0.8982  0.6448 -0.0965
  852MPD2    C112511   0.113   1.000  10.425 -0.2098 -0.2207 -0.5236
  852MPD2    C212512   0.151   0.976  10.295 -0.3946  0.0687  0.1821
  852MPD2    C312513   0.063   1.000  10.191  0.0697  0.0231  0.3020
  852MPD2    C412514   4.662   1.051  10.222  0.8397  0.2157 -0.9907
  852MPD2    C512515   4.633   1.086  10.352 -0.6772  0.2918  0.2865
  852MPD2     H12516   0.247   0.927  10.284  0.4775  1.2415  2.6100
  852MPD2    H112517   4.601   1.098  10.146 -0.6695 -3.8413 -2.2899
  852MPD2    H212518   4.692   1.104  10.556 -1.6357 -2.2956  0.9972
  852MPD2    H312519   4.551   1.155  10.364  0.2964  1.0432  2.6780
  852MPD2     N12520   0.115   0.972  10.060 -0.2609  0.3922 -0.0331
  852MPD2    H512521   0.212   0.944  10.057 -0.6078 -0.8593  0.3978
  852MPD2    N112522   0.205   0.962  10.528  0.4937 -0.7554 -0.3720
  852MPD2    H712523   0.288   0.907  10.509  1.0448 -0.1484  0.2560
  853MPD2     C12524   1.909   1.389  12.249  0.1246  0.3355  0.2946
  853MPD2    C112525   1.792   1.317  12.253  0.0469 -0.6076 -0.1671
  853MPD2    C212526   1.776   1.222  12.155  0.3987 -0.5295  0.1644
  853MPD2    C312527   1.869   1.204  12.053  0.6652  0.1997 -0.6970
  853MPD2    C412528   1.979   1.282  12.049 -0.6178 -0.9891 -0.1820
  853MPD2    C512529   2.002   1.371  12.149  0.5981  0.0403  0.6211
  853MPD2     H12530   1.686   1.162  12.165 -0.0427 -0.2559 -2.1765
  853MPD2    H112531   2.044   1.273  11.963 -0.6314 -0.6480 -0.2290
  853MPD2    H212532   1.922   1.470  12.319 -2.7291  0.9308  0.1244
  853MPD2    H312533   2.094   1.426  12.144 -1.6071  3.8481  2.3920
  853MPD2     N12534   1.848   1.113  11.947 -0.8205 -0.1790 -0.2466
  853MPD2    H512535   1.915   1.098  11.872 -1.0148 -1.8312 -0.0890
  853MPD2    N112536   1.701   1.347  12.351  0.1400  0.0415 -0.6117
  853MPD2    H712537   1.730   1.420  12.415  0.5437  0.8096 -1.6658
  854MPD2     C12538   3.350   1.347  13.544 -0.1793  0.0023 -0.8179
  854MPD2    C112539   3.372   1.308  13.411  0.1028 -0.8217 -1.0030
  854MPD2    C212540   3.495   1.263  13.373  0.2397 -0.0332  0.6462
  854MPD2    C312541   3.599   1.278  13.461 -0.3523  0.0267  0.1196
  854MPD2    C412542   3.587   1.315  13.587  0.1230  0.0910  0.5479
  854MPD2    C512543   3.456   1.338  13.632  0.1132  0.6087  0.0810
  854MPD2     H12544   3.502   1.239  13.268 -3.1373  2.2552 -0.1278
  854MPD2    H112545   3.669   1.335  13.656  2.3303  0.6263 -2.2374
  854MPD2    H212546   3.253   1.373  13.583 -0.9074 -1.8457 -1.4288
  854MPD2    H312547   3.439   1.370  13.734  1.5475  2.2117 -0.1886
  854MPD2     N12548   3.737   1.245  13.420 -0.3228 -0.1289  0.1326
  854MPD2    H512549   3.818   1.265  13.478 -0.3034 -0.3923  0.1973
  854MPD2    N112550   3.275   1.327  13.308  0.0060 -1.0075 -0.3374
  854MPD2    H712551   3.303   1.316  13.211  1.1918 -0.8429 -0.0199
  855MPD2     C12552   4.310   1.329  13.960  1.2453  0.1574  0.2243
  855MPD2    C112553   4.286   1.198  13.927 -0.2785  0.5689 -0.3429
  855MPD2    C212554   4.268   1.168  13.792 -0.1494  0.2059  0.4344
  855MPD2    C312555   4.260   1.262  13.696 -1.2982  0.0400 -0.3891
  855MPD2    C412556   4.275   1.390  13.734  0.3923 -0.3573  0.0135
  855MPD2    C512557   4.305   1.424  13.862 -0.0779 -0.0951 -0.0421
  855MPD2     H12558   4.254   1.066  13.760  1.0091 -0.5909  2.4316
  855MPD2    H112559   4.257   1.474  13.667  1.8535 -1.6357 -1.9831
  855MPD2    H212560   4.322   1.365  14.062  0.6260 -0.1363  0.4024
  855MPD2    H312561   4.312   1.530  13.882  1.6663  0.3031 -2.7407
  855MPD2     N12562   4.221   1.236  13.561 -0.2863 -0.1434  0.2222
  855MPD2    H512563   4.199   1.316  13.503  1.8922  0.7831  0.6909
  855MPD2    N112564   4.287   1.090  14.019  0.1216  0.0336 -0.1374
  855MPD2    H712565   4.279   0.999  13.976 -0.3500 -0.3820  0.8299
  856MPD2     C12566   1.159   2.095  13.398 -0.5736 -0.1702  0.4287
  856MPD2    C112567   1.218   2.211  13.430 -0.0239 -0.1727 -0.4423
  856MPD2    C212568   1.142   2.322  13.442  0.2314  0.1850  0.0884
  856MPD2    C312569   1.006   2.327  13.416 -0.1022 -0.1779 -0.2352
  856MPD2    C412570   0.944   2.217  13.373 -0.2074 -0.1093  0.2052
  856MPD2    C512571   1.020   2.103  13.363  0.0934 -0.0015  0.1409
  856MPD2     H12572   1.192   2.417  13.455  0.6987 -0.0816  0.2396
  856MPD2    H112573   0.847   2.212  13.324  0.4550 -0.0243 -1.1041
  856MPD2    H212574   1.211   2.000  13.396  0.8330  0.6377 -1.7691
  856MPD2    H312575   0.975   2.011  13.327 -0.5328  0.7052 -0.8863
  856MPD2     N12576   0.937   2.447  13.408  0.0868 -0.5156  0.0037
  856MPD2    H512577   0.844   2.444  13.368  0.3170 -1.8889 -0.4455
  856MPD2    N112578   1.360   2.213  13.470  0.3689 -0.2356  0.1590
  856MPD2    H712579   1.409   2.300  13.486 -1.7581  1.0839 -0.4364
  857MPD2     C12580   2.918   3.770  12.715  0.5481  0.3473  1.0059
  857MPD2    C112581   2.876   3.706  12.828  0.3299 -0.2092 -0.1477
  857MPD2    C212582   2.808   3.779  12.928  0.1765 -0.5629 -0.0564
  857MPD2    C312583   2.763   3.912  12.897  0.5408  0.1103  0.0471
  857MPD2    C412584   2.789   3.951  12.765 -0.5899  0.2924 -0.0173
  857MPD2    C512585   2.865   3.890  12.677  0.3366 -0.2901 -0.1772
  857MPD2     H12586   2.790   3.742  13.029  1.5991  0.3771  0.5380
  857MPD2    H112587   2.751   4.045  12.726  1.4537  0.3004 -1.9799
  857MPD2    H212588   2.995   3.729  12.650 -0.6794 -1.3261  0.5835
  857MPD2    H312589   2.885   3.938  12.582  0.1499 -1.2538 -0.7073
  857MPD2     N12590   2.696   3.989  12.993 -0.0101  0.5864 -0.5890
  857MPD2    H512591   2.664   3.937  13.074 -1.5227  2.6981  0.1595
  857MPD2    N112592   2.919   3.580  12.845 -0.1145 -0.0140  0.0702
  857MPD2    H712593   2.986   3.543  12.778 -0.2924 -0.6004  0.2143
  858MPD2     C12594   3.001   2.834  16.587  0.7689  0.0515 -0.5022
  858MPD2    C112595   3.118   2.893  16.582  0.3342  0.3269  0.6853
  858MPD2    C212596   3.175   2.945  16.703 -0.2396 -0.7041  0.2358
  858MPD2    C312597   3.100   2.948  16.825 -0.3289  0.3259  0.3076
  858MPD2    C412598   2.978   2.884  16.822  0.6936 -0.1890 -0.6619
  858MPD2    C512599   2.933   2.815  16.706 -0.5328 -0.6215 -1.0489
  858MPD2     H12600   3.268   3.000  16.696  0.6744 -2.6672 -2.7074
  858MPD2    H112601   2.919   2.878  16.912  0.3860 -1.4317 -0.9535
  858MPD2    H212602   2.969   2.792  16.492  1.2733 -0.9448 -0.2380
  858MPD2    H312603   2.830   2.779  16.704 -0.0966 -1.9708  1.8531
  858MPD2     N12604   3.147   3.007  16.945 -0.4301 -0.6150  0.2992
  858MPD2    H512605   3.088   3.005  17.028 -0.2404 -0.7487  0.4345
  858MPD2    N112606   3.184   2.889  16.459  0.3700  0.5066  0.0320
  858MPD2    H712607   3.141   2.822  16.396  0.2403  0.6764 -0.0622
  859MPD2     C12608   2.465   0.110  15.638 -0.6951 -0.5989 -0.1293
  859MPD2    C112609   2.349   0.082  15.583  0.4279  0.2486  0.0263
  859MPD2    C212610   2.323   4.676  15.548 -0.1285 -0.4052 -0.0926
  859MPD2    C312611   2.415   4.573  15.566  0.0110  0.3926 -0.0574
  859MPD2    C412612   2.534   4.609  15.617  0.0716  0.4379  0.0755
  859MPD2    C512613   2.559   0.012  15.657 -0.5453 -0.4697  0.0246
  859MPD2     H12614   2.228   4.648  15.504 -1.4764  2.5991  0.9422
  859MPD2    H112615   2.619   4.543  15.607  1.2984  2.4485 -2.9410
  859MPD2    H212616   2.487   0.213  15.662  1.0804 -0.7447 -1.0958
  859MPD2    H312617   2.659   0.040  15.687  0.7329 -2.0418 -2.8289
  859MPD2     N12618   2.395   4.440  15.529  0.5097  0.1237 -0.1042
  859MPD2    H512619   2.463   4.373  15.564  1.7059  0.7703 -1.1924
  859MPD2    N112620   2.261   0.187  15.564  0.4981  0.5603  0.0537
  859MPD2    H712621   2.294   0.276  15.601 -4.4494  2.0667  0.7700
  860MPD2     C12622   4.210   0.347  11.910  1.3999 -0.5285  0.4668
  860MPD2    C112623   4.192   0.462  11.983 -0.0481 -0.1009 -0.2151
  860MPD2    C212624   4.080   0.491  12.047 -0.7138 -0.0060  0.6818
  860MPD2    C312625   3.970   0.406  12.051 -0.3923 -0.7845 -0.2087
  860MPD2    C412626   3.983   0.292  11.976 -0.5686  0.1450 -0.5161
  860MPD2    C512627   4.100   0.263  11.913  1.0206 -0.0891 -0.3659
  860MPD2     H12628   4.070   0.587  12.097 -0.6792  0.1566  0.3797
  860MPD2    H112629   3.900   0.225  11.957 -0.6310  0.0199  0.2303
  860MPD2    H212630   4.299   0.323  11.852  2.5878 -0.9485  2.4257
  860MPD2    H312631   4.115   0.172  11.856  0.1526 -1.4063  1.4908
  860MPD2     N12632   3.863   0.435  12.135 -0.5631 -0.8195 -0.0346
  860MPD2    H512633   3.867   0.528  12.177  0.4526  0.0104 -1.9561
  860MPD2    N112634   4.303   0.550  11.995 -0.5908 -0.0076  0.1854
  860MPD2    H712635   4.289   0.625  12.061  0.3737 -0.3172  0.7391
  861MPD2     C12636   3.620   3.499  11.169  0.0016  0.2477  1.0805
  861MPD2    C112637   3.524   3.579  11.222 -0.2877  0.2694 -0.1679
  861MPD2    C212638   3.419   3.622  11.145  0.4766  0.4159 -0.9300
  861MPD2    C312639   3.418   3.602  11.012 -0.3035 -0.0191 -0.0690
  861MPD2    C412640   3.518   3.520  10.953 -0.5575  0.3058  0.5321
  861MPD2    C512641   3.614   3.469  11.030  0.0415  0.3691  0.3256
  861MPD2     H12642   3.351   3.687  11.199  0.5593 -2.3189  2.4680
  861MPD2    H112643   3.512   3.504  10.846  0.2202 -1.7397  0.7865
  861MPD2    H212644   3.699   3.448  11.222  0.1748 -0.5095  0.0938
  861MPD2    H312645   3.689   3.405  10.986 -0.8428 -0.6625  0.3276
  861MPD2     N12646   3.324   3.655  10.916 -0.2226 -0.1053  0.3069
  861MPD2    H512647   3.341   3.630  10.819  2.4802  0.5341  0.6248
  861MPD2    N112648   3.522   3.614  11.358 -0.5113  0.3384 -0.2392
  861MPD2    H712649   3.439   3.661  11.392 -0.4444  0.0043  0.3804
  862MPD2     C12650   3.000   3.673  10.310 -0.2839  0.5985  0.7099
  862MPD2    C112651   3.019   3.635  10.444 -1.0311 -0.3689 -0.6438
  862MPD2    C212652   3.027   3.499  10.486 -0.2738 -1.0553 -0.1138
  862MPD2    C312653   3.040   3.409  10.386  0.2455 -0.1999  0.0683
  862MPD2    C412654   3.016   3.447  10.252  0.2644  0.0222  0.0655
  862MPD2    C512655   2.989   3.574  10.212 -0.1775 -0.2754 -0.4749
  862MPD2     H12656   3.036   3.479  10.592  1.3424 -1.1223 -0.2716
  862MPD2    H112657   3.020   3.372  10.174  2.2645 -1.3742  1.5062
  862MPD2    H212658   2.985   3.774  10.274 -1.2842  0.4125  0.6041
  862MPD2    H312659   2.973   3.596  10.107  0.2243  1.6612 -0.1337
  862MPD2     N12660   3.069   3.267  10.411  0.2409  0.2737 -0.1753
  862MPD2    H512661   3.079   3.202  10.334 -2.3326 -0.1083 -0.1724
  862MPD2    N112662   3.049   3.724  10.547  1.3987 -0.5902 -1.0940
  862MPD2    H712663   3.067   3.693  10.642 -0.8558 -0.6672 -0.7107
  863MPD2     C12664   1.198   2.124  16.913 -0.2088 -0.4753  0.6880
  863MPD2    C112665   1.321   2.168  16.867 -0.5521 -0.7127  0.1914
  863MPD2    C212666   1.432   2.107  16.919 -0.3684  0.4720 -0.2676
  863MPD2    C312667   1.435   2.011  17.020 -1.1217  0.0083 -0.1457
  863MPD2    C412668   1.309   1.975  17.067 -0.2567 -0.2573  0.1692
  863MPD2    C512669   1.189   2.029  17.014  0.2608 -0.2532  0.3821
  863MPD2     H12670   1.529   2.137  16.881 -0.3871  1.4309  0.4300
  863MPD2    H112671   1.296   1.925  17.162  0.9649  1.4394  1.2289
  863MPD2    H212672   1.112   2.175  16.873  0.2069 -0.5672 -0.3293
  863MPD2    H312673   1.098   1.987  17.057  0.4778 -2.2215 -1.0556
  863MPD2     N12674   1.551   1.960  17.083  0.5778 -0.4100  0.5934
  863MPD2    H512675   1.525   1.905  17.164 -2.4285 -1.3587 -1.0392
  863MPD2    N112676   1.322   2.282  16.779 -0.4582 -0.1315 -0.1245
  863MPD2    H712677   1.227   2.319  16.774  0.5597  2.6874  1.3774
  864MPD2     C12678   1.943   3.617  17.497  0.2293 -0.1063  0.6545
  864MPD2    C112679   2.004   3.564  17.383  0.1894 -0.8718 -0.3964
  864MPD2    C212680   2.069   3.653  17.305  0.4062 -0.4605  0.0484
  864MPD2    C312681   2.071   3.788  17.325 -0.1575  0.0691 -0.0446
  864MPD2    C412682   2.001   3.837  17.434  0.9665  0.4375  0.1696
  864MPD2    C512683   1.940   3.754  17.525 -0.3797 -0.3022 -0.6882
  864MPD2     H12684   2.126   3.619  17.219 -0.1438  0.0286 -0.5021
  864MPD2    H112685   1.995   3.942  17.457  1.1607  0.2801  0.9690
  864MPD2    H212686   1.892   3.554  17.570  1.0285 -2.1332 -0.5429
  864MPD2    H312687   1.880   3.795  17.605  0.8711  0.8110 -0.3214
  864MPD2     N12688   2.147   3.872  17.238  0.1140  0.2779 -0.0208
  864MPD2    H512689   2.123   3.971  17.244  0.6756  0.3519  1.0099
  864MPD2    N112690   2.008   3.427  17.363  0.1502  0.0694  0.4337
  864MPD2    H712691   1.971   3.371  17.439 -2.1073 -0.2663 -0.9340
  865MPD2     C12692   2.015   3.770  16.415 -0.2086 -0.2760  0.0587
  865MPD2    C112693   2.153   3.757  16.416 -0.7700 -0.2537  0.6671
  865MPD2    C212694   2.221   3.850  16.495 -0.6251  0.3206  1.0176
  865MPD2    C312695   2.151   3.934  16.580 -0.5147 -0.1423  0.6001
  865MPD2    C412696   2.013   3.945  16.585  0.1531 -0.6156  0.3614
  865MPD2    C512697   1.945   3.863  16.491 -0.3006  1.0942  0.3391
  865MPD2     H12698   2.328   3.837  16.507 -0.8549  0.4069  3.1047
  865MPD2    H112699   1.958   3.993  16.665  1.8368  0.9048  0.6116
  865MPD2    H212700   1.962   3.695  16.356 -0.0934 -0.3268  0.0204
  865MPD2    H312701   1.837   3.864  16.498 -0.2954 -0.8246  0.9168
  865MPD2     N12702   2.235   3.999  16.675 -0.0151  0.5033 -0.0757
  865MPD2    H512703   2.332   3.969  16.677  0.0318  0.7740  1.4854
  865MPD2    N112704   2.224   3.653  16.356 -0.5549  0.2225  0.5558
  865MPD2    H712705   2.169   3.576  16.320 -0.3770 -0.3302  1.4677
  866MPD2     C12706   4.111   3.761  11.652  0.1131 -0.1792  0.4322
  866MPD2    C112707   4.114   3.719  11.516  0.2673  1.2587  0.4551
  866MPD2    C212708   4.019   3.770  11.423 -0.0662  0.3892 -0.5051
  866MPD2    C312709   3.909   3.840  11.475  0.6817 -0.9029 -0.0227
  866MPD2    C412710   3.915   3.881  11.603  0.1132 -0.0516 -0.1292
  866MPD2    C512711   4.009   3.839  11.691 -0.8962 -0.2258  0.7262
  866MPD2     H12712   4.029   3.743  11.318  2.6005  0.5815 -0.2922
  866MPD2    H112713   3.837   3.946  11.641 -1.3586 -3.3848  2.6251
  866MPD2    H212714   4.191   3.733  11.719  1.2012  0.7925 -0.4593
  866MPD2    H312715   4.005   3.874  11.794 -1.4854  1.2692  0.1845
  866MPD2     N12716   3.810   3.899  11.402 -0.1349 -0.4579  0.6654
  866MPD2    H512717   3.757   3.974  11.445 -0.7980 -1.1799  1.1063
  866MPD2    N112718   4.225   3.662  11.459  0.3984 -0.5576  0.4241
  866MPD2    H712719   4.234   3.662  11.358  2.2022 -0.7946  0.5934
  867MPD2     C12720   1.263   3.647  16.493 -0.0304  0.3789 -0.4640
  867MPD2    C112721   1.304   3.643  16.626 -0.5082 -0.0936  0.0152
  867MPD2    C212722   1.294   3.752  16.714 -0.1203 -0.4251 -0.2595
  867MPD2    C312723   1.228   3.868  16.671  0.3594  0.3373 -0.6443
  867MPD2    C412724   1.164   3.860  16.541  0.0691  0.6358 -0.2167
  867MPD2    C512725   1.192   3.758  16.457 -0.1583 -0.3557 -0.1665
  867MPD2     H12726   1.322   3.749  16.819  2.2995 -1.7970 -0.9463
  867MPD2    H112727   1.111   3.943  16.495  2.2374  0.2099 -3.4415
  867MPD2    H212728   1.286   3.564  16.428 -0.8066 -0.7082  0.6289
  867MPD2    H312729   1.164   3.756  16.353  1.0820 -0.0997 -0.5071
  867MPD2     N12730   1.203   3.983  16.753 -0.1771  0.5599 -0.2646
  867MPD2    H512731   1.137   4.054  16.724  0.1613  1.0672  0.2035
  867MPD2    N112732   1.392   3.534  16.668  0.0643  0.4095 -0.5066
  867MPD2    H712733   1.401   3.459  16.600 -2.3797 -1.8408  1.6365
  868MPD2     C12734   2.842   2.240  13.510  0.6544 -0.0365  0.1063
  868MPD2    C112735   2.941   2.229  13.600  0.2820  0.0713 -0.6839
  868MPD2    C212736   2.916   2.274  13.728  0.2323  0.7126 -0.0834
  868MPD2    C312737   2.796   2.337  13.766  0.4259  0.1960 -0.1213
  868MPD2    C412738   2.701   2.355  13.663 -0.9265  0.6023  0.0829
  868MPD2    C512739   2.727   2.304  13.540  0.4604 -0.2621 -0.3925
  868MPD2     H12740   2.999   2.256  13.796  0.7524 -1.4745 -1.2980
  868MPD2    H112741   2.604   2.402  13.673  0.3187  3.4133 -1.2390
  868MPD2    H212742   2.863   2.220  13.406  1.0492  2.3261 -0.2844
  868MPD2    H312743   2.659   2.320  13.458  1.2521  0.0631 -0.9781
  868MPD2     N12744   2.768   2.390  13.897 -0.4178 -0.1198 -0.9731
  868MPD2    H512745   2.676   2.432  13.903  0.6135  2.0384 -0.0831
  868MPD2    N112746   3.061   2.160  13.565  0.6173  0.6189  0.2513
  868MPD2    H712747   3.083   2.156  13.466  3.3426  0.2562  0.8829
  869MPD2     C12748   4.446   0.256   1.682 -0.3961 -0.0646  0.0406
  869MPD2    C112749   4.319   0.304   1.701  0.3918  0.4725 -0.2753
  869MPD2    C212750   4.254   0.369   1.604 -0.3211  0.4432  0.4105
  869MPD2    C312751   4.309   0.387   1.480  0.6788 -0.4674 -0.3334
  869MPD2    C412752   4.436   0.335   1.454  0.2703 -0.0316 -0.4405
  869MPD2    C512753   4.504   0.274   1.560  0.0393  0.6180 -0.0937
  869MPD2     H12754   4.164   0.424   1.626 -0.8862 -1.4304  2.8207
  869MPD2    H112755   4.482   0.344   1.356 -1.6503 -1.9761 -1.5475
  869MPD2    H212756   4.507   0.212   1.760 -0.8162 -0.3296  0.2174
  869MPD2    H312757   4.604   0.234   1.546  0.2742  1.2783 -0.3084
  869MPD2     N12758   4.220   0.443   1.381  0.1465 -0.8472  0.1804
  869MPD2    H512759   4.127   0.480   1.400  0.5227  0.9162 -1.3251
  869MPD2    N112760   4.269   0.295   1.830  0.3183  0.6310 -0.6680
  869MPD2    H712761   4.334   0.269   1.904  0.0638  1.9516  0.0115
  870MPD2     C12762   2.977   4.011   1.714 -0.3493 -0.7579 -0.1815
  870MPD2    C112763   3.069   3.970   1.626 -0.0709  0.3368  0.7244
  870MPD2    C212764   3.031   3.917   1.503 -1.1466 -0.7617  0.2747
  870MPD2    C312765   2.902   3.908   1.466  0.1284 -0.4767  0.4373
  870MPD2    C412766   2.810   3.939   1.566 -0.6629 -0.2748 -0.7508
  870MPD2    C512767   2.846   3.977   1.691 -0.1210  0.4109  0.8200
  870MPD2     H12768   3.102   3.904   1.422  0.8901 -0.1226  1.9649
  870MPD2    H112769   2.703   3.929   1.557 -0.6071  0.6264 -2.5761
  870MPD2    H212770   3.001   4.048   1.813  0.8035  1.1163 -1.1835
  870MPD2    H312771   2.772   4.003   1.766 -2.9961 -1.7314 -1.3191
  870MPD2     N12772   2.860   3.871   1.334 -0.1881 -0.1034 -0.5966
  870MPD2    H512773   2.934   3.849   1.267 -1.3678  2.3526 -2.6803
  870MPD2    N112774   3.207   3.985   1.654 -0.1086  0.5839  0.3995
  870MPD2    H712775   3.236   4.037   1.736 -2.2696  2.1482  0.1828
  871MPD2     C12776   0.224   3.540  16.459 -0.1139  0.0416 -0.1772
  871MPD2    C112777   0.172   3.500  16.577  0.1589  0.2477 -0.8123
  871MPD2    C212778   0.139   3.368  16.588 -0.0870 -0.1096 -0.3531
  871MPD2    C312779   0.175   3.274  16.488 -0.1458 -0.3162  0.5867
  871MPD2    C412780   0.236   3.313  16.372 -0.3526  0.7914 -0.0349
  871MPD2    C512781   0.242   3.453  16.357  0.0718 -0.2959 -0.8405
  871MPD2     H12782   0.098   3.335  16.683 -2.6791  2.0769 -0.7189
  871MPD2    H112783   0.260   3.248  16.289 -1.3197 -0.6442  0.8061
  871MPD2    H212784   0.241   3.646  16.442  1.3714  0.0540  1.3644
  871MPD2    H312785   0.257   3.486  16.255  1.2422 -0.9653 -0.8787
  871MPD2     N12786   0.152   3.134  16.500  0.1872  0.3204  0.1455
  871MPD2    H512787   0.168   3.077  16.418 -2.1057  2.3418 -1.7098
  871MPD2    N112788   0.158   3.596  16.680 -0.0216  0.5700 -0.5436
  871MPD2    H712789   0.161   3.694  16.653 -4.3064  0.5620 -0.9214
  872MPD2     C12790   1.246   1.177  14.341 -0.1726 -0.0528 -0.3454
  872MPD2    C112791   1.160   1.168  14.239 -1.0493  0.6204  0.0068
  872MPD2    C212792   1.023   1.139  14.263 -0.1148 -0.1900  0.1795
  872MPD2    C312793   0.986   1.120  14.393 -0.9294  0.1715  0.0441
  872MPD2    C412794   1.079   1.131  14.490  0.1494 -0.3168  0.2373
  872MPD2    C512795   1.210   1.155  14.469  0.3480 -0.1915 -0.2633
  872MPD2     H12796   0.957   1.128  14.178 -3.2661  1.7842  2.4031
  872MPD2    H112797   1.058   1.110  14.595 -1.4443  0.2316  0.0231
  872MPD2    H212798   1.354   1.178  14.328 -0.1241  0.0698  0.0664
  872MPD2    H312799   1.281   1.160  14.550  0.6714  1.4626 -0.6480
  872MPD2     N12800   0.857   1.094  14.440 -0.2483  0.2868 -0.4381
  872MPD2    H512801   0.844   1.106  14.540  0.1261  0.1278 -0.3698
  872MPD2    N112802   1.212   1.186  14.104 -0.0029 -0.0220  0.2280
  872MPD2    H712803   1.157   1.148  14.027 -0.6970 -0.5205  0.9654
  873MPD2     C12804   3.078   0.945   1.196  0.6264  0.1199  0.0834
  873MPD2    C112805   2.959   0.950   1.136  0.1637 -1.0272  0.3751
  873MPD2    C212806   2.917   0.852   1.044  0.3360  0.3668  0.0340
  873MPD2    C312807   2.989   0.732   1.029  1.0765 -0.3384 -0.4211
  873MPD2    C412808   3.103   0.722   1.100 -0.4651 -0.0724 -0.3228
  873MPD2    C512809   3.155   0.831   1.173 -0.0050 -0.0053 -0.0815
  873MPD2     H12810   2.824   0.875   0.993  0.3555 -1.2306 -0.7162
  873MPD2    H112811   3.167   0.635   1.087  1.5834  1.5231 -0.9429
  873MPD2    H212812   3.111   1.032   1.252  0.6771 -0.2371  0.6068
  873MPD2    H312813   3.254   0.830   1.217  0.7067 -0.0031 -1.7045
  873MPD2     N12814   2.944   0.621   0.953 -0.2114  0.6565 -1.1038
  873MPD2    H512815   2.991   0.531   0.962 -1.9992  0.0588  2.2700
  873MPD2    N112816   2.889   1.072   1.156  1.0719  0.1869 -0.3887
  873MPD2    H712817   2.933   1.150   1.204 -0.6432  0.3763  0.8532
  874MPD2     C12818   2.622   1.446  16.434 -0.0096 -0.0094  0.3384
  874MPD2    C112819   2.619   1.376  16.555  0.1809 -0.3681  0.3418
  874MPD2    C212820   2.650   1.449  16.669  0.2343 -0.2034  0.4071
  874MPD2    C312821   2.693   1.579  16.665  0.0361  0.3085  0.1591
  874MPD2    C412822   2.698   1.647  16.545 -0.8245  0.6637 -0.2907
  874MPD2    C512823   2.677   1.572  16.429  0.2565  0.4322  0.0223
  874MPD2     H12824   2.641   1.404  16.767 -0.9363  0.2626  0.5087
  874MPD2    H112825   2.726   1.749  16.521 -0.2314  1.0990  2.2927
  874MPD2    H212826   2.589   1.404  16.340 -0.1398  0.3151  0.2396
  874MPD2    H312827   2.703   1.616  16.334  0.1012  0.6674  0.0885
  874MPD2     N12828   2.711   1.649  16.791 -0.2208  0.3943 -0.0945
  874MPD2    H512829   2.697   1.590  16.873 -0.9068  0.2022 -0.3448
  874MPD2    N112830   2.596   1.241  16.555 -0.4071  0.0145  0.2100
  874MPD2    H712831   2.560   1.216  16.463  2.0199 -1.5222 -0.3187
  875MPD2     C12832   3.368   4.616  14.804  0.2760 -0.1210  0.3554
  875MPD2    C112833   3.274   4.575  14.897 -0.7558  0.5893  0.6756
  875MPD2    C212834   3.276   4.631  15.025 -0.2821 -0.1897 -0.6415
  875MPD2    C312835   3.367   0.013  15.055  0.0085 -0.4215 -0.1997
  875MPD2    C412836   3.440   0.062  14.951 -0.7106 -0.3147  0.7557
  875MPD2    C512837   3.448   4.722  14.827  0.1453  0.6764 -0.4953
  875MPD2     H12838   3.203   4.582  15.088  0.1530 -0.0474 -0.0199
  875MPD2    H112839   3.509   0.144  14.961  0.1169 -1.1810  2.2228
  875MPD2    H212840   3.382   4.565  14.710 -3.9329  1.5133 -1.1560
  875MPD2    H312841   3.507   0.047  14.750 -0.5806  0.0972 -1.4180
  875MPD2     N12842   3.382   0.067  15.184  0.5127 -0.1091  0.1710
  875MPD2    H512843   3.451   0.140  15.200 -0.2763  0.7891 -0.5741
  875MPD2    N112844   3.174   4.479  14.867  0.2920 -0.5878 -0.2276
  875MPD2    H712845   3.097   4.474  14.932  0.8251 -3.0094  0.2185
  876MPD2     C12846   2.828   1.193  16.286  0.1529  0.1728 -0.9613
  876MPD2    C112847   2.741   1.127  16.202 -0.6295 -0.5275  0.5649
  876MPD2    C212848   2.724   0.993  16.231 -1.0075 -0.1750  0.7988
  876MPD2    C312849   2.789   0.938  16.338  0.0991  0.3501 -0.0947
  876MPD2    C412850   2.865   1.012  16.422 -0.5205 -0.4678 -0.6673
  876MPD2    C512851   2.891   1.139  16.394  0.9139  0.0726  0.1680
  876MPD2     H12852   2.659   0.924  16.178 -1.3806 -0.2177  1.3076
  876MPD2    H112853   2.914   0.968  16.508  2.0917 -0.6678 -2.2494
  876MPD2    H212854   2.865   1.294  16.269  1.5881 -0.5134 -1.9596
  876MPD2    H312855   2.950   1.197  16.464  0.0192  0.4789  0.5884
  876MPD2     N12856   2.761   0.797  16.369  0.1307 -0.1986 -0.5690
  876MPD2    H512857   2.715   0.751  16.291  0.8260 -1.3793 -0.2776
  876MPD2    N112858   2.678   1.200  16.101  0.0358  0.1410  0.2550
  876MPD2    H712859   2.710   1.296  16.090  1.4347 -0.3659 -0.0642
  877MPD2     C12860   2.857   1.488  15.419  0.5878 -0.0108  0.1436
  877MPD2    C112861   2.777   1.381  15.430  0.8541 -0.2896 -0.4397
  877MPD2    C212862   2.756   1.301  15.321  0.0328  0.1315  0.3069
  877MPD2    C312863   2.826   1.315  15.205  0.0641 -0.0174 -0.2813
  877MPD2    C412864   2.904   1.430  15.194 -0.3613  0.1728 -0.0776
  877MPD2    C512865   2.910   1.516  15.300  0.2910 -0.0930 -0.0532
  877MPD2     H12866   2.668   1.238  15.326 -0.3049  0.4884 -1.0558
  877MPD2    H112867   2.947   1.453  15.098 -1.2424  3.2395  0.2383
  877MPD2    H212868   2.871   1.565  15.494  0.8984 -0.5026  0.5996
  877MPD2    H312869   2.981   1.597  15.290  0.1085  0.1327  0.4756
  877MPD2     N12870   2.820   1.225  15.097  0.3431  0.6244 -0.0046
  877MPD2    H512871   2.887   1.230  15.021  1.1752  3.9514  0.9625
  877MPD2    N112872   2.694   1.355  15.540 -0.0735 -0.4565  0.1962
  877MPD2    H712873   2.636   1.272  15.527  1.3561 -1.3183 -0.7000
  878MPD2     C12874   1.674   1.137  13.526 -0.1127  0.4428 -0.2505
  878MPD2    C112875   1.807   1.110  13.566 -0.1607  0.2805  0.3117
  878MPD2    C212876   1.839   1.028  13.675  0.1633  0.1910  0.6237
  878MPD2    C312877   1.729   0.969  13.744 -0.1102 -0.1989 -0.2513
  878MPD2    C412878   1.601   0.987  13.701  0.0170 -0.2862  0.7913
  878MPD2    C512879   1.576   1.082  13.605  0.0145 -0.2397  0.4571
  878MPD2     H12880   1.944   1.010  13.695 -0.4523  0.7176  4.4940
  878MPD2    H112881   1.512   0.954  13.753 -0.1222 -2.3402 -0.7770
  878MPD2    H212882   1.653   1.213  13.452 -2.5071  1.0162  0.9998
  878MPD2    H312883   1.475   1.104  13.572 -0.8238 -3.4391  0.8370
  878MPD2     N12884   1.756   0.902  13.867  0.3155 -0.0182 -0.0380
  878MPD2    H512885   1.849   0.916  13.904  0.0362  1.4706  0.0840
  878MPD2    N112886   1.903   1.175  13.481 -0.0684 -0.8908  0.2960
  878MPD2    H712887   1.863   1.211  13.395  0.0323 -0.2474  0.5134
  879MPD2     C12888   2.617   1.901  17.299 -0.5536 -0.1802  0.4394
  879MPD2    C112889   2.625   2.006  17.216  0.1238  0.6101 -0.3188
  879MPD2    C212890   2.534   2.018  17.112  0.0128  0.3206  0.0797
  879MPD2    C312891   2.427   1.930  17.101 -0.2438 -1.0036  0.6126
  879MPD2    C412892   2.425   1.825  17.188  0.2314 -0.0306 -0.1945
  879MPD2    C512893   2.515   1.815  17.292 -0.1501  0.0268 -0.2785
  879MPD2     H12894   2.543   2.105  17.048  1.1468  0.8884  1.0067
  879MPD2    H112895   2.341   1.756  17.183  0.6824 -0.7403  2.0886
  879MPD2    H212896   2.683   1.886  17.384 -0.7696 -0.8697  0.4843
  879MPD2    H312897   2.503   1.733  17.362  0.3608  0.9388  0.8790
  879MPD2     N12898   2.330   1.936  17.000  0.3663 -0.3023  0.4660
  879MPD2    H512899   2.270   1.854  17.000 -2.5224  1.8207  0.8906
  879MPD2    N112900   2.734   2.101  17.230  0.1337  0.6649 -0.2330
  879MPD2    H712901   2.800   2.094  17.306 -0.6300  0.3585  0.4007
  880MPD2     C12902   3.881   3.973   0.939 -0.3047 -0.4775  0.0059
  880MPD2    C112903   3.890   4.036   0.815 -0.1562  0.3883  0.1954
  880MPD2    C212904   4.008   4.009   0.745  0.4122 -0.8415 -0.1175
  880MPD2    C312905   4.112   3.938   0.797  0.4882 -0.2852  0.9980
  880MPD2    C412906   4.100   3.886   0.926  0.1338 -0.7140  0.4522
  880MPD2    C512907   3.987   3.904   0.994  0.1840  0.6293  0.0374
  880MPD2     H12908   4.017   4.051   0.645  2.4452  1.1965  0.9040
  880MPD2    H112909   4.188   3.848   0.977 -0.3006 -2.0328  0.2123
  880MPD2    H212910   3.785   3.977   0.989 -0.5927 -1.9469 -0.4119
  880MPD2    H312911   3.973   3.874   1.097 -1.2091 -3.0324 -1.2433
  880MPD2     N12912   4.216   3.919   0.714  0.4986 -0.3321  0.1638
  880MPD2    H512913   4.216   3.945   0.616  1.1037  1.3245  0.6030
  880MPD2    N112914   3.785   4.118   0.764 -0.0325  0.0438  0.5787
  880MPD2    H712915   3.696   4.115   0.814 -1.1221 -0.3834 -1.3915
  881MPD2     C12916   3.907   4.694   0.004  0.1967  0.6972  0.1689
  881MPD2    C112917   3.828   4.590  17.659  0.1999 -0.0047  0.3321
  881MPD2    C212918   3.749   4.530   0.062 -0.3868 -0.2602 -0.1262
  881MPD2    C312919   3.742   4.578   0.195 -0.0884 -0.3884 -0.4341
  881MPD2    C412920   3.823   4.687   0.231 -0.8368 -0.4835 -0.1281
  881MPD2    C512921   3.898   0.026   0.129 -0.1692  0.3623  0.2882
  881MPD2     H12922   3.693   4.448   0.020 -1.9587  1.2769 -1.0412
  881MPD2    H112923   3.827   4.722   0.333 -2.3450  1.3542 -0.6918
  881MPD2    H212924   3.974   0.019  17.628  1.0485 -1.8988 -0.7712
  881MPD2    H312925   3.951   0.117   0.153 -1.0386  0.0697  3.2529
  881MPD2     N12926   3.678   4.512   0.305 -0.4616 -0.3413  0.7111
  881MPD2    H512927   3.708   4.533   0.400 -0.4001  0.9710  0.3998
  881MPD2    N112928   3.862   4.529  17.536  0.1644  0.3977  0.1430
  881MPD2    H712929   3.911   4.588  17.469  1.7795 -1.9524 -0.7487
  882MPD2     C12930   2.516   1.064  14.304 -0.1008  0.3691  0.2392
  882MPD2    C112931   2.501   1.103  14.433  0.2866  0.1699  0.5067
  882MPD2    C212932   2.379   1.151  14.468 -0.7222 -0.6766  0.6270
  882MPD2    C312933   2.271   1.149  14.379 -0.3565 -0.0414  0.2384
  882MPD2    C412934   2.292   1.098  14.250  0.7880  0.5174  0.8538
  882MPD2    C512935   2.414   1.062  14.210  0.0317  0.2607 -0.3897
  882MPD2     H12936   2.365   1.183  14.570 -0.5843 -0.0769  0.4601
  882MPD2    H112937   2.207   1.100  14.183  0.0853  1.3439  1.7714
  882MPD2    H212938   2.609   1.012  14.280 -0.0708  0.6923 -0.3481
  882MPD2    H312939   2.430   1.027  14.109 -0.8186 -0.9440 -0.0980
  882MPD2     N12940   2.138   1.188  14.416 -1.0671 -0.5215 -0.1360
  882MPD2    H512941   2.078   1.172  14.336  1.6402 -2.5808 -1.7855
  882MPD2    N112942   2.610   1.087  14.522  0.9031  0.2167  0.3104
  882MPD2    H712943   2.688   1.031  14.489  0.9987  0.8401 -0.5083
  883MPD2     C12944   4.556   1.451  16.715  0.2409  0.1851  0.1731
  883MPD2    C112945   4.598   1.553  16.640  0.1852 -0.2613 -0.0383
  883MPD2    C212946   0.006   1.589  16.658  0.1975 -0.3211 -0.8798
  883MPD2    C312947   0.089   1.528  16.747  0.8194  0.5000  0.0753
  883MPD2    C412948   0.044   1.427  16.834  0.3722 -0.8982  0.1279
  883MPD2    C512949   4.639   1.395  16.815  0.1789 -0.4418  0.6339
  883MPD2     H12950   0.046   1.671  16.599 -1.9238  1.1199 -0.3121
  883MPD2    H112951   0.101   1.365  16.904  0.5681 -2.2101 -1.2050
  883MPD2    H212952   4.455   1.412  16.720  0.6557 -0.8871  0.1012
  883MPD2    H312953   4.595   1.316  16.876  0.2157 -0.5766  0.4872
  883MPD2     N12954   0.222   1.585  16.761 -0.0734 -0.4017  0.0099
  883MPD2    H512955   0.233   1.676  16.717  2.0144 -0.5264  0.2708
  883MPD2    N112956   4.517   1.615  16.540  0.3919  0.6921 -0.0881
  883MPD2    H712957   4.564   1.656  16.460 -1.3896  0.4885 -1.2455
  884MPD2     C12958   1.280   1.905  15.566 -0.0475  0.1171 -0.7175
  884MPD2    C112959   1.243   1.921  15.435 -0.5635 -0.3322 -0.0959
  884MPD2    C212960   1.116   1.976  15.411 -0.3415  0.1377 -0.6102
  884MPD2    C312961   1.043   2.040  15.502 -0.3432 -0.4400 -0.2361
  884MPD2    C412962   1.089   2.040  15.634  0.1482 -0.4646  0.4492
  884MPD2    C512963   1.203   1.964  15.663 -0.6760  0.5888 -0.5070
  884MPD2     H12964   1.093   1.971  15.305  0.5269  0.4031 -0.8121
  884MPD2    H112965   1.036   2.088  15.716  1.6651  1.7512  0.1198
  884MPD2    H212966   1.366   1.846  15.595 -0.1675  0.4156  0.2483
  884MPD2    H312967   1.239   1.965  15.766  0.0635 -0.0952 -0.7583
  884MPD2     N12968   0.935   2.119  15.458  0.4823 -0.1469  0.2347
  884MPD2    H512969   0.910   2.114  15.360 -1.0012 -2.2175  0.7270
  884MPD2    N112970   1.318   1.883  15.322  0.4086 -0.3088  0.2792
  884MPD2    H712971   1.275   1.902  15.232 -0.4858  0.0915  0.7941
  885MPD2     C12972   4.485   2.429   0.221  0.2973 -0.3524 -0.2983
  885MPD2    C112973   4.530   2.322   0.149 -0.2214  0.2981 -0.0184
  885MPD2    C212974   4.546   2.337   0.011  0.0197 -0.2244  0.2953
  885MPD2    C312975   4.504   2.455  17.641 -0.0993  0.5869 -0.5168
  885MPD2    C412976   4.455   2.555   0.019  0.1619  0.1924  0.6179
  885MPD2    C512977   4.445   2.538   0.154  0.4156  0.0128  0.0674
  885MPD2     H12978   4.581   2.249  17.653  0.6591 -1.5313  2.8980
  885MPD2    H112979   4.413   2.647  17.673 -3.0157 -1.7594 -0.5388
  885MPD2    H212980   4.473   2.421   0.328 -1.2550  1.0664 -0.3839
  885MPD2    H312981   4.407   2.616   0.218  2.5485  0.2131  1.0645
  885MPD2     N12982   4.524   2.456  17.501  0.2132 -0.3786 -0.7886
  885MPD2    H512983   4.567   2.372  17.462  1.2591 -0.3077  0.2271
  885MPD2    N112984   4.566   2.216   0.229  0.2399  0.4588 -1.0286
  885MPD2    H712985   4.552   2.224   0.329 -2.5266 -1.6636 -1.2368
  886MPD2     C12986   1.157   0.709  15.740  0.3725 -0.4932  0.6891
  886MPD2    C112987   1.259   0.671  15.652 -0.1242  0.1602  0.3027
  886MPD2    C212988   1.295   0.758  15.553 -0.0273  0.5278 -0.3615
  886MPD2    C312989   1.241   0.879  15.539 -0.0744 -0.2741 -0.0270
  886MPD2    C412990   1.153   0.924  15.632  1.1058 -1.0165 -0.4149
  886MPD2    C512991   1.119   0.842  15.732 -0.5052 -0.2020 -0.4451
  886MPD2     H12992   1.373   0.737  15.481  1.2946  2.4793  0.5007
  886MPD2    H112993   1.123   1.029  15.629  2.5285 -0.5687  1.0339
  886MPD2    H212994   1.137   0.659  15.834 -1.9529  1.0407  1.0172
  886MPD2    H312995   1.055   0.884  15.809 -0.3283 -0.3552 -0.2160
  886MPD2     N12996   1.285   0.957  15.425 -0.1937  0.0339 -0.1808
  886MPD2    H512997   1.355   0.911  15.367 -0.5170 -1.7950  0.8782
  886MPD2    N112998   1.333   0.550  15.664  0.3323 -0.3210 -0.0122
  886MPD2    H712999   1.419   0.539  15.612  1.5298  1.1002  1.6619
  887MPD2     C13000   1.980   0.436  15.984  0.1037 -0.0451 -0.0528
  887MPD2    C113001   1.879   0.505  15.923 -0.0671  0.5206 -0.0203
  887MPD2    C213002   1.879   0.643  15.926 -0.6330 -0.2871 -0.1940
  887MPD2    C313003   1.976   0.718  15.988 -0.2199 -0.2458  0.3118
  887MPD2    C413004   2.085   0.653  16.049 -0.0936  0.8322 -0.7665
  887MPD2    C513005   2.076   0.514  16.044  0.5155 -0.0660 -0.4941
  887MPD2     H13006   1.797   0.694  15.876  0.3663  2.0145  0.4881
  887MPD2    H113007   2.180   0.688  16.086 -0.0361  0.8643 -0.9481
  887MPD2    H213008   1.990   0.328  15.978 -0.6483 -0.2986  2.9226
  887MPD2    H313009   2.159   0.466  16.095 -0.4509  0.7360  1.8235
  887MPD2     N13010   1.975   0.861  15.980 -0.3392  0.0257 -0.5017
  887MPD2    H513011   1.903   0.903  15.921 -1.2654 -1.1185 -0.1887
  887MPD2    N113012   1.760   0.446  15.870  0.7717 -0.1242  0.3545
  887MPD2    H713013   1.684   0.507  15.841 -0.5270 -1.8250  0.1934
  888MPD2     C13014   3.596   0.880  14.707 -0.5603 -0.4569 -0.8207
  888MPD2    C113015   3.601   0.905  14.839  0.2582  1.1976 -0.5568
  888MPD2    C213016   3.651   1.026  14.875 -0.0414  0.0177  0.7369
  888MPD2    C313017   3.696   1.116  14.782 -0.1038 -0.5012  0.4880
  888MPD2    C413018   3.677   1.091  14.649  0.6386  0.0369 -0.1046
  888MPD2    C513019   3.616   0.972  14.609 -0.2672 -0.5549  0.6846
  888MPD2     H13020   3.653   1.060  14.978 -2.0778  2.5983 -0.0652
  888MPD2    H113021   3.691   1.172  14.578  0.0881 -1.6034 -2.0710
  888MPD2    H213022   3.542   0.791  14.676  0.6427 -1.5989  0.4143
  888MPD2    H313023   3.578   0.951  14.510  1.5147 -3.1147  0.5283
  888MPD2     N13024   3.757   1.243  14.829  0.4072 -0.5509  0.1710
  888MPD2    H513025   3.766   1.252  14.929 -2.1724 -0.5194  0.4130
  888MPD2    N113026   3.547   0.820  14.938  0.0531  0.3484 -0.5655
  888MPD2    H713027   3.551   0.856  15.033  0.6492 -1.8700  0.2599
  889MPD2     C13028   2.337   4.704  13.325 -0.1241 -0.4410 -0.2394
  889MPD2    C113029   2.466   4.722  13.280 -0.8134 -0.2475  0.4669
  889MPD2    C213030   2.537   0.108  13.326  0.0229  0.6216 -0.8367
  889MPD2    C313031   2.470   0.208  13.397  0.3649 -0.0300  0.6933
  889MPD2    C413032   2.340   0.191  13.435 -0.9954 -0.4044 -1.1345
  889MPD2    C513033   2.274   0.076  13.401  0.0254 -0.2449 -0.1244
  889MPD2     H13034   2.644   0.098  13.342  0.1455  2.9933 -0.1647
  889MPD2    H113035   2.286   0.254  13.504  1.9400 -0.6231  1.3594
  889MPD2    H213036   2.292   4.606  13.328 -0.5153 -0.3770 -4.1080
  889MPD2    H313037   2.168   0.059  13.413  0.2240 -2.4615 -1.3570
  889MPD2     N13038   2.546   0.316  13.451  0.7127  0.2451 -0.7596
  889MPD2    H513039   2.647   0.318  13.451  0.6810  1.9717 -0.0238
  889MPD2    N113040   2.539   4.604  13.251  0.5321  0.5339 -0.3326
  889MPD2    H713041   2.639   4.601  13.269  0.8448  4.6311 -1.3956
  890MPD2     C13042   2.530   1.775  14.927 -0.3945  0.4090 -0.1384
  890MPD2    C113043   2.534   1.910  14.952  0.1845 -0.1603 -0.0286
  890MPD2    C213044   2.566   1.946  15.081  0.5705  0.3714 -0.3908
  890MPD2    C313045   2.612   1.854  15.178  0.1259  0.8092  0.2733
  890MPD2    C413046   2.607   1.720  15.147  0.1151 -0.1358  0.0731
  890MPD2    C513047   2.571   1.680  15.023 -0.3704 -0.1018 -0.5524
  890MPD2     H13048   2.557   2.050  15.110 -2.1842 -0.7136  2.6319
  890MPD2    H113049   2.648   1.643  15.212 -2.6924 -1.4354  0.2975
  890MPD2    H213050   2.484   1.738  14.837  0.6342  0.9362 -0.8785
  890MPD2    H313051   2.567   1.576  14.995 -1.4968 -0.2434  0.1230
  890MPD2     N13052   2.649   1.902  15.306  0.5897  0.6908  0.1779
  890MPD2    H513053   2.681   1.999  15.312 -1.6396  1.4429 -0.2396
  890MPD2    N113054   2.484   2.007  14.853  0.3430  1.0532  0.2922
  890MPD2    H713055   2.433   1.966  14.775 -1.4576 -0.2247  2.1400
  891MPD2     C13056   0.345   0.229  16.914  0.1332 -0.2929  0.8210
  891MPD2    C113057   0.355   0.371  16.919  0.4721 -0.2671 -0.3487
  891MPD2    C213058   0.470   0.425  16.967  0.5730 -0.1286  0.4066
  891MPD2    C313059   0.581   0.351  16.986  0.5466  0.6232 -0.1750
  891MPD2    C413060   0.578   0.213  16.993 -0.0237 -0.9534  0.2274
  891MPD2    C513061   0.460   0.156  16.945 -0.7681  0.1884 -0.6421
  891MPD2     H13062   0.471   0.533  16.978 -1.2680  0.1466 -1.9323
  891MPD2    H113063   0.655   0.146  17.031  2.8590  2.4939  0.4216
  891MPD2    H213064   0.255   0.180  16.877  0.6495 -0.0455 -0.7806
  891MPD2    H313065   0.456   0.048  16.952  2.1967  0.0593 -0.6384
  891MPD2     N13066   0.696   0.413  17.034  0.5421  0.8095 -1.1374
  891MPD2    H513067   0.693   0.514  17.044 -1.2197  0.6181  0.2175
  891MPD2    N113068   0.252   0.447  16.865  0.2168  0.3209 -0.0497
  891MPD2    H713069   0.164   0.403  16.840  0.5988 -1.2858  1.4622
  892MPD2     C13070   1.665   1.406  15.295  0.1104 -0.9116 -0.8151
  892MPD2    C113071   1.579   1.423  15.185 -0.1801  0.0643  0.1343
  892MPD2    C213072   1.627   1.375  15.064 -1.2043  0.0803 -0.0113
  892MPD2    C313073   1.734   1.288  15.058 -0.7154 -0.4199  0.0001
  892MPD2    C413074   1.806   1.259  15.172 -0.5304  0.7459 -0.3387
  892MPD2    C513075   1.770   1.321  15.290  1.3028 -0.2720 -0.4395
  892MPD2     H13076   1.568   1.398  14.976 -1.3295  2.1971  0.6041
  892MPD2    H113077   1.890   1.191  15.166 -1.4748 -0.5348  0.8926
  892MPD2    H213078   1.646   1.448  15.393 -0.1280  1.8378 -2.0437
  892MPD2    H313079   1.828   1.297  15.378  1.4228  0.4402 -0.3230
  892MPD2     N13080   1.779   1.233  14.935 -0.5984  0.6155  0.1182
  892MPD2    H513081   1.875   1.202  14.929 -0.2314  1.7744  0.0424
  892MPD2    N113082   1.453   1.483  15.183  0.0238 -0.4060 -0.1167
  892MPD2    H713083   1.410   1.487  15.091 -1.1340 -2.0167  0.3466
  893MPD2     C13084   2.776   0.345   1.884  0.0889 -0.2952 -0.4621
  893MPD2    C113085   2.758   0.256   1.779  0.1120  0.3829 -0.4120
  893MPD2    C213086   2.636   0.242   1.720  0.0133 -0.1334  0.6083
  893MPD2    C313087   2.525   0.312   1.772 -0.5379  0.4207 -0.3061
  893MPD2    C413088   2.537   0.395   1.877 -0.0036 -0.3360 -0.0190
  893MPD2    C513089   2.664   0.414   1.930  0.1327  0.0144  0.2648
  893MPD2     H13090   2.623   0.182   1.631 -1.7605 -0.1261  0.8547
  893MPD2    H113091   2.457   0.459   1.913 -0.7743 -0.5541 -1.3632
  893MPD2    H213092   2.877   0.364   1.918  0.8049 -1.6847 -1.7886
  893MPD2    H313093   2.667   0.482   2.014  1.1090 -0.6940  0.8035
  893MPD2     N13094   2.396   0.300   1.727  0.2562 -0.1356 -0.3245
  893MPD2    H513095   2.321   0.354   1.770  0.3988 -1.7128  1.8667
  893MPD2    N113096   2.881   0.205   1.725 -0.0078  0.6086  0.1809
  893MPD2    H713097   2.962   0.229   1.782 -2.6881 -0.3599  4.3434
  894MPD2     C13098   1.274   2.519   0.626  0.3157  0.2769  0.0073
  894MPD2    C113099   1.342   2.500   0.746 -0.0127 -0.1705 -0.5957
  894MPD2    C213100   1.472   2.525   0.750  0.6519  0.1852 -0.3278
  894MPD2    C313101   1.539   2.573   0.634 -0.1952 -0.3063 -0.3049
  894MPD2    C413102   1.473   2.582   0.509  0.4358 -0.4997  0.7170
  894MPD2    C513103   1.337   2.562   0.506 -0.5528 -0.5403 -0.4055
  894MPD2     H13104   1.523   2.524   0.846  1.0121  0.9571 -0.5188
  894MPD2    H113105   1.510   2.607   0.411 -0.5565 -2.3489 -0.1289
  894MPD2    H213106   1.167   2.513   0.609  0.1680  1.2649  0.5793
  894MPD2    H313107   1.280   2.582   0.415  0.0655  0.4598 -0.5681
  894MPD2     N13108   1.673   2.617   0.649 -0.7175 -1.1836 -0.3031
  894MPD2    H513109   1.715   2.608   0.741  0.1942  1.2450 -0.4731
  894MPD2    N113110   1.278   2.459   0.866 -0.6407  0.0811 -0.0023
  894MPD2    H713111   1.340   2.453   0.946 -1.0919  1.7822  0.4660
  895MPD2     C13112   1.086   0.821  13.843  0.9386  0.6129  0.1307
  895MPD2    C113113   0.975   0.836  13.763 -0.4963  0.8210 -0.3111
  895MPD2    C213114   0.925   0.734  13.683 -0.4377  0.1457 -0.1730
  895MPD2    C313115   0.988   0.615  13.668  0.1094 -0.2493  0.6399
  895MPD2    C413116   1.107   0.604  13.742  0.4244  0.0222  0.7083
  895MPD2    C513117   1.157   0.703  13.827 -0.0278  0.0633 -0.0773
  895MPD2     H13118   0.849   0.755  13.608 -0.2485 -0.7059 -0.6038
  895MPD2    H113119   1.166   0.513  13.730 -0.3539 -0.8203  3.2191
  895MPD2    H213120   1.131   0.905  13.894  3.0763  0.0755 -0.8651
  895MPD2    H313121   1.256   0.696  13.870 -1.4018 -1.1846  2.8797
  895MPD2     N13122   0.948   0.528  13.568  0.2134 -0.9724 -0.5592
  895MPD2    H513123   0.864   0.556  13.518  0.1330 -0.2418 -0.0038
  895MPD2    N113124   0.896   0.957  13.755 -0.0024 -0.1809 -0.3632
  895MPD2    H713125   0.802   0.953  13.717  0.1692  0.3094 -0.8385
  896MPD2     C13126   3.250   2.824   1.717  0.6151 -0.7395 -0.6901
  896MPD2    C113127   3.241   2.824   1.579 -0.5537  0.3677  0.0583
  896MPD2    C213128   3.125   2.770   1.527  0.9423 -0.2947  0.1447
  896MPD2    C313129   3.022   2.726   1.608  0.1081 -0.1149 -0.8365
  896MPD2    C413130   3.027   2.731   1.737  0.4710  0.3946 -0.6489
  896MPD2    C513131   3.144   2.776   1.797 -0.8645  0.0753  0.1213
  896MPD2     H13132   3.119   2.760   1.420 -1.2795  2.0261  0.0605
  896MPD2    H113133   2.964   2.681   1.810  0.6944 -0.9291 -1.3501
  896MPD2    H213134   3.341   2.853   1.770  0.3114  1.3078 -1.3164
  896MPD2    H313135   3.154   2.766   1.905 -0.6825 -0.6368  0.0361
  896MPD2     N13136   2.909   2.669   1.540  0.2312  0.8164  0.0991
  896MPD2    H513137   2.921   2.662   1.440 -0.2642  0.1027  0.0897
  896MPD2    N113138   3.348   2.877   1.507 -0.6243 -0.9220  0.2059
  896MPD2    H713139   3.418   2.916   1.569 -0.6245 -1.4832  0.5582
  897MPD2     C13140   3.695   0.107  10.066  0.1580 -0.5507  0.4862
  897MPD2    C113141   3.724   4.716  10.135 -0.6593  0.0599 -0.1520
  897MPD2    C213142   3.663   4.699  10.257 -0.0581  0.5093 -0.1671
  897MPD2    C313143   3.602   0.080  10.321 -0.4209 -0.4163  0.2619
  897MPD2    C413144   3.568   0.189  10.246  0.0151 -0.3882  0.1041
  897MPD2    C513145   3.619   0.211  10.119 -0.1300  0.1198 -0.5889
  897MPD2     H13146   3.685   4.608  10.312 -0.3530 -0.6062 -1.9040
  897MPD2    H113147   3.505   0.266  10.289  2.1745  1.5054 -0.1106
  897MPD2    H213148   3.738   0.127   9.969 -0.8261 -1.5717 -0.1661
  897MPD2    H313149   3.610   0.312  10.080 -0.5507  0.1904 -0.3163
  897MPD2     N13150   3.558   0.080  10.460  0.1811  0.3879  0.0841
  897MPD2    H513151   3.493   0.152  10.490  1.3150  0.9966  1.1210
  897MPD2    N113152   3.805   4.624  10.068 -0.4058  0.0821  0.8871
  897MPD2    H713153   3.811   4.647   9.970 -0.7256 -1.1581  0.5837
  898MPD2     C13154   1.173   1.057   0.096 -0.6664  1.0465  0.6126
  898MPD2    C113155   1.250   1.174   0.110 -0.3536 -0.2240  0.0316
  898MPD2    C213156   1.202   1.291   0.053 -0.4291  0.0208 -0.5727
  898MPD2    C313157   1.083   1.300  17.678  0.2669 -0.2557  0.3635
  898MPD2    C413158   1.011   1.183  17.661 -0.0962  0.3310 -0.5924
  898MPD2    C513159   1.053   1.061   0.029  0.3059 -0.7391  0.5773
  898MPD2     H13160   1.260   1.383   0.055 -1.6885  0.8107  0.2179
  898MPD2    H113161   0.908   1.181  17.629  0.0352 -0.0849 -0.9929
  898MPD2    H213162   1.197   0.960   0.138 -0.9910  0.7309  0.0757
  898MPD2    H313163   0.987   0.975   0.025  0.0537 -0.4143 -2.1462
  898MPD2     N13164   1.048   1.422  17.614  0.3518  0.5112 -0.1162
  898MPD2    H513165   1.122   1.491  17.626  1.5858 -0.9256  0.5726
  898MPD2    N113166   1.376   1.179   0.170 -0.2837  0.0100 -0.1139
  898MPD2    H713167   1.416   1.272   0.180  2.1524 -0.9289 -1.1457
  899MPD2     C13168   1.578   1.450  17.399 -0.0257  0.3593 -0.5200
  899MPD2    C113169   1.691   1.526  17.433  0.4550  0.0222 -1.0813
  899MPD2    C213170   1.740   1.517  17.563  0.6807  0.2976 -0.1037
  899MPD2    C313171   1.664   1.452  17.665 -0.1841 -0.1607 -0.1947
  899MPD2    C413172   1.553   1.376  17.623  0.3507  0.1158 -0.4557
  899MPD2    C513173   1.517   1.372  17.487  0.6657 -0.0224  0.4662
  899MPD2     H13174   1.830   1.574  17.584  0.5750 -0.0270  1.2627
  899MPD2    H113175   1.492   1.319  17.692  2.0304 -1.5063 -0.3244
  899MPD2    H213176   1.542   1.442  17.297 -0.0873 -0.1237 -0.4630
  899MPD2    H313177   1.441   1.304  17.450 -0.4897  0.9113  1.1062
  899MPD2     N13178   1.693   1.473   0.111  0.9286  0.0511 -0.7122
  899MPD2    H513179   1.621   1.435   0.171 -0.5940  1.7775 -1.4651
  899MPD2    N113180   1.757   1.599  17.334  0.0555 -0.3277  0.2223
  899MPD2    H713181   1.702   1.612  17.250 -1.6395 -0.6582  1.2823
  900MPD2     C13182   1.513   3.129  11.705 -0.1926  0.0060  0.0474
  900MPD2    C113183   1.406   3.117  11.786 -0.1705  0.5671  0.8301
  900MPD2    C213184   1.290   3.184  11.753  1.1787 -0.3852  0.2507
  900MPD2    C313185   1.286   3.265  11.635 -0.6697  0.6640 -0.3947
  900MPD2    C413186   1.398   3.276  11.558 -0.2249  0.0419 -0.4386
  900MPD2    C513187   1.510   3.209  11.595  0.2044  0.9662 -0.0065
  900MPD2     H13188   1.203   3.181  11.818  0.3215  0.3830 -0.8504
  900MPD2    H113189   1.402   3.337  11.469  2.0042 -2.2570 -1.9098
  900MPD2    H213190   1.599   3.062  11.710 -1.8397 -1.9470  2.2638
  900MPD2    H313191   1.589   3.221  11.521  0.4910 -1.0123 -0.0371
  900MPD2     N13192   1.169   3.341  11.602  0.6411 -0.2437 -0.3483
  900MPD2    H513193   1.089   3.327  11.664  1.3076 -0.4180  0.4746
  900MPD2    N113194   1.410   3.027  11.899 -0.1374 -0.1322 -1.1587
  900MPD2    H713195   1.496   2.985  11.934 -0.5860 -0.5495 -0.5465
  901MPD2     C13196   1.021   2.265  12.582 -0.1816 -0.0472  0.2639
  901MPD2    C113197   1.153   2.298  12.618  0.3322 -0.3424 -1.1405
  901MPD2    C213198   1.192   2.418  12.567  0.0058  0.4920  0.0691
  901MPD2    C313199   1.116   2.500  12.478  0.9647 -1.3498  0.3394
  901MPD2    C413200   0.985   2.469  12.449 -0.1462 -0.0720  0.1772
  901MPD2    C513201   0.941   2.352  12.508 -0.4985 -0.6203  0.3180
  901MPD2     H13202   1.290   2.448  12.599  0.8182 -0.7352 -1.2552
  901MPD2    H113203   0.913   2.520  12.385  0.5043 -1.1464 -1.4124
  901MPD2    H213204   0.978   2.169  12.610 -0.0266  0.7189  3.1301
  901MPD2    H313205   0.844   2.313  12.480 -1.2988  1.2377  0.5142
  901MPD2     N13206   1.187   2.607  12.419  0.2910  0.2612 -0.5656
  901MPD2    H513207   1.281   2.626  12.452  0.5916 -3.2101  0.5163
  901MPD2    N113208   1.229   2.205  12.690 -0.3005  0.2557  0.0500
  901MPD2    H713209   1.184   2.122  12.725 -0.5994  0.9566  1.3516
  902MPD2     C13210   0.561   1.182  12.978 -0.1211  0.3106  0.5314
  902MPD2    C113211   0.498   1.168  12.858  0.4323  0.1843 -0.5592
  902MPD2    C213212   0.544   1.080  12.763 -0.2822 -0.1972 -0.2157
  902MPD2    C313213   0.656   1.007  12.781 -0.3470  0.7286 -0.3969
  902MPD2    C413214   0.720   1.025  12.902 -0.6744  0.4080  0.5813
  902MPD2    C513215   0.683   1.121  12.993 -0.1266 -0.4492  1.1807
  902MPD2     H13216   0.511   1.086  12.660 -0.3232  1.5914 -0.0956
  902MPD2    H113217   0.804   0.961  12.925  0.4081  0.8727 -2.0849
  902MPD2    H213218   0.530   1.255  13.052 -3.3939 -1.6987  1.0946
  902MPD2    H313219   0.737   1.139  13.086  0.7003  0.4439  0.5315
  902MPD2     N13220   0.697   0.901  12.702  0.7051  0.6475  0.2680
  902MPD2    H513221   0.774   0.851  12.745  1.1486  0.4737 -0.7370
  902MPD2    N113222   0.389   1.254  12.839 -0.1720  0.3393 -0.3671
  902MPD2    H713223   0.365   1.330  12.901  0.1074 -1.6773  2.2194
  903MPD2     C13224   0.633   0.759  11.904 -0.2656  0.3952 -0.0233
  903MPD2    C113225   0.591   0.687  12.015  0.1016  0.1894 -0.0532
  903MPD2    C213226   0.458   0.661  12.028 -1.0828  0.5964 -0.8189
  903MPD2    C313227   0.372   0.694  11.929 -0.1502  0.4676  0.4111
  903MPD2    C413228   0.419   0.759  11.811 -0.3148 -0.3292 -0.3886
  903MPD2    C513229   0.550   0.780  11.799 -0.9073  0.2637  0.1691
  903MPD2     H13230   0.425   0.600  12.112  0.5966 -2.9186 -2.7254
  903MPD2    H113231   0.359   0.793  11.726 -2.3720 -0.9620  0.8092
  903MPD2    H213232   0.738   0.781  11.897  0.2871 -2.1640  0.1916
  903MPD2    H313233   0.594   0.813  11.706  0.6856 -1.9104  0.1330
  903MPD2     N13234   0.242   0.673  11.953  0.3059 -0.7178  0.4531
  903MPD2    H513235   0.223   0.649  12.050 -0.7467  0.0669  0.4348
  903MPD2    N113236   0.685   0.657  12.112 -0.3766 -0.1004  0.2610
  903MPD2    H713237   0.781   0.688  12.102 -0.2645 -0.8385 -0.8816
  904MPD2     C13238   0.549   4.682  13.832  0.2067 -0.0936 -0.0299
  904MPD2    C113239   0.551   0.093  13.861  0.0867 -0.0691  0.9221
  904MPD2    C213240   0.676   0.153  13.895  0.5010 -0.2762  0.0128
  904MPD2    C313241   0.789   0.072  13.904 -0.1810 -0.6971  0.3476
  904MPD2    C413242   0.778   4.656  13.894  0.5506 -0.3713  0.3300
  904MPD2    C513243   0.656   4.612  13.862 -0.8844 -0.2897 -0.5639
  904MPD2     H13244   0.672   0.260  13.912  0.8286  0.2332 -3.2567
  904MPD2    H113245   0.864   4.590  13.903  3.1458  2.8847 -0.4187
  904MPD2    H213246   0.454   4.640  13.802 -0.9226  3.0679 -0.8904
  904MPD2    H313247   0.637   4.506  13.848 -0.3415 -0.2823 -1.4047
  904MPD2     N13248   0.901   0.144  13.953 -0.2728 -0.2979  0.7538
  904MPD2    H513249   0.891   0.244  13.970 -0.3640 -0.5469  2.1462
  904MPD2    N113250   0.441   0.186  13.841 -0.1186 -0.0553 -0.3120
  904MPD2    H713251   0.473   0.282  13.850  0.8292 -0.4222  0.1924
  905MPD2     C13252   0.141   0.482  13.208 -0.2516  0.3011  0.4869
  905MPD2    C113253   0.221   0.486  13.323 -0.5691  0.2742  0.1512
  905MPD2    C213254   0.359   0.455  13.312 -0.0903  0.7028 -1.0103
  905MPD2    C313255   0.419   0.447  13.185  0.0400 -0.7451  0.9341
  905MPD2    C413256   0.337   0.448  13.070 -0.6758  0.0413 -0.4714
  905MPD2    C513257   0.200   0.459  13.082 -0.2381 -0.8051  0.7058
  905MPD2     H13258   0.428   0.437  13.394 -0.6666  0.6874 -0.5307
  905MPD2    H113259   0.385   0.443  12.972 -1.6553 -2.6552 -0.8137
  905MPD2    H213260   0.033   0.488  13.206 -0.1364  2.1455 -0.4891
  905MPD2    H313261   0.132   0.467  12.998  1.2406 -1.7013 -0.5692
  905MPD2     N13262   0.554   0.423  13.181 -0.4222 -0.0586  0.1877
  905MPD2    H513263   0.597   0.366  13.109  0.3517 -0.5029  0.9995
  905MPD2    N113264   0.156   0.466  13.447 -0.1982 -0.9078  0.3054
  905MPD2    H713265   0.057   0.444  13.451 -0.9652  1.9210 -3.1098
  906MPD2     C13266   2.626   0.213  11.534 -0.2597  0.0841  0.1249
  906MPD2    C113267   2.643   0.110  11.447  0.5218  0.4204  0.5978
  906MPD2    C213268   2.673   4.708  11.500 -0.7362 -0.4355 -0.6904
  906MPD2    C313269   2.705   4.687  11.633  0.2714  0.5378 -0.1696
  906MPD2    C413270   2.705   0.074  11.714  0.0028  0.2569  0.1842
  906MPD2    C513271   2.662   0.192  11.666  0.2587  0.2208  0.8856
  906MPD2     H13272   2.662   4.632  11.423  1.6337  1.6499 -3.0993
  906MPD2    H113273   2.726   0.067  11.820 -1.9021  3.3149  0.7804
  906MPD2    H213274   2.590   0.305  11.490 -0.2548  0.3002  0.5734
  906MPD2    H313275   2.657   0.267  11.743 -1.5510  0.3711  0.6168
  906MPD2     N13276   2.709   4.555  11.681  0.3027 -0.5095 -0.0760
  906MPD2    H513277   2.703   4.545  11.782 -1.4752  1.9006  0.0830
  906MPD2    N113278   2.618   0.116  11.308  0.5229 -0.3669 -0.2452
  906MPD2    H713279   2.644   0.034  11.254  1.7888 -0.7186  0.8929
  907MPD2     C13280   1.080   4.037  15.351  0.2815  0.2603  0.1797
  907MPD2    C113281   1.204   3.985  15.331 -0.1805  0.0559  0.2200
  907MPD2    C213282   1.295   4.002  15.431  0.0338  0.8167  0.4766
  907MPD2    C313283   1.266   4.066  15.551 -0.2712 -0.1474  0.1289
  907MPD2    C413284   1.143   4.114  15.571 -0.2340 -0.5892 -0.1782
  907MPD2    C513285   1.049   4.109  15.468  0.0511  0.6633  0.1537
  907MPD2     H13286   1.397   3.966  15.425  1.0753  3.4384  2.6752
  907MPD2    H113287   1.117   4.145  15.672  0.1347  1.1902 -0.6434
  907MPD2    H213288   1.002   4.036  15.276  1.1442 -1.0923 -0.6987
  907MPD2    H313289   0.954   4.155  15.490  0.0189  2.1216 -3.1322
  907MPD2     N13290   1.370   4.097  15.639  0.3910 -0.2643  0.1037
  907MPD2    H513291   1.462   4.059  15.619  0.8542  0.2361  1.2664
  907MPD2    N113292   1.252   3.931  15.211  0.6293  0.5644  0.0818
  907MPD2    H713293   1.348   3.899  15.207 -0.5892 -3.0346 -0.4799
  908MPD2     C13294   3.980   3.741  10.339  0.0697  0.1672  0.5662
  908MPD2    C113295   4.002   3.817  10.226  0.2652 -0.4758  0.2073
  908MPD2    C213296   4.014   3.951  10.240  0.0662 -0.3933 -0.0622
  908MPD2    C313297   4.005   4.009  10.366 -0.3818  0.1039  0.4030
  908MPD2    C413298   3.969   3.934  10.472 -0.3225 -0.7140  0.4653
  908MPD2    C513299   3.963   3.799  10.460  0.1732  0.7498  0.0260
  908MPD2     H13300   4.055   4.012  10.161 -0.7633 -2.2016 -1.8789
  908MPD2    H113301   3.939   3.974  10.568 -3.4721  0.2049 -0.9021
  908MPD2    H213302   3.968   3.633  10.339  1.7492 -0.0169  1.9232
  908MPD2    H313303   3.933   3.726  10.535 -1.8220  1.5132 -0.0504
  908MPD2     N13304   4.015   4.146  10.358 -0.8786 -0.0702  0.6791
  908MPD2    H513305   4.039   4.192  10.271 -2.4091  0.5935  0.6008
  908MPD2    N113306   4.013   3.773  10.094  0.4669  0.0828 -0.1838
  908MPD2    H713307   4.011   3.850  10.028  1.2108  0.7423  0.5577
  909MPD2     C13308   4.471   2.643  12.239 -0.6770  0.0079 -0.4555
  909MPD2    C113309   4.391   2.717  12.156  0.4926  0.1177 -0.5010
  909MPD2    C213310   4.283   2.783  12.203  0.2918 -0.7233  0.7026
  909MPD2    C313311   4.248   2.769  12.340 -0.2971  0.3857  0.0370
  909MPD2    C413312   4.330   2.697  12.430  0.1878  0.3918  0.1889
  909MPD2    C513313   4.431   2.629  12.380 -0.4773 -0.3121  0.2258
  909MPD2     H13314   4.222   2.838  12.132  0.9662 -1.9759 -0.8628
  909MPD2    H113315   4.305   2.698  12.535 -2.8279  1.3397 -0.5315
  909MPD2    H213316   4.557   2.582  12.216  1.0902  1.9247  1.0529
  909MPD2    H313317   4.495   2.582  12.455 -1.6429  1.0277  2.0603
  909MPD2     N13318   4.149   2.867  12.374 -0.4558 -0.0143 -0.0983
  909MPD2    H513319   4.097   2.919  12.304 -1.7030  0.9595  1.5521
  909MPD2    N113320   4.412   2.728  12.018 -0.3818  0.2316 -0.5920
  909MPD2    H713321   4.357   2.795  11.965 -0.0145  0.2869 -0.9017
  910MPD2     C13322   0.872   4.465  15.946  0.2850 -0.0153 -0.3688
  910MPD2    C113323   0.970   4.394  15.885 -0.1981 -0.3546  0.3217
  910MPD2    C213324   0.996   4.426  15.754 -0.4676 -0.0836  0.2260
  910MPD2    C313325   0.918   4.520  15.692 -0.0101 -0.1983 -0.3235
  910MPD2    C413326   0.817   4.592  15.758 -0.4660  0.3013  0.2653
  910MPD2    C513327   0.796   4.560  15.886  0.5366 -0.3314  0.3702
  910MPD2     H13328   1.064   4.363  15.697  0.1512  1.5402 -0.8350
  910MPD2    H113329   0.758   4.663  15.702 -1.0914 -0.4231  0.0129
  910MPD2    H213330   0.836   4.436  16.043  0.4890 -1.8779 -0.8639
  910MPD2    H313331   0.720   4.613  15.942  1.0516  1.6860 -0.8725
  910MPD2     N13332   0.926   4.561  15.559 -0.0506  0.1774  0.4020
  910MPD2    H513333   0.865   4.634  15.523  3.3156  2.7365 -0.0568
  910MPD2    N113334   1.036   4.295  15.954  0.4775 -0.7445  0.0547
  910MPD2    H713335   1.108   4.248  15.902  2.4354  0.5526  1.5801
  911MPD2     C13336   3.651   0.907  16.148  0.3775  0.5762 -0.1851
  911MPD2    C113337   3.585   0.933  16.264  0.3169  0.2148  0.8322
  911MPD2    C213338   3.494   1.038  16.276 -0.3201  0.7097  0.4559
  911MPD2    C313339   3.480   1.119  16.170  0.0270  0.2615  0.0898
  911MPD2    C413340   3.555   1.096  16.055 -0.0077  0.7584 -0.7157
  911MPD2    C513341   3.637   0.990  16.048  0.1397 -0.1935  0.6511
  911MPD2     H13342   3.443   1.053  16.370 -0.3678  1.0968  0.3667
  911MPD2    H113343   3.538   1.152  15.964  2.7724  0.4766 -1.4074
  911MPD2    H213344   3.724   0.827  16.137  0.6111  1.0040 -1.8022
  911MPD2    H313345   3.698   0.974  15.959 -0.8395  2.9927 -0.5839
  911MPD2     N13346   3.399   1.232  16.165 -0.6674  0.0206 -0.4870
  911MPD2    H513347   3.412   1.298  16.088 -1.4404 -0.4747 -1.0414
  911MPD2    N113348   3.606   0.842  16.370  0.1208  0.3555 -0.4649
  911MPD2    H713349   3.680   0.773  16.354 -2.5483 -2.7740  0.7684
  912MPD2     C13350   2.931   0.905  15.924 -0.0366  0.3271  0.5264
  912MPD2    C113351   3.002   0.936  16.032 -0.4479  0.6323 -0.4890
  912MPD2    C213352   3.054   0.829  16.107 -0.4186 -0.5104  0.3980
  912MPD2    C313353   3.043   0.698  16.063  0.5045  1.0451  0.6664
  912MPD2    C413354   2.970   0.667  15.946 -0.7609  0.1023 -0.3138
  912MPD2    C513355   2.912   0.776  15.883 -1.1175  0.3073  0.2821
  912MPD2     H13356   3.106   0.850  16.200  0.8040  0.1212 -0.4238
  912MPD2    H113357   2.960   0.568  15.901  2.0363 -0.0206 -0.7029
  912MPD2    H213358   2.887   0.972  15.851  0.8666  3.5742  2.9524
  912MPD2    H313359   2.877   0.754  15.783  0.1485  1.2199 -0.3501
  912MPD2     N13360   3.085   0.601  16.151  0.1577  0.3138  0.4591
  912MPD2    H513361   3.128   0.641  16.234  0.9096  0.0066  0.2107
  912MPD2    N113362   3.030   1.071  16.061  0.3408  0.2225  0.2043
  912MPD2    H713363   3.089   1.094  16.141  0.5157 -0.3532  0.2420
  913MPD2     C13364   4.008   1.070  11.101 -0.5909 -0.0723  0.3390
  913MPD2    C113365   4.034   1.197  11.158  0.5484 -0.4613  0.2109
  913MPD2    C213366   4.064   1.299  11.074  0.0819 -0.1794  0.5116
  913MPD2    C313367   4.064   1.276  10.933  0.2447  0.0007 -0.6615
  913MPD2    C413368   4.037   1.148  10.875 -0.1927  0.1721 -0.3250
  913MPD2    C513369   4.011   1.050  10.966  0.1107  0.3560  0.2647
  913MPD2     H13370   4.088   1.397  11.114 -1.0550  0.4685 -0.3957
  913MPD2    H113371   4.024   1.128  10.769  0.1871  0.1393 -0.3626
  913MPD2    H213372   3.975   0.986  11.161  1.2170 -0.2740  1.0706
  913MPD2    H313373   3.976   0.954  10.931  0.4475  1.6472 -3.6066
  913MPD2     N13374   4.095   1.384  10.844 -0.2784  0.5170  0.7973
  913MPD2    H513375   4.070   1.363  10.747  3.0892 -0.7322  0.2075
  913MPD2    N113376   4.035   1.206  11.298  0.3031 -0.4553  0.0893
  913MPD2    H713377   4.026   1.117  11.346 -0.4435  0.6053  1.8752
  914MPD2     C13378   1.206   1.760  12.135 -0.0982  0.1496 -0.2773
  914MPD2    C113379   1.171   1.880  12.198  0.1417  0.0741 -0.4153
  914MPD2    C213380   1.231   1.907  12.323  0.3278 -0.0347 -0.0653
  914MPD2    C313381   1.312   1.812  12.380  0.5200 -0.0747 -0.1211
  914MPD2    C413382   1.344   1.689  12.317  0.0370 -0.0981 -0.4966
  914MPD2    C513383   1.288   1.668  12.196 -0.0212  0.7195 -0.7021
  914MPD2     H13384   1.224   2.003  12.373  1.6350  0.4095 -0.7378
  914MPD2    H113385   1.394   1.610  12.372 -0.9803 -0.7796 -0.5597
  914MPD2    H213386   1.165   1.736  12.037  0.7065 -2.9046  0.1261
  914MPD2    H313387   1.294   1.573  12.144 -1.3717  0.2782 -0.0411
  914MPD2     N13388   1.354   1.849  12.504 -0.0962  0.5283 -0.1285
  914MPD2    H513389   1.320   1.942  12.527 -0.0529  0.0315  1.9351
  914MPD2    N113390   1.088   1.976  12.129  0.1428  0.0497  0.5082
  914MPD2    H713391   1.064   1.948  12.035  0.4256  2.4597 -0.2608
  915MPD2     C13392   0.154   2.047  15.735 -0.4762  0.1661 -0.1487
  915MPD2    C113393   0.053   2.102  15.662 -0.2571 -0.0831  0.5204
  915MPD2    C213394   4.684   2.175  15.726 -0.7751 -0.1655 -0.3277
  915MPD2    C313395   4.690   2.199  15.863 -0.1762  0.1914  0.2363
  915MPD2    C413396   0.071   2.144  15.933 -0.0593  0.5763 -0.1814
  915MPD2    C513397   0.166   2.074  15.865 -0.4652  0.2783  0.2730
  915MPD2     H13398   4.604   2.218  15.666 -1.8108 -1.4232  0.1623
  915MPD2    H113399   0.098   2.159  16.037 -1.0956 -2.6983  0.5685
  915MPD2    H213400   0.233   1.994  15.684 -0.0664  0.9994 -0.3898
  915MPD2    H313401   0.259   2.054  15.918  0.4627 -1.3985 -1.9243
  915MPD2     N13402   4.592   2.276  15.927  0.2051  0.2229 -1.0070
  915MPD2    H513403   4.523   2.319  15.867  1.9967 -0.2624 -3.4163
  915MPD2    N113404   0.052   2.059  15.527 -0.3866 -0.5500 -0.0924
  915MPD2    H713405   0.134   2.003  15.505  1.0562  1.1614  0.9754
  916MPD2     C13406   2.716   0.422  15.883  0.2393 -0.4353 -0.2980
  916MPD2    C113407   2.723   0.343  15.996 -0.2570  0.1453  0.6097
  916MPD2    C213408   2.782   0.218  15.974  0.8487  0.1639 -0.6680
  916MPD2    C313409   2.842   0.179  15.856 -0.1099  0.3164  0.0155
  916MPD2    C413410   2.834   0.265  15.748 -0.4419  0.7544 -0.5567
  916MPD2    C513411   2.757   0.377  15.763  0.5282  0.8005  0.1249
  916MPD2     H13412   2.789   0.142  16.052 -0.7916 -0.6730 -1.3365
  916MPD2    H113413   2.883   0.250  15.653 -0.5300 -0.8636 -0.3481
  916MPD2    H213414   2.671   0.520  15.892  0.6380 -0.2207 -0.6527
  916MPD2    H313415   2.754   0.440  15.674 -4.4496  1.2552  0.5750
  916MPD2     N13416   2.908   0.051  15.856 -0.3220  0.4423 -0.1152
  916MPD2    H513417   2.893   4.722  15.941 -1.1265  2.4408  0.9710
  916MPD2    N113418   2.674   0.386  16.124 -0.6861 -0.1334 -0.2946
  916MPD2    H713419   2.632   0.478  16.124  0.6932  0.4862  0.5641
  917MPD2     C13420   2.862   2.013  11.341  0.7846 -0.5270 -0.2332
  917MPD2    C113421   2.915   2.074  11.458  0.8819 -0.0471 -0.0277
  917MPD2    C213422   3.046   2.115  11.455  0.7219  0.1508  0.5969
  917MPD2    C313423   3.116   2.104  11.338  0.2905 -0.2910 -0.4715
  917MPD2    C413424   3.069   2.040  11.224  0.1995  0.1753  0.0157
  917MPD2    C513425   2.938   2.003  11.229 -0.2132  0.5534  0.4823
  917MPD2     H13426   3.086   2.180  11.531 -2.0330  1.3537  1.0492
  917MPD2    H113427   3.133   2.028  11.138  0.2166  1.8305 -0.2106
  917MPD2    H213428   2.765   1.967  11.340  0.4964  0.0599  0.3312
  917MPD2    H313429   2.895   1.953  11.144  0.0459  1.7668 -0.3694
  917MPD2     N13430   3.253   2.145  11.331  0.1499 -0.2794  0.2405
  917MPD2    H513431   3.304   2.149  11.244 -0.0529 -1.1296  0.0783
  917MPD2    N113432   2.826   2.105  11.562 -0.7268  1.0050 -0.2194
  917MPD2    H713433   2.727   2.088  11.552 -0.7160  0.6188  0.3193
  918MPD2     C13434   2.928   2.628  12.412 -0.3466 -0.3374 -0.1435
  918MPD2    C113435   3.016   2.554  12.331 -0.5562  0.1018 -0.0610
  918MPD2    C213436   2.969   2.478  12.230 -0.1431  0.4948 -0.3458
  918MPD2    C313437   2.832   2.478  12.196 -0.8118  0.3572  0.1723
  918MPD2    C413438   2.749   2.570  12.265 -0.0024 -0.0888 -0.9166
  918MPD2    C513439   2.798   2.640  12.369  0.1237 -0.3316  0.3065
  918MPD2     H13440   3.039   2.415  12.176  1.1995  1.1598  0.6202
  918MPD2    H113441   2.644   2.576  12.241  0.0739  0.7510 -1.0592
  918MPD2    H213442   2.959   2.688  12.497 -0.4127 -1.7949  0.8977
  918MPD2    H313443   2.728   2.705  12.420 -0.5075  0.0824 -1.0867
  918MPD2     N13444   2.791   2.392  12.099  0.4522 -0.0433  0.0194
  918MPD2    H513445   2.859   2.351  12.036 -0.0109  0.2225 -0.6667
  918MPD2    N113446   3.154   2.545  12.359 -0.1923 -0.3453  0.2575
  918MPD2    H713447   3.209   2.478  12.306 -1.8541 -1.5775  0.0940
  919MPD2     C13448   3.705   1.382  11.633 -0.3937 -0.7400  0.1681
  919MPD2    C113449   3.624   1.272  11.618  0.6155 -0.6865 -0.0012
  919MPD2    C213450   3.549   1.246  11.512 -0.8377 -0.1440 -0.6776
  919MPD2    C313451   3.544   1.340  11.411 -0.7006 -0.2858 -0.6462
  919MPD2    C413452   3.630   1.447  11.420  0.6157  0.1172  0.5552
  919MPD2    C513453   3.714   1.468  11.525  0.0922  0.5344  0.6794
  919MPD2     H13454   3.495   1.152  11.504 -1.7191  0.1544  1.8984
  919MPD2    H113455   3.632   1.522  11.342 -0.7471 -0.4199 -0.0044
  919MPD2    H213456   3.764   1.413  11.718  1.0345 -2.0883 -0.3313
  919MPD2    H313457   3.767   1.562  11.529 -1.9786  1.7075  0.1797
  919MPD2     N13458   3.463   1.325  11.297 -0.3999 -0.2601  0.3320
  919MPD2    H513459   3.465   1.399  11.229 -1.4737  1.5607  2.2857
  919MPD2    N113460   3.611   1.182  11.727  0.1371  0.0471  0.0042
  919MPD2    H713461   3.555   1.099  11.711 -0.3879  0.3315  0.3274
  920MPD2     C13462   2.977   1.826  10.596 -0.2922 -0.5250 -0.0909
  920MPD2    C113463   2.906   1.708  10.584 -0.1644  0.4425 -0.0219
  920MPD2    C213464   2.941   1.598  10.666  0.4856 -0.2028 -0.7418
  920MPD2    C313465   3.043   1.609  10.758 -0.1948  0.1524  0.3283
  920MPD2    C413466   3.107   1.727  10.769 -0.7693 -0.0849  0.9459
  920MPD2    C513467   3.063   1.835  10.694 -0.6701 -0.5849 -0.5699
  920MPD2     H13468   2.880   1.509  10.652  1.4769 -0.6625 -2.0968
  920MPD2    H113469   3.196   1.739  10.829 -1.2142  1.1662  1.3644
  920MPD2    H213470   2.967   1.915  10.535  0.3081 -0.9583 -0.8245
  920MPD2    H313471   3.105   1.934  10.708  0.4284 -0.7222 -2.8413
  920MPD2     N13472   3.071   1.488  10.830  0.2469 -0.0839 -0.1186
  920MPD2    H513473   3.028   1.403  10.796 -1.0288  0.3587  0.3816
  920MPD2    N113474   2.807   1.684  10.489 -0.4719  0.0550  1.2082
  920MPD2    H713475   2.781   1.587  10.474  1.4273  0.0151 -1.8604
  921MPD2     C13476   4.307   0.593  17.042  0.8332  0.4063  0.0619
  921MPD2    C113477   4.318   0.602  16.904 -0.5513  0.2136  0.5782
  921MPD2    C213478   4.206   0.598  16.818  0.1872 -0.0937  0.1704
  921MPD2    C313479   4.079   0.599  16.870  0.2740  0.1360  0.3872
  921MPD2    C413480   4.066   0.595  17.010 -0.3838 -0.5864  0.5085
  921MPD2    C513481   4.175   0.596  17.090 -0.1167  0.2989 -0.6582
  921MPD2     H13482   4.220   0.590  16.711  0.7493 -1.3274  0.3301
  921MPD2    H113483   3.970   0.593  17.061  0.0959 -0.0112  1.4457
  921MPD2    H213484   4.394   0.597  17.105  1.1930 -0.4386 -0.3837
  921MPD2    H313485   4.163   0.601  17.198 -0.0453 -2.8719 -0.5085
  921MPD2     N13486   3.969   0.603  16.782 -0.0031 -0.6450  0.1384
  921MPD2    H513487   3.996   0.589  16.685  0.2173  1.2576 -0.0750
  921MPD2    N113488   4.450   0.609  16.853  0.9569  0.1146 -0.1418
  921MPD2    H713489   4.517   0.616  16.929 -0.1719  0.1749  0.8376
  922MPD2     C13490   0.586   3.065  16.880  0.3660  0.1919  0.1627
  922MPD2    C113491   0.642   3.143  16.975 -0.3945 -1.2559 -0.6084
  922MPD2    C213492   0.607   3.122  17.108  0.3775 -0.3189 -0.0685
  922MPD2    C313493   0.524   3.014  17.141  0.4007  1.0436 -0.3409
  922MPD2    C413494   0.465   2.939  17.043  0.2943 -0.2024  0.5318
  922MPD2    C513495   0.492   2.965  16.912 -0.0626  0.1835  0.8555
  922MPD2     H13496   0.656   3.182  17.184 -2.1285  1.0113  0.4889
  922MPD2    H113497   0.386   2.866  17.061  0.0675  0.4255  2.0963
  922MPD2    H213498   0.612   3.069  16.775  0.6891  2.8684  0.3573
  922MPD2    H313499   0.453   2.908  16.828  0.6666  0.9060  0.0121
  922MPD2     N13500   0.485   3.000  17.276 -0.2795  0.0383  0.7620
  922MPD2    H513501   0.489   3.075  17.345 -1.0019 -0.7194  1.6389
  922MPD2    N113502   0.749   3.231  16.956 -0.7799  0.0376 -0.0504
  922MPD2    H713503   0.792   3.271  17.040 -1.7719  0.6964  0.1451
  923MPD2     C13504   2.087   0.120   8.956  0.0184 -0.3479  0.5010
  923MPD2    C113505   2.091   0.194   9.071 -0.6194 -1.0818  0.5649
  923MPD2    C213506   2.163   0.135   9.173 -0.1050  0.4804 -0.5426
  923MPD2    C313507   2.227   0.016   9.158 -0.5450 -0.7404  0.1141
  923MPD2    C413508   2.237   4.668   9.040 -0.3180 -0.3191 -0.0895
  923MPD2    C513509   2.153   4.720   8.947 -0.0687  0.0419  0.3999
  923MPD2     H13510   2.170   0.193   9.265 -1.7711 -1.0122  0.5125
  923MPD2    H113511   2.270   4.566   9.029  0.6153 -0.1323  0.9585
  923MPD2    H213512   2.034   0.160   8.871  2.6567  1.1457 -0.4502
  923MPD2    H313513   2.139   4.661   8.857 -1.0002 -0.5216  0.9181
  923MPD2     N13514   2.303   4.680   9.264 -0.1363  0.6748 -0.4040
  923MPD2    H513515   2.373   4.611   9.239  1.0531  1.0889  1.7222
  923MPD2    N113516   2.021   0.319   9.085  0.2870  0.1312 -0.2863
  923MPD2    H713517   1.982   0.350   8.997 -0.4672  2.0585  0.7294
  924MPD2     C13518   2.138   3.968  15.415  0.1918 -0.1456  0.3712
  924MPD2    C113519   2.137   4.000  15.551 -0.2499 -0.8647  0.0310
  924MPD2    C213520   2.035   4.071  15.596 -0.8521  1.1164 -0.1911
  924MPD2    C313521   1.925   4.104  15.518 -0.0934 -0.8718  0.8947
  924MPD2    C413522   1.924   4.069  15.386 -0.2302 -0.1637 -0.1001
  924MPD2    C513523   2.029   4.000  15.334  0.8150  0.1863 -0.6038
  924MPD2     H13524   2.033   4.085  15.703  2.7083  1.0416 -0.1152
  924MPD2    H113525   1.848   4.083  15.310  2.0102 -1.5130 -2.5893
  924MPD2    H213526   2.209   3.896  15.376  0.7043 -0.1669  1.3326
  924MPD2    H313527   2.022   3.953  15.236  0.2273  0.4898 -0.7039
  924MPD2     N13528   1.823   4.187  15.575  0.4947  0.2194 -0.2673
  924MPD2    H513529   1.749   4.212  15.511 -0.3894 -2.4293 -0.2907
  924MPD2    N113530   2.230   3.936  15.640  0.0435 -0.3437  0.0455
  924MPD2    H713531   2.268   3.849  15.604  0.1118  0.1245 -1.0136
  925MPD2     C13532   0.625   0.934  15.099  0.4284 -0.3450 -0.3366
  925MPD2    C113533   0.508   0.988  15.034  0.1796 -0.0486  0.5235
  925MPD2    C213534   0.395   1.012  15.107 -0.1731  0.0969  1.1108
  925MPD2    C313535   0.395   0.988  15.246  0.2846 -0.1794 -0.6844
  925MPD2    C413536   0.514   0.949  15.311  0.2837  0.1996  0.2127
  925MPD2    C513537   0.627   0.926  15.237 -0.8595 -0.2149  0.4669
  925MPD2     H13538   0.302   1.024  15.052  0.5792  1.5985  0.1978
  925MPD2    H113539   0.518   0.938  15.419  0.7826 -2.1375 -0.0513
  925MPD2    H213540   0.713   0.895  15.049 -0.9970 -2.7684 -1.0023
  925MPD2    H313541   0.719   0.902  15.289 -0.8551  0.7071  0.8911
  925MPD2     N13542   0.273   0.991  15.324 -0.1496  0.0504  0.0294
  925MPD2    H513543   0.287   0.966  15.421 -2.1881 -1.8954 -0.1779
  925MPD2    N113544   0.498   1.005  14.895 -0.1498  0.0297 -0.0837
  925MPD2    H713545   0.404   1.022  14.861  0.6202 -2.9582 -3.8260
  926MPD2     C13546   3.571   4.356  13.558 -0.7637 -0.8724 -0.2980
  926MPD2    C113547   3.683   4.437  13.554 -0.1769  0.5023 -0.0259
  926MPD2    C213548   3.725   4.482  13.438  1.1014 -0.7075 -1.3423
  926MPD2    C313549   3.667   4.450  13.321  0.0561 -0.8351  0.2194
  926MPD2    C413550   3.551   4.373  13.320  0.0194 -0.6889 -0.1563
  926MPD2    C513551   3.504   4.329  13.441 -0.2021  0.0640  0.0031
  926MPD2     H13552   3.813   4.545  13.444  0.9770 -0.5537 -1.1532
  926MPD2    H113553   3.505   4.337  13.229 -0.3106 -1.3485  0.2676
  926MPD2    H213554   3.538   4.314  13.653  2.3050  1.1879  1.6701
  926MPD2    H313555   3.421   4.259  13.447 -0.3771  0.6416  4.1094
  926MPD2     N13556   3.723   4.497  13.197 -0.3196 -0.3346  0.0305
  926MPD2    H513557   3.687   4.449  13.116  0.1738 -0.6687  0.0067
  926MPD2    N113558   3.759   4.467  13.666  0.3013  0.4953 -0.3604
  926MPD2    H713559   3.843   4.517  13.637 -1.5449  2.6856 -1.9018
  927MPD2     C13560   4.600   1.784   0.881 -0.0816 -0.1773  0.3210
  927MPD2    C113561   4.516   1.887   0.836  0.3764  0.5500  0.6264
  927MPD2    C213562   4.427   1.862   0.737  0.9527  0.5296  0.6137
  927MPD2    C313563   4.424   1.735   0.679 -0.3494 -0.3618  0.6430
  927MPD2    C413564   4.510   1.636   0.725 -0.2982 -0.3597  0.1243
  927MPD2    C513565   4.597   1.661   0.822  0.7532  0.3973 -0.1983
  927MPD2     H13566   4.357   1.935   0.699  0.2961 -0.3130  0.1917
  927MPD2    H113567   4.512   1.541   0.673 -0.5024  0.9264 -2.2264
  927MPD2    H213568   4.661   1.800   0.969 -2.1381  0.6063  1.6142
  927MPD2    H313569   4.673   1.588   0.848  0.3355 -0.5459 -1.6059
  927MPD2     N13570   4.339   1.722   0.567 -0.4136 -0.8699  0.1555
  927MPD2    H513571   4.279   1.803   0.554 -1.3443 -2.2585 -4.1482
  927MPD2    N113572   4.519   2.003   0.908 -0.1614 -0.6185  0.2105
  927MPD2    H713573   4.577   1.996   0.991 -0.0303  1.8853  0.3219
  928MPD2     C13574   1.332   0.721   1.309  0.2094 -0.1420  0.0934
  928MPD2    C113575   1.405   0.607   1.290  0.4083 -0.4818  0.0083
  928MPD2    C213576   1.475   0.596   1.174  0.1983 -0.4649  0.1362
  928MPD2    C313577   1.467   0.692   1.074 -0.0755 -0.4455 -1.2288
  928MPD2    C413578   1.391   0.803   1.090 -0.3930 -0.4941  0.1805
  928MPD2    C513579   1.319   0.816   1.209  0.3887  0.5358 -0.1568
  928MPD2     H13580   1.532   0.504   1.168  0.1902 -0.2582 -2.7848
  928MPD2    H113581   1.384   0.887   1.022 -1.0774 -0.1605  0.6609
  928MPD2    H213582   1.276   0.750   1.397 -0.9353  0.0359 -0.6911
  928MPD2    H313583   1.259   0.904   1.225 -0.4017 -0.0417  0.0537
  928MPD2     N13584   1.546   0.682   0.959  0.1107  0.3890 -0.7501
  928MPD2    H513585   1.513   0.755   0.896  0.4128 -0.0283 -1.3943
  928MPD2    N113586   1.431   0.528   1.399  0.2110 -0.2165 -0.0539
  928MPD2    H713587   1.381   0.556   1.483  0.9623  1.4178 -0.1458
  929MPD2     C13588   2.283   4.685  11.059  0.0555  0.1114  0.4889
  929MPD2    C113589   2.256   4.568  10.999 -0.0432  0.5092 -1.1894
  929MPD2    C213590   2.234   4.564  10.859 -0.0308  0.1578 -0.9421
  929MPD2    C313591   2.232   4.685  10.784  0.2977 -0.7900  0.7430
  929MPD2    C413592   2.257   0.076  10.854 -0.1510 -0.5065  0.7288
  929MPD2    C513593   2.271   0.077  10.988  0.1770 -0.0085  0.5014
  929MPD2     H13594   2.204   4.469  10.815  1.7171 -0.4335 -0.8908
  929MPD2    H113595   2.270   0.174  10.809  1.1215 -0.3665  1.4267
  929MPD2    H213596   2.304   4.688  11.165  1.8602  0.1738  0.1367
  929MPD2    H313597   2.277   0.173  11.039  1.9135 -0.2574  0.7855
  929MPD2     N13598   2.204   4.689  10.647  0.1703  0.1463 -0.2248
  929MPD2    H513599   2.207   0.056  10.601  1.9953  0.7749  1.1149
  929MPD2    N113600   2.255   4.450  11.071  0.1808  0.3263 -0.2304
  929MPD2    H713601   2.286   4.455  11.167  0.6707 -1.0227 -0.3218
  930MPD2     C13602   3.643   2.389  14.437  0.5482 -0.1854  0.6923
  930MPD2    C113603   3.608   2.490  14.358 -0.0579 -0.4577 -0.1523
  930MPD2    C213604   3.524   2.468  14.245 -0.1163 -0.4562 -0.6136
  930MPD2    C313605   3.501   2.338  14.203  0.9745  0.9418 -0.3734
  930MPD2    C413606   3.532   2.230  14.289  0.4817 -0.3864  1.4229
  930MPD2    C513607   3.611   2.257  14.401 -0.5927 -0.8149 -0.3098
  930MPD2     H13608   3.493   2.550  14.181 -0.1938  1.5768  2.0391
  930MPD2    H113609   3.496   2.130  14.269 -1.7407  0.4794  1.0915
  930MPD2    H213610   3.705   2.411  14.523  1.8120 -3.0170  0.5205
  930MPD2    H313611   3.637   2.176  14.468 -1.3072 -0.0849  0.8755
  930MPD2     N13612   3.434   2.315  14.083  0.4685  0.2860  0.6680
  930MPD2    H513613   3.424   2.216  14.060 -0.9673  0.3426  1.0190
  930MPD2    N113614   3.651   2.616  14.391  0.5237  0.4418 -0.2033
  930MPD2    H713615   3.715   2.621  14.470  0.0280  1.4033  0.1413
  931MPD2     C13616   4.377   1.890   1.466 -0.0513  0.6216  0.2279
  931MPD2    C113617   4.321   1.923   1.344 -0.1564  0.0717 -0.0317
  931MPD2    C213618   4.221   1.845   1.290 -0.5362  0.0911  0.6315
  931MPD2    C313619   4.170   1.737   1.362  0.7011 -0.4778 -0.1321
  931MPD2    C413620   4.228   1.698   1.480  0.1457 -0.0578  1.1224
  931MPD2    C513621   4.333   1.773   1.530 -0.2831 -0.0097 -0.3697
  931MPD2     H13622   4.175   1.878   1.198 -0.9721  0.4045  0.9625
  931MPD2    H113623   4.205   1.602   1.525 -3.2407  0.3512  0.2592
  931MPD2    H213624   4.463   1.938   1.512  0.6380  0.7725 -1.2218
  931MPD2    H313625   4.388   1.725   1.610 -1.2009 -4.0647 -2.1502
  931MPD2     N13626   4.054   1.657   1.324 -0.6264 -0.1217 -0.8913
  931MPD2    H513627   4.041   1.569   1.372  0.7162  0.6189  0.8652
  931MPD2    N113628   4.352   2.044   1.277  0.3394 -0.1811 -0.8180
  931MPD2    H713629   4.317   2.057   1.183  2.9027  0.5970 -1.6376
  932MPD2     C13630   0.687   0.489  11.633  0.4143 -0.0012 -1.0073
  932MPD2    C113631   0.752   0.523  11.515  0.0771 -0.3168 -0.0755
  932MPD2    C213632   0.879   0.475  11.493 -0.4817 -0.5680 -0.4491
  932MPD2    C313633   0.934   0.384  11.579 -0.3510 -0.6644  0.7022
  932MPD2    C413634   0.867   0.346  11.695 -0.0450 -0.0524  0.1689
  932MPD2    C513635   0.744   0.402  11.721 -0.3431  0.1741 -0.7955
  932MPD2     H13636   0.914   0.490  11.392  1.6805  0.2971  0.4411
  932MPD2    H113637   0.905   0.276  11.770  2.4673  1.7538  0.5681
  932MPD2    H213638   0.590   0.532  11.656  0.6668  0.6298 -1.1470
  932MPD2    H313639   0.685   0.374  11.807 -0.4382 -0.2776 -1.0104
  932MPD2     N13640   1.071   0.345  11.561  0.2923  0.0518 -0.1217
  932MPD2    H513641   1.116   0.392  11.483  0.5710  0.0421  0.0343
  932MPD2    N113642   0.688   0.600  11.415  0.6292  0.0748  0.3958
  932MPD2    H713643   0.744   0.613  11.332  0.0080  0.0364 -0.0333
  933MPD2     C13644   1.368   0.790   1.982 -0.0207  0.0830 -0.3719
  933MPD2    C113645   1.504   0.774   1.933 -0.2272  1.1414 -0.3941
  933MPD2    C213646   1.605   0.855   1.982  0.3701 -0.6911 -0.3085
  933MPD2    C313647   1.576   0.956   2.067  0.0274  0.8554  0.6156
  933MPD2    C413648   1.446   0.976   2.113  0.5489 -0.0295 -0.9451
  933MPD2    C513649   1.348   0.890   2.072 -0.0538  0.2752 -0.3213
  933MPD2     H13650   1.709   0.842   1.956  0.7251  0.5839  0.4458
  933MPD2    H113651   1.422   1.060   2.177 -2.3632 -0.5690 -1.3137
  933MPD2    H213652   1.278   0.738   1.954 -0.6961  2.6397 -2.9149
  933MPD2    H313653   1.244   0.914   2.094 -0.0227 -0.0112  0.1415
  933MPD2     N13654   1.680   1.047   2.096  0.2424  0.0737 -0.2343
  933MPD2    H513655   1.767   1.041   2.044 -0.0431  0.4801 -0.7604
  933MPD2    N113656   1.532   0.668   1.841 -0.1767  0.1899  1.1295
  933MPD2    H713657   1.458   0.630   1.783  0.8012  0.1270 -0.0652
  934MPD2     C13658   2.758   1.805   1.942 -0.3392  0.4422  0.3781
  934MPD2    C113659   2.720   1.934   1.911  0.1330 -0.1584 -0.0269
  934MPD2    C213660   2.697   1.962   1.781 -0.1307  0.2655  0.1049
  934MPD2    C313661   2.708   1.867   1.681 -0.8604 -0.1161 -0.1249
  934MPD2    C413662   2.744   1.739   1.711 -0.0870  0.6793 -1.0990
  934MPD2    C513663   2.773   1.718   1.840 -0.5029  0.9484  0.0954
  934MPD2     H13664   2.658   2.059   1.755 -0.4021  0.1584  0.1181
  934MPD2    H113665   2.769   1.653   1.650 -0.8490 -0.5732  0.3503
  934MPD2    H213666   2.783   1.771   2.042  2.0179  1.4608  0.1407
  934MPD2    H313667   2.804   1.619   1.871 -1.3780  0.0866 -1.7448
  934MPD2     N13668   2.670   1.887   1.547  0.2581  0.5076 -0.3504
  934MPD2    H513669   2.675   1.808   1.484  1.0635  1.9944 -2.1346
  934MPD2    N113670   2.703   2.034   2.014  0.0405 -0.3961 -0.4309
  934MPD2    H713671   2.690   2.125   1.972 -2.1753 -0.1505  0.8175
  935MPD2     C13672   2.838   1.407   0.861  0.3128 -0.0858  0.4486
  935MPD2    C113673   2.702   1.434   0.855 -0.0782 -0.3563  0.1351
  935MPD2    C213674   2.660   1.547   0.918  0.4635 -0.3699 -0.5539
  935MPD2    C313675   2.744   1.628   0.996  0.0367  0.4157 -0.7778
  935MPD2    C413676   2.879   1.600   1.007  0.0698  0.2390 -0.2419
  935MPD2    C513677   2.920   1.486   0.941  0.6675  0.4655 -0.1702
  935MPD2     H13678   2.554   1.573   0.916  0.9544  1.7212  0.8234
  935MPD2    H113679   2.955   1.654   1.063 -0.2009  1.0176 -0.6286
  935MPD2    H213680   2.896   1.335   0.805 -2.5441 -1.4995 -0.6647
  935MPD2    H313681   3.022   1.452   0.955 -0.2183 -2.0970  0.0235
  935MPD2     N13682   2.698   1.743   1.062  0.5668  0.1189 -0.0574
  935MPD2    H513683   2.761   1.770   1.137  1.3136 -3.3763  0.5555
  935MPD2    N113684   2.614   1.343   0.793  0.4353  0.1092 -0.3814
  935MPD2    H713685   2.514   1.361   0.793  0.3515 -0.3579  1.4902
  936MPD2     C13686   1.104   0.305  12.728  0.1200 -0.5704  0.7836
  936MPD2    C113687   1.141   0.170  12.761 -0.1276 -0.0421 -0.2123
  936MPD2    C213688   1.261   0.116  12.722  0.4229 -0.4365 -0.1695
  936MPD2    C313689   1.339   0.185  12.640 -0.0721  0.2255 -0.0663
  936MPD2    C413690   1.292   0.311  12.587  0.3887  0.0592  0.2377
  936MPD2    C513691   1.174   0.368  12.627 -0.2438  0.0788  0.4774
  936MPD2     H13692   1.298   0.023  12.761  1.4237  0.1274  0.2247
  936MPD2    H113693   1.347   0.376  12.519  0.0506  1.6440  1.4759
  936MPD2    H213694   1.018   0.363  12.758  0.0237 -1.4010  2.1090
  936MPD2    H313695   1.151   0.467  12.588 -0.6320 -0.3441 -0.3774
  936MPD2     N13696   1.461   0.115  12.616  0.5519  0.0469  0.7682
  936MPD2    H513697   1.479   0.035  12.676 -1.9446 -1.4353 -0.4619
  936MPD2    N113698   1.076   0.079  12.840  0.2176  0.0014 -0.1561
  936MPD2    H713699   1.114   4.708  12.844 -0.9519 -0.5027 -0.8613
  937MPD2     C13700   3.545   0.476  11.901  0.0215  0.0294  0.8127
  937MPD2    C113701   3.585   0.571  11.804  0.3798 -0.5409 -0.0241
  937MPD2    C213702   3.642   0.519  11.689  0.2089  0.4489 -0.1118
  937MPD2    C313703   3.681   0.387  11.670  1.0912  0.1004  0.2969
  937MPD2    C413704   3.649   0.306  11.777  0.3821 -0.1746  0.3955
  937MPD2    C513705   3.577   0.347  11.888  0.2203 -0.3327 -0.4407
  937MPD2     H13706   3.655   0.582  11.602  0.6060 -0.5715 -0.7939
  937MPD2    H113707   3.669   0.199  11.769 -0.2691 -0.4936  3.1465
  937MPD2    H213708   3.494   0.496  11.995 -0.4841  1.1528  0.2913
  937MPD2    H313709   3.553   0.274  11.964  1.6765 -1.1666 -0.7720
  937MPD2     N13710   3.739   0.343  11.544  0.0361  0.0106 -0.0830
  937MPD2    H513711   3.755   0.412  11.471 -0.7231  0.7456  0.4513
  937MPD2    N113712   3.530   0.702  11.804 -0.2613 -0.1332  0.3365
  937MPD2    H713713   3.535   0.754  11.717 -2.4139 -1.4823 -0.6030
  938MPD2     C13714   1.673   2.152   0.604 -0.0832 -0.3968  0.3323
  938MPD2    C113715   1.778   2.107   0.677  0.0478 -0.1034 -0.1510
  938MPD2    C213716   1.749   2.068   0.808  0.0629 -0.0102  0.6553
  938MPD2    C313717   1.622   2.082   0.862  0.6317 -0.0530  0.1321
  938MPD2    C413718   1.523   2.136   0.785 -1.0116 -0.2798 -0.3208
  938MPD2    C513719   1.547   2.171   0.657 -0.1444 -0.4160  0.1201
  938MPD2     H13720   1.828   2.032   0.872  1.1187  1.8428  0.4076
  938MPD2    H113721   1.421   2.152   0.819 -1.9244 -3.1207 -1.7129
  938MPD2    H213722   1.705   2.192   0.509  2.6448  0.4172  1.5714
  938MPD2    H313723   1.470   2.208   0.590 -0.7864  0.4946  1.3597
  938MPD2     N13724   1.586   2.052   0.993  0.0412  0.2807  0.4579
  938MPD2    H513725   1.497   2.075   1.036 -1.0739 -0.9480 -1.1554
  938MPD2    N113726   1.908   2.109   0.635 -0.4262  0.9102  0.0310
  938MPD2    H713727   1.973   2.091   0.712  0.1288  0.0326 -0.6382
  939MPD2     C13728   2.952   3.042   1.354 -0.3678  0.2460 -0.4594
  939MPD2    C113729   2.843   3.047   1.268 -0.6111  0.2239  0.4632
  939MPD2    C213730   2.863   3.041   1.132  0.3428 -0.1072  0.6261
  939MPD2    C313731   2.994   3.036   1.078 -0.7684 -0.4395  0.4770
  939MPD2    C413732   3.101   3.019   1.167  0.0854 -0.1294 -0.2027
  939MPD2    C513733   3.081   3.028   1.306 -0.2739 -0.2582 -0.3227
  939MPD2     H13734   2.773   3.052   1.072  1.1284  4.5722  0.3358
  939MPD2    H113735   3.202   3.016   1.126 -0.5021 -0.1921 -1.6611
  939MPD2    H213736   2.938   3.033   1.461 -0.6814 -1.4537 -0.6421
  939MPD2    H313737   3.165   3.017   1.373  0.4414  2.1177 -0.8581
  939MPD2     N13738   3.010   3.048   0.943  0.2694 -0.4278 -0.0550
  939MPD2    H513739   2.928   3.074   0.890  0.6751 -2.2220 -1.5472
  939MPD2    N113740   2.717   3.044   1.333  0.2025  0.1353  0.1081
  939MPD2    H713741   2.710   3.037   1.434  0.6398 -1.7682  0.0082
  940MPD2     C13742   1.437   4.259  13.851 -0.0034 -0.3398  0.3297
  940MPD2    C113743   1.515   4.302  13.752 -0.5887 -0.1454 -0.0183
  940MPD2    C213744   1.483   4.267  13.618  0.6246 -0.3872  0.6037
  940MPD2    C313745   1.359   4.198  13.595 -0.0605 -0.2975  0.1179
  940MPD2    C413746   1.281   4.162  13.697 -0.1371 -0.4141 -0.5543
  940MPD2    C513747   1.322   4.193  13.820 -0.4099  0.1184  0.4314
  940MPD2     H13748   1.541   4.294  13.530  0.3598  0.7602  0.7747
  940MPD2    H113749   1.190   4.104  13.686 -0.6182  0.2750 -0.1683
  940MPD2    H213750   1.474   4.277  13.952 -1.4467 -1.9078  1.1363
  940MPD2    H313751   1.268   4.144  13.900  2.6728 -2.2964  1.0345
  940MPD2     N13752   1.306   4.175  13.467 -0.1763 -0.6834 -0.8582
  940MPD2    H513753   1.206   4.161  13.457 -0.4359  2.3679 -2.4437
  940MPD2    N113754   1.637   4.349  13.788  0.1113  0.1827 -0.2536
  940MPD2    H713755   1.648   4.354  13.889  0.4474  2.7790 -0.4019
  941MPD2     C13756   1.263   3.130   9.624 -0.4899  0.2114  0.0019
  941MPD2    C113757   1.320   3.108   9.747 -0.0005  0.3888  0.6475
  941MPD2    C213758   1.259   3.035   9.844  0.7932 -0.0612 -0.0364
  941MPD2    C313759   1.126   2.992   9.829 -0.5436 -0.8547  0.1783
  941MPD2    C413760   1.062   3.022   9.708 -0.5755  0.3993  0.4080
  941MPD2    C513761   1.134   3.085   9.603  0.2592 -0.4542  0.3325
  941MPD2     H13762   1.320   3.033   9.934 -0.2984 -0.1959  0.7047
  941MPD2    H113763   0.959   2.992   9.691 -0.2201  0.1097 -1.2539
  941MPD2    H213764   1.304   3.194   9.546  0.3694 -1.2550 -0.7601
  941MPD2    H313765   1.084   3.105   9.509  1.6969  0.6856 -0.1934
  941MPD2     N13766   1.052   2.925   9.929  0.1197  0.4254  0.0204
  941MPD2    H513767   0.959   2.889   9.910 -0.2644  2.4128 -1.8140
  941MPD2    N113768   1.452   3.157   9.781 -0.2743 -0.4938  0.2370
  941MPD2    H713769   1.491   3.124   9.868 -1.4740  0.3563  1.1067
  942MPD2     C13770   0.925   0.044   9.533 -0.2289 -0.4726  0.0541
  942MPD2    C113771   0.881   0.165   9.479  0.0668  0.2725 -0.1408
  942MPD2    C213772   0.967   0.249   9.415  0.4720 -0.7853  0.0398
  942MPD2    C313773   1.099   0.226   9.393  0.6908 -0.0394  0.3874
  942MPD2    C413774   1.147   0.106   9.451  0.3133  0.2891 -0.3234
  942MPD2    C513775   1.056   0.020   9.506  0.0369 -0.0011 -0.0166
  942MPD2     H13776   0.930   0.341   9.370  0.3989  0.4873  2.6410
  942MPD2    H113777   1.250   0.071   9.450 -0.3339 -1.6923  1.5259
  942MPD2    H213778   0.865   4.697   9.590  0.7108 -1.6696 -0.4251
  942MPD2    H313779   1.094   4.655   9.555  2.1997  0.9531  0.0019
  942MPD2     N13780   1.184   0.311   9.322 -0.2296 -0.3579 -0.0213
  942MPD2    H513781   1.278   0.283   9.294  0.6961  1.2934  1.3905
  942MPD2    N113782   0.749   0.213   9.500  0.0456 -0.0263 -0.0637
  942MPD2    H713783   0.722   0.294   9.445 -0.8547 -0.0622  0.3228
  943MPD2     C13784   0.194   3.161  10.708 -0.5356  1.0494  0.1735
  943MPD2    C113785   0.076   3.085  10.717 -0.0042 -0.0398 -0.3180
  943MPD2    C213786   4.698   3.131  10.792 -0.6377 -0.3539  0.5364
  943MPD2    C313787   4.700   3.255  10.846  0.1787 -0.0393 -0.0638
  943MPD2    C413788   0.087   3.336  10.831  0.2135  0.6269 -0.9452
  943MPD2    C513789   0.190   3.288  10.760  0.0728 -0.1265 -0.3645
  943MPD2     H13790   4.607   3.074  10.806 -0.7900 -0.4572 -0.8945
  943MPD2    H113791   0.082   3.437  10.869  1.2264 -0.5165  2.2858
  943MPD2    H213792   0.280   3.126  10.651  0.2515  2.6850  0.3445
  943MPD2    H313793   0.271   3.360  10.752  1.1118 -0.9681  2.5744
  943MPD2     N13794   4.600   3.316  10.928 -0.5509 -0.0941 -0.5336
  943MPD2    H513795   4.614   3.410  10.964  0.8588  0.1837 -1.8151
  943MPD2    N113796   0.079   2.949  10.670 -0.0843  0.3411  0.6054
  943MPD2    H713797   0.165   2.930  10.619  0.6684  1.0034  1.6366
  944MPD2     C13798   4.446   1.742  11.239  0.8837 -0.2182 -0.6721
  944MPD2    C113799   4.492   1.860  11.195  0.5884  0.3423  0.3754
  944MPD2    C213800   4.472   1.972  11.271  0.2068 -0.0823  0.5309
  944MPD2    C313801   4.395   1.961  11.384  0.2012 -0.8212 -0.8421
  944MPD2    C413802   4.356   1.834  11.432 -0.4323 -0.1681 -0.4151
  944MPD2    C513803   4.377   1.722  11.352  0.0617  0.3000  0.6229
  944MPD2     H13804   4.505   2.071  11.243 -2.1383  0.7223  0.5693
  944MPD2    H113805   4.297   1.823  11.522 -1.1246 -2.1223 -1.1084
  944MPD2    H213806   4.464   1.655  11.176 -0.8176 -0.8819 -0.2493
  944MPD2    H313807   4.339   1.625  11.384  0.9430 -0.4914 -0.7642
  944MPD2     N13808   4.366   2.074  11.461  0.3518  0.3715 -0.4563
  944MPD2    H513809   4.404   2.163  11.431  0.9180  0.0045 -0.8530
  944MPD2    N113810   4.562   1.859  11.072  0.7940  0.2510  0.1823
  944MPD2    H713811   4.548   1.773  11.020 -0.8941  0.7177 -0.1357
    1TCq1    O113812   2.063   3.209  14.143 -0.5408  0.1528 -0.1000
    1TCq1    C113813   2.183   3.157  14.163  0.4113 -0.2105  0.0515
    1TCq1    O213814   2.285   3.183  14.101  0.4690 -0.0997 -0.1330
    1TCq1    C213815   2.163   3.059  14.271  0.5783 -0.4235  0.3097
    1TCq1    C313816   2.067   2.971  14.254  0.5978  0.3382 -0.0657
    1TCq1    C413817   2.028   2.902  14.366  0.6060 -0.3375 -0.0290
    1TCq1    C513818   2.084   2.937  14.485 -0.0000 -0.0321 -0.3213
    1TCq1    C613819   2.189   3.024  14.494  0.4855 -1.2630 -0.0548
    1TCq1    C713820   2.233   3.084  14.382 -0.1453 -0.2104 -0.3923
    1TCq1    C813821   2.217   3.068  14.634 -0.6633  0.0689  0.7892
    1TCq1    O413822   2.210   2.986  14.722 -0.4826  0.2021 -0.4476
    1TCq1    C913823   1.917   2.807  14.361  0.2819  1.1051  0.1797
    1TCq1    O513824   1.861   2.782  14.255 -0.1830  0.0031 -0.2445
    1TCq1    O613825   1.887   2.755  14.471 -0.0163  0.2674 -0.2756
    1TCq1    H113826   1.996   3.185  14.212 -1.0631 -0.9651 -0.9921
    1TCq1    H213827   2.025   2.955  14.156  1.3185  0.2707 -0.3666
    1TCq1    H313828   2.049   2.883  14.573  0.4102  0.2705  0.0261
    1TCq1    H413829   2.299   3.170  14.386  2.0543 -1.9313  0.4414
    2MPD2     C13830   2.460   3.444  14.905 -0.7329  0.4255  0.0102
    2MPD2    C113831   2.426   3.486  14.784  0.1408 -0.2394  0.3656
    2MPD2    C213832   2.359   3.405  14.695  0.5907  0.2126  0.6856
    2MPD2    C313833   2.329   3.277  14.727 -0.8041  0.2223 -0.6240
    2MPD2    C413834   2.359   3.229  14.853  0.0335  0.2375 -0.2559
    2MPD2    C513835   2.412   3.320  14.942 -0.0299  0.3219  0.4277
    2MPD2     H13836   2.343   3.441  14.594 -2.9984 -0.5487  0.9956
    2MPD2    H113837   2.341   3.127  14.883 -1.2941 -0.7400 -4.2983
    2MPD2    H213838   2.506   3.508  14.979 -0.2234 -0.8635  0.7953
    2MPD2    H313839   2.425   3.291  15.046  3.3505  0.7500  0.1348
    2MPD2     N13840   2.261   3.197  14.630 -0.0090  0.1560 -0.2359
    2MPD2    H513841   2.226   3.243  14.546 -0.0538  0.6621  0.0599
    2MPD2    N113842   2.457   3.618  14.751 -0.6590 -0.5223 -0.4745
    2MPD2    H713843   2.523   3.662  14.815 -1.0033 -1.0506  0.2492
    3TMC2    C113844   2.450   3.827  14.639  0.6627  0.3304  0.1005
    3TMC2    C213845   2.463   3.894  14.759 -0.0422 -0.3070 -0.5033
    3TMC2    C313846   2.472   4.037  14.753 -0.5908 -0.0605 -0.0510
    3TMC2    C413847   2.452   3.892  14.520  0.3606 -0.4998  0.0227
    3TMC2    C513848   2.458   4.029  14.512 -0.3368  0.0592 -0.1394
    3TMC2    C613849   2.469   4.105  14.624 -0.3584 -0.2114 -0.0029
    3TMC2     C13850   2.396   3.689  14.645  0.2534  0.0920  0.0549
    3TMC2     O13851   2.318   3.657  14.559 -0.0766  0.7162  0.2939
    3TMC2     H13852   2.453   3.843  14.853 -0.5378 -3.7845 -2.4658
    3TMC2    H113853   2.446   3.827  14.434 -0.4445 -0.1351 -0.1972
    3TMC2    H213854   2.461   4.213  14.628  2.4485 -0.0188  0.7102
    3TMC2    C713855   2.511   4.089  14.391  0.6680  0.6316  0.5597
    3TMC2    C813856   2.553   4.077  14.858  0.0067 -0.0239 -0.2754
    3TMC2    O113857   2.602   4.021  14.338 -0.5020  0.1093 -0.0735
    3TMC2    O213858   2.577   4.008  14.951  0.1718 -0.4167 -0.0652
    3TMC2    O513859   2.614   4.200  14.835 -0.1509  0.0100  0.1881
    3TMC2    H513860   2.586   4.235  14.748 -1.3776  0.3596  0.7254
    4MPD2     C13861   1.405   4.661  13.712  0.1770 -0.4435  0.1481
    4MPD2    C113862   1.505   4.711  13.629 -0.1337  0.8537  0.2962
    4MPD2    C213863   1.633   0.009  13.681  0.4074  0.0458 -0.2763
    4MPD2    C313864   1.661   0.002  13.819  0.1353 -0.1468 -1.0401
    4MPD2    C413865   1.557   4.677  13.897  0.1820 -0.3633 -0.2649
    4MPD2    C513866   1.434   4.648  13.847  0.3959  0.0702 -0.5383
    4MPD2     H13867   1.720   0.048  13.629  0.4545  0.8612  0.3958
    4MPD2    H113868   1.569   4.656  14.003 -0.9312  1.3646  0.2021
    4MPD2    H213869   1.310   4.626  13.676  1.3352 -2.4097 -0.9692
    4MPD2    H313870   1.357   4.601  13.907 -0.1008 -1.5025 -2.4053
    4MPD2     N13871   1.789   0.041  13.871 -0.4794  0.0602 -0.8121
    4MPD2    H513872   1.851   0.086  13.804 -0.9233  0.6397 -0.8339
    4MPD2    N113873   1.476   0.034  13.496 -0.3532  0.6398 -0.2469
    4MPD2    H713874   1.379   0.023  13.471 -0.0860  0.4887 -1.2350
    5TCq2    C113875   1.828   0.050  14.007 -0.2055  0.1579  0.6492
    5TCq2    O213876   1.772   0.004  14.106  0.2287 -0.5269 -0.2275
    5TCq2    C213877   1.967   0.099  14.015 -0.0255 -0.1090 -0.3065
    5TCq2    C313878   2.019   0.151  13.904 -0.1083  0.5390  0.6119
    5TCq2    C413879   2.151   0.162  13.883 -0.1776 -0.0136 -0.4675
    5TCq2    C513880   2.231   0.100  13.977 -1.0584  0.3894 -0.0611
    5TCq2    C613881   2.172   0.030  14.081  0.0960 -0.2305 -0.3839
    5TCq2    C713882   2.039   0.044  14.108  0.0846  0.5189 -0.5866
    5TCq2    C813883   2.240   4.650  14.152  0.3849  0.2273 -0.2283
    5TCq2    O413884   2.198   4.605  14.260  0.1275  0.5111 -0.8520
    5TCq2    C913885   2.200   0.260  13.791 -0.1297  0.0875 -0.3829
    5TCq2    O513886   2.319   0.287  13.795  0.1796  0.1945 -0.0686
    5TCq2    O613887   2.117   0.304  13.705  0.6906  0.4059 -0.1768
    5TCq2    H213888   1.951   0.206  13.840 -0.9769 -2.8522 -1.3179
    5TCq2    H313889   2.338   0.116  13.983 -0.9393 -1.0878  2.0391
    5TCq2    H413890   1.994   4.715  14.192  0.5427 -0.1967 -0.7873
    6MPD1     C13891   0.626   1.477  12.568 -0.4369 -0.1451  0.5405
    6MPD1    C113892   0.640   1.345  12.524 -0.1088  0.3465 -0.6797
    6MPD1    C213893   0.742   1.264  12.565 -0.1910  0.7918 -0.1235
    6MPD1    C313894   0.825   1.317  12.669  0.4356  0.1102  0.0491
    6MPD1    C413895   0.800   1.438  12.729  0.3251  0.2775  0.1221
    6MPD1    C513896   0.698   1.513  12.677  0.3463 -0.0451  0.6444
    6MPD1     H13897   0.740   1.162  12.527 -3.3682 -0.0535  2.3145
    6MPD1    H113898   0.872   1.486  12.795 -1.1485  2.0863  0.4079
    6MPD1    H213899   0.554   1.549  12.532 -0.0306 -1.0188 -1.9998
    6MPD1    H313900   0.685   1.613  12.718  0.6396  0.3411 -0.1812
    6MPD1     N13901   0.942   1.249  12.710  0.4616  0.0476  0.4624
    6MPD1    H513902   0.989   1.293  12.789 -0.6182 -1.6737  2.0638
    6MPD1    N113903   0.572   1.302  12.411  0.4121 -0.1986 -0.1610
    6MPD1    H613904   0.475   1.330  12.399  0.3220 -0.5207 -0.1620
    6MPD1    H713905   0.584   1.201  12.406  0.4369 -0.2715  1.4889
    7MPD2     C13906   1.178   0.823  13.316 -0.3277 -0.0025  1.1290
    7MPD2    C113907   1.166   0.765  13.192 -0.3066  0.5075 -0.4933
    7MPD2    C213908   1.207   0.633  13.182 -0.1563  0.1173 -0.2937
    7MPD2    C313909   1.240   0.554  13.288  0.9616 -0.4360 -0.5597
    7MPD2    C413910   1.241   0.614  13.410 -0.2840 -0.1876  0.9906
    7MPD2    C513911   1.213   0.747  13.428  0.5709 -0.7246  0.1761
    7MPD2     H13912   1.199   0.591  13.082 -1.3876  0.3712 -0.2959
    7MPD2    H113913   1.269   0.549  13.492 -1.0529 -0.4006  1.0901
    7MPD2    H213914   1.164   0.928  13.339  2.6418  0.9688 -1.6824
    7MPD2    H313915   1.222   0.801  13.522 -0.5733 -0.0157 -0.1182
    7MPD2     N13916   1.261   0.418  13.276 -0.2555  0.3299  0.3971
    7MPD2    H513917   1.301   0.382  13.362 -0.6576  0.2943  0.5696
    7MPD2    N113918   1.154   0.829  13.070 -0.2094 -0.2836 -0.0133
    7MPD2    H713919   1.170   0.771  12.988 -0.0909  1.5480 -1.2837
    8TMC3    C113920   1.303   0.202  13.180 -0.1166  0.3878  0.2707
    8TMC3    C213921   1.361   0.182  13.305 -0.0530  0.8914 -0.1739
    8TMC3    C313922   1.499   0.149  13.300  0.1651 -1.4159 -0.5212
    8TMC3    C413923   1.363   0.162  13.067  0.5135  0.1330  0.4650
    8TMC3    C513924   1.499   0.138  13.068  0.1916  0.5990  0.6068
    8TMC3    C613925   1.568   0.116  13.185 -0.0851  0.5903  0.3647
    8TMC3     C13926   1.261   0.340  13.166  0.4684 -0.0537 -0.0244
    8TMC3     O13927   1.233   0.375  13.053 -0.8890 -0.1211 -0.3428
    8TMC3     H13928   1.314   0.214  13.398 -0.0578 -0.8372  0.4183
    8TMC3    H113929   1.312   0.174  12.973  3.4486 -1.5355 -1.3159
    8TMC3    H213930   1.674   0.096  13.187 -0.6568 -2.5084  0.0284
    8TMC3    C713931   1.578   0.217  12.976 -0.3109  0.1289 -0.0539
    8TMC3    C813932   1.563   0.083  13.404 -0.5240  0.0595  0.8799
    8TMC3    O113933   1.700   0.208  12.989 -0.2014 -0.0197 -0.0366
    8TMC3    O213934   1.685   0.086  13.409 -0.3651  0.4093  0.2823
    9TMC3    C113935   1.111   1.081  12.717 -0.3473 -0.5115  0.4257
    9TMC3    C213936   1.196   1.007  12.642  0.4662 -0.0662  0.2339
    9TMC3    C313937   1.295   0.936  12.715  0.0879  0.1834 -0.1828
    9TMC3    C413938   1.096   1.081  12.854 -0.5870 -0.3210 -0.2580
    9TMC3    C513939   1.179   0.993  12.915 -0.1564  0.1071 -0.1408
    9TMC3    C613940   1.286   0.929  12.856  0.5565  0.0856  0.3522
    9TMC3     C13941   0.997   1.141  12.643 -1.2169 -0.4188 -0.6507
    9TMC3     O13942   0.976   1.109  12.525  0.6708  0.3167 -0.0472
    9TMC3     H13943   1.207   1.027  12.536  0.7980 -0.3735  0.2098
    9TMC3    H113944   1.000   1.106  12.899 -0.1219 -0.4190  0.7999
    9TMC3    H213945   1.354   0.871  12.918 -0.8340 -1.6733  0.2331
    9TMC3    C713946   1.148   0.963  13.050  0.1971 -0.0891  0.3654
    9TMC3    C813947   1.397   0.850  12.652  0.4473 -0.4437 -1.1451
    9TMC3    O113948   1.089   1.042  13.127  0.5378 -0.3652  0.2392
    9TMC3    O213949   1.490   0.903  12.591  0.7063  0.1292 -0.2560
   10MPD2     C13950   1.677   0.435  12.775 -0.5753 -0.6526 -0.2736
   10MPD2    C113951   1.548   0.418  12.829 -0.2952  0.9321  0.4962
   10MPD2    C213952   1.450   0.510  12.793 -0.1281  0.3134  0.2157
   10MPD2    C313953   1.481   0.625  12.727  0.3428 -0.4247 -0.8099
   10MPD2    C413954   1.608   0.636  12.672  0.4534  0.6018  0.4337
   10MPD2    C513955   1.704   0.543  12.697 -0.7018  0.9078 -0.3054
   10MPD2     H13956   1.345   0.493  12.814 -0.1203  1.9113  1.5568
   10MPD2    H113957   1.637   0.732  12.631 -0.2717  1.0459  0.9473
   10MPD2    H213958   1.762   0.373  12.801 -0.9167 -1.4909 -1.1512
   10MPD2    H313959   1.805   0.564  12.663 -1.1212  1.8627 -0.9461
   10MPD2     N13960   1.388   0.730  12.722  0.1320  0.5467 -0.0448
   10MPD2    H513961   1.297   0.716  12.765 -0.5013  0.3641 -1.4508
   10MPD2    N113962   1.501   0.309  12.914  0.3985 -0.1365 -0.4044
   10MPD2    H713963   1.404   0.293  12.936  0.2084  1.6137  0.0112
   11MPD2     C13964   2.565   4.243  14.143 -0.1614  0.0426 -0.6064
   11MPD2    C113965   2.484   4.294  14.249 -0.2913 -0.3581 -0.0126
   11MPD2    C213966   2.412   4.415  14.231 -0.5886  0.5050 -0.0103
   11MPD2    C313967   2.418   4.492  14.113 -0.1060 -1.1552 -0.3376
   11MPD2    C413968   2.495   4.434  14.012 -0.0058 -0.4265  0.0932
   11MPD2    C513969   2.563   4.319  14.028  0.6269  1.2693 -0.2183
   11MPD2     H13970   2.345   4.447  14.310 -3.1148 -1.3493 -1.3893
   11MPD2    H113971   2.495   4.488  13.918  1.6869 -2.7197 -1.2473
   11MPD2    H213972   2.619   4.150  14.143 -1.7822 -0.9073 -1.9611
   11MPD2    H313973   2.616   4.285  13.940  1.1853 -2.9410  1.7482
   11MPD2     N13974   2.341   4.603  14.078 -0.3801  0.2999  0.2068
   11MPD2    H513975   2.359   4.640  13.985  2.5209 -0.2431  0.5550
   11MPD2    N113976   2.461   4.215  14.367  0.2501  0.0929  0.0842
   11MPD2    H713977   2.397   4.258  14.433 -0.9690  1.2435 -1.8830
    1MPD1     C13978   4.553   0.812  17.161  0.7389 -0.5682 -0.1464
    1MPD1    C113979   4.666   0.788  17.088 -0.4934  1.0052 -0.4743
    1MPD1    C213980   4.685   0.850  16.963  0.2775  0.5158  0.1327
    1MPD1    C313981   4.590   0.954  16.924  0.5065 -0.8596 -0.6046
    1MPD1    C413982   4.482   0.975  17.001  0.5308 -0.1906 -0.3990
    1MPD1    C513983   4.461   0.903  17.121  0.1738 -0.2102 -0.0973
    1MPD1     H13984   0.056   0.830  16.914  1.1355 -0.1301  2.0553
    1MPD1    H113985   4.417   1.053  16.964  2.4373  0.9956 -1.2799
    1MPD1    H213986   4.532   0.768  17.257  0.0616 -0.0244 -0.0379
    1MPD1    H313987   4.371   0.929  17.176 -0.2087 -0.3534 -0.6641
    1MPD1     N13988   4.597   1.034  16.807 -0.7579 -0.4356  0.2572
    1MPD1    H513989   4.515   1.092  16.792 -0.6781 -1.6239 -4.9365
    1MPD1    N113990   0.024   0.673  17.121 -0.0274 -0.1794 -0.2725
    1MPD1    H613991   0.121   0.681  17.089 -0.6755  3.2722 -1.3270
    1MPD1    H713992   0.039   0.660  17.221  2.7612 -2.0827 -0.9079
    2MPD1     C13993   0.556   1.618  16.409  0.1246  0.1553 -0.5732
    2MPD1    C113994   0.574   1.491  16.468  0.3495  1.5740  0.2386
    2MPD1    C213995   0.458   1.410  16.487 -0.5635 -0.8715  0.2863
    2MPD1    C313996   0.339   1.453  16.437  0.4938  0.4107  0.0167
    2MPD1    C413997   0.330   1.574  16.374  0.0415  0.4706 -0.1357
    2MPD1    C513998   0.439   1.659  16.356 -0.1374  0.1426 -0.4530
    2MPD1     H13999   0.460   1.327  16.556  0.0798  1.5981  3.2063
    2MPD1    H114000   0.239   1.605  16.325  1.0888  1.1870 -1.6061
    2MPD1    H214001   0.644   1.676  16.380  1.0621 -0.1621  1.6190
    2MPD1    H314002   0.428   1.738  16.283  1.4457  0.9471  0.1846
    2MPD1     N14003   0.235   1.359  16.444 -0.3980 -0.2493 -0.5453
    2MPD1    H514004   0.250   1.268  16.487 -1.5305  0.2978  1.0360
    2MPD1    N114005   0.698   1.425  16.481  0.2377  0.7689 -0.3532
    2MPD1    H614006   0.701   1.347  16.546 -0.4643 -0.7506 -2.1289
    2MPD1    H714007   0.781   1.484  16.488  1.4910 -1.2403  1.5692
    3TMC3    C114008   0.016   1.264  16.430  0.1959  0.0243 -0.6736
    3TMC3    C214009   4.617   1.248  16.374  0.3653 -0.4279 -0.1202
    3TMC3    C314010   4.528   1.157  16.426  0.1293 -0.0117 -0.0462
    3TMC3    C414011   0.045   1.199  16.551 -0.5134  0.0754  0.1399
    3TMC3    C514012   4.679   1.112  16.598  0.1629  0.5002  0.1400
    3TMC3    C614013   4.558   1.088  16.540  0.2544 -0.1261  0.4723
    3TMC3     C14014   0.115   1.360  16.379 -0.7840 -0.5472 -0.4922
    3TMC3     O14015   0.076   1.444  16.298 -0.0523 -0.3260 -0.5645
    3TMC3     H14016   4.602   1.296  16.278  0.5029 -0.4242 -0.1387
    3TMC3    H114017   0.129   1.230  16.612  0.0008  1.1598 -1.1096
    3TMC3    H214018   4.477   1.025  16.574 -0.8895  0.3414 -1.4215
    3TMC3    C714019   4.708   1.044  16.727 -0.0041 -0.7211 -0.3381
    3TMC3    C814020   4.381   1.183  16.406 -0.0234  0.2483  0.3927
    3TMC3    O114021   0.103   1.016  16.756  0.1745 -0.4730  0.0391
    3TMC3    O214022   4.298   1.136  16.481 -0.4285 -0.1930 -0.3258
    4MPD1     C14023   4.030   1.469  16.167 -1.3041  0.4677  0.3478
    4MPD1    C114024   4.114   1.431  16.066  0.2324 -0.6781 -0.1856
    4MPD1    C214025   4.218   1.353  16.112 -0.5905  0.7498  0.2239
    4MPD1    C314026   4.239   1.317  16.242 -0.1115 -0.0705 -0.2837
    4MPD1    C414027   4.149   1.355  16.341 -0.1731  0.0528 -0.6841
    4MPD1    C514028   4.048   1.438  16.298  0.5926  0.2725  0.7221
    4MPD1     H14029   4.293   1.315  16.044 -2.5625 -0.1598 -1.4612
    4MPD1    H114030   4.158   1.336  16.447 -0.3338  0.5926 -0.5736
    4MPD1    H214031   3.942   1.527  16.143 -1.1248  0.4212 -0.4149
    4MPD1    H314032   3.982   1.481  16.372 -0.7655  0.7411 -0.7425
    4MPD1     N14033   4.362   1.255  16.287 -0.5793  0.3692  0.3725
    4MPD1    H514034   4.442   1.282  16.231  0.6434 -1.8608  1.0665
    4MPD1    N114035   4.083   1.442  15.931  0.1002 -0.1479 -0.5995
    4MPD1    H614036   4.039   1.531  15.910 -0.8384 -0.3893  0.3244
    4MPD1    H714037   4.166   1.431  15.873  1.7866  0.2874  1.7637
    1TCq1    O114038   0.684   1.377  11.907 -0.3960 -0.2601 -0.7702
    1TCq1    C114039   0.704   1.330  11.782  0.2767 -0.1379 -0.5716
    1TCq1    O214040   0.741   1.391  11.685  0.5003  0.2022  0.6480
    1TCq1    C214041   0.742   1.189  11.799  0.2733  0.1724 -0.0060
    1TCq1    C314042   0.807   1.152  11.914  0.0746  0.3025  0.1755
    1TCq1    C414043   0.891   1.041  11.902 -0.6628  0.3758 -0.6135
    1TCq1    C514044   0.911   0.971  11.789 -0.4116  0.1831 -0.1495
    1TCq1    C614045   0.825   1.010  11.681  0.0988 -0.3880 -0.6139
    1TCq1    C714046   0.733   1.115  11.687  0.3932 -0.2818  0.6297
    1TCq1    C814047   0.831   0.938  11.557 -0.0336  0.0260  0.3132
    1TCq1    O414048   0.746   0.958  11.472 -0.0750 -0.0601 -0.2136
    1TCq1    C914049   0.992   1.032  12.007  0.2611  0.5263  0.2127
    1TCq1    O514050   0.967   1.098  12.115 -0.4185  0.2695  0.2192
    1TCq1    O614051   1.075   0.942  11.985 -0.1341 -0.0423 -0.2421
    1TCq1    H114052   0.649   1.307  11.966 -0.2831  1.1368  0.9353
    1TCq1    H214053   0.834   1.219  11.994  1.2738  0.3978 -0.2977
    1TCq1    H314054   0.972   0.881  11.797 -0.6770  0.1159  1.0438
    1TCq1    H414055   0.680   1.147  11.599 -0.8207  1.4209  1.9846
    2MPD1     C14056   1.118   0.648  11.250 -0.4158 -0.2227 -0.3734
    2MPD1    C114057   1.189   0.661  11.370  0.0674 -0.5664 -0.0216
    2MPD1    C214058   1.117   0.721  11.473 -0.3117  0.1712 -0.1182
    2MPD1    C314059   0.998   0.785  11.454 -0.6730 -0.0615 -0.0509
    2MPD1    C414060   0.941   0.783  11.331  0.0707 -0.8692 -0.2034
    2MPD1    C514061   0.996   0.706  11.229  0.2922 -0.3858  0.4183
    2MPD1     H14062   1.172   0.737  11.566 -0.9702  0.9439  0.1370
    2MPD1    H114063   0.849   0.837  11.310  0.5960  0.2429  0.3492
    2MPD1    H214064   1.161   0.598  11.163  0.5388  1.9623 -1.1515
    2MPD1    H314065   0.945   0.689  11.135  0.4802  3.3319 -0.3224
    2MPD1     N14066   0.944   0.858  11.565  0.4269 -0.0387 -0.5179
    2MPD1    H514067   0.990   0.857  11.655  1.3868  1.7717 -0.9783
    2MPD1    N114068   1.308   0.600  11.399  0.0285  0.1349 -0.2397
    2MPD1    H614069   1.376   0.606  11.323  0.1477  1.7931 -0.0171
    2MPD1    H714070   1.360   0.644  11.475 -0.0059  0.3193 -0.3213
    1TCq1    O114071   0.662   0.816   8.661  0.6851  0.1053  0.0367
    1TCq1    C114072   0.689   0.685   8.633  0.8925  0.7409  0.3999
    1TCq1    O214073   0.609   0.597   8.610 -0.4990 -0.2339  0.0708
    1TCq1    C214074   0.813   0.658   8.708  0.3984 -0.8214  0.3313
    1TCq1    C314075   0.928   0.741   8.691 -0.2153 -0.3327  0.4153
    1TCq1    C414076   1.037   0.723   8.759  0.0907  0.5928  0.2475
    1TCq1    C514077   1.048   0.604   8.836 -0.5148  0.2833 -0.4936
    1TCq1    C614078   0.933   0.536   8.858 -0.0950  0.2488  0.7761
    1TCq1    C714079   0.815   0.553   8.788  0.0051  0.1821 -0.6735
    1TCq1    C814080   0.950   0.417   8.942  0.3027  0.2299  0.3820
    1TCq1    O414081   0.852   0.394   9.012 -0.2350 -0.5048  0.5785
    1TCq1    C914082   1.162   0.771   8.708  0.4597 -0.5905  0.6890
    1TCq1    O514083   1.151   0.856   8.610 -0.3701  0.2790  0.1447
    1TCq1    O614084   1.271   0.735   8.762  0.0560  0.3981 -0.7454
    1TCq1    H114085   0.742   0.868   8.684 -1.2536  3.5009 -0.8677
    1TCq1    H214086   0.939   0.798   8.600  1.6335 -0.7791  0.3676
    1TCq1    H314087   1.148   0.577   8.867 -0.5854 -1.1017 -1.4581
    1TCq1    H414088   0.725   0.504   8.823  2.2520 -2.3955  1.5460
    2MPD1     C14089   1.160   4.692   9.035 -0.1220  0.3667 -0.7898
    2MPD1    C114090   1.231   0.015   8.926  0.1595  1.1610  0.6627
    2MPD1    C214091   1.184   0.132   8.875  0.1453 -0.3253 -0.4390
    2MPD1    C314092   1.089   0.208   8.941  0.1008  0.4246 -0.2206
    2MPD1    C414093   1.036   0.165   9.056 -0.2603  1.3834 -0.2229
    2MPD1    C514094   1.069   0.041   9.093  0.0027 -0.3417 -0.4274
    2MPD1     H14095   1.219   0.174   8.782 -0.3979 -1.1121 -1.0003
    2MPD1    H114096   0.969   0.222   9.119 -2.2957 -1.0571 -0.1566
    2MPD1    H214097   1.179   4.594   9.077 -1.7198  0.2567 -0.3230
    2MPD1    H314098   1.057   4.719   9.191 -0.5157  0.1302 -0.2739
    2MPD1     N14099   1.046   0.333   8.892  0.2726  0.1833  0.4748
    2MPD1    H514100   1.096   0.365   8.810 -2.4311  0.1995 -1.1495
    2MPD1    N114101   1.324   4.662   8.850 -0.0788  0.3233  0.7160
    2MPD1    H614102   1.400   4.624   8.906  1.4197  3.6837  0.9782
    2MPD1    H714103   1.362   4.712   8.769 -2.4480 -1.7277 -1.6431
    1MPD1     C14104   1.913   0.613  12.064  0.4645 -0.4150 -0.3262
    1MPD1    C114105   1.880   0.734  12.125 -0.1355 -0.2339  0.0920
    1MPD1    C214106   1.976   0.827  12.137 -0.1612  0.0119  0.3342
    1MPD1    C314107   2.109   0.808  12.090 -0.0991  0.8939  0.3027
    1MPD1    C414108   2.147   0.686  12.031 -0.2579  0.8526  0.2236
    1MPD1    C514109   2.039   0.597  12.016  0.2128 -0.4871 -0.6238
    1MPD1     H14110   1.954   0.924  12.180 -0.6505  0.7266 -1.5022
    1MPD1    H114111   2.235   0.677  11.969 -0.1619  1.1366  0.3208
    1MPD1    H214112   1.840   0.536  12.042  0.0826 -1.0270  3.1446
    1MPD1    H314113   2.056   0.509  11.956  0.5288 -0.7371 -0.1643
    1MPD1     N14114   2.199   0.910  12.117  0.7051 -0.4665 -0.1183
    1MPD1    H514115   2.161   1.003  12.132 -1.0817 -1.1709 -0.1794
    1MPD1    N114116   1.746   0.776  12.146  0.0290  0.3432  0.1627
    1MPD1    H614117   1.685   0.705  12.185  0.4737 -1.6856 -2.8304
    1MPD1    H714118   1.749   0.843  12.222 -0.3270  2.7418 -1.9303
    2MPD1     C14119   1.794   1.277  11.450 -0.2922  0.3849  0.5517
    2MPD1    C114120   1.731   1.153  11.440  0.5553 -0.2253  0.8083
    2MPD1    C214121   1.814   1.041  11.430 -0.0611 -0.0803 -0.2259
    2MPD1    C314122   1.953   1.048  11.413  0.3487  0.0404  0.2581
    2MPD1    C414123   2.008   1.175  11.409 -0.4366  0.0158 -0.5217
    2MPD1    C514124   1.929   1.281  11.434 -0.1388 -0.3531 -0.0574
    2MPD1     H14125   1.766   0.945  11.419  0.7437 -0.3751 -1.1303
    2MPD1    H114126   2.112   1.188  11.381 -0.6481 -0.5461 -1.5664
    2MPD1    H214127   1.740   1.370  11.456 -0.0532  0.6933 -1.8014
    2MPD1    H314128   1.975   1.378  11.424 -0.1767 -0.2772  0.5077
    2MPD1     N14129   2.045   0.946  11.380 -0.1333  0.2649 -0.2884
    2MPD1    H514130   2.137   0.981  11.354  0.3669 -0.0858  0.9734
    2MPD1    N114131   1.588   1.152  11.450  0.3040  0.0499 -0.6003
    2MPD1    H614132   1.534   1.080  11.402 -1.0045  1.4083 -1.1402
    2MPD1    H714133   1.547   1.244  11.440 -0.3366  0.1659  3.0455
    3MPD1     C14134   1.775   0.149  10.895 -0.0967  0.8317  0.6460
    3MPD1    C114135   1.748   0.168  11.021 -0.0694 -0.0596  0.3824
    3MPD1    C214136   1.842   0.244  11.098 -0.1518 -0.4925 -0.2022
    3MPD1    C314137   1.959   0.287  11.039  0.7151  0.0967 -0.1869
    3MPD1    C414138   1.990   0.253  10.905 -0.2272  0.2539  0.4568
    3MPD1    C514139   1.903   0.171  10.841 -0.2563  0.7938  0.1429
    3MPD1     H14140   1.819   0.266  11.202  1.1919  2.9822 -0.6596
    3MPD1    H114141   2.084   0.278  10.856 -0.9348 -0.9526 -1.5293
    3MPD1    H214142   1.702   0.099  10.832  1.6248 -0.1321 -0.5803
    3MPD1    H314143   1.918   0.132  10.741  0.9167 -0.6403  0.8870
    3MPD1     N14144   2.031   0.394  11.107  0.1323  0.9319 -0.1453
    3MPD1    H514145   2.003   0.412  11.203  2.5747 -0.9767  0.9083
    3MPD1    N114146   1.618   0.138  11.069  0.2433  0.1067  0.0537
    3MPD1    H614147   1.572   0.070  11.009 -0.8480  1.6782 -0.8890
    3MPD1    H714148   1.607   0.112  11.167 -0.1335  0.5865  0.1375
    4MPD2     C14149   2.443   1.419  11.662  0.2803 -0.2475  0.0127
    4MPD2    C114150   2.550   1.364  11.736  0.1900  0.3057  0.0368
    4MPD2    C214151   2.664   1.330  11.659  0.6441  0.7260  0.3414
    4MPD2    C314152   2.690   1.371  11.528  0.0425  0.0491 -0.0646
    4MPD2    C414153   2.577   1.424  11.460 -0.5618  0.3314 -0.8498
    4MPD2    C514154   2.464   1.450  11.526 -0.2782 -0.7705  0.8760
    4MPD2     H14155   2.745   1.276  11.706  0.7995  1.0043  0.3900
    4MPD2    H114156   2.587   1.454  11.356  3.0007 -0.2711 -0.6744
    4MPD2    H214157   2.340   1.433  11.690  0.8529 -0.4309  2.2220
    4MPD2    H314158   2.376   1.483  11.471  0.1760  1.1401  1.3010
    4MPD2     N14159   2.821   1.356  11.477 -0.0373  0.3094  0.0224
    4MPD2    H514160   2.879   1.305  11.543 -0.1637 -0.7137 -0.6563
    4MPD2    N114161   2.547   1.321  11.871 -0.0562 -0.2401 -0.0998
    4MPD2    H714162   2.628   1.281  11.918  0.1527  0.8149  0.4568
    5TMC3    C114163   2.447   1.248  12.070 -0.1316 -0.0922  0.0629
    5TMC3    C214164   2.360   1.140  12.074 -0.0928 -0.3172 -0.4352
    5TMC3    C314165   2.413   1.021  12.113 -0.2209 -0.1246  0.5781
    5TMC3    C414166   2.573   1.238  12.125  0.8071 -0.1602 -0.7861
    5TMC3    C514167   2.623   1.118  12.151  0.4777 -0.6785 -0.1225
    5TMC3    C614168   2.545   1.010  12.146  0.0810 -0.6346  0.4083
    5TMC3     C14169   2.431   1.327  11.946 -0.3005 -0.7045  0.1702
    5TMC3     O14170   2.317   1.340  11.900  0.1208  0.1767 -0.6810
    5TMC3     H14171   2.264   1.131  12.025 -1.4042  1.6380  1.7819
    5TMC3    H114172   2.640   1.323  12.133  2.2612 -1.4424  0.7398
    5TMC3    H214173   2.579   0.919  12.194  0.5733 -0.2614  0.7582
    5TMC3    C714174   2.742   1.105  12.069  1.2045 -0.8663 -0.9211
    5TMC3    C814175   2.333   0.901  12.112 -0.3799  0.0942  0.0572
    5TMC3    O114176   2.766   1.201  11.998  0.2652 -0.3120  0.1838
    5TMC3    O214177   2.396   0.797  12.105  0.7552 -0.0779 -0.8165
    6TMC3    C114178   2.117   0.748  11.284 -0.6578  0.1317  0.5036
    6TMC3    C214179   2.080   0.626  11.229 -0.1524  0.6506  0.8375
    6TMC3    C314180   2.185   0.554  11.165  0.0140 -0.0555 -0.8705
    6TMC3    C414181   2.246   0.797  11.274 -0.4488  0.7426  0.0234
    6TMC3    C514182   2.343   0.714  11.221 -0.5617 -0.5894  0.0192
    6TMC3    C614183   2.315   0.591  11.167 -0.5644 -0.5286  0.4471
    6TMC3     C14184   2.012   0.813  11.356 -0.2690  0.5845 -0.4227
    6TMC3     O14185   1.912   0.752  11.383 -0.0131  0.2409 -0.0988
    6TMC3     H14186   1.980   0.586  11.235  0.5016 -1.2985 -1.4222
    6TMC3    H114187   2.277   0.896  11.304  2.2941 -0.2226  0.4542
    6TMC3    H214188   2.389   0.536  11.109 -1.2335 -2.2254  1.2270
    6TMC3    C714189   2.478   0.753  11.238 -0.2686 -0.2498  0.8197
    6TMC3    C814190   2.151   0.451  11.075 -0.1928 -0.3824  0.1503
    6TMC3    O114191   2.502   0.868  11.249  0.0228 -0.1934 -0.1534
    6TMC3    O214192   2.234   0.418  10.991 -0.0837  0.6540  0.0419
    7MPD2     C14193   3.116   0.857  11.820 -0.5165 -1.1502 -0.1590
    7MPD2    C114194   3.062   0.981  11.793 -0.5461  0.0205 -0.0140
    7MPD2    C214195   2.956   1.022  11.869  0.5014  0.6709 -0.4308
    7MPD2    C314196   2.909   0.951  11.974  0.0890  0.6005 -0.4126
    7MPD2    C414197   2.960   0.822  12.000 -0.4866 -0.8303  0.3719
    7MPD2    C514198   3.070   0.781  11.931  0.1415  0.1663  0.5946
    7MPD2     H14199   2.925   1.125  11.860  1.5143  1.1790  1.9533
    7MPD2    H114200   2.931   0.770  12.090 -3.0263  1.1225  0.6751
    7MPD2    H214201   3.185   0.801  11.758  1.7909  0.0437  1.3477
    7MPD2    H314202   3.105   0.679  11.947  1.3333  0.5463  0.4366
    7MPD2     N14203   2.810   0.988  12.067  0.2388  0.3875  1.2814
    7MPD2    H514204   2.794   0.919  12.140 -0.0613  1.3430  2.1188
    7MPD2    N114205   3.116   1.049  11.681 -0.1225  0.0664 -0.2937
    7MPD2    H714206   3.187   0.997  11.631  0.4207  0.5950 -0.0604
    8TMC3    C114207   3.106   1.197  11.492  0.3998 -0.6776  0.1082
    8TMC3    C214208   3.096   1.088  11.405 -0.5553 -0.7801  0.5861
    8TMC3    C314209   3.023   1.100  11.290 -0.2327 -0.0067 -0.1585
    8TMC3    C414210   3.058   1.320  11.458 -0.2009 -0.7157  0.1879
    8TMC3    C514211   2.993   1.334  11.338 -0.5531  0.4573 -0.1214
    8TMC3    C614212   2.974   1.220  11.261  0.5798 -0.1258 -0.1406
    8TMC3     C14213   3.065   1.166  11.629 -1.3007 -0.2704 -0.0998
    8TMC3     O14214   2.986   1.248  11.669  0.2979  0.2389  0.2814
    8TMC3     H14215   3.139   0.993  11.435  1.2357  0.3974  1.7665
    8TMC3    H114216   3.070   1.410  11.518 -1.7655  0.3357 -1.0740
    8TMC3    H214217   2.908   1.228  11.176  0.8075 -2.5355 -0.5585
    8TMC3    C714218   2.871   1.399  11.355  0.3035  0.0448  0.0846
    8TMC3    C814219   2.939   0.991  11.240  0.1522  0.0342 -0.2322
    8TMC3    O114220   2.804   1.436  11.258  0.1543 -0.1620 -0.0407
    8TMC3    O214221   2.861   1.023  11.152 -0.2157  0.0820 -0.4471
    9MPD2     C14222   2.953   0.642  11.355  0.5847  0.1799 -0.5311
    9MPD2    C114223   2.897   0.753  11.305  0.4077 -0.5909 -0.0010
    9MPD2    C214224   2.764   0.752  11.262 -0.0778  0.0249  0.1300
    9MPD2    C314225   2.688   0.638  11.277 -0.3876  0.2214 -0.3660
    9MPD2    C414226   2.753   0.518  11.315  0.5080 -0.1343 -0.7766
    9MPD2    C514227   2.885   0.528  11.351 -0.7242  0.1471  0.6209
    9MPD2     H14228   2.727   0.841  11.213  1.2977  0.2737 -0.4664
    9MPD2    H114229   2.709   0.420  11.332 -1.0114  0.9585  1.5571
    9MPD2    H214230   3.057   0.632  11.384  0.3012  0.1325  0.4677
    9MPD2    H314231   2.930   0.434  11.383  0.6861  0.5133 -0.2453
    9MPD2     N14232   2.557   0.636  11.250  0.1329 -0.3959  0.0047
    9MPD2    H514233   2.500   0.554  11.264  2.1057 -1.2582  2.9820
    9MPD2    N114234   2.979   0.870  11.294  0.3138 -0.0355  0.3324
    9MPD2    H714235   3.072   0.856  11.334 -0.8829 -0.1307  3.1084
    1MPD1     C14236   2.815   0.021  17.624 -0.4263 -0.2193  0.3111
    1MPD1    C114237   2.832   4.611  17.587 -0.4977 -0.3398  0.8096
    1MPD1    C214238   2.736   4.570  17.495 -0.5668  0.1515 -0.0127
    1MPD1    C314239   2.648   4.660  17.438 -0.1882 -0.3254  0.0046
    1MPD1    C414240   2.640   0.067  17.475  0.1748  0.3712  0.8964
    1MPD1    C514241   2.730   0.107  17.564  0.0473 -1.0270  0.3981
    1MPD1     H14242   2.729   4.469  17.459 -0.2388  0.9269 -2.2245
    1MPD1    H114243   2.569   0.131  17.426  0.8469 -0.0275 -0.5918
    1MPD1    H214244   2.873   0.068   0.009 -0.4048  0.3992 -0.0701
    1MPD1    H314245   2.728   0.213  17.585 -0.3616 -1.0218  0.3412
    1MPD1     N14246   2.571   4.618  17.326  0.0093  0.1839  0.0884
    1MPD1    H514247   2.600   4.533  17.278 -1.2890  0.4456 -1.1715
    1MPD1    N114248   2.947   4.539  17.632  0.0214 -0.1336 -0.3231
    1MPD1    H614249   2.927   4.439  17.636  1.1224 -0.2103  3.2749
    1MPD1    H714250   2.977   4.566   0.031  1.9642 -0.0581 -0.9746
    2MPD1     C14251   2.567   4.590  16.329 -0.6235  0.6895  0.1996
    2MPD1    C114252   2.446   4.646  16.361  0.1105 -0.5400 -0.0522
    2MPD1    C214253   2.411   4.636  16.494  0.8411 -0.3301  0.3476
    2MPD1    C314254   2.498   4.582  16.592 -0.6475 -0.0097  0.1274
    2MPD1    C414255   2.622   4.541  16.555  0.0741 -0.0058 -0.1772
    2MPD1    C514256   2.655   4.536  16.421 -0.1286  0.4061  0.3163
    2MPD1     H14257   2.313   4.676  16.518  0.5031  0.5070 -2.4114
    2MPD1    H114258   2.702   4.495  16.612 -0.4298 -0.6473  0.0212
    2MPD1    H214259   2.593   4.579  16.225  0.9669  2.2753  0.4324
    2MPD1    H314260   2.750   4.495  16.387 -2.1457 -1.9320 -2.4900
    2MPD1     N14261   2.457   4.567  16.725  0.3887  0.0071  0.1015
    2MPD1    H514262   2.359   4.576  16.750  1.1694 -0.2568  3.2340
    2MPD1    N114263   2.354   4.681  16.262 -0.3018  0.1596  0.3775
    2MPD1    H614264   2.298   0.039  16.287 -1.2588  0.3009 -2.1846
    2MPD1    H714265   2.394   4.677  16.168 -1.3847  0.4124 -0.0985
    3TCq2    C114266   2.538   4.533  16.833 -0.0308  0.6320 -0.0342
    3TCq2    O214267   2.656   4.507  16.844 -0.6050  0.6419 -0.4897
    3TCq2    C214268   2.449   4.523  16.948  0.0802  0.2227 -0.0116
    3TCq2    C314269   2.318   4.490  16.945 -0.2241 -0.2505  0.9777
    3TCq2    C414270   2.225   4.529  17.041  0.6464  0.1210  0.3071
    3TCq2    C514271   2.273   4.595  17.149 -0.3751  0.0038 -0.2155
    3TCq2    C614272   2.407   4.603  17.164 -0.2029 -0.2875 -0.5327
    3TCq2    C714273   2.495   4.572  17.063  0.3541 -0.2169  0.0804
    3TCq2    C814274   2.455   4.670  17.282 -0.1812 -0.2367  0.6497
    3TCq2    O414275   2.373   0.023  17.338 -0.4677  0.3598 -0.1093
    3TCq2    C914276   2.089   4.489  17.030  1.1321  0.2602  0.4887
    3TCq2    O514277   2.063   4.417  16.930 -0.3122 -0.0770 -0.3411
    3TCq2    O614278   2.004   4.520  17.113 -0.3778 -0.0401  0.1748
    3TCq2    H214279   2.287   4.428  16.861  3.7913 -0.5330 -0.3356
    3TCq2    H314280   2.199   4.626  17.223 -1.2740 -2.4734 -0.0592
    3TCq2    H414281   2.602   4.593  17.071  0.7402 -1.3604 -2.0664
    1TCq1    O114282   2.074   3.897  12.923 -0.1434  0.3025 -0.5302
    1TCq1    C114283   2.015   3.996  12.857 -0.0215  0.5899 -0.2276
    1TCq1    O214284   2.070   4.091  12.807 -0.2888 -0.3625  0.2491
    1TCq1    C214285   1.894   3.929  12.815 -0.1649 -0.5182  0.0346
    1TCq1    C314286   1.876   3.926  12.680  0.5910  0.0675 -0.7348
    1TCq1    C414287   1.757   3.874  12.633 -0.5960 -0.6428  0.3749
    1TCq1    C514288   1.663   3.824  12.724 -0.0549 -0.0568 -0.2095
    1TCq1    C614289   1.691   3.829  12.856  0.6851  0.0416 -0.6595
    1TCq1    C714290   1.803   3.880  12.907 -0.4878  0.3940  0.1663
    1TCq1    C814291   1.583   3.776  12.942 -0.3982  0.6614  0.3017
    1TCq1    O414292   1.512   3.692  12.889 -0.4168 -0.1964  0.1323
    1TCq1    C914293   1.737   3.870  12.482  0.3849 -0.2937 -0.8345
    1TCq1    O514294   1.829   3.920  12.411  0.3923  0.2203  0.0788
    1TCq1    O614295   1.628   3.815  12.442 -0.1722  0.0647  0.3456
    1TCq1    H114296   2.016   3.821  12.947 -1.1425  0.7606 -1.5433
    1TCq1    H214297   1.942   3.983  12.616 -0.7536  1.3446 -1.0005
    1TCq1    H314298   1.571   3.779  12.688 -0.0455  0.5845 -1.0372
    1TCq1    H414299   1.828   3.882  13.012 -0.6443  0.5143  0.2015
    2MPD2     C14300   1.414   3.704  13.178 -0.4001 -0.3616 -0.0878
    2MPD2    C114301   1.516   3.795  13.183  0.4279 -0.4613 -0.3803
    2MPD2    C214302   1.547   3.855  13.303 -0.3513  0.7137  0.4789
    2MPD2    C314303   1.485   3.825  13.426 -0.1087 -0.6612 -0.7153
    2MPD2    C414304   1.375   3.740  13.424 -1.0923 -0.1114 -0.3757
    2MPD2    C514305   1.344   3.687  13.301  0.6211 -0.2268 -0.4908
    2MPD2     H14306   1.619   3.936  13.296  0.0013  0.1545 -2.4233
    2MPD2    H114307   1.319   3.704  13.510 -0.1282  0.3442  0.4345
    2MPD2    H214308   1.384   3.646  13.091  0.3138 -1.4569  0.4086
    2MPD2    H314309   1.265   3.613  13.300  2.7750 -2.5658  1.0787
    2MPD2     N14310   1.541   3.885  13.538  0.2508  0.4645  0.2055
    2MPD2    H514311   1.635   3.924  13.530  0.5147 -0.2733 -0.2946
    2MPD2    N114312   1.587   3.835  13.070 -0.0167  0.6279  0.3453
    2MPD2    H714313   1.661   3.901  13.094  0.9925 -0.8225  1.2087
    3TCq1    O114314   2.007   3.857  13.907 -0.3301 -0.3944 -0.0696
    3TCq1    C114315   1.950   3.936  13.810  0.0692  0.2053 -0.3689
    3TCq1    O214316   1.998   3.961  13.701  0.4952  0.3972 -0.3720
    3TCq1    C214317   1.806   3.943  13.841 -0.2464 -0.5950  0.0762
    3TCq1    C314318   1.772   3.964  13.971  0.3235  0.1090  0.4496
    3TCq1    C414319   1.643   3.941  13.993 -0.0390  0.8629 -0.6654
    3TCq1    C514320   1.554   3.908  13.895 -0.3937 -0.2181  0.1795
    3TCq1    C614321   1.589   3.912  13.766  0.6353  0.3441 -0.0194
    3TCq1    C714322   1.722   3.907  13.740 -0.0789 -0.1668 -1.0621
    3TCq1    C814323   1.492   3.873  13.666 -0.7152 -0.2171  0.2170
    3TCq1    O414324   1.380   3.835  13.698 -0.1556  0.0204  0.0758
    3TCq1    C914325   1.600   3.952  14.126  0.0963 -0.1778  0.2986
    3TCq1    O514326   1.499   3.881  14.151  0.2420  0.3717 -0.1936
    3TCq1    O614327   1.679   3.987  14.216  0.1447  0.1620  0.5228
    3TCq1    H114328   1.940   3.829  13.974 -0.4761 -0.0492 -0.0687
    3TCq1    H214329   1.850   3.994  14.041 -0.3322 -0.4753  1.4325
    3TCq1    H314330   1.454   3.887  13.929 -0.3756  0.4765  0.6540
    3TCq1    H414331   1.766   3.869  13.648 -0.2068  1.5077 -1.8324
    1MPD2     C14332   4.571   4.269  14.952 -0.5359  0.3366  0.7113
    1MPD2    C114333   4.576   4.205  14.832 -0.4514 -0.3285  0.4971
    1MPD2    C214334   4.506   4.087  14.829 -0.5907 -0.8926 -0.3308
    1MPD2    C314335   4.421   4.051  14.934 -0.4339  0.7783 -0.0028
    1MPD2    C414336   4.432   4.117  15.053 -0.2463  0.4855  0.7561
    1MPD2    C514337   4.515   4.223  15.063 -0.8746 -0.1018 -0.5260
    1MPD2     H14338   4.508   4.027  14.738 -0.1244 -1.4267  0.0321
    1MPD2    H114339   4.365   4.094  15.135 -0.3973  1.2713  0.8564
    1MPD2    H214340   4.636   4.356  14.957  0.2187 -0.1992  0.1286
    1MPD2    H314341   4.525   4.270  15.160 -0.8627  2.4211 -1.7523
    1MPD2     N14342   4.340   3.932  14.931 -0.3034  0.1278  0.2423
    1MPD2    H514343   4.292   3.913  15.018  2.2566 -2.8055  1.0046
    1MPD2    N114344   4.645   4.260  14.714 -0.0763 -0.8099 -0.2178
    1MPD2    H714345   4.704   4.341  14.727  0.4157 -0.9281 -1.7887
    2TMC3    C114346   4.692   4.294  14.486 -0.4894 -0.3393 -0.4082
    2TMC3    C214347   4.695   4.228  14.369 -0.0122  0.2500 -0.2943
    2TMC3    C314348   4.632   4.293  14.264  0.2069  0.2791 -0.7377
    2TMC3    C414349   4.667   4.431  14.510  0.2222 -0.3174  0.1461
    2TMC3    C514350   4.611   4.488  14.395  0.5804 -0.0558  0.3028
    2TMC3    C614351   4.593   4.421  14.277 -0.0153 -0.5121  0.4398
    2TMC3     C14352   4.634   4.207  14.585  0.2141 -0.3360  0.6631
    2TMC3     O14353   4.560   4.118  14.538 -0.4836 -0.4538  0.1414
    2TMC3     H14354   4.711   4.121  14.359  2.4622  0.7842 -1.9338
    2TMC3    H114355   4.638   4.474  14.605  0.6663  1.1580 -0.3842
    2TMC3    H214356   4.547   4.467  14.191 -0.1981 -0.7993  0.3844
    2TMC3    C714357   4.642   4.621  14.369  0.1687 -0.0304 -0.1953
    2TMC3    C814358   4.526   4.213  14.201 -0.9071  0.0438  0.4338
    2TMC3    O114359   4.566   4.684  14.297  0.4978 -0.6922  0.3645
    2TMC3    O214360   4.481   4.258  14.097 -0.2500  0.2792  0.4663
    3TCq1    O114361   0.638   0.413  15.139  0.8836 -0.3459 -0.1647
    3TCq1    C114362   0.606   0.281  15.124 -0.2996 -0.2269 -0.1143
    3TCq1    O214363   0.597   0.203  15.219 -0.4914 -0.0208 -0.5723
    3TCq1    C214364   0.601   0.229  14.989  0.4468  0.0203  0.0610
    3TCq1    C314365   0.634   0.098  14.966  0.5712 -0.4534 -0.3923
    3TCq1    C414366   0.607   0.049  14.840 -0.1219 -0.0334 -0.4389
    3TCq1    C514367   0.563   0.128  14.743  0.3212 -0.5245  0.2481
    3TCq1    C614368   0.529   0.260  14.772 -0.4670  0.5055 -0.2497
    3TCq1    C714369   0.537   0.306  14.906  0.3102  0.0158  0.0479
    3TCq1    C814370   0.418   0.304  14.696 -0.8670  0.0663 -0.0424
    3TCq1    O414371   0.388   0.423  14.714 -0.0944 -0.0937 -0.4828
    3TCq1    C914372   0.647   4.638  14.805 -0.1365 -0.7171  0.6565
    3TCq1    O514373   0.623   4.586  14.691 -0.2750 -0.6620  0.2978
    3TCq1    O614374   0.710   4.581  14.900  0.1907 -0.0537  0.2015
    3TCq1    H114375   0.666   0.458  15.056  2.1971  2.3445  1.7488
    3TCq1    H214376   0.691   0.041  15.040  0.6056  0.7759  0.5177
    3TCq1    H314377   0.560   0.091  14.641  0.1630 -0.4603  0.2298
    3TCq1    H414378   0.519   0.409  14.934 -1.3823  0.4114 -2.3944
    4MPD2     C14379   0.192   0.319  14.496 -0.0346 -0.1921  1.0623
    4MPD2    C114380   0.225   0.205  14.572  0.0988  0.1297 -0.0815
    4MPD2    C214381   0.171   0.084  14.554 -0.5163  0.3757  0.0723
    4MPD2    C314382   0.076   0.070  14.462  0.4262  1.3759  0.6882
    4MPD2    C414383   0.036   0.179  14.386 -0.1934  0.1767  0.3006
    4MPD2    C514384   0.097   0.304  14.387 -0.3744 -0.5855  0.9037
    4MPD2     H14385   0.204   0.007  14.623  0.5273  0.7591 -0.0009
    4MPD2    H114386   4.684   0.157  14.311 -2.3821 -0.0858  2.5763
    4MPD2    H214387   0.242   0.415  14.505 -1.5739  0.5641  1.7007
    4MPD2    H314388   0.069   0.384  14.320  0.2210 -1.1229  0.0171
    4MPD2     N14389   0.023   4.658  14.456 -0.2143  0.6508  0.6495
    4MPD2    H514390   0.057   4.587  14.520 -2.7883  0.2432  1.5665
    4MPD2    N114391   0.341   0.198  14.651  0.5879  0.5590 -0.9169
    4MPD2    H714392   0.354   0.107  14.694 -1.8888  1.1994  1.2434
    5TMC2    C114393   4.118   3.643  14.639  0.1673 -0.3331  0.4288
    5TMC2    C214394   3.992   3.685  14.679 -0.5838 -0.5407  0.3623
    5TMC2    C314395   3.993   3.764  14.782 -0.2398  1.1778 -0.1789
    5TMC2    C414396   4.232   3.674  14.717  0.2530 -0.1586 -0.3799
    5TMC2    C514397   4.224   3.746  14.837 -0.0572  0.2710  0.0388
    5TMC2    C614398   4.100   3.802  14.858 -0.4808 -0.2896 -0.7147
    5TMC2     C14399   4.134   3.665  14.498  0.5781 -0.6232 -0.0176
    5TMC2     O14400   4.078   3.591  14.416 -0.4589  0.0786 -0.0072
    5TMC2     H14401   3.898   3.654  14.635  0.8644 -2.3538 -1.4612
    5TMC2    H114402   4.335   3.652  14.693 -0.0678 -1.9106 -0.1679
    5TMC2    H214403   4.086   3.870  14.942 -2.4691 -0.5320 -0.8509
    5TMC2    C714404   4.314   3.857  14.815  0.2803  0.3768  0.2953
    5TMC2    C814405   3.866   3.801  14.831  1.3381  0.2575  0.8232
    5TMC2    O114406   4.348   3.879  14.697 -0.1105  0.3519  0.1274
    5TMC2    O214407   3.769   3.722  14.843 -0.2298  0.8219  0.5207
    5TMC2    O514408   3.851   3.928  14.790  0.1691 -0.4189  0.0291
    5TMC2    H514409   3.937   3.974  14.783 -0.4333  0.8828  1.3650
    6MPD2     C14410   4.334   3.996  14.148 -0.2622 -0.7562 -0.2083
    6MPD2    C114411   4.381   4.023  14.274 -0.7120 -0.2535 -0.4557
    6MPD2    C214412   4.339   3.949  14.381 -0.3090  0.3268  0.6490
    6MPD2    C314413   4.249   3.845  14.370  0.6223  0.3078 -0.0217
    6MPD2    C414414   4.203   3.808  14.245 -0.1647 -0.3411  0.7569
    6MPD2    C514415   4.246   3.891  14.138  0.1992  0.2063 -0.3072
    6MPD2     H14416   4.376   3.978  14.479  1.4921 -0.0612  0.0932
    6MPD2    H114417   4.139   3.722  14.224  1.1582 -1.4930  1.4447
    6MPD2    H214418   4.365   4.051  14.060  0.6784  0.6820  1.0222
    6MPD2    H314419   4.202   3.866  14.042  0.8309 -0.4683 -0.4235
    6MPD2     N14420   4.215   3.771  14.485 -0.3681 -0.2953 -0.3139
    6MPD2    H514421   4.257   3.807  14.570 -1.2883 -2.0634  0.8829
    6MPD2    N114422   4.467   4.129  14.297 -0.3098 -0.2249  0.1587
    6MPD2    H714423   4.493   4.140  14.395 -0.5701  1.0325  0.0826
  945NH3     N114424   0.113   3.491   1.769 -0.6368 -0.0010  0.1769
  945NH3     H214425   0.161   3.403   1.751  0.5832  0.4824  1.1214
  945NH3     H314426   0.129   3.517   1.865  0.6270 -1.1740  0.2865
  945NH3     H414427   0.013   3.477   1.774 -0.9881  1.7897 -2.0343
  946SOD     NA14428   0.572   0.848   8.039  0.5242 -0.8988 -0.0216
  947SOD     NA14429   2.013   3.653  15.035 -0.1511 -0.1460  0.2938
  948SOD     NA14430   4.594   3.755  10.971 -0.1775  0.1588 -0.5164
  949SOD     NA14431   0.709   0.434   2.091  0.2413 -0.1212 -0.1513
  950SOD     NA14432   0.545   2.487  10.382 -0.0223 -0.0652 -0.1194
  951SOD     NA14433   2.444   3.109  10.792 -0.2257  0.4346 -0.2335
  952SOD     NA14434   0.750   1.325   1.707 -0.5594 -0.0649  0.3639
  953SOD     NA14435   0.777   3.761  10.541 -0.0363 -0.1691  0.1197
  954SOD     NA14436   2.042   2.978   2.357 -0.4721  0.0592  0.1468
  955SOD     NA14437   1.644   4.563  11.644 -0.1333  0.4963 -0.1236
  956SOD     NA14438   2.042   0.197   1.024  0.1272  0.1835  0.0887
  957SOD     NA14439   3.531   0.706   5.265 -0.3621 -0.1024  0.2214
  958SOD     NA14440   0.316   0.359   4.162  0.2116 -0.2420 -0.1174
  959SOD     NA14441   2.081   3.980  12.133 -0.0132 -0.5051 -0.6398
  960SOD     NA14442   0.337   0.133  11.968 -0.4414 -0.1759  0.2910
  961SOD     NA14443   2.185   0.481  13.597  0.2523  0.3020 -0.3301
  962SOD     NA14444   3.769   2.878  12.015 -0.6215  0.2456 -0.5295
  963SOD     NA14445   1.480   3.496   9.001  0.1220  0.1731 -0.3187
  964SOD     NA14446   0.562   2.755  10.506  0.0124 -0.0822  0.0732
  965SOD     NA14447   2.238   3.397   0.049 -0.2672 -0.1346 -0.0219
  966SOD     NA14448   0.347   3.115  15.428  0.2888 -0.7802 -0.6037
  967SOD     NA14449   1.723   4.565   1.243 -0.1196 -0.3371  0.1615
  968SOD     NA14450   2.387   1.600   0.287 -0.3703 -0.0065  0.2527
  969SOD     NA14451   4.278   3.894  10.887  0.0429  0.3098  0.5869
  970SOD     NA14452   4.035   3.758  11.027 -0.2020  0.1134 -0.1860
  971SOD     NA14453   1.803   3.846  14.321  0.0642  0.2177 -0.0296
  972SOD     NA14454   0.985   1.144  12.311 -0.2933 -0.1034 -0.1815
  973SOD     NA14455   1.173   2.875   1.854 -0.4332 -0.4460  0.3601
  974SOD     NA14456   0.685   3.938  13.494 -0.0162 -0.2217 -0.5931
  975SOD     NA14457   1.679   3.133  13.164  0.3871  0.3016  0.4976
  976SOD     NA14458   2.476   1.094  11.127  0.5419 -0.2382  0.2519
  977SOD     NA14459   4.533   3.486   1.990  0.2774 -0.1935 -0.0725
  978SOD     NA14460   2.729   3.957  15.105 -0.2049  0.0512  0.3753
  979SOD     NA14461   4.244   2.577  13.887 -0.3147  0.0862  0.0818
  980SOD     NA14462   2.571   1.500  14.542  0.1562 -0.2686  0.0290
  981SOD     NA14463   0.770   2.949  10.624 -0.2558  0.2704  0.3676
  982SOD     NA14464   2.592   0.603   0.350  0.1857 -0.4127  0.0272
  983SOD     NA14465   1.841   2.100  16.312 -0.1671 -0.2399  0.4028
  984SOD     NA14466   2.374   4.386  15.907 -0.4424  0.1179  0.0765
  985SOD     NA14467   3.235   2.717   1.045 -0.3523 -0.1036 -0.4530
  986SOD     NA14468   4.263   4.701   9.489  0.3036 -0.0840 -0.2047
  987SOD     NA14469   0.397   2.232  10.582 -0.0429  0.5509 -0.0800
  988SOD     NA14470   3.155   2.386   1.036  0.4663  0.1596  0.1146
  989SOD     NA14471   2.167   2.496  16.954  0.1291 -0.2320  0.6502
  990SOD     NA14472   3.073   3.313  11.271  0.5908 -0.0001  0.2147
  991SOD     NA14473   2.789   3.756  15.342 -0.2084 -0.1208  0.0709
  992SOD     NA14474   0.836   1.461  10.080 -0.3331 -0.0486 -0.1329
  993SOD     NA14475   4.209   3.298  16.852  0.3743 -0.1960  0.1434
  994SOD     NA14476   2.633   3.213  13.454  0.0846  0.4278 -0.2197
  995SOD     NA14477   1.804   2.903  14.626 -0.1609 -0.4581 -0.3205
  996SOD     NA14478   0.086   1.842   5.561 -0.1666 -0.0984  0.0037
  997SOD     NA14479   2.154   0.275  12.365 -0.9168  0.3132 -0.2957
  998SOD     NA14480   0.417   2.107  10.909  0.5031 -0.1899  0.2820
  999SOD     NA14481   4.400   2.943  10.834 -0.1566  0.0367  0.4290
 1000SOD     NA14482   1.924   1.161   1.622  0.0516 -0.0532 -0.1840
 1001SOD     NA14483   0.106   2.265  12.698  0.0016  0.9653 -0.2020
 1002SOD     NA14484   0.614   4.444  15.047 -0.3272 -0.0298 -0.2013
 1003SOD     NA14485   1.854   3.442  11.699 -0.3796 -0.2577  0.1908
 1004SOD     NA14486   3.113   2.756  14.377 -0.5528 -0.4725 -0.2160
 1005SOD     NA14487   0.918   4.519  14.845  0.1428 -0.4435 -0.1294
 1006SOD     NA14488   2.697   2.517   3.056  0.0757 -0.0330 -0.1540
 1007SOD     NA14489   0.190   0.307  11.531 -0.0448 -0.2507 -0.1630
 1008SOD     NA14490   1.555   4.375  15.326  0.2739  0.4683  0.2102
 1009SOD     NA14491   0.883   1.383  16.112 -0.1144 -0.5255  0.3869
 1010SOD     NA14492   1.663   3.228  10.360  0.3283  0.0033  0.6023
 1011SOD     NA14493   1.229   3.910  12.637 -0.4919 -0.0813  0.5776
 1012SOL     OW14494   0.643   0.849   8.252  0.8220 -0.0474  0.0556
 1012SOL    HW114495   0.725   0.864   8.300  0.8519 -1.3194  0.4104
 1012SOL    HW214496   0.586   0.807   8.317  0.5569  1.1016  0.5707
 1013SOL     OW14497   2.608   3.651   9.027  0.4100  0.5458 -0.1467
 1013SOL    HW114498   2.652   3.659   8.942 -0.7189 -0.7069 -0.8584
 1013SOL    HW214499   2.683   3.631   9.082 -1.4014 -0.5062  1.9489
 1014SOL     OW14500   3.189   0.459  13.334 -0.5503  0.1639 -0.3228
 1014SOL    HW114501   3.192   0.416  13.419 -2.3127  2.3820  0.8576
 1014SOL    HW214502   3.220   0.387  13.278  0.1402 -1.9941  2.8479
 1015SOL     OW14503   3.742   2.053   6.639 -0.1897  0.7820 -0.7565
 1015SOL    HW114504   3.654   2.022   6.663 -0.3122  0.2520 -1.8845
 1015SOL    HW214505   3.790   1.976   6.670 -1.1925  0.3739 -0.2171
 1016SOL     OW14506   2.316   2.721   2.884  0.3317  0.0525  0.2484
 1016SOL    HW114507   2.258   2.652   2.916 -1.6702  0.5135 -2.3766
 1016SOL    HW214508   2.292   2.725   2.792  2.2113  0.5210 -0.2207
 1017SOL     OW14509   2.616   3.197   4.051  0.1489 -0.2462 -0.1805
 1017SOL    HW114510   2.586   3.137   3.983 -1.4285  2.3073 -1.7406
 1017SOL    HW214511   2.540   3.199   4.109  0.9976 -1.0584  0.9454
 1018SOL     OW14512   2.234   4.235   1.791 -0.2436  0.2241  1.0238
 1018SOL    HW114513   2.205   4.306   1.847  1.1152  1.3495  0.3183
 1018SOL    HW214514   2.167   4.170   1.811  0.5616 -0.3654  1.7893
 1019SOL     OW14515   0.658   2.344  13.396 -0.8434 -0.0433  0.4598
 1019SOL    HW114516   0.644   2.250  13.388 -1.2493 -0.1775  2.7329
 1019SOL    HW214517   0.686   2.349  13.488  0.4980 -2.4381  0.1612
 1020SOL     OW14518   1.280   1.594  17.349 -0.6291  0.5186 -0.1650
 1020SOL    HW114519   1.235   1.515  17.317  1.2070 -0.5909 -0.0081
 1020SOL    HW214520   1.294   1.583  17.443 -0.3253 -0.8409 -0.3751
 1021SOL     OW14521   2.811   0.723   3.123  0.4774  0.2555 -0.2516
 1021SOL    HW114522   2.775   0.652   3.071  1.0550  0.0487 -0.3641
 1021SOL    HW214523   2.905   0.713   3.107  0.6057  0.9148  0.0808
 1022SOL     OW14524   2.382   3.735   5.246 -0.7475  0.2632 -0.6000
 1022SOL    HW114525   2.474   3.756   5.261 -1.4193  1.0395  2.5640
 1022SOL    HW214526   2.384   3.732   5.151  0.6282 -2.4609 -0.4795
 1023SOL     OW14527   4.504   2.823  13.237 -0.3417  0.2671 -0.1724
 1023SOL    HW114528   4.454   2.741  13.236  0.6357 -0.3178 -0.9535
 1023SOL    HW214529   4.433   2.887  13.242 -0.5354  0.0748 -0.4500
 1024SOL     OW14530   0.124   3.705   7.570  0.7123  0.2425 -0.0044
 1024SOL    HW114531   0.048   3.763   7.560 -1.6632 -2.0148  5.1274
 1024SOL    HW214532   0.188   3.774   7.587 -0.2272  0.9891  0.4812
 1025SOL     OW14533   2.835   2.275   7.010 -0.0214  0.0859 -0.4570
 1025SOL    HW114534   2.787   2.309   6.934 -0.8281 -0.0531 -0.0178
 1025SOL    HW214535   2.797   2.188   7.004  0.1304 -0.0766  0.8532
 1026SOL     OW14536   4.690   4.011  13.553 -0.0091  0.3321 -0.2081
 1026SOL    HW114537   4.649   4.095  13.535  0.8465  1.4553  3.1707
 1026SOL    HW214538   4.620   3.963  13.508  0.5097 -1.7144  1.1425
 1027SOL     OW14539   0.527   4.456   5.243  0.7304 -0.6804 -0.0649
 1027SOL    HW114540   0.528   4.547   5.215  0.1515 -1.8144 -3.8117
 1027SOL    HW214541   0.495   4.407   5.167  0.1554 -0.3359 -0.0400
 1028SOL     OW14542   0.883   0.471  16.681 -0.2775  0.1761  0.2184
 1028SOL    HW114543   0.903   0.549  16.732  0.9052 -0.9727  1.5237
 1028SOL    HW214544   0.825   0.425  16.743  1.7643 -1.2424  1.0834
 1029SOL     OW14545   3.771   1.984   4.703  0.1280 -0.4419 -0.3417
 1029SOL    HW114546   3.748   1.906   4.753  3.5156 -2.0060 -1.2469
 1029SOL    HW214547   3.839   1.945   4.649  0.5863 -0.2282  0.0778
 1030SOL     OW14548   0.549   0.435  13.752  0.3356 -0.8744 -0.1595
 1030SOL    HW114549   0.590   0.488  13.820  0.7432  1.8697 -2.5723
 1030SOL    HW214550   0.477   0.490  13.722 -0.8220 -1.5258  1.4068
 1031SOL     OW14551   4.034   3.572   5.031 -0.0512 -0.2562 -0.0762
 1031SOL    HW114552   4.093   3.560   4.957  1.0878 -0.4262  0.8561
 1031SOL    HW214553   4.060   3.659   5.061 -0.5926  0.1258 -0.7294
 1032SOL     OW14554   0.486   1.320   5.999  0.5447 -0.1040 -0.2763
 1032SOL    HW114555   0.463   1.334   6.091  0.3211 -0.7878 -0.2335
 1032SOL    HW214556   0.401   1.310   5.957  0.7446 -1.1670 -0.4263
 1033SOL     OW14557   1.176   1.187   8.347  0.7448 -0.5230  0.0098
 1033SOL    HW114558   1.194   1.110   8.294  1.1662  1.5548 -2.8518
 1033SOL    HW214559   1.250   1.247   8.333  0.0898  0.6145  1.3514
 1034SOL     OW14560   0.688   1.457   3.914 -0.0352  0.1912  0.1025
 1034SOL    HW114561   0.705   1.485   3.824 -3.6533 -0.1447 -0.6595
 1034SOL    HW214562   0.639   1.534   3.943 -3.0345 -1.8826  0.4908
 1035SOL     OW14563   1.319   0.876  11.895 -0.3874  0.3157 -0.0583
 1035SOL    HW114564   1.236   0.909  11.931  0.6434  0.4484  2.1692
 1035SOL    HW214565   1.309   0.781  11.901 -0.5351  0.4859  2.2983
 1036SOL     OW14566   0.964   1.281  13.167  0.2221 -0.1075  0.4307
 1036SOL    HW114567   0.896   1.237  13.218  0.4012 -0.9001 -0.0149
 1036SOL    HW214568   1.010   1.205  13.133  0.4825 -0.2951  1.1981
 1037SOL     OW14569   0.888   1.261   2.964 -0.1017 -0.6099  0.2488
 1037SOL    HW114570   0.838   1.340   2.984 -1.1518 -0.8426 -1.4084
 1037SOL    HW214571   0.896   1.222   3.051  0.0846 -2.3665 -0.5423
 1038SOL     OW14572   0.818   0.199  12.036 -0.2493  0.0282 -0.5676
 1038SOL    HW114573   0.785   0.208  12.126  0.3290 -0.3853 -0.3084
 1038SOL    HW214574   0.747   0.153  11.993 -1.0385  2.7485 -2.1772
 1039SOL     OW14575   0.531   2.109  13.395 -0.0069  0.1455  0.1489
 1039SOL    HW114576   0.490   2.041  13.449 -1.4872  1.1432  0.3020
 1039SOL    HW214577   0.448   2.150  13.371 -0.2120 -0.8545 -0.8274
 1040SOL     OW14578   3.123   1.417   2.546  0.3226  0.7224 -0.2051
 1040SOL    HW114579   3.062   1.471   2.595 -1.0350  1.0862 -2.2774
 1040SOL    HW214580   3.187   1.391   2.612 -0.8919 -0.7739  0.3937
 1041SOL     OW14581   3.824   0.298  17.645  0.5413  0.3657 -0.1680
 1041SOL    HW114582   3.817   0.204  17.663  1.0402  0.2981 -0.3208
 1041SOL    HW214583   3.915   0.298  17.615  0.6546 -0.9122  0.1602
 1042SOL     OW14584   4.660   3.150   5.275 -0.5875  0.3638  0.3592
 1042SOL    HW114585   4.630   3.219   5.215  0.8768  1.6106  1.0893
 1042SOL    HW214586   4.699   3.207   5.341  1.3016  1.1357 -1.4565
 1043SOL     OW14587   1.761   3.637  10.472 -0.4266 -0.1234  0.0901
 1043SOL    HW114588   1.821   3.633  10.397 -0.5696  1.0147 -0.0840
 1043SOL    HW214589   1.804   3.714  10.509 -1.8997 -0.2211  1.9707
 1044SOL     OW14590   2.059   4.665  11.911 -0.3440 -0.3398 -0.2003
 1044SOL    HW114591   2.153   4.677  11.926 -0.7517  0.1954  2.0111
 1044SOL    HW214592   2.025   0.021  11.953  2.4700  1.6854 -1.7387
 1045SOL     OW14593   2.852   0.657   4.622 -0.5173 -0.5270 -0.4893
 1045SOL    HW114594   2.760   0.630   4.619 -0.3371 -1.4405  2.2968
 1045SOL    HW214595   2.889   0.622   4.541  0.7049  1.3644 -0.7496
 1046SOL     OW14596   0.254   1.959  11.952  0.6539 -0.4331 -0.1191
 1046SOL    HW114597   0.340   1.961  11.995 -0.7081 -0.2871  2.5904
 1046SOL    HW214598   0.261   2.044  11.908 -0.5080  0.6851  1.8859
 1047SOL     OW14599   3.114   3.447   8.185  0.4258  0.4131 -0.4594
 1047SOL    HW114600   3.030   3.414   8.151  0.9374 -2.0383  0.6603
 1047SOL    HW214601   3.106   3.543   8.190 -0.4072  0.4422 -2.1154
 1048SOL     OW14602   0.631   0.349   6.900  0.1909  0.9337 -0.0986
 1048SOL    HW114603   0.617   0.313   6.988  0.9419  1.1690  0.1224
 1048SOL    HW214604   0.634   0.272   6.844 -2.2034  0.6874  0.1000
 1049SOL     OW14605   0.339   4.479   1.481 -0.4440  0.1578  0.0394
 1049SOL    HW114606   0.415   4.538   1.481 -0.9753  0.8398 -0.1959
 1049SOL    HW214607   0.353   4.445   1.569 -0.5478 -1.0037 -0.3957
 1050SOL     OW14608   0.419   3.043  15.914  0.3668  0.2397  0.1330
 1050SOL    HW114609   0.474   3.070  15.988  0.5630  2.5268 -0.8404
 1050SOL    HW214610   0.394   2.961  15.957 -1.5984  2.2329  2.8858
 1051SOL     OW14611   3.320   4.238   3.890 -0.5140 -0.5086  0.2701
 1051SOL    HW114612   3.298   4.214   3.800  1.6134  1.2612 -0.7256
 1051SOL    HW214613   3.288   4.157   3.929 -2.3890  0.4326  0.6812
 1052SOL     OW14614   4.404   0.650   6.651 -0.7472  0.7070 -0.5146
 1052SOL    HW114615   4.487   0.604   6.639 -0.8272  0.5669 -0.5356
 1052SOL    HW214616   4.428   0.734   6.689  0.3229 -0.1371  0.6421
 1053SOL     OW14617   3.580   1.668  16.821  0.3752 -0.0075  0.0736
 1053SOL    HW114618   3.527   1.717  16.758 -0.2278 -0.8537 -0.0764
 1053SOL    HW214619   3.635   1.732  16.865  1.9471 -1.5343  0.3381
 1054SOL     OW14620   1.105   1.108   8.595  0.1510  0.3877 -0.5217
 1054SOL    HW114621   1.118   1.013   8.597  0.1961  0.3739 -1.1788
 1054SOL    HW214622   1.137   1.133   8.508  1.4228 -0.1239 -0.1959
 1055SOL     OW14623   2.239   0.787   6.848  0.0430  0.8802  0.3326
 1055SOL    HW114624   2.326   0.801   6.809 -0.8076 -0.0221 -1.8742
 1055SOL    HW214625   2.257   0.817   6.938  1.6531  2.0549 -0.3728
 1056SOL     OW14626   1.568   4.548   4.132  1.1417  0.6052  0.2231
 1056SOL    HW114627   1.612   4.463   4.137 -3.7441 -2.0784 -2.5376
 1056SOL    HW214628   1.506   4.549   4.205  0.9779  0.1338  0.0902
 1057SOL     OW14629   2.437   0.898   8.432  0.0873 -0.3650  0.0061
 1057SOL    HW114630   2.392   0.853   8.503  0.1094  0.1454  0.3427
 1057SOL    HW214631   2.402   0.986   8.446 -0.9603 -0.5879 -1.1300
 1058SOL     OW14632   2.172   2.614   6.153  0.1589 -0.1375 -0.4988
 1058SOL    HW114633   2.229   2.691   6.144 -0.1477  0.2443  0.7899
 1058SOL    HW214634   2.216   2.580   6.232 -0.5632  0.0638 -0.0099
 1059SOL     OW14635   3.187   3.729   7.312 -0.1538 -0.4077  0.0549
 1059SOL    HW114636   3.240   3.773   7.245 -1.2238  0.6732 -0.0797
 1059SOL    HW214637   3.126   3.685   7.253 -1.7144  1.2770  0.4197
 1060SOL     OW14638   0.796   0.824  15.544  0.0115  0.0516  0.0811
 1060SOL    HW114639   0.762   0.755  15.486  1.0262  0.3505 -0.8682
 1060SOL    HW214640   0.789   0.779  15.628 -1.2226 -2.2897 -1.2718
 1061SOL     OW14641   4.265   4.575   6.730  0.1846 -0.2646 -0.2526
 1061SOL    HW114642   4.274   4.613   6.642  1.6047  1.5295  0.6731
 1061SOL    HW214643   4.249   4.481   6.717 -0.3965 -0.1868 -0.1263
 1062SOL     OW14644   3.889   4.625   5.174  0.1977 -0.5615  0.9016
 1062SOL    HW114645   3.961   4.688   5.179  0.3785 -0.7171  0.3196
 1062SOL    HW214646   3.868   4.639   5.081  3.3683 -0.0232  0.2565
 1063SOL     OW14647   4.595   3.645   7.707  0.4130  0.1628 -0.3119
 1063SOL    HW114648   4.574   3.553   7.726 -0.5118  0.1491 -1.4106
 1063SOL    HW214649   4.655   3.662   7.779 -1.3786 -0.0236  1.2119
 1064SOL     OW14650   1.206   3.796   7.553  0.0509  0.3377  0.3412
 1064SOL    HW114651   1.279   3.854   7.536  0.5640 -1.2126 -2.6922
 1064SOL    HW214652   1.211   3.745   7.473 -0.2739 -0.6676  0.9613
 1065SOL     OW14653   4.582   0.239   9.020 -0.3790  0.1327  0.0753
 1065SOL    HW114654   4.541   0.308   9.072 -1.7832 -1.3721  0.9444
 1065SOL    HW214655   4.518   0.231   8.949 -0.6750 -0.2341  0.3877
 1066SOL     OW14656   4.672   0.708   4.753  0.5668  0.3598  0.0886
 1066SOL    HW114657   4.652   0.722   4.845  2.1178 -1.8103  0.7591
 1066SOL    HW214658   4.676   0.612   4.749  0.2227  0.3609 -0.2709
 1067SOL     OW14659   1.758   2.127  15.430 -0.1611 -0.1352 -0.1251
 1067SOL    HW114660   1.834   2.155  15.480  0.6855 -3.3976  0.4565
 1067SOL    HW214661   1.754   2.174  15.347 -0.4938 -0.4691 -0.2982
 1068SOL     OW14662   3.165   0.326   4.013 -0.0125 -0.7896 -0.0830
 1068SOL    HW114663   3.179   0.384   4.088  0.9560  1.2731 -1.8472
 1068SOL    HW214664   3.194   0.247   4.059 -1.2306 -1.0977  0.1541
 1069SOL     OW14665   1.275   0.603   1.632  0.3639  0.5323 -0.0021
 1069SOL    HW114666   1.224   0.575   1.708 -0.7306 -0.0291 -0.9389
 1069SOL    HW214667   1.232   0.686   1.609 -1.2552 -0.5587 -0.9401
 1070SOL     OW14668   4.051   4.149   5.949  0.0399 -0.1777 -0.7681
 1070SOL    HW114669   4.042   4.100   6.031  0.8292  2.8471  1.1609
 1070SOL    HW214670   4.019   4.073   5.901  0.5631 -0.2874 -0.9475
 1071SOL     OW14671   4.494   1.446   4.550  0.2769  0.1646  0.0143
 1071SOL    HW114672   4.476   1.358   4.515  2.5014 -0.0407 -0.5827
 1071SOL    HW214673   4.501   1.513   4.482  0.1258  0.5650  0.3945
 1072SOL     OW14674   0.714   4.618   3.544 -0.6087  0.0263  0.2738
 1072SOL    HW114675   0.679   4.700   3.509  1.7329  0.7585 -0.3310
 1072SOL    HW214676   0.800   4.648   3.573  0.0663 -0.5617 -1.1146
 1073SOL     OW14677   4.062   0.917   4.582  0.3741  0.0897  0.3099
 1073SOL    HW114678   4.153   0.912   4.554  0.0657 -0.0558 -0.6434
 1073SOL    HW214679   4.041   1.007   4.556 -0.5070  0.0687  0.9489
 1074SOL     OW14680   3.419   2.598  14.612  0.7288  0.0155 -0.1777
 1074SOL    HW114681   3.400   2.635  14.526  2.0456  0.9048 -0.0886
 1074SOL    HW214682   3.387   2.508  14.617  0.3717  0.1872  0.7699
 1075SOL     OW14683   4.301   3.231   4.340  0.1113 -0.3721  0.3188
 1075SOL    HW114684   4.382   3.269   4.305 -0.3222 -0.4459 -0.7658
 1075SOL    HW214685   4.308   3.250   4.434 -0.6440  1.0021  0.1014
 1076SOL     OW14686   0.227   2.920   9.811 -0.0230  0.3881  0.1238
 1076SOL    HW114687   0.259   2.982   9.745  0.6141  0.8938  0.9127
 1076SOL    HW214688   0.273   2.841   9.781 -0.8774 -0.0239 -0.1026
 1077SOL     OW14689   1.864   3.219   9.167 -0.0335  0.3295  0.1332
 1077SOL    HW114690   1.794   3.259   9.219  0.3646 -0.2483  1.1146
 1077SOL    HW214691   1.897   3.298   9.125 -0.3233 -0.2866 -1.2376
 1078SOL     OW14692   0.936   2.191   2.569  0.4185 -0.4042  0.2512
 1078SOL    HW114693   0.950   2.285   2.566 -2.7968  0.0571  0.0289
 1078SOL    HW214694   1.023   2.154   2.548  0.1818 -0.4553 -0.6581
 1079SOL     OW14695   2.807   3.496   3.593 -0.4799  0.0601 -0.3104
 1079SOL    HW114696   2.780   3.587   3.578 -0.7690 -0.0807 -0.6511
 1079SOL    HW214697   2.783   3.470   3.681 -1.6274 -0.7788 -0.8771
 1080SOL     OW14698   4.062   0.908   7.297 -0.5627 -0.1742 -0.5826
 1080SOL    HW114699   3.999   0.902   7.225 -0.2990 -2.6857 -0.6050
 1080SOL    HW214700   4.010   0.923   7.376  0.6971 -0.4957  0.3156
 1081SOL     OW14701   1.415   1.062   5.789  0.4752 -0.1813  0.0378
 1081SOL    HW114702   1.457   1.140   5.825 -0.1906 -0.0015  0.4352
 1081SOL    HW214703   1.359   1.032   5.861  1.0279 -0.2141  0.4528
 1082SOL     OW14704   1.842   1.891   6.435 -0.0883  0.3641  0.4656
 1082SOL    HW114705   1.766   1.834   6.439 -1.8216  2.6465 -0.2494
 1082SOL    HW214706   1.909   1.838   6.478 -0.2237  1.8954  2.6207
 1083SOL     OW14707   2.645   0.750  14.359  0.2106 -0.6440  0.1698
 1083SOL    HW114708   2.553   0.743  14.331 -0.0313  3.2146 -0.0094
 1083SOL    HW214709   2.690   0.772  14.278  1.3351 -0.9170  0.7202
 1084SOL     OW14710   2.733   3.342   1.497 -0.6478 -0.6611 -0.3875
 1084SOL    HW114711   2.824   3.364   1.477  0.1320 -0.4869  3.3633
 1084SOL    HW214712   2.702   3.418   1.447 -0.3255 -0.9119 -0.9735
 1085SOL     OW14713   0.175   2.567   6.945 -0.6641  0.1494 -0.3521
 1085SOL    HW114714   0.088   2.604   6.963 -0.0062  0.5491  2.0193
 1085SOL    HW214715   0.217   2.554   7.030  1.5154  4.3513 -0.8345
 1086SOL     OW14716   3.467   0.162   3.623  0.1956  0.1800 -0.4506
 1086SOL    HW114717   3.398   0.207   3.672  0.5979 -1.3197  1.4872
 1086SOL    HW214718   3.539   0.185   3.681  0.3524  0.9651 -0.9560
 1087SOL     OW14719   2.189   2.834   7.978 -0.3193 -0.9979  0.2188
 1087SOL    HW114720   2.163   2.762   7.921  0.2403 -0.4898 -0.6686
 1087SOL    HW214721   2.186   2.792   8.064 -1.3706 -0.2586  0.5313
 1088SOL     OW14722   4.219   0.098   4.519 -0.5919 -0.0115 -0.5941
 1088SOL    HW114723   4.255   0.057   4.598 -0.4457  0.5605 -0.3630
 1088SOL    HW214724   4.305   0.112   4.479  0.0965 -1.6238  0.3265
 1089SOL     OW14725   3.213   1.562   6.498  0.3090  0.5467 -0.6463
 1089SOL    HW114726   3.158   1.509   6.555 -0.0990  2.7104  0.9482
 1089SOL    HW214727   3.175   1.541   6.413 -1.3630 -2.0823  0.7631
 1090SOL     OW14728   2.233   1.103  11.165  0.3232 -0.2133  0.1250
 1090SOL    HW114729   2.161   1.043  11.144  0.1386  0.5272 -1.3501
 1090SOL    HW214730   2.184   1.182  11.141 -1.1950 -1.2170 -0.0887
 1091SOL     OW14731   2.143   1.612  15.564  0.1259 -0.5753 -0.5676
 1091SOL    HW114732   2.068   1.641  15.513  0.5958 -0.4697 -1.1930
 1091SOL    HW214733   2.140   1.519  15.543 -0.2644 -0.3670 -1.4318
 1092SOL     OW14734   1.949   3.029  11.144 -0.4492  0.0432 -0.1236
 1092SOL    HW114735   1.862   3.013  11.179  1.4135 -0.1635  4.4077
 1092SOL    HW214736   1.981   2.939  11.140  2.5147  1.0778  0.0052
 1093SOL     OW14737   2.145   0.711   4.092  0.1151  0.1466 -0.2843
 1093SOL    HW114738   2.122   0.740   4.180  0.6087  1.0009 -0.4375
 1093SOL    HW214739   2.234   0.746   4.090  0.6552 -1.1251  2.0948
 1094SOL     OW14740   2.553   2.831  12.498  0.0279  0.2242  0.2849
 1094SOL    HW114741   2.572   2.922  12.520 -0.9405  0.6196 -0.5595
 1094SOL    HW214742   2.497   2.801  12.570 -0.7098 -0.2079 -0.4810
 1095SOL     OW14743   0.424   1.107  16.701 -0.3870 -0.1784  0.5504
 1095SOL    HW114744   0.371   1.086  16.777 -3.0391  1.0226 -0.9576
 1095SOL    HW214745   0.369   1.102  16.623 -3.1448 -0.1252  2.5039
 1096SOL     OW14746   0.079   3.882   8.435  0.2477 -0.0264  0.4092
 1096SOL    HW114747   0.148   3.932   8.391  0.7088 -1.0281  0.0149
 1096SOL    HW214748   4.723   3.903   8.386  0.3581  2.2743  1.1871
 1097SOL     OW14749   3.714   4.132   4.671 -0.6289  0.2586  0.4389
 1097SOL    HW114750   3.774   4.206   4.680 -2.2860  1.9671 -2.4428
 1097SOL    HW214751   3.692   4.104   4.760  2.9854 -3.1605  0.2581
 1098SOL     OW14752   3.873   0.600   9.636 -0.4406  0.2719 -0.0345
 1098SOL    HW114753   3.925   0.675   9.663  1.7343 -0.9770 -0.7921
 1098SOL    HW214754   3.932   0.530   9.663  0.1794  0.6877 -0.3307
 1099SOL     OW14755   2.963   0.004   6.789  0.3822  0.3474 -0.0162
 1099SOL    HW114756   2.919   4.696   6.710 -0.5921 -0.6797  0.9325
 1099SOL    HW214757   3.056   4.708   6.772  0.4319  0.0997  0.5385
 1100SOL     OW14758   2.117   1.309   3.513 -0.1452  0.2195  0.0941
 1100SOL    HW114759   2.113   1.297   3.418  1.6481  0.8043 -0.0411
 1100SOL    HW214760   2.130   1.404   3.523  2.4397 -0.5954  4.5483
 1101SOL     OW14761   1.165   1.797   4.697 -0.1266  0.0906 -0.0315
 1101SOL    HW114762   1.192   1.787   4.606 -0.6739  1.5146 -0.3559
 1101SOL    HW214763   1.244   1.841   4.728 -0.4114  0.6785 -0.1336
 1102SOL     OW14764   1.511   1.457   6.801 -0.2724  0.1377 -0.0280
 1102SOL    HW114765   1.527   1.382   6.858  0.9822 -0.7770 -1.5889
 1102SOL    HW214766   1.415   1.451   6.798 -0.2744 -0.3026  1.0854
 1103SOL     OW14767   0.681   1.091   6.358  0.6851  0.6208  0.0915
 1103SOL    HW114768   0.666   1.115   6.266  1.8000  1.2823  0.0820
 1103SOL    HW214769   0.770   1.056   6.347  0.6555  0.6883 -0.3770
 1104SOL     OW14770   2.111   1.699   2.827 -0.4213  0.2130 -0.5819
 1104SOL    HW114771   2.075   1.620   2.788 -0.9129  1.4546 -2.6432
 1104SOL    HW214772   2.085   1.759   2.758 -1.7022 -1.3023 -1.3933
 1105SOL     OW14773   3.743   3.961   7.843 -0.7313 -0.4864  0.7125
 1105SOL    HW114774   3.679   3.961   7.914 -2.3268 -0.7627 -0.7434
 1105SOL    HW214775   3.740   3.873   7.807  0.1274  0.1295 -0.8908
 1106SOL     OW14776   0.963   0.730  12.037  0.1535  0.0124  1.0848
 1106SOL    HW114777   0.958   0.696  11.948  0.5333  3.0761 -0.1331
 1106SOL    HW214778   1.020   0.806  12.025  1.2060 -1.0800 -0.9088
 1107SOL     OW14779   0.962   1.520  13.681 -0.1657 -0.3362  0.0389
 1107SOL    HW114780   1.037   1.578  13.689 -0.7955  0.3453  1.0209
 1107SOL    HW214781   1.004   1.437  13.657  0.7869  0.1848 -0.0950
 1108SOL     OW14782   3.989   1.273   3.289  0.5143  0.1886  0.1629
 1108SOL    HW114783   4.067   1.226   3.260 -0.8335 -1.6097 -0.5687
 1108SOL    HW214784   3.975   1.223   3.369  0.0979 -0.8239 -0.5405
 1109SOL     OW14785   3.496   2.372   9.886 -0.1031  0.2582 -0.3071
 1109SOL    HW114786   3.414   2.379   9.838 -0.8469 -2.5925  0.5202
 1109SOL    HW214787   3.511   2.464   9.905  1.2043  0.0274 -0.1845
 1110SOL     OW14788   0.345   0.398   4.513 -0.1195  0.0867  0.3038
 1110SOL    HW114789   0.403   0.442   4.452  1.3875 -2.0306  0.2297
 1110SOL    HW214790   0.260   0.395   4.468 -0.3406  3.0150  0.4686
 1111SOL     OW14791   4.196   0.223   9.505 -0.1072 -0.2801  0.1469
 1111SOL    HW114792   4.239   0.291   9.557 -2.1429 -0.5832  2.2371
 1111SOL    HW214793   4.195   0.256   9.415 -0.6420  1.1630  0.6938
 1112SOL     OW14794   1.995   0.253   7.269 -0.4376  0.2985  0.0359
 1112SOL    HW114795   2.041   0.323   7.224 -0.7379  0.3212 -0.2416
 1112SOL    HW214796   1.960   0.203   7.195 -1.0800 -0.8712  1.1183
 1113SOL     OW14797   0.766   1.273  10.234  0.3315  0.4954 -0.0743
 1113SOL    HW114798   0.763   1.178  10.244  2.0799  0.1479 -2.8320
 1113SOL    HW214799   0.803   1.318  10.310 -0.4144  0.7273  0.1537
 1114SOL     OW14800   1.318   1.032  16.399  0.0233 -0.5146 -0.2439
 1114SOL    HW114801   1.360   1.095  16.458 -2.5160 -0.6955  1.7567
 1114SOL    HW214802   1.350   0.948  16.433  2.8171  1.3908  1.8664
 1115SOL     OW14803   0.563   3.008  15.413 -0.6923  0.1123 -0.2182
 1115SOL    HW114804   0.577   2.933  15.355  2.2014  0.1118  0.4371
 1115SOL    HW214805   0.640   2.999  15.470 -0.4404 -0.1587 -0.6028
 1116SOL     OW14806   3.169   4.379   1.084 -0.1429  0.3014  0.6495
 1116SOL    HW114807   3.074   4.370   1.088 -0.6359  2.7445 -4.7455
 1116SOL    HW214808   3.179   4.456   1.140 -2.7280  0.3818  1.0102
 1117SOL     OW14809   3.883   2.619   2.702  0.0398  0.1442  0.3528
 1117SOL    HW114810   3.929   2.644   2.782  3.0644  0.4878 -1.4953
 1117SOL    HW214811   3.795   2.643   2.732  0.5982  0.2122  1.9415
 1118SOL     OW14812   1.065   1.341  16.479 -0.4452 -0.0160 -0.5713
 1118SOL    HW114813   1.115   1.378  16.552 -1.0995 -0.3164  0.0390
 1118SOL    HW214814   1.064   1.248  16.505  0.4231  0.2794  0.5178
 1119SOL     OW14815   1.004   2.046   2.261 -0.1686  0.2691  0.3257
 1119SOL    HW114816   0.921   1.997   2.259 -0.9021  1.6162 -2.1986
 1119SOL    HW214817   1.063   1.975   2.236 -0.4018  0.1403  0.1391
 1120SOL     OW14818   3.029   0.980  14.849  0.0038 -0.1802 -0.0952
 1120SOL    HW114819   3.026   0.974  14.945 -1.8457  1.0546 -0.0839
 1120SOL    HW214820   3.021   1.075  14.852 -1.9932 -0.3627  0.6178
 1121SOL     OW14821   2.262   2.384   3.459  0.3657  0.4162 -0.3133
 1121SOL    HW114822   2.301   2.464   3.424  0.0351 -0.2941 -2.3011
 1121SOL    HW214823   2.321   2.361   3.531 -0.9861  0.0593  0.6805
 1122SOL     OW14824   4.438   3.413   8.285  0.1881  0.5014 -0.1021
 1122SOL    HW114825   4.451   3.463   8.365 -1.1622  1.1660 -0.2917
 1122SOL    HW214826   4.363   3.458   8.245 -1.2728 -1.9202 -0.1046
 1123SOL     OW14827   1.195   0.298   1.162  0.0196 -0.6426  0.0679
 1123SOL    HW114828   1.170   0.282   1.253 -0.9923  0.1922 -0.0704
 1123SOL    HW214829   1.290   0.288   1.163 -0.2590 -3.2851  0.2086
 1124SOL     OW14830   2.605   2.276   3.459 -0.5067  0.2732 -0.1854
 1124SOL    HW114831   2.546   2.261   3.532  0.2849 -2.7936 -0.1676
 1124SOL    HW214832   2.635   2.187   3.437  0.1442  0.6389 -0.7955
 1125SOL     OW14833   2.431   4.501   1.984 -0.1993  0.3557 -0.1542
 1125SOL    HW114834   2.374   4.434   1.947  0.4721 -0.5223  0.3833
 1125SOL    HW214835   2.472   4.551   1.913  0.7109 -1.8959 -1.2321
 1126SOL     OW14836   0.819   1.324  14.768  0.3337 -0.6667  0.2468
 1126SOL    HW114837   0.819   1.276  14.851 -1.1408 -1.9622 -0.5016
 1126SOL    HW214838   0.727   1.322  14.744  0.2622  1.7096  0.3342
 1127SOL     OW14839   0.671   4.559   6.195  0.4428 -0.2962  0.3802
 1127SOL    HW114840   0.723   4.481   6.176  1.9950  0.3658  2.0372
 1127SOL    HW214841   0.625   4.559   6.110 -0.4424 -0.4858  0.8609
 1128SOL     OW14842   3.286   4.134   7.128 -0.1502  0.2360 -0.8422
 1128SOL    HW114843   3.354   4.201   7.136 -1.3698  1.4061 -0.2129
 1128SOL    HW214844   3.299   4.096   7.042  0.1576  0.7225 -1.0073
 1129SOL     OW14845   1.526   3.187   2.913 -0.2228  0.6354 -0.5620
 1129SOL    HW114846   1.584   3.147   2.977 -2.6896  0.5216  1.6148
 1129SOL    HW214847   1.541   3.280   2.932  0.9165  0.5531 -1.0654
 1130SOL     OW14848   1.123   4.152   6.056 -0.4956  0.1241  0.2262
 1130SOL    HW114849   1.169   4.195   6.128 -1.9027 -1.3285  1.9672
 1130SOL    HW214850   1.194   4.109   6.008 -2.6474 -3.1067  0.0138
 1131SOL     OW14851   3.863   1.652   0.287  0.1475 -0.8862  0.5472
 1131SOL    HW114852   3.874   1.557   0.294  1.1161 -0.9780 -2.0041
 1131SOL    HW214853   3.818   1.673   0.368 -0.9223 -0.7355 -0.0808
 1132SOL     OW14854   0.903   2.829   3.658 -0.5836  0.1715  0.4134
 1132SOL    HW114855   0.961   2.759   3.687  0.1497  0.9280  0.7611
 1132SOL    HW214856   0.968   2.884   3.615  0.6921 -1.1138  0.6816
 1133SOL     OW14857   4.178   0.153   7.718 -0.4198  0.1313  0.4160
 1133SOL    HW114858   4.228   0.119   7.643  0.2523  3.8271 -0.7887
 1133SOL    HW214859   4.227   0.217   7.770  2.8777 -2.8069  0.9110
 1134SOL     OW14860   3.312   4.369   8.137 -0.5995  0.2472  0.1993
 1134SOL    HW114861   3.291   4.305   8.069  0.5696 -0.0393  0.0967
 1134SOL    HW214862   3.260   4.341   8.212  1.1256  1.2489  1.7824
 1135SOL     OW14863   3.802   1.590   4.373  0.4814  0.0569  0.1590
 1135SOL    HW114864   3.844   1.520   4.421  0.5298 -0.4821 -0.6702
 1135SOL    HW214865   3.877   1.640   4.340 -1.1416  2.3824 -0.0416
 1136SOL     OW14866   3.767   1.601  12.706 -0.5061 -0.6149  0.5597
 1136SOL    HW114867   3.750   1.538  12.776 -0.8677  0.9949  1.9249
 1136SOL    HW214868   3.802   1.537  12.644 -0.9587  1.0872 -1.4566
 1137SOL     OW14869   3.661   3.214  13.253  0.2829  0.2261  0.0475
 1137SOL    HW114870   3.612   3.144  13.209  0.1398 -0.4511  1.2673
 1137SOL    HW214871   3.595   3.238  13.318  0.0895 -2.0173  0.7053
 1138SOL     OW14872   3.067   1.629  16.889 -0.1017  0.2771 -0.2932
 1138SOL    HW114873   3.117   1.602  16.967 -1.6798  0.8210  0.9046
 1138SOL    HW214874   3.140   1.616  16.828 -0.3699 -1.7376 -0.2099
 1139SOL     OW14875   2.387   4.691   8.452 -0.0217 -0.4385 -0.3306
 1139SOL    HW114876   2.336   4.653   8.381  0.7384  0.8152 -1.5410
 1139SOL    HW214877   2.451   0.015   8.399 -0.4197 -0.4298 -0.8007
 1140SOL     OW14878   2.961   1.834   3.899  0.4322  0.2772  0.4045
 1140SOL    HW114879   2.995   1.854   3.986  0.2239  0.0753  0.5337
 1140SOL    HW214880   2.941   1.741   3.909  0.9041  0.2907  1.3963
 1141SOL     OW14881   0.977   3.710   2.601  0.1307  0.1042 -0.4286
 1141SOL    HW114882   1.049   3.685   2.543 -0.7990 -0.3051 -1.4116
 1141SOL    HW214883   0.962   3.801   2.574  1.7762  0.5091  0.0760
 1142SOL     OW14884   0.933   2.426  16.266  0.2885 -0.1964  0.0703
 1142SOL    HW114885   1.003   2.492  16.261 -0.0875  0.2328  0.4685
 1142SOL    HW214886   0.895   2.456  16.183 -1.1572 -0.8752  0.4926
 1143SOL     OW14887   2.713   1.820  14.204  0.4605  0.0050 -0.2155
 1143SOL    HW114888   2.692   1.911  14.226 -0.5392  0.2478 -2.1648
 1143SOL    HW214889   2.743   1.826  14.113 -0.7289 -1.9025 -0.7452
 1144SOL     OW14890   2.536   2.509   6.679 -0.2177 -0.0843  0.3493
 1144SOL    HW114891   2.496   2.552   6.755  2.5607  1.9362  0.6831
 1144SOL    HW214892   2.580   2.584   6.639 -0.7539 -0.3892 -0.8084
 1145SOL     OW14893   3.006   1.783  16.628  0.0706 -0.7914  0.3874
 1145SOL    HW114894   3.025   1.737  16.709  0.6230 -0.3255  0.5200
 1145SOL    HW214895   2.918   1.815  16.650 -0.4193 -1.8328 -0.0923
 1146SOL     OW14896   0.892   0.312   6.991  0.7633  0.2270  0.2282
 1146SOL    HW114897   0.800   0.314   7.019  1.3075 -0.1678  2.0839
 1146SOL    HW214898   0.893   0.225   6.951  1.2273  1.1234 -1.7115
 1147SOL     OW14899   0.841   2.173  14.716 -0.4451 -0.0798  0.4988
 1147SOL    HW114900   0.879   2.183  14.628 -0.9858  1.3817  0.4299
 1147SOL    HW214901   0.758   2.133  14.691  0.6187 -1.0847 -1.4523
 1148SOL     OW14902   2.873   0.462  16.969 -0.1333  0.4525  1.0141
 1148SOL    HW114903   2.779   0.461  16.949  1.1048 -2.0797 -4.5551
 1148SOL    HW214904   2.906   0.432  16.885  0.7054 -0.2352  1.5951
 1149SOL     OW14905   2.210   4.173   1.481  0.1319 -0.5686 -0.1255
 1149SOL    HW114906   2.248   4.089   1.507 -1.2097 -0.9708  0.5127
 1149SOL    HW214907   2.232   4.230   1.554 -2.3135 -1.6244  1.4381
 1150SOL     OW14908   4.233   1.961   6.205  0.5912  0.4044 -0.1817
 1150SOL    HW114909   4.210   2.027   6.271 -0.2869 -1.7589  1.6714
 1150SOL    HW214910   4.143   1.927   6.211  1.1017 -1.3868 -2.8034
 1151SOL     OW14911   2.482   2.326   5.031 -0.3899  0.5528 -0.2319
 1151SOL    HW114912   2.551   2.288   5.087  0.5400  1.8637 -0.4858
 1151SOL    HW214913   2.417   2.258   5.048  2.3717 -2.3693 -1.2520
 1152SOL     OW14914   0.312   0.879  12.658 -0.8107  0.1478 -0.2016
 1152SOL    HW114915   0.365   0.868  12.579 -3.7758  1.1593 -2.3256
 1152SOL    HW214916   0.306   0.972  12.679 -0.3210 -0.0616  0.8421
 1153SOL     OW14917   4.140   2.332   5.728 -1.1154  0.2015  0.2492
 1153SOL    HW114918   4.177   2.254   5.686 -1.5018  0.9363 -1.4443
 1153SOL    HW214919   4.118   2.293   5.813 -1.2659 -0.0907  0.0752
 1154SOL     OW14920   0.449   4.112   2.080 -0.3515  0.7197 -0.3162
 1154SOL    HW114921   0.539   4.126   2.052 -0.8730 -1.2540 -3.0475
 1154SOL    HW214922   0.415   4.063   2.005 -0.7035 -0.8930  0.8917
 1155SOL     OW14923   2.736   3.551   8.809  0.0052 -0.5056  0.1395
 1155SOL    HW114924   2.741   3.462   8.843 -0.1205  0.2033  2.0069
 1155SOL    HW214925   2.688   3.529   8.729  0.5111  0.0701 -0.3255
 1156SOL     OW14926   1.266   0.513   6.638  0.5595 -0.0291  0.3675
 1156SOL    HW114927   1.289   0.496   6.547  0.7502 -1.4608  0.6864
 1156SOL    HW214928   1.188   0.567   6.624  0.6533  0.0612  0.2032
 1157SOL     OW14929   3.270   3.976  16.404  0.1723 -0.7096  0.1430
 1157SOL    HW114930   3.252   4.002  16.313  1.5077  0.8622  0.3280
 1157SOL    HW214931   3.333   3.904  16.398 -0.1239 -0.9997  0.5502
 1158SOL     OW14932   4.530   3.359   2.890  0.5446 -0.0051  0.2911
 1158SOL    HW114933   4.482   3.370   2.808  0.1198 -0.8461  0.4345
 1158SOL    HW214934   4.514   3.443   2.933 -0.4372  0.9789 -1.9436
 1159SOL     OW14935   1.105   3.035   1.079  0.7785 -0.7015 -0.5191
 1159SOL    HW114936   1.200   3.045   1.076  0.7086 -0.8499 -3.3493
 1159SOL    HW214937   1.096   2.957   1.023  1.0474 -1.9027  1.1051
 1160SOL     OW14938   3.712   1.215   9.771 -0.1076 -0.6538 -0.3635
 1160SOL    HW114939   3.752   1.249   9.692  2.1744 -1.9417  0.2200
 1160SOL    HW214940   3.619   1.210   9.750 -0.6478  1.5011  1.4588
 1161SOL     OW14941   2.329   2.153   7.293  0.0754  0.2590 -0.1830
 1161SOL    HW114942   2.254   2.140   7.234 -1.2238 -0.0602  1.5377
 1161SOL    HW214943   2.350   2.243   7.269  0.7502  0.0682 -0.2870
 1162SOL     OW14944   1.645   1.058   3.215 -0.6255 -0.0536  0.3608
 1162SOL    HW114945   1.719   1.061   3.154 -1.1689  0.4827 -0.2648
 1162SOL    HW214946   1.688   1.011   3.287 -0.8829 -0.1845  0.4294
 1163SOL     OW14947   3.609   2.142   8.779  0.2207 -0.1333 -0.3087
 1163SOL    HW114948   3.632   2.184   8.862 -0.2787 -2.0212  0.7799
 1163SOL    HW214949   3.569   2.059   8.807 -0.5954  0.6877  0.9425
 1164SOL     OW14950   4.379   0.617   2.540  0.4482 -0.0829  0.1217
 1164SOL    HW114951   4.326   0.538   2.529  0.3612 -0.2954  2.1208
 1164SOL    HW214952   4.463   0.587   2.506  0.5111  1.8557 -1.4654
 1165SOL     OW14953   4.205   1.543  13.124  0.8572 -0.7345  0.2720
 1165SOL    HW114954   4.256   1.620  13.099  0.2982 -0.7037 -0.7587
 1165SOL    HW214955   4.193   1.520  13.032 -1.0358 -2.5787  0.9622
 1166SOL     OW14956   2.122   2.495   4.383  0.0368  0.1313  0.3588
 1166SOL    HW114957   2.111   2.409   4.343  0.3250  0.0109  0.5354
 1166SOL    HW214958   2.216   2.503   4.365  0.1682 -0.5532  0.7365
 1167SOL     OW14959   2.281   1.858   4.755  0.2992  0.1495 -0.4072
 1167SOL    HW114960   2.214   1.870   4.823  0.4839 -1.3512  0.0216
 1167SOL    HW214961   2.231   1.829   4.679 -1.8708  1.2819  0.5782
 1168SOL     OW14962   4.223   0.738   2.295 -0.0771  0.2057  0.1228
 1168SOL    HW114963   4.221   0.649   2.331  0.2435  0.1330 -0.0320
 1168SOL    HW214964   4.264   0.790   2.364 -1.6729 -1.8793  2.6148
 1169SOL     OW14965   3.337   0.860  11.567 -0.3075 -0.0356 -0.3308
 1169SOL    HW114966   3.395   0.925  11.527 -1.4935  1.4450  0.3647
 1169SOL    HW214967   3.350   0.797  11.496  0.6895 -0.9735  0.6811
 1170SOL     OW14968   3.604   2.216   1.038  0.2230  0.6114 -0.8861
 1170SOL    HW114969   3.581   2.123   1.029  0.0356  0.4740  1.1997
 1170SOL    HW214970   3.647   2.212   1.123 -0.8244  0.3749 -0.3696
 1171SOL     OW14971   3.168   0.485   8.674 -0.4761 -0.5709 -0.1850
 1171SOL    HW114972   3.181   0.574   8.707 -0.0647 -0.1412 -1.5337
 1171SOL    HW214973   3.191   0.426   8.746  2.1706  0.5091 -0.1498
 1172SOL     OW14974   1.255   2.489   6.929 -0.4455  0.1734  0.1647
 1172SOL    HW114975   1.196   2.453   6.864  0.6066  2.0632 -1.8314
 1172SOL    HW214976   1.206   2.565   6.961 -0.0770  0.0526  1.0338
 1173SOL     OW14977   1.354   2.999  10.262 -0.2034 -0.4238 -0.4249
 1173SOL    HW114978   1.306   2.965  10.186  0.7475 -0.0507 -1.1909
 1173SOL    HW214979   1.280   3.042  10.304  1.2325  2.9735 -1.3987
 1174SOL     OW14980   2.253   2.891   2.371 -0.0771 -0.2609 -0.5597
 1174SOL    HW114981   2.327   2.844   2.334 -0.2958 -2.2387  1.5718
 1174SOL    HW214982   2.235   2.840   2.450 -1.1997 -0.8111 -1.1638
 1175SOL     OW14983   2.590   1.802   2.983  0.2242 -0.5188 -0.0102
 1175SOL    HW114984   2.529   1.737   2.948 -1.2211  0.2954  0.9678
 1175SOL    HW214985   2.583   1.878   2.925  1.4770  0.9362  1.7438
 1176SOL     OW14986   3.197   3.936   5.117 -0.6216 -0.5518  0.0718
 1176SOL    HW114987   3.261   3.915   5.184  2.2707  1.8409 -1.9367
 1176SOL    HW214988   3.159   3.851   5.092  1.1593 -1.1147 -0.6941
 1177SOL     OW14989   0.083   4.314   6.452  0.0140  0.3568  0.5499
 1177SOL    HW114990   0.080   4.244   6.386  1.7905 -0.9299  1.8366
 1177SOL    HW214991   0.056   4.257   6.524 -0.1235  1.9676  1.7597
 1178SOL     OW14992   1.824   0.936   6.159  0.5327 -0.2659  0.6082
 1178SOL    HW114993   1.739   0.901   6.132 -0.2050  0.3983  2.0507
 1178SOL    HW214994   1.794   1.012   6.210  2.4931  1.0961 -0.2749
 1179SOL     OW14995   4.155   1.238   5.781  0.6991  0.4122  0.5934
 1179SOL    HW114996   4.206   1.183   5.722 -0.9314 -0.4416 -0.0199
 1179SOL    HW214997   4.113   1.298   5.720 -2.8392 -1.2268  1.4055
 1180SOL     OW14998   3.611   0.515   1.009 -0.1636 -0.1563  0.0075
 1180SOL    HW114999   3.596   0.514   1.103 -1.0005 -1.3462 -0.1290
 1180SOL    HW215000   3.535   0.469   0.970  0.6757 -0.3747 -1.3806
 1181SOL     OW15001   1.727   1.852   8.513 -0.1039 -0.3961 -0.2653
 1181SOL    HW115002   1.636   1.821   8.516 -0.4104  0.3817 -1.3485
 1181SOL    HW215003   1.757   1.884   8.599  0.0125 -1.7452  0.1912
 1182SOL     OW15004   3.329   2.250   1.112  0.4701  0.3361 -0.0461
 1182SOL    HW115005   3.319   2.155   1.108  0.6481  0.4469 -2.7387
 1182SOL    HW215006   3.423   2.257   1.099  0.6456 -0.9203  0.5535
 1183SOL     OW15007   0.646   0.929   4.065  0.3236  0.1649 -0.4385
 1183SOL    HW115008   0.556   0.936   4.034 -0.1241 -2.1701  0.3553
 1183SOL    HW215009   0.691   0.991   4.007 -1.5969  0.6413 -1.4133
 1184SOL     OW15010   1.171   0.657  16.634  0.3312 -0.1737 -0.0512
 1184SOL    HW115011   1.172   0.751  16.651 -0.2529 -0.6390  2.4712
 1184SOL    HW215012   1.098   0.648  16.572 -0.8961  1.4951  1.1855
 1185SOL     OW15013   1.232   4.324   8.180  0.1068  0.1545  0.3237
 1185SOL    HW115014   1.323   4.348   8.162 -0.0023 -1.8703 -2.8029
 1185SOL    HW215015   1.228   4.236   8.143 -0.9209 -0.1438  1.1281
 1186SOL     OW15016   0.224   1.880  14.761 -0.0084 -0.1045 -0.5086
 1186SOL    HW115017   0.204   1.929  14.682  0.1482  0.7820  0.0021
 1186SOL    HW215018   0.303   1.832  14.736  0.3708  2.5218 -4.2370
 1187SOL     OW15019   1.542   4.329   3.438  0.8742  0.3805  0.2723
 1187SOL    HW115020   1.576   4.408   3.480 -0.7552  1.9995 -1.4696
 1187SOL    HW215021   1.488   4.360   3.365  1.7984 -0.7939 -0.9242
 1188SOL     OW15022   2.143   3.720   7.662 -0.3183 -0.2633 -0.5701
 1188SOL    HW115023   2.175   3.764   7.583 -1.3357 -1.4547 -1.6418
 1188SOL    HW215024   2.143   3.789   7.728  0.0032 -0.1709 -0.6642
 1189SOL     OW15025   1.008   3.739   5.581  0.9214  0.3227 -0.3224
 1189SOL    HW115026   0.997   3.649   5.614 -0.0101  0.0833 -1.2992
 1189SOL    HW215027   0.997   3.724   5.487  1.0473 -0.6541 -0.1888
 1190SOL     OW15028   0.906   3.153  11.790 -0.6211 -0.0464  0.2075
 1190SOL    HW115029   0.876   3.063  11.789  0.1305 -0.3015  0.6790
 1190SOL    HW215030   0.931   3.159  11.882 -0.8591  1.5940  0.1642
 1191SOL     OW15031   3.263   1.823   9.824 -0.5115 -0.4167  0.3184
 1191SOL    HW115032   3.331   1.802   9.760 -1.5971 -1.7379 -0.4241
 1191SOL    HW215033   3.313   1.834   9.904  1.9814 -0.5098 -1.2483
 1192SOL     OW15034   4.509   0.509   3.320  0.0837  0.3184  0.0760
 1192SOL    HW115035   4.456   0.558   3.383 -1.9362  1.1814 -2.2657
 1192SOL    HW215036   4.441   0.450   3.289 -0.2534  0.6808  0.1209
 1193SOL     OW15037   3.985   1.881   0.218 -0.9028 -0.2324 -0.7389
 1193SOL    HW115038   3.938   1.799   0.236  0.1491 -1.1760 -2.3678
 1193SOL    HW215039   3.945   1.907   0.135  0.5925 -0.9887 -1.6849
 1194SOL     OW15040   3.415   0.319  13.935  0.1612 -0.6371  0.2382
 1194SOL    HW115041   3.433   0.400  13.982  2.1260 -0.8008 -0.2144
 1194SOL    HW215042   3.492   0.315  13.878 -1.5532 -2.5667 -1.9648
 1195SOL     OW15043   0.469   1.785   4.836  0.1892  0.3478 -0.1764
 1195SOL    HW115044   0.524   1.749   4.767  0.8104 -0.0704  0.5326
 1195SOL    HW215045   0.511   1.870   4.856 -1.2182  1.2845 -1.2139
 1196SOL     OW15046   1.590   1.827   8.839 -0.4347  0.4653  0.4355
 1196SOL    HW115047   1.521   1.889   8.863 -0.3864  0.1074  1.5473
 1196SOL    HW215048   1.546   1.750   8.802 -0.1097  0.5306 -0.0846
 1197SOL     OW15049   3.641   1.644   5.451 -0.2422  0.4348  0.0594
 1197SOL    HW115050   3.594   1.576   5.499  1.2267  1.9858  3.7040
 1197SOL    HW215051   3.705   1.677   5.514 -0.1018  0.4753 -0.1057
 1198SOL     OW15052   3.221   0.241   3.120 -0.2192  0.2654 -1.2169
 1198SOL    HW115053   3.184   0.181   3.185  2.0799  1.0787  0.8316
 1198SOL    HW215054   3.173   0.218   3.040  1.2111 -3.0236 -1.1137
 1199SOL     OW15055   0.526   0.895  16.871 -0.1913  0.1133  0.1837
 1199SOL    HW115056   0.522   0.918  16.778  0.1186 -0.3347  0.0618
 1199SOL    HW215057   0.436   0.904  16.903 -0.2525  0.9941 -0.2341
 1200SOL     OW15058   2.082   3.255  10.584  0.5821 -0.4993  0.7169
 1200SOL    HW115059   2.021   3.314  10.629 -0.8013 -0.9783 -0.5437
 1200SOL    HW215060   2.151   3.308  10.543 -0.8189  1.7178  1.2186
 1201SOL     OW15061   2.517   0.187   2.612  0.2054  0.2733  0.8682
 1201SOL    HW115062   2.462   0.262   2.590  2.6031  1.2888 -1.7935
 1201SOL    HW215063   2.606   0.219   2.628  0.1856  0.6498  0.2309
 1202SOL     OW15064   3.454   1.218   9.829  0.1014  0.1127 -0.6062
 1202SOL    HW115065   3.465   1.309   9.858  0.1311  0.7785 -2.7337
 1202SOL    HW215066   3.448   1.177   9.915 -0.8467 -0.1116 -0.7823
 1203SOL     OW15067   0.800   2.744   2.204  0.3470  0.3073  0.2290
 1203SOL    HW115068   0.887   2.708   2.221  0.7730  1.4086  0.3886
 1203SOL    HW215069   0.804   2.834   2.236  1.0402 -0.3514  1.9867
 1204SOL     OW15070   3.542   0.342   9.171  0.1278  0.2991  0.0273
 1204SOL    HW115071   3.464   0.395   9.187 -0.0338 -0.0201  0.2986
 1204SOL    HW215072   3.553   0.297   9.254  2.1648 -1.9911 -1.4667
 1205SOL     OW15073   1.124   0.037   2.466 -0.0392 -0.5257  0.2289
 1205SOL    HW115074   1.051   4.714   2.508  0.8517 -2.9033 -0.8141
 1205SOL    HW215075   1.200   4.720   2.508 -0.7109 -1.3439  0.6806
 1206SOL     OW15076   0.389   1.670   8.929 -0.0502  0.3086  0.1907
 1206SOL    HW115077   0.404   1.589   8.978 -0.8773  0.4705  0.7081
 1206SOL    HW215078   0.476   1.708   8.920  0.5902 -1.0091  0.8051
 1207SOL     OW15079   1.824   4.576   1.449  0.0340 -0.3040  0.0447
 1207SOL    HW115080   1.825   4.510   1.519 -1.2385 -0.3192  0.0446
 1207SOL    HW215081   1.812   4.662   1.489 -0.5964  0.1595 -1.1749
 1208SOL     OW15082   4.707   0.365   8.820 -0.0846  0.2546  0.6693
 1208SOL    HW115083   4.650   0.315   8.878  1.0695  0.7029  2.1651
 1208SOL    HW215084   0.041   0.294   8.791  0.5265  1.5028 -1.2737
 1209SOL     OW15085   4.343   4.376  10.830 -0.1750 -0.4035  0.0064
 1209SOL    HW115086   4.347   4.313  10.758  2.2053  2.3333 -2.2368
 1209SOL    HW215087   4.248   4.370  10.840 -0.2631  3.6383  1.6063
 1210SOL     OW15088   3.570   1.454  10.608 -0.3902  0.1805  0.4088
 1210SOL    HW115089   3.646   1.469  10.552 -0.5739 -0.6024 -0.0392
 1210SOL    HW215090   3.503   1.456  10.540  0.9053 -1.7908 -0.9245
 1211SOL     OW15091   2.718   3.340  17.227  0.4473 -0.2433  0.3948
 1211SOL    HW115092   2.814   3.337  17.220  0.2368 -1.7085 -1.6454
 1211SOL    HW215093   2.701   3.421  17.179  0.4171 -0.0695  0.6960
 1212SOL     OW15094   3.784   3.480   5.212  0.3294 -0.4383 -0.4806
 1212SOL    HW115095   3.861   3.474   5.156  0.6889 -1.9893  0.1924
 1212SOL    HW215096   3.811   3.441   5.295  0.8231  0.6660 -0.1236
 1213SOL     OW15097   4.079   1.886   2.837 -0.2530 -0.1512  0.3711
 1213SOL    HW115098   4.062   1.960   2.779  0.1707  0.4317  0.9981
 1213SOL    HW215099   4.113   1.822   2.773 -2.3493 -0.4666 -0.4268
 1214SOL     OW15100   4.165   2.623  12.748  0.0558  0.3052  0.3347
 1214SOL    HW115101   4.175   2.699  12.691  0.3514 -1.4318 -1.9290
 1214SOL    HW215102   4.105   2.666  12.808  0.3869  2.3666 -0.8154
 1215SOL     OW15103   0.893   1.480   1.599  0.9242  0.0746  0.3752
 1215SOL    HW115104   0.936   1.562   1.622 -2.0299  1.7467 -0.0535
 1215SOL    HW215105   0.924   1.480   1.509  0.5499  0.8400  0.2474
 1216SOL     OW15106   2.863   1.612  14.882 -0.0239  0.2256  0.3452
 1216SOL    HW115107   2.826   1.689  14.924  0.1057 -0.4358  1.6548
 1216SOL    HW215108   2.955   1.623  14.905  0.3166  1.4450 -1.6035
 1217SOL     OW15109   0.593   2.007  16.186  0.1349  0.3330 -0.0378
 1217SOL    HW115110   0.555   1.982  16.102  0.1086  1.4937 -0.3821
 1217SOL    HW215111   0.622   2.097  16.169 -1.8882  0.5764 -2.2253
 1218SOL     OW15112   1.448   3.333   3.569 -0.4356  0.4790 -0.6789
 1218SOL    HW115113   1.410   3.420   3.556 -0.4110  0.5004 -0.6095
 1218SOL    HW215114   1.527   3.341   3.515  0.2491  2.6001  0.6053
 1219SOL     OW15115   4.430   3.267   6.230 -0.1931 -0.1399 -0.0885
 1219SOL    HW115116   4.361   3.296   6.171 -0.1311 -0.2282 -0.2035
 1219SOL    HW215117   4.435   3.339   6.293  0.8010  0.4200 -0.8107
 1220SOL     OW15118   3.118   2.123   9.491  0.7923  0.2026 -0.0028
 1220SOL    HW115119   3.166   2.055   9.443  1.3154  0.1711  0.5513
 1220SOL    HW215120   3.071   2.067   9.553  0.8373  0.7017  0.4871
 1221SOL     OW15121   1.678   0.652  16.745 -0.1461  0.0090 -0.1534
 1221SOL    HW115122   1.630   0.659  16.828 -0.3615  3.1095 -0.5382
 1221SOL    HW215123   1.616   0.606  16.688 -2.5060  3.2853 -0.2845
 1222SOL     OW15124   3.946   1.167   1.057  0.2119  0.4473  0.2230
 1222SOL    HW115125   4.002   1.089   1.051  1.0955  1.1172 -0.2208
 1222SOL    HW215126   3.943   1.176   1.152 -3.9186  0.7706  0.0255
 1223SOL     OW15127   1.144   3.483   9.829 -0.3603 -0.6333 -0.0647
 1223SOL    HW115128   1.172   3.551   9.768 -0.4549  0.5577  1.1975
 1223SOL    HW215129   1.049   3.482   9.817 -0.3595  2.0503 -0.3420
 1224SOL     OW15130   1.392   1.615   4.263  0.0841  0.4469  0.1292
 1224SOL    HW115131   1.446   1.655   4.195  0.8023  0.1928  0.5513
 1224SOL    HW215132   1.459   1.578   4.320 -1.8590 -1.3113  1.2831
 1225SOL     OW15133   2.583   1.520   5.892  0.4882 -0.5404 -0.0238
 1225SOL    HW115134   2.623   1.557   5.971 -0.3837 -0.8148  0.5427
 1225SOL    HW215135   2.659   1.497   5.838 -0.3144  1.3105 -1.8815
 1226SOL     OW15136   2.625   0.041  10.280  0.0265  0.0487 -0.1481
 1226SOL    HW115137   2.583   0.086  10.353  1.6015 -0.2624  0.9450
 1226SOL    HW215138   2.712   0.080  10.280  0.1779 -0.2924 -1.9939
 1227SOL     OW15139   1.273   4.038   1.453 -0.1428  0.7920 -0.0175
 1227SOL    HW115140   1.346   4.096   1.433 -0.0890  0.4572 -0.7939
 1227SOL    HW215141   1.198   4.092   1.428 -1.0437 -0.6384 -0.4506
 1228SOL     OW15142   1.400   3.180  16.050  0.6444  0.3124 -0.0017
 1228SOL    HW115143   1.427   3.220  16.133 -0.4694  1.3395 -0.1486
 1228SOL    HW215144   1.328   3.239  16.029  0.6048 -0.2997 -1.5560
 1229SOL     OW15145   2.296   2.582   3.235 -0.4978  0.2861  0.2796
 1229SOL    HW115146   2.309   2.676   3.249 -0.9971  0.7001 -1.9074
 1229SOL    HW215147   2.385   2.555   3.212 -0.7209 -1.0468  1.0135
 1230SOL     OW15148   1.530   0.358   7.169 -0.0527 -0.5230 -0.3402
 1230SOL    HW115149   1.487   0.313   7.096  0.6755  1.9852 -2.2835
 1230SOL    HW215150   1.484   0.312   7.239 -1.6295  1.6828  0.0626
 1231SOL     OW15151   1.320   0.781  17.502  0.2853  0.2951 -0.1458
 1231SOL    HW115152   1.338   0.711  17.440 -2.4152  0.0357 -0.6407
 1231SOL    HW215153   1.322   0.867  17.461  2.3173 -0.4835 -1.6889
 1232SOL     OW15154   3.630   0.853  11.543  0.1145  0.7434  0.0430
 1232SOL    HW115155   3.702   0.882  11.488  2.1066 -0.2723  2.0908
 1232SOL    HW215156   3.603   0.773  11.498 -2.6507  0.8194  1.5495
 1233SOL     OW15157   3.219   3.801  13.591  0.1800 -0.6689 -0.4855
 1233SOL    HW115158   3.228   3.891  13.558  0.3065  0.5429  2.8725
 1233SOL    HW215159   3.255   3.814  13.679  0.0339 -1.0119 -0.3758
 1234SOL     OW15160   0.928   2.476   3.122  0.0838 -0.3979  0.1253
 1234SOL    HW115161   0.877   2.432   3.190 -1.2757 -1.0025 -1.3055
 1234SOL    HW215162   0.912   2.407   3.057  0.0085  2.0610 -2.4562
 1235SOL     OW15163   1.993   1.697   4.448  0.1559  0.3822  0.0692
 1235SOL    HW115164   2.027   1.784   4.468 -1.0391  0.5403  1.4342
 1235SOL    HW215165   2.062   1.652   4.399 -0.7471 -1.8450  0.8242
 1236SOL     OW15166   2.481   1.888  12.755  0.4942 -0.2267 -0.2746
 1236SOL    HW115167   2.465   1.896  12.661  1.2755  0.5840 -0.3391
 1236SOL    HW215168   2.482   1.981  12.776  0.4702 -0.7951  2.1621
 1237SOL     OW15169   3.826   1.821  16.116 -0.2431  0.1479  0.1873
 1237SOL    HW115170   3.752   1.777  16.158  0.0774  0.2462  0.8538
 1237SOL    HW215171   3.901   1.808  16.173  0.2244 -1.7441 -0.8697
 1238SOL     OW15172   4.121   3.584   3.774 -0.3786 -0.3722 -0.0951
 1238SOL    HW115173   4.094   3.675   3.783 -0.6227 -0.3598 -0.9426
 1238SOL    HW215174   4.043   3.544   3.813 -0.4435 -1.7323 -1.6078
 1239SOL     OW15175   1.383   2.392   1.879  0.6393 -0.1585  0.1529
 1239SOL    HW115176   1.438   2.352   1.947  0.0638 -0.1639  0.6119
 1239SOL    HW215177   1.445   2.463   1.862  2.1603 -1.6302 -0.4068
 1240SOL     OW15178   0.408   2.957   2.660  0.4866  0.1189 -0.5714
 1240SOL    HW115179   0.498   2.965   2.629  0.3143  0.5024 -0.9712
 1240SOL    HW215180   0.369   2.906   2.590  1.2688 -1.3376  0.0357
 1241SOL     OW15181   0.681   0.921  14.016 -0.3336 -0.1521  0.2061
 1241SOL    HW115182   0.595   0.961  14.028 -1.0836 -1.9028  0.5838
 1241SOL    HW215183   0.712   0.950  14.102 -0.3677 -1.8664  0.7884
 1242SOL     OW15184   0.978   2.861  10.459 -0.1926 -0.1005  0.4067
 1242SOL    HW115185   0.985   2.850  10.364 -0.2772 -2.0655  0.6381
 1242SOL    HW215186   0.910   2.798  10.483 -1.0785  0.6395 -0.1522
 1243SOL     OW15187   2.955   2.102   3.654 -0.0019  0.3760  0.3297
 1243SOL    HW115188   2.945   2.186   3.699  1.8290  0.7134  0.0993
 1243SOL    HW215189   3.040   2.070   3.683 -0.5991 -1.7737 -0.2380
 1244SOL     OW15190   0.074   1.684   4.615 -0.1496 -0.0800  0.7559
 1244SOL    HW115191   0.092   1.593   4.589  1.1683  0.0012  1.3709
 1244SOL    HW215192   0.142   1.715   4.675  1.0436  0.7243 -1.0164
 1245SOL     OW15193   2.519   0.924  12.567 -0.3950 -0.2676 -0.5820
 1245SOL    HW115194   2.424   0.924  12.578  0.1106  1.3477  3.7768
 1245SOL    HW215195   2.530   1.007  12.521  1.9238  0.8749  2.0426
 1246SOL     OW15196   3.021   2.873   4.581 -0.5603  0.3134  0.0982
 1246SOL    HW115197   3.087   2.915   4.638  2.0886  1.0966 -3.5565
 1246SOL    HW215198   2.999   2.793   4.628 -1.7775  0.8042  0.3672
 1247SOL     OW15199   4.100   3.863   8.622 -0.1806  0.5697  0.4438
 1247SOL    HW115200   4.064   3.950   8.603  0.3505  0.5556 -0.6176
 1247SOL    HW215201   4.169   3.860   8.555 -0.6608 -3.3541  0.1711
 1248SOL     OW15202   4.400   4.333   6.464 -0.2610 -0.4752 -0.1107
 1248SOL    HW115203   4.315   4.290   6.459  0.6178 -2.2771  0.6068
 1248SOL    HW215204   4.467   4.269   6.441 -2.1530 -1.9832 -1.3664
 1249SOL     OW15205   0.886   2.174   5.679  0.6387 -0.2299 -0.7036
 1249SOL    HW115206   0.946   2.227   5.731  0.8971 -1.6966  0.4753
 1249SOL    HW215207   0.894   2.095   5.731 -3.0151 -0.5451 -0.6171
 1250SOL     OW15208   2.426   3.938   0.501  0.1994  0.3184 -0.1945
 1250SOL    HW115209   2.400   3.846   0.493 -1.3342  0.7895 -0.5850
 1250SOL    HW215210   2.441   3.963   0.410  0.3297  0.2753 -0.1846
 1251SOL     OW15211   4.475   4.468   1.368  0.3651  0.0972 -0.2370
 1251SOL    HW115212   4.412   4.529   1.331 -1.7743 -0.5007  2.4533
 1251SOL    HW215213   4.561   4.508   1.353 -0.9749  2.7649 -0.7446
 1252SOL     OW15214   1.401   3.648  17.312  0.3045  0.2871  0.4485
 1252SOL    HW115215   1.311   3.632  17.281  0.5716 -1.4535  0.5531
 1252SOL    HW215216   1.445   3.676  17.232 -0.9087  0.7184 -0.0726
 1253SOL     OW15217   0.709   3.835  13.724 -0.4502  0.2041  0.0680
 1253SOL    HW115218   0.646   3.849  13.795 -2.2333 -0.2603 -1.3950
 1253SOL    HW215219   0.782   3.832  13.786  0.0440 -0.3808 -0.5390
 1254SOL     OW15220   2.052   0.828   6.650  0.0109 -0.1402 -0.1779
 1254SOL    HW115221   2.112   0.797   6.717  0.7225 -1.6260 -1.4860
 1254SOL    HW215222   1.993   0.881   6.703  0.2428 -1.3436  1.2855
 1255SOL     OW15223   2.520   4.126  12.421 -0.0701  0.3543 -0.3133
 1255SOL    HW115224   2.467   4.127  12.341  1.9712  0.2365 -1.6614
 1255SOL    HW215225   2.453   4.154  12.483 -0.7653  0.7229 -1.2459
 1256SOL     OW15226   0.282   3.701  13.155 -0.0867  0.4399 -0.2604
 1256SOL    HW115227   0.279   3.633  13.087  0.8034  1.1851 -1.0538
 1256SOL    HW215228   0.302   3.639  13.224 -1.6747 -0.4800 -0.6167
 1257SOL     OW15229   0.362   2.391   4.787  0.3697  1.1779 -0.5921
 1257SOL    HW115230   0.353   2.486   4.784  0.2102  1.1765 -0.1631
 1257SOL    HW215231   0.448   2.379   4.746  0.2825 -0.4780 -0.3078
 1258SOL     OW15232   2.541   2.254   4.290 -0.7123 -0.2134  0.1245
 1258SOL    HW115233   2.544   2.206   4.208 -0.7157 -0.6731  0.3975
 1258SOL    HW215234   2.447   2.271   4.290 -0.9018 -1.3031 -0.0762
 1259SOL     OW15235   4.041   4.676  12.108 -0.4087 -0.3836  0.1712
 1259SOL    HW115236   4.104   4.710  12.172 -0.0465  0.1785 -0.4840
 1259SOL    HW215237   3.962   4.715  12.144  1.3403 -0.9109  4.6575
 1260SOL     OW15238   2.818   2.818   0.812  0.2544  0.3853 -0.9668
 1260SOL    HW115239   2.792   2.903   0.777 -1.3719 -0.0174 -0.7745
 1260SOL    HW215240   2.858   2.770   0.739 -0.2608 -1.6571  0.0799
 1261SOL     OW15241   2.031   2.756   5.363 -0.0779  0.4274 -0.2581
 1261SOL    HW115242   1.999   2.807   5.437  1.5992 -0.7427  1.2824
 1261SOL    HW215243   2.004   2.667   5.382 -0.0436  1.2716  3.8073
 1262SOL     OW15244   2.676   2.920   9.414 -0.6253 -0.2911 -0.7770
 1262SOL    HW115245   2.769   2.944   9.414 -0.9382  0.8841  0.2480
 1262SOL    HW215246   2.669   2.885   9.503 -2.3190 -2.5234 -1.7924
 1263SOL     OW15247   0.939   1.051   4.643 -0.7083 -0.6769  0.1650
 1263SOL    HW115248   0.927   1.122   4.581  2.3510 -0.1121  0.2163
 1263SOL    HW215249   1.034   1.043   4.645 -0.6551  0.3239  1.8995
 1264SOL     OW15250   2.053   2.574  14.552 -0.4082 -0.1328  0.0566
 1264SOL    HW115251   2.009   2.653  14.519  2.1551  0.3003 -2.2558
 1264SOL    HW215252   2.146   2.590  14.539 -0.3241 -1.1274 -0.5666
 1265SOL     OW15253   1.124   3.977   5.267 -0.1896 -0.3089  0.2074
 1265SOL    HW115254   1.108   4.070   5.281 -1.0106 -0.7553  2.2252
 1265SOL    HW215255   1.198   3.959   5.326 -0.7908  0.2173  1.1078
 1266SOL     OW15256   2.586   2.281   1.913 -0.3348 -0.1772 -0.3335
 1266SOL    HW115257   2.490   2.281   1.904 -0.3162 -0.5621 -0.5061
 1266SOL    HW215258   2.610   2.371   1.935  1.3091 -0.8750  0.7376
 1267SOL     OW15259   2.049   4.143  11.961 -0.6782 -0.5371  0.1918
 1267SOL    HW115260   1.964   4.141  11.917 -0.7943  1.2894  0.3242
 1267SOL    HW215261   2.058   4.237  11.978 -2.3481 -0.5041  0.9598
 1268SOL     OW15262   2.167   1.131  12.292  0.2798 -0.0907  0.2917
 1268SOL    HW115263   2.119   1.201  12.247  0.2971 -0.7244 -0.7183
 1268SOL    HW215264   2.105   1.139  12.364  0.2654 -0.3777  0.3134
 1269SOL     OW15265   4.334   2.921   6.104 -0.1882 -0.1589  0.2278
 1269SOL    HW115266   4.409   2.863   6.105 -0.3028 -0.3181 -0.9212
 1269SOL    HW215267   4.360   2.979   6.032 -1.2027  0.4085  0.3157
 1270SOL     OW15268   2.297   4.172   6.015  0.1936  0.0248  0.6183
 1270SOL    HW115269   2.247   4.138   5.940 -0.8842  1.2571  0.7849
 1270SOL    HW215270   2.383   4.176   5.972 -0.9074 -1.5127 -1.7883
 1271SOL     OW15271   2.102   4.285   3.215 -0.3279 -0.3966 -0.1149
 1271SOL    HW115272   2.180   4.281   3.270 -0.9414 -0.0908  0.7714
 1271SOL    HW215273   2.131   4.223   3.149  1.1654  0.3823 -0.1989
 1272SOL     OW15274   2.005   2.829   3.674  0.0337 -0.0707  0.1759
 1272SOL    HW115275   1.990   2.735   3.687  3.5910 -0.7715 -0.9069
 1272SOL    HW215276   1.974   2.869   3.755  1.2637  1.2196 -0.0003
 1273SOL     OW15277   3.626   2.992   4.916  0.4505 -0.4107 -0.1910
 1273SOL    HW115278   3.630   3.086   4.935  0.9555  0.3914 -4.3383
 1273SOL    HW215279   3.670   2.955   4.993  1.9804 -0.2591 -0.9972
 1274SOL     OW15280   0.762   1.959   6.497  0.2226 -0.1746  0.0713
 1274SOL    HW115281   0.753   1.922   6.409 -1.1952 -0.0526  0.1632
 1274SOL    HW215282   0.789   2.050   6.480  0.2526 -0.4959 -1.5381
 1275SOL     OW15283   2.538   2.986   5.051  0.2273 -0.0080 -0.3821
 1275SOL    HW115284   2.559   2.893   5.049 -0.0747 -0.0503 -1.3719
 1275SOL    HW215285   2.444   2.988   5.035  0.0900  0.8062  0.4881
 1276SOL     OW15286   1.338   2.960   4.761 -0.3440 -0.1688  0.2976
 1276SOL    HW115287   1.379   2.930   4.679 -0.4354 -3.1244  1.3320
 1276SOL    HW215288   1.367   2.892   4.822  0.0733 -1.5926 -1.4822
 1277SOL     OW15289   4.616   3.273  17.179  0.6277 -0.6215 -0.3574
 1277SOL    HW115290   4.673   3.228  17.242  1.6318  3.0584  1.3473
 1277SOL    HW215291   4.654   3.249  17.095 -2.0380 -2.3853 -1.0468
 1278SOL     OW15292   0.915   4.346   1.935 -0.0082  0.0240 -0.2011
 1278SOL    HW115293   0.956   4.333   2.020 -0.1414  0.7012 -0.0327
 1278SOL    HW215294   0.855   4.418   1.956  0.7118  0.4096  0.5005
 1279SOL     OW15295   0.654   4.017   0.435 -0.3464 -0.0272 -0.2073
 1279SOL    HW115296   0.732   3.960   0.441  1.0182  1.7117 -1.5985
 1279SOL    HW215297   0.703   4.098   0.422  1.8182 -1.2893  0.0462
 1280SOL     OW15298   0.821   2.887   1.316 -0.4193 -0.5499 -1.1399
 1280SOL    HW115299   0.838   2.977   1.289 -0.2521  0.1651  1.3593
 1280SOL    HW215300   0.748   2.861   1.259 -2.6286  0.6666  1.0967
 1281SOL     OW15301   1.995   0.468  12.383  0.2400  0.7601 -0.2396
 1281SOL    HW115302   1.984   0.562  12.396 -2.0742  0.3122  1.2079
 1281SOL    HW215303   1.913   0.435  12.347  0.5913  0.9582 -1.1955
 1282SOL     OW15304   0.649   1.175   4.477 -0.5455 -0.3618  0.1105
 1282SOL    HW115305   0.651   1.166   4.381  0.2185 -0.6985  0.1597
 1282SOL    HW215306   0.685   1.090   4.500  0.4876 -0.2964 -1.2742
 1283SOL     OW15307   1.907   2.508   8.525 -0.7181  0.5684 -0.4851
 1283SOL    HW115308   1.980   2.449   8.543 -1.2961  0.3044  0.9578
 1283SOL    HW215309   1.933   2.594   8.557 -1.7523  0.7339 -0.0866
 1284SOL     OW15310   0.832   3.462  10.111  0.9487  0.2462 -0.0952
 1284SOL    HW115311   0.878   3.488  10.031  0.3356  2.1438  0.1606
 1284SOL    HW215312   0.852   3.369  10.107  1.9477  0.4533 -0.1227
 1285SOL     OW15313   3.960   2.760   6.829 -0.3180 -0.2854 -0.4869
 1285SOL    HW115314   3.874   2.749   6.869 -1.7077 -0.2196 -3.4430
 1285SOL    HW215315   4.019   2.746   6.903  1.2953  0.4727 -1.6079
 1286SOL     OW15316   0.864   1.687   2.422 -0.0874 -0.3177 -0.0740
 1286SOL    HW115317   0.937   1.626   2.433  2.0275  2.1293 -0.5244
 1286SOL    HW215318   0.798   1.628   2.459  0.2940  0.2386  1.4773
 1287SOL     OW15319   0.188   2.249  17.605  0.2164  0.6221 -0.7402
 1287SOL    HW115320   0.282   2.229  17.605  0.5857  2.4355 -2.0538
 1287SOL    HW215321   0.182   2.291  17.690  0.7460 -0.1330 -0.3299
 1288SOL     OW15322   1.115   4.375   4.525 -0.0481 -0.0943 -0.1926
 1288SOL    HW115323   1.135   4.463   4.494 -1.2435 -0.0862 -0.9671
 1288SOL    HW215324   1.188   4.355   4.583 -0.5129 -0.1725  0.3648
 1289SOL     OW15325   1.680   1.096  10.417  0.4178 -0.4204  0.3392
 1289SOL    HW115326   1.703   1.186  10.439  2.6025 -1.2484  1.4223
 1289SOL    HW215327   1.587   1.101  10.393  0.5135  0.6342  0.2124
 1290SOL     OW15328   1.578   1.665  13.659  0.3649 -0.1736 -0.5960
 1290SOL    HW115329   1.614   1.645  13.745  1.5562 -1.3500 -1.3642
 1290SOL    HW215330   1.646   1.730  13.637  0.2234 -0.1448 -0.9484
 1291SOL     OW15331   3.527   4.622   8.323  0.1744  0.2079  0.1137
 1291SOL    HW115332   3.531   4.615   8.228  0.1122 -0.5721  0.1701
 1291SOL    HW215333   3.619   4.621   8.348  0.2835 -2.0827 -0.3874
 1292SOL     OW15334   2.460   1.974   5.710  0.0554 -0.1810  0.1267
 1292SOL    HW115335   2.548   1.939   5.721 -0.1632  0.2742  3.3282
 1292SOL    HW215336   2.412   1.916   5.651  2.0447  0.1704 -1.8260
 1293SOL     OW15337   3.649   2.085   6.976  0.1475 -0.5763 -0.3241
 1293SOL    HW115338   3.561   2.102   6.941 -0.0184  0.3403  0.5218
 1293SOL    HW215339   3.692   2.168   6.957  0.5434 -0.8524 -0.6264
 1294SOL     OW15340   1.205   3.570   2.491  0.2429  0.2334 -0.6543
 1294SOL    HW115341   1.277   3.566   2.429 -0.0163  0.9648 -0.9993
 1294SOL    HW215342   1.243   3.641   2.543  4.2472 -2.0630 -0.4837
 1295SOL     OW15343   0.477   3.493  13.825  0.6155  0.6910  0.2169
 1295SOL    HW115344   0.421   3.499  13.747  0.4444 -1.3348  0.1978
 1295SOL    HW215345   0.430   3.439  13.888 -0.0060  0.9571 -0.0182
 1296SOL     OW15346   0.323   4.618   1.168 -0.0359 -0.1466  0.1187
 1296SOL    HW115347   0.355   4.561   1.238 -1.3896  0.0954  0.9299
 1296SOL    HW215348   0.365   4.701   1.189  0.7540 -0.7282  0.8080
 1297SOL     OW15349   0.946   3.381   4.464  0.0296  0.2845 -0.7167
 1297SOL    HW115350   0.934   3.448   4.531 -0.3384 -0.1850 -0.3151
 1297SOL    HW215351   0.856   3.357   4.442 -0.7127  3.3680 -0.9359
 1298SOL     OW15352   1.521   2.837  11.585  0.1194 -0.1800  0.3585
 1298SOL    HW115353   1.469   2.785  11.646  1.3929 -0.2886  1.3697
 1298SOL    HW215354   1.452   2.850  11.520  0.4063  1.2556  0.3234
 1299SOL     OW15355   2.043   3.203   8.468 -0.1821 -0.3837 -0.3052
 1299SOL    HW115356   2.020   3.120   8.426  2.0798  0.0480 -2.3987
 1299SOL    HW215357   2.024   3.173   8.557 -0.3026  2.2917  0.5470
 1300SOL     OW15358   2.355   1.431   3.678  0.6241 -0.1631 -0.3227
 1300SOL    HW115359   2.445   1.438   3.648  1.0875 -0.6362  0.9916
 1300SOL    HW215360   2.352   1.358   3.739 -0.5966  0.3657  0.2694
 1301SOL     OW15361   1.287   1.728   7.871 -0.2134 -0.1015  0.3832
 1301SOL    HW115362   1.331   1.813   7.874 -0.7865  0.1441  2.2365
 1301SOL    HW215363   1.233   1.744   7.793  1.6382  2.0741 -0.4556
 1302SOL     OW15364   4.220   3.995   4.126  0.3706 -0.6585  0.7442
 1302SOL    HW115365   4.158   3.971   4.058  0.6518 -0.8419  0.5518
 1302SOL    HW215366   4.184   4.080   4.154 -0.8909 -0.7677 -0.5860
 1303SOL     OW15367   0.190   3.861  16.566  0.0644  0.1769  0.8115
 1303SOL    HW115368   0.217   3.920  16.496  1.5102 -0.5522  0.7644
 1303SOL    HW215369   0.264   3.865  16.626 -0.6473 -0.5787  1.7491
 1304SOL     OW15370   0.558   3.880   1.236  0.4411 -0.0377 -0.0475
 1304SOL    HW115371   0.537   3.878   1.143 -1.2215  1.0014  0.2958
 1304SOL    HW215372   0.473   3.870   1.277  0.1751 -0.5545 -0.7482
 1305SOL     OW15373   1.573   0.787   6.145  0.6461  0.2813 -0.6707
 1305SOL    HW115374   1.551   0.756   6.057  0.8451  1.0616 -0.9932
 1305SOL    HW215375   1.565   0.703   6.191  1.7159 -0.6508 -2.1981
 1306SOL     OW15376   0.495   3.225  16.620  0.2138 -0.2541 -0.3200
 1306SOL    HW115377   0.566   3.244  16.681 -1.3780  3.8331  0.2329
 1306SOL    HW215378   0.422   3.263  16.668  0.7906 -1.4794  1.5133
 1307SOL     OW15379   4.535   2.845   7.036 -0.0973  0.3593  0.2474
 1307SOL    HW115380   4.607   2.870   7.094 -0.7375 -0.4953  1.4039
 1307SOL    HW215381   4.474   2.918   7.041 -0.7636 -0.3340  2.2605
 1308SOL     OW15382   1.172   2.944   2.066  0.0463 -0.2920  0.0683
 1308SOL    HW115383   1.258   2.986   2.061 -0.1526  0.1439  0.2701
 1308SOL    HW215384   1.137   2.956   2.154 -0.3172 -0.3985 -0.0623
 1309SOL     OW15385   2.193   4.171   4.424 -0.0572  0.4131  0.1455
 1309SOL    HW115386   2.220   4.238   4.361 -1.9084  0.2749 -0.7966
 1309SOL    HW215387   2.125   4.123   4.377  1.8921 -1.2961 -0.9063
 1310SOL     OW15388   1.611   4.596   3.158  0.2913  0.2827 -0.2955
 1310SOL    HW115389   1.670   4.606   3.083 -0.6911  0.0342 -1.1096
 1310SOL    HW215390   1.672   4.626   3.225 -0.2107 -0.3837  0.4458
 1311SOL     OW15391   2.520   0.521   5.867 -0.1904 -0.0887 -0.4941
 1311SOL    HW115392   2.523   0.612   5.895 -1.5156 -0.3805  0.6451
 1311SOL    HW215393   2.480   0.488   5.948  1.7820  1.0434  0.9338
 1312SOL     OW15394   0.270   3.798   7.898 -0.3323 -0.4266 -0.0182
 1312SOL    HW115395   0.195   3.740   7.906  0.2196 -1.1086  0.1840
 1312SOL    HW215396   0.247   3.858   7.970 -0.5080  0.6838 -0.9980
 1313SOL     OW15397   4.488   2.023   2.729 -0.6674 -0.4196 -0.6835
 1313SOL    HW115398   4.582   2.017   2.712 -0.5779 -1.2054  0.1201
 1313SOL    HW215399   4.466   2.091   2.665  2.2714 -1.4006 -2.7310
 1314SOL     OW15400   3.438   2.458   8.522 -0.2940  0.2322 -0.1022
 1314SOL    HW115401   3.410   2.384   8.576 -2.0508  1.6806  0.9570
 1314SOL    HW215402   3.528   2.468   8.552  0.3234 -1.9484 -1.2088
 1315SOL     OW15403   1.437   4.322  10.156  0.2798  0.3111 -0.6329
 1315SOL    HW115404   1.444   4.255  10.224 -1.8584 -2.4124 -3.0777
 1315SOL    HW215405   1.380   4.286  10.088 -1.1721 -0.3971  0.9690
 1316SOL     OW15406   1.068   4.642   8.017 -0.1805  0.5156  0.4788
 1316SOL    HW115407   1.079   4.639   7.921 -0.8060  3.0102  0.3278
 1316SOL    HW215408   1.098   4.555   8.041  0.7764  0.5937 -0.4459
 1317SOL     OW15409   1.597   2.473   2.186  0.3335 -0.1025  0.9294
 1317SOL    HW115410   1.655   2.544   2.157  0.3573  0.1827  1.6727
 1317SOL    HW215411   1.628   2.413   2.119  2.1137  2.7195 -0.7688
 1318SOL     OW15412   3.072   0.246   5.533 -0.0640  0.8022  0.3213
 1318SOL    HW115413   3.090   0.179   5.467  0.6806  2.0003 -0.7024
 1318SOL    HW215414   3.029   0.189   5.597 -0.1674 -0.2633 -0.7017
 1319SOL     OW15415   3.009   0.265  10.536  0.3103 -0.3893  0.5439
 1319SOL    HW115416   3.078   0.244  10.598  1.2134 -0.0458 -0.3604
 1319SOL    HW215417   2.938   0.249  10.599 -0.6696  2.4250  0.1593
 1320SOL     OW15418   1.197   1.054  12.286  0.1928  0.6262  0.4281
 1320SOL    HW115419   1.290   1.042  12.269  0.4259  0.9753  1.4706
 1320SOL    HW215420   1.158   0.994  12.223 -0.7117  1.2569  0.3856
 1321SOL     OW15421   3.873   2.579   8.314  0.0935 -0.0518 -0.1656
 1321SOL    HW115422   3.935   2.518   8.354 -1.2645  0.5085  2.8446
 1321SOL    HW215423   3.801   2.529   8.275 -1.7833  0.0322  3.1751
 1322SOL     OW15424   0.448   0.471   5.177 -0.6289  0.1144  0.2075
 1322SOL    HW115425   0.525   0.439   5.129  0.5664  1.9694  0.8907
 1322SOL    HW215426   0.370   0.462   5.122  0.0260  3.0180 -1.2154
 1323SOL     OW15427   2.851   2.153  14.963 -0.2460 -0.1954  0.1963
 1323SOL    HW115428   2.892   2.237  14.946 -0.4721  0.0598  0.9158
 1323SOL    HW215429   2.759   2.174  14.944 -0.4123 -1.4543 -0.4224
 1324SOL     OW15430   3.572   0.197   9.404  0.1415  0.1570  0.4514
 1324SOL    HW115431   3.531   0.118   9.439 -0.3064 -0.2658 -1.0020
 1324SOL    HW215432   3.609   0.230   9.485  0.9064  0.9366 -0.2123
 1325SOL     OW15433   4.344   3.819  12.705 -0.0455 -0.2308 -0.1441
 1325SOL    HW115434   4.300   3.895  12.744 -3.4122 -2.2606  0.0208
 1325SOL    HW215435   4.264   3.771  12.683  0.1986 -0.1311 -1.2538
 1326SOL     OW15436   3.718   0.457   3.581  0.0489 -0.2348  0.3794
 1326SOL    HW115437   3.719   0.551   3.599 -0.5766 -0.2576  0.5611
 1326SOL    HW215438   3.727   0.457   3.486 -1.9843 -0.8501  0.1800
 1327SOL     OW15439   1.070   2.741   8.216  0.2517 -0.1373 -0.0792
 1327SOL    HW115440   1.080   2.658   8.262  0.4286 -1.3885 -2.3540
 1327SOL    HW215441   1.151   2.759   8.169  0.0234  0.1151 -0.3792
 1328SOL     OW15442   3.828   3.860   8.984  0.0715 -0.2429  0.0836
 1328SOL    HW115443   3.913   3.904   8.983  0.0870 -0.2796 -0.1189
 1328SOL    HW215444   3.760   3.925   9.002 -0.3495 -0.6741  0.0713
 1329SOL     OW15445   0.279   3.805   9.616 -0.3458 -0.3135  0.2029
 1329SOL    HW115446   0.321   3.844   9.693  1.4655 -1.3725 -0.2347
 1329SOL    HW215447   0.188   3.806   9.644 -0.8890  2.2529 -1.6865
 1330SOL     OW15448   0.394   3.089   2.385 -0.0473  0.1361 -0.1359
 1330SOL    HW115449   0.407   2.997   2.404 -0.2000  0.5735  2.1006
 1330SOL    HW215450   0.480   3.118   2.355 -0.4557 -0.5829 -1.9574
 1331SOL     OW15451   4.550   3.667  10.744  0.5132  0.4109  0.7330
 1331SOL    HW115452   4.460   3.682  10.714  1.2416  0.0571 -1.6274
 1331SOL    HW215453   4.596   3.629  10.670 -1.0208  0.2805 -0.1642
 1332SOL     OW15454   2.742   4.160  11.249  0.3953 -0.4145 -0.5516
 1332SOL    HW115455   2.728   4.086  11.309  0.6552  0.2630  0.3425
 1332SOL    HW215456   2.758   4.120  11.163 -0.2699 -2.5421  0.3046
 1333SOL     OW15457   4.474   3.916   1.524 -0.8945  0.2224 -0.3191
 1333SOL    HW115458   4.452   4.009   1.529  1.6694  0.8451 -0.5288
 1333SOL    HW215459   4.388   3.884   1.551 -0.1998 -1.6879 -0.3496
 1334SOL     OW15460   2.982   2.756  14.188  0.0602  0.1681  0.3783
 1334SOL    HW115461   3.017   2.729  14.103 -0.7115 -1.6790  0.6346
 1334SOL    HW215462   2.964   2.850  14.180  0.6188  0.0863 -2.0156
 1335SOL     OW15463   2.218   0.775  13.608 -0.1467 -0.5708 -0.4655
 1335SOL    HW115464   2.186   0.801  13.694  1.8359  1.3885 -0.3225
 1335SOL    HW215465   2.289   0.839  13.599 -0.8723  0.2519 -0.3150
 1336SOL     OW15466   0.588   1.430   5.006  0.4635 -0.5653 -0.2930
 1336SOL    HW115467   0.575   1.523   5.027  0.9208 -1.5950  4.5512
 1336SOL    HW215468   0.514   1.412   4.947  0.7611 -1.4854 -0.3867
 1337SOL     OW15469   3.724   3.496   7.127 -0.4969  0.0487  0.2097
 1337SOL    HW115470   3.629   3.493   7.137 -0.3003  1.2029  2.4243
 1337SOL    HW215471   3.739   3.402   7.138 -0.3739  0.2739  1.8799
 1338SOL     OW15472   2.920   3.902   4.511 -0.1344 -0.4229  0.2565
 1338SOL    HW115473   2.933   3.975   4.449  2.7247 -0.1570  1.1479
 1338SOL    HW215474   2.839   3.866   4.477  1.0102  0.8694 -3.8952
 1339SOL     OW15475   0.541   3.042   9.263  0.6361  0.1832  0.4970
 1339SOL    HW115476   0.613   3.041   9.326 -0.3085 -0.7217  1.5571
 1339SOL    HW215477   0.537   3.138   9.263  0.7607  0.1912 -1.2713
 1340SOL     OW15478   3.049   0.907   7.171 -0.6342 -0.2471  0.1046
 1340SOL    HW115479   3.056   0.980   7.233 -0.9879 -1.3495  1.4316
 1340SOL    HW215480   3.127   0.919   7.116 -0.2404  0.0328  0.7237
 1341SOL     OW15481   0.011   0.588   4.411 -0.0904  0.2995 -0.3721
 1341SOL    HW115482   0.082   0.627   4.463  0.8449 -2.7984  0.6448
 1341SOL    HW215483   4.708   0.659   4.352  0.3715 -0.0675 -1.0170
 1342SOL     OW15484   2.273   2.175   2.443 -0.1092 -0.0192  0.4822
 1342SOL    HW115485   2.219   2.184   2.521  0.5422 -0.5395  0.9968
 1342SOL    HW215486   2.356   2.149   2.485  1.8350  2.3853 -1.8640
 1343SOL     OW15487   0.825   1.694   6.315 -0.3489  0.0521 -0.4635
 1343SOL    HW115488   0.803   1.689   6.222 -1.5263  1.1865 -0.2392
 1343SOL    HW215489   0.894   1.761   6.316 -0.3913  0.1356 -2.8603
 1344SOL     OW15490   3.073   3.629   8.393 -0.0732  0.7681 -0.0405
 1344SOL    HW115491   3.033   3.559   8.445  2.3593  0.3035  1.1921
 1344SOL    HW215492   3.153   3.639   8.445 -0.4454  0.7765  0.5259
 1345SOL     OW15493   3.854   3.687  16.888  0.3049  0.0917 -0.2162
 1345SOL    HW115494   3.867   3.755  16.955 -1.9106  0.4177 -0.1244
 1345SOL    HW215495   3.766   3.696  16.852 -0.6388 -0.7020  1.8634
 1346SOL     OW15496   3.708   2.471   8.579  1.0513  0.0521  0.3990
 1346SOL    HW115497   3.774   2.483   8.647  1.1974 -0.5976  0.3758
 1346SOL    HW215498   3.720   2.377   8.563  0.8513  0.2303 -0.7732
 1347SOL     OW15499   0.368   4.048   6.521 -0.2204  0.0576  0.3702
 1347SOL    HW115500   0.292   4.029   6.466 -0.1523  0.9178 -0.0210
 1347SOL    HW215501   0.330   4.018   6.604  1.3952  0.6014  1.2930
 1348SOL     OW15502   1.552   1.785   5.306 -0.3670 -0.1413 -1.4675
 1348SOL    HW115503   1.631   1.807   5.257  0.3386 -1.6595 -1.0095
 1348SOL    HW215504   1.591   1.759   5.390 -0.7942 -1.0430 -1.5427
 1349SOL     OW15505   4.526   2.466  14.942 -0.0975  0.5393 -0.0881
 1349SOL    HW115506   4.459   2.412  14.984 -0.1779  0.5666 -0.1808
 1349SOL    HW215507   4.612   2.457  14.983  1.6120 -0.6023 -3.9269
 1350SOL     OW15508   3.317   2.174   2.521  0.0805  0.3010  0.2824
 1350SOL    HW115509   3.304   2.199   2.430 -0.8029  0.7298  0.5257
 1350SOL    HW215510   3.231   2.187   2.561 -0.9581  1.6737 -2.4107
 1351SOL     OW15511   4.674   3.071   4.433  0.0017 -0.5882  0.1667
 1351SOL    HW115512   4.638   3.151   4.395 -1.3742 -1.0896  0.4391
 1351SOL    HW215513   4.700   3.104   4.519  1.5331 -1.9275  0.2078
 1352SOL     OW15514   2.267   3.865   3.276  0.6475 -0.0526  0.3757
 1352SOL    HW115515   2.281   3.771   3.281 -1.7185 -0.3342  1.8431
 1352SOL    HW215516   2.207   3.874   3.350  0.5206 -1.6639  0.4650
 1353SOL     OW15517   1.626   2.942   8.116 -0.7535 -0.4749 -0.1453
 1353SOL    HW115518   1.540   2.955   8.076 -0.1564 -0.2675 -1.3560
 1353SOL    HW215519   1.617   2.905   8.204 -1.6095 -0.4874 -0.2357
 1354SOL     OW15520   1.348   3.759  12.514  0.3770  0.4865  0.6772
 1354SOL    HW115521   1.421   3.813  12.483 -0.3016  0.9401 -0.1301
 1354SOL    HW215522   1.326   3.715  12.432 -0.4733  1.4261  0.4061
 1355SOL     OW15523   4.322   4.611   4.252 -0.1351  0.2845 -0.1671
 1355SOL    HW115524   4.360   4.538   4.301 -1.3102 -0.0845  0.2220
 1355SOL    HW215525   4.308   4.578   4.164  2.1285  0.6247 -0.6476
 1356SOL     OW15526   4.076   1.146  16.616  0.3897  0.3177 -0.0869
 1356SOL    HW115527   4.002   1.165  16.558 -0.0054 -1.1562 -0.0455
 1356SOL    HW215528   4.147   1.136  16.552  2.0120 -3.1405  2.2778
 1357SOL     OW15529   4.344   4.108   2.657 -0.6154 -0.3129  0.2067
 1357SOL    HW115530   4.291   4.042   2.611 -0.9031 -1.4781  2.2481
 1357SOL    HW215531   4.305   4.182   2.609  1.2633  0.9280  0.5931
 1358SOL     OW15532   2.210   1.362   7.529 -0.4884  0.1473 -0.0828
 1358SOL    HW115533   2.299   1.375   7.497 -0.8210  3.6861  0.4468
 1358SOL    HW215534   2.236   1.366   7.621  0.4059  1.1852 -0.3852
 1359SOL     OW15535   0.321   1.032   5.035 -0.2514  0.3524  0.2867
 1359SOL    HW115536   0.306   0.969   5.105 -0.2496  0.4276  0.3544
 1359SOL    HW215537   0.366   0.978   4.970  1.1644  1.0828  0.6691
 1360SOL     OW15538   0.423   0.356   1.883 -0.0208  0.2944  0.4352
 1360SOL    HW115539   0.487   0.421   1.912  1.4912 -0.5117 -1.1424
 1360SOL    HW215540   0.481   0.283   1.863 -0.9041  0.2376 -1.9508
 1361SOL     OW15541   3.105   4.701  13.020  0.2027 -0.3326  0.0061
 1361SOL    HW115542   3.058   4.684  12.939 -1.9395 -1.3160  1.4410
 1361SOL    HW215543   3.123   0.072  13.010  0.8872 -0.4897 -0.1710
 1362SOL     OW15544   0.315   3.945  16.336  0.3617 -0.5118 -0.0813
 1362SOL    HW115545   0.294   3.892  16.259 -5.7828  0.5900  0.8219
 1362SOL    HW215546   0.340   4.028  16.295 -1.8208  0.5224  0.7019
 1363SOL     OW15547   1.447   1.673   6.358  0.4783  0.3708 -0.3411
 1363SOL    HW115548   1.501   1.673   6.437  0.0170  1.4100 -0.0150
 1363SOL    HW215549   1.359   1.662   6.395  0.2946  0.4435 -0.7547
 1364SOL     OW15550   0.957   0.995   8.088  0.2135 -0.7097  0.0228
 1364SOL    HW115551   0.918   0.931   8.148 -0.2800 -0.2816  0.1575
 1364SOL    HW215552   1.050   0.998   8.113 -0.3035  1.7888  1.5851
 1365SOL     OW15553   3.626   4.325   4.321 -0.0821 -0.2146  0.1622
 1365SOL    HW115554   3.590   4.279   4.397 -2.6863 -0.7087 -1.3996
 1365SOL    HW215555   3.545   4.365   4.288 -0.7165 -2.4012 -0.9102
 1366SOL     OW15556   3.200   4.349   8.419 -0.1792 -0.1186 -0.7469
 1366SOL    HW115557   3.209   4.276   8.479 -0.1105  0.9186  0.5031
 1366SOL    HW215558   3.291   4.377   8.413 -0.0209 -0.2493  1.2913
 1367SOL     OW15559   0.370   3.779   1.461 -0.2987 -0.8035 -0.6382
 1367SOL    HW115560   0.417   3.696   1.462  0.5423 -0.2825  1.6102
 1367SOL    HW215561   0.299   3.777   1.526  0.4683  0.0447  0.2230
 1368SOL     OW15562   2.408   4.534   3.023 -0.3122  0.2989  0.9535
 1368SOL    HW115563   2.390   4.474   3.095  2.0193  0.9744  2.0914
 1368SOL    HW215564   2.476   4.481   2.982 -0.5027 -1.1160  2.4639
 1369SOL     OW15565   2.253   3.123  13.121 -0.4650  0.7316 -0.1294
 1369SOL    HW115566   2.267   3.206  13.166  1.0145  0.5772 -0.3112
 1369SOL    HW215567   2.173   3.144  13.073 -0.1541  0.8661 -0.5842
 1370SOL     OW15568   4.099   0.563   7.214 -0.0271  0.3429  0.3044
 1370SOL    HW115569   4.039   0.514   7.158 -0.4801  0.1080  0.9958
 1370SOL    HW215570   4.064   0.545   7.301 -3.4946 -1.7069 -1.5128
 1371SOL     OW15571   2.132   3.592  15.433 -0.5580  0.4202  0.0373
 1371SOL    HW115572   2.113   3.673  15.386 -0.2032  0.1200 -0.6299
 1371SOL    HW215573   2.068   3.528  15.401 -0.0862  0.3416 -0.7480
 1372SOL     OW15574   2.024   1.078  11.720  0.3335 -0.2436  0.0602
 1372SOL    HW115575   2.019   1.126  11.637  1.4258 -0.6374 -0.2333
 1372SOL    HW215576   2.119   1.072  11.729  0.3560  0.9880  0.6065
 1373SOL     OW15577   1.386   1.568   7.618 -0.6434  0.1838  0.3176
 1373SOL    HW115578   1.376   1.649   7.568  3.1448 -0.2317 -1.1153
 1373SOL    HW215579   1.340   1.593   7.699 -0.3002  0.0424  0.5565
 1374SOL     OW15580   4.251   4.329   7.540 -0.3811 -0.0602 -0.1578
 1374SOL    HW115581   4.328   4.364   7.585  0.4690 -0.1404 -1.5410
 1374SOL    HW215582   4.220   4.408   7.495  0.5095  0.3067 -0.1258
 1375SOL     OW15583   1.118   0.461   4.915 -0.0328  0.4834  0.0455
 1375SOL    HW115584   1.132   0.555   4.926 -0.0883  0.4064  0.7950
 1375SOL    HW215585   1.071   0.461   4.832 -1.3139 -1.9291  0.7706
 1376SOL     OW15586   3.419   1.422   6.589  0.4682  0.4461  0.1787
 1376SOL    HW115587   3.356   1.480   6.546 -0.4852 -0.2263  0.6710
 1376SOL    HW215588   3.494   1.474   6.563 -0.6934  1.5353 -1.0200
 1377SOL     OW15589   4.004   0.083  14.562  0.2934  0.3105 -0.4240
 1377SOL    HW115590   4.043   0.171  14.568  0.9341 -0.1780  2.1775
 1377SOL    HW215591   3.922   0.092  14.610  0.1691 -0.6540 -0.4673
 1378SOL     OW15592   0.559   2.380   4.159 -0.7130  0.0186 -0.2745
 1378SOL    HW115593   0.490   2.382   4.226  0.6665 -0.4909  1.1578
 1378SOL    HW215594   0.644   2.395   4.201 -0.6768  0.3349 -0.4626
 1379SOL     OW15595   3.641   1.631   7.762  0.2199  0.4288  0.6794
 1379SOL    HW115596   3.663   1.716   7.800 -0.0280  0.1700  1.4021
 1379SOL    HW215597   3.688   1.566   7.814 -2.3120 -2.7661 -1.0173
 1380SOL     OW15598   3.402   1.138   2.680 -0.2355  0.1530  0.1528
 1380SOL    HW115599   3.335   1.185   2.731 -0.0787  0.7313 -0.1725
 1380SOL    HW215600   3.478   1.184   2.716  0.3475 -0.6434 -0.0787
 1381SOL     OW15601   3.494   0.053  11.660  0.1401 -0.4304  0.2446
 1381SOL    HW115602   3.577   0.006  11.648  0.8086  0.8629 -0.2635
 1381SOL    HW215603   3.467   0.020  11.746  0.8906 -0.9882  0.2657
 1382SOL     OW15604   0.714   4.245   3.027  0.0373 -0.4686 -0.1871
 1382SOL    HW115605   0.759   4.294   2.959  0.0575 -0.9180 -0.4992
 1382SOL    HW215606   0.774   4.256   3.100  0.4578  1.5552 -0.8381
 1383SOL     OW15607   3.958   0.610  12.372  0.1497 -0.1113  0.0146
 1383SOL    HW115608   3.996   0.576  12.453 -2.9716 -0.0464  1.4814
 1383SOL    HW215609   3.908   0.687  12.399  1.0433  0.3065  0.5007
 1384SOL     OW15610   3.525   1.680   4.531  0.0875 -0.0465 -0.3168
 1384SOL    HW115611   3.449   1.631   4.501  0.3818  0.3397 -1.7008
 1384SOL    HW215612   3.596   1.616   4.527  1.6739  1.6174  1.3312
 1385SOL     OW15613   3.941   2.763   3.577  0.1252  0.1391  0.6984
 1385SOL    HW115614   4.020   2.800   3.617  0.9702 -3.3553  2.2615
 1385SOL    HW215615   3.871   2.795   3.633 -0.0297 -0.6976  0.9691
 1386SOL     OW15616   1.009   0.352   1.611  0.2717 -0.0735  0.2038
 1386SOL    HW115617   0.919   0.331   1.637  0.5531  1.2103  2.1400
 1386SOL    HW215618   1.035   0.405   1.686  1.0150  0.5101 -0.4683
 1387SOL     OW15619   4.061   3.333   2.372 -0.1024 -0.5259 -0.3029
 1387SOL    HW115620   4.074   3.240   2.393  1.1309 -0.2401  0.1770
 1387SOL    HW215621   4.068   3.344   2.278 -2.5151 -0.7225 -0.5222
 1388SOL     OW15622   1.077   1.016   5.002  0.2781 -0.0796  0.1860
 1388SOL    HW115623   0.992   1.053   5.028  0.5648 -0.8427  2.2807
 1388SOL    HW215624   1.107   1.067   4.928  2.7216  0.4736  1.5437
 1389SOL     OW15625   0.626   3.418   6.482 -0.6567 -0.1286  0.3268
 1389SOL    HW115626   0.652   3.388   6.569  1.2849 -1.4087 -0.6903
 1389SOL    HW215627   0.712   3.448   6.455 -0.9607  1.3323  0.9833
 1390SOL     OW15628   3.481   0.313   3.105 -0.6977  0.0311  0.6435
 1390SOL    HW115629   3.394   0.276   3.093 -0.4026 -1.1392  2.0669
 1390SOL    HW215630   3.502   0.279   3.192  0.0702 -2.1247 -0.3877
 1391SOL     OW15631   1.315   0.217   1.824  0.3111  0.2193  0.3349
 1391SOL    HW115632   1.392   0.163   1.802 -0.1889 -0.4513  0.2284
 1391SOL    HW215633   1.254   0.146   1.842  2.1891 -1.5187 -0.0772
 1392SOL     OW15634   3.747   3.800   6.225  0.1685  0.0160 -0.0710
 1392SOL    HW115635   3.804   3.829   6.297 -1.4861  0.4893  1.0622
 1392SOL    HW215636   3.796   3.735   6.175 -1.0976 -2.0819  1.3595
 1393SOL     OW15637   2.079   2.548  12.989 -0.0437 -0.4660 -0.1117
 1393SOL    HW115638   2.170   2.536  12.962 -0.1760 -0.7069 -0.4394
 1393SOL    HW215639   2.035   2.476  12.945 -1.7942  1.0983 -0.9166
 1394SOL     OW15640   2.277   1.614   7.948 -0.3827  0.3720  0.0004
 1394SOL    HW115641   2.359   1.642   7.907 -1.7855  2.2116 -1.4931
 1394SOL    HW215642   2.244   1.701   7.970 -0.6907 -0.3155  2.2364
 1395SOL     OW15643   2.413   3.499   6.132  0.2534 -0.5066 -0.3975
 1395SOL    HW115644   2.324   3.535   6.128  0.6856  0.5629 -0.5888
 1395SOL    HW215645   2.450   3.562   6.070  1.9392 -0.6839  0.4061
 1396SOL     OW15646   1.129   1.206   6.450 -0.5193  0.0150  0.0694
 1396SOL    HW115647   1.131   1.116   6.416  2.1092  0.3018 -0.5721
 1396SOL    HW215648   1.049   1.212   6.502 -0.8985 -0.5763 -0.4459
 1397SOL     OW15649   2.679   0.526  11.814 -0.7051 -0.0190  0.1361
 1397SOL    HW115650   2.706   0.583  11.886 -0.1206  1.2142 -1.0628
 1397SOL    HW215651   2.755   0.500  11.762  0.8661  0.8699  1.9770
 1398SOL     OW15652   2.966   3.636   7.184  0.3272 -0.4747 -0.3646
 1398SOL    HW115653   2.973   3.711   7.125  1.1290 -0.1548  0.1437
 1398SOL    HW215654   2.905   3.670   7.248 -0.6451 -0.5713 -1.2422
 1399SOL     OW15655   4.382   1.133  10.956 -0.2190  0.2408  0.1427
 1399SOL    HW115656   4.307   1.081  10.926  1.6119 -1.9845 -0.5565
 1399SOL    HW215657   4.451   1.072  10.930 -0.8295 -0.5556  0.3504
 1400SOL     OW15658   2.995   4.494   2.625  0.0074  0.3074  0.4121
 1400SOL    HW115659   3.027   4.415   2.669  1.3707  0.5135 -0.2218
 1400SOL    HW215660   2.922   4.509   2.685 -0.7298  0.0524 -0.4337
 1401SOL     OW15661   1.626   0.824   7.768  0.2878  0.1421  0.0392
 1401SOL    HW115662   1.627   0.852   7.859 -0.8123  0.5083 -0.0622
 1401SOL    HW215663   1.567   0.895   7.740  2.2968  1.4925 -0.7406
 1402SOL     OW15664   4.308   4.526   7.186  0.3984  0.4043 -0.1868
 1402SOL    HW115665   4.315   4.498   7.277 -1.7120  0.4638 -0.0145
 1402SOL    HW215666   4.224   4.489   7.160  1.0205 -0.6698 -0.6895
 1403SOL     OW15667   1.588   3.882   1.315 -0.1276  0.3159  0.1803
 1403SOL    HW115668   1.500   3.867   1.349 -0.6679  0.6414 -1.0748
 1403SOL    HW215669   1.576   3.874   1.220  2.1995 -1.7126  0.0636
 1404SOL     OW15670   1.924   0.175   3.420  0.2172 -0.3774 -0.4479
 1404SOL    HW115671   1.862   0.105   3.398  0.8756 -0.1555 -3.0442
 1404SOL    HW215672   1.875   0.220   3.488 -0.2753 -1.5436 -0.0201
 1405SOL     OW15673   2.613   0.385   8.685 -0.0213 -0.0460  0.3798
 1405SOL    HW115674   2.605   0.347   8.598 -2.6303  0.2113  0.4809
 1405SOL    HW215675   2.690   0.439   8.672 -0.1882  0.1721  0.2928
 1406SOL     OW15676   0.398   0.185  17.521  0.2032 -0.5018 -0.6915
 1406SOL    HW115677   0.362   0.221  17.441 -0.2547 -0.4366 -0.4537
 1406SOL    HW215678   0.489   0.202  17.496  0.3035  1.7046  1.2406
 1407SOL     OW15679   1.975   2.069   9.244 -0.1796 -0.3050 -0.3985
 1407SOL    HW115680   2.052   2.117   9.272 -0.7607  0.2612  0.2131
 1407SOL    HW215681   1.944   2.039   9.330 -0.9815  0.7865 -0.3047
 1408SOL     OW15682   0.179   0.105   7.126 -0.3379 -0.3151 -0.5706
 1408SOL    HW115683   0.180   0.114   7.031 -2.3492 -1.4303 -0.7065
 1408SOL    HW215684   0.271   0.105   7.151 -1.4845 -0.4272  3.8055
 1409SOL     OW15685   2.909   1.060  10.263  0.4065  0.2392 -0.1377
 1409SOL    HW115686   2.869   1.010  10.335  1.1907  0.3774  0.3874
 1409SOL    HW215687   2.977   1.114  10.304  0.5480 -0.3880  0.4662
 1410SOL     OW15688   1.340   1.618   5.040  0.2371 -0.4163 -0.3763
 1410SOL    HW115689   1.353   1.712   5.034 -3.1056  0.0804  0.1096
 1410SOL    HW215690   1.251   1.609   5.005 -0.1193 -0.4271  0.5195
 1411SOL     OW15691   2.097   0.156  16.418 -0.1047 -0.1546  0.1726
 1411SOL    HW115692   2.059   0.131  16.334 -1.1161 -0.7191  0.7945
 1411SOL    HW215693   2.084   0.083  16.479 -1.1430 -1.4787 -1.6449
 1412SOL     OW15694   1.498   4.301   8.133  0.4375  0.0162  0.6462
 1412SOL    HW115695   1.513   4.289   8.039  2.2928 -0.8669  1.0507
 1412SOL    HW215696   1.589   4.294   8.161  0.5380  2.2532  0.8421
 1413SOL     OW15697   1.840   0.660   6.463 -0.1818  0.0201  0.1855
 1413SOL    HW115698   1.818   0.619   6.379 -0.3919  1.1620 -0.3033
 1413SOL    HW215699   1.914   0.719   6.450  0.0635 -0.5733 -1.1143
 1414SOL     OW15700   3.255   2.889   5.018  0.2228  0.1539  0.0868
 1414SOL    HW115701   3.330   2.896   5.077  1.2057  0.6233 -1.2259
 1414SOL    HW215702   3.184   2.854   5.073 -1.9902  2.3564 -1.3812
 1415SOL     OW15703   3.105   0.396   2.538 -0.3181 -0.0472  0.1693
 1415SOL    HW115704   3.192   0.423   2.507 -0.2221 -2.0899 -1.2964
 1415SOL    HW215705   3.116   0.308   2.503  0.7361 -0.1621  0.7939
 1416SOL     OW15706   1.815   3.032   2.339 -0.1667  0.0456  0.2811
 1416SOL    HW115707   1.753   2.978   2.388 -0.7787 -1.6028 -2.3082
 1416SOL    HW215708   1.782   3.120   2.355  0.4958  0.7069 -1.9788
 1417SOL     OW15709   2.196   4.043   0.693  0.1077 -0.1607  0.0194
 1417SOL    HW115710   2.215   4.004   0.607 -0.5801  0.6152 -0.4888
 1417SOL    HW215711   2.263   4.005   0.750  0.8659  0.3264 -0.5381
 1418SOL     OW15712   4.040   4.085   6.660  0.0983  0.4148 -0.2113
 1418SOL    HW115713   4.081   4.165   6.694 -1.5688  1.8817 -1.7045
 1418SOL    HW215714   4.043   4.033   6.740 -0.2461 -0.5270 -0.8193
 1419SOL     OW15715   2.526   4.622   1.733 -0.5682 -0.0558 -0.4500
 1419SOL    HW115716   2.565   4.575   1.660 -2.8191  1.7300 -2.8078
 1419SOL    HW215717   2.483   4.699   1.696 -1.4180 -0.4459 -0.2703
 1420SOL     OW15718   1.688   3.998   1.972  0.6493  0.1806  0.4682
 1420SOL    HW115719   1.669   3.918   1.924  0.8520 -0.5483  1.6106
 1420SOL    HW215720   1.638   3.984   2.053  1.4240  0.2209  0.9495
 1421SOL     OW15721   4.522   3.587  15.871 -0.7344  0.3754  0.1976
 1421SOL    HW115722   4.535   3.682  15.876  0.1028  0.2518  0.3680
 1421SOL    HW215723   4.433   3.572  15.838  0.1124 -1.0055 -1.4044
 1422SOL     OW15724   4.091   1.001  12.589 -0.5633  0.4415  0.0006
 1422SOL    HW115725   4.133   1.001  12.503 -0.7014 -1.2940 -0.0576
 1422SOL    HW215726   4.119   0.918  12.628 -0.9053  0.7271  0.8622
 1423SOL     OW15727   4.086   0.683  16.516 -0.3855  0.2627 -0.1590
 1423SOL    HW115728   4.155   0.745  16.540 -1.1621  1.2055 -0.3464
 1423SOL    HW215729   4.132   0.620  16.460  1.3989  0.6227  0.9118
 1424SOL     OW15730   0.907   4.653   2.593 -0.4590 -0.2091 -0.5115
 1424SOL    HW115731   0.835   4.714   2.578 -0.7950 -0.2341  1.0377
 1424SOL    HW215732   0.896   4.637   2.686 -1.1360  0.3590 -0.4887
 1425SOL     OW15733   4.551   2.283   3.855  0.2894  0.1439 -0.2848
 1425SOL    HW115734   4.516   2.198   3.828 -0.6505  0.1542  0.8942
 1425SOL    HW215735   4.503   2.305   3.935 -0.8279 -0.9219 -0.6679
 1426SOL     OW15736   1.290   0.696   8.179  0.5118  0.5058 -0.0930
 1426SOL    HW115737   1.298   0.610   8.221  0.3799  0.4376 -0.2085
 1426SOL    HW215738   1.199   0.696   8.148  1.3095 -1.0341 -2.3718
 1427SOL     OW15739   2.297   3.518   8.096  0.1179  0.6936 -0.0931
 1427SOL    HW115740   2.294   3.558   8.182  1.0628 -1.2983  0.8579
 1427SOL    HW215741   2.202   3.511   8.081  0.4077 -2.4539 -0.4583
 1428SOL     OW15742   0.913   3.997   5.933  0.6857 -0.8346 -0.5606
 1428SOL    HW115743   0.981   4.051   5.974  1.0861 -1.5267 -0.3071
 1428SOL    HW215744   0.944   3.909   5.955  1.0937 -0.5528  0.0087
 1429SOL     OW15745   2.322   3.332   9.221 -0.1534  0.0406  0.1317
 1429SOL    HW115746   2.395   3.277   9.249 -0.0757  0.4421  0.7186
 1429SOL    HW215747   2.252   3.268   9.234  0.7004 -0.7455  0.8468
 1430SOL     OW15748   2.536   3.548   4.895 -0.0912  0.2947 -0.1218
 1430SOL    HW115749   2.487   3.482   4.944 -0.7649 -0.3104 -1.6232
 1430SOL    HW215750   2.496   3.629   4.926 -2.5920  0.3681 -3.5508
 1431SOL     OW15751   2.773   4.306  10.222 -0.9263  0.3581  0.1076
 1431SOL    HW115752   2.746   4.386  10.177  3.2042  0.7821 -1.6243
 1431SOL    HW215753   2.813   4.271  10.143 -2.3067 -0.1815 -0.3495
 1432SOL     OW15754   0.524   3.660   4.815 -0.2109 -0.1501  0.4363
 1432SOL    HW115755   0.567   3.593   4.867  0.6398  0.1518  0.1299
 1432SOL    HW215756   0.581   3.658   4.737 -0.4871  1.4162  0.1938
 1433SOL     OW15757   3.238   3.020   4.184 -0.1255 -0.3940  0.7605
 1433SOL    HW115758   3.255   3.105   4.223 -2.9703  0.5083  0.0397
 1433SOL    HW215759   3.305   3.008   4.117 -0.6771  0.3240  0.0705
 1434SOL     OW15760   1.572   1.176   1.823  0.0588 -0.0728  0.0435
 1434SOL    HW115761   1.544   1.257   1.781  0.2846 -0.0977 -0.1560
 1434SOL    HW215762   1.490   1.151   1.865  0.5259  0.8513  1.5195
 1435SOL     OW15763   3.294   0.453  14.703 -0.0625 -0.3508  0.0826
 1435SOL    HW115764   3.355   0.420  14.637  1.7950  1.0915  1.0969
 1435SOL    HW215765   3.354   0.506  14.754 -0.4349 -0.7663  0.9505
 1436SOL     OW15766   3.157   0.084   3.786  0.5086 -0.3638 -0.6374
 1436SOL    HW115767   3.132   0.037   3.866  1.0260  0.4614  0.0129
 1436SOL    HW215768   3.237   0.131   3.811  0.4490 -0.5373 -0.1067
 1437SOL     OW15769   3.949   1.540   8.545  0.4980  0.0787  0.3301
 1437SOL    HW115770   3.944   1.512   8.636 -1.5024 -1.2421 -0.1779
 1437SOL    HW215771   3.955   1.635   8.553 -2.6285  0.1948  1.2488
 1438SOL     OW15772   0.442   1.536  10.052 -0.2125 -0.3053  0.2301
 1438SOL    HW115773   0.415   1.447  10.030 -2.2561  0.5357 -0.7257
 1438SOL    HW215774   0.406   1.573   9.971  1.8587  1.8655  0.3039
 1439SOL     OW15775   4.554   4.555   4.694  0.1119 -0.8540 -0.1679
 1439SOL    HW115776   4.627   4.562   4.632  1.9527  1.6339  2.2616
 1439SOL    HW215777   4.610   4.572   4.769 -0.3222 -2.2023  0.4598
 1440SOL     OW15778   0.888   1.043   3.524  0.4898 -0.1354  0.2409
 1440SOL    HW115779   0.808   1.095   3.525  0.9655  0.6926 -4.9609
 1440SOL    HW215780   0.877   0.987   3.448 -1.1119  0.7880 -0.1981
 1441SOL     OW15781   1.594   4.593   8.509 -0.1579 -0.6118  0.4491
 1441SOL    HW115782   1.553   4.508   8.523 -0.3453 -0.1354  2.8249
 1441SOL    HW215783   1.679   4.567   8.473  0.4437 -0.6022  1.8556
 1442SOL     OW15784   1.275   3.246   2.447 -0.0282  0.3490  0.4071
 1442SOL    HW115785   1.359   3.238   2.492  0.3267 -0.8616 -0.4686
 1442SOL    HW215786   1.285   3.329   2.399 -1.9109 -0.6713 -1.7854
 1443SOL     OW15787   1.660   2.636   4.698 -0.7396 -0.2101 -0.9027
 1443SOL    HW115788   1.745   2.627   4.741 -0.4223  0.3678 -1.4030
 1443SOL    HW215789   1.650   2.550   4.657 -1.3494 -1.1172  1.1397
 1444SOL     OW15790   1.265   4.621   6.073  0.3594  0.8605  0.5191
 1444SOL    HW115791   1.267   4.664   5.987 -1.6583 -0.4977 -0.1869
 1444SOL    HW215792   1.315   4.546   6.043 -2.1364 -0.8127  0.5901
 1445SOL     OW15793   2.557   4.482   3.408  1.0686 -0.3425  0.2476
 1445SOL    HW115794   2.616   4.530   3.350 -1.0044 -0.4872 -1.9438
 1445SOL    HW215795   2.619   4.485   3.481 -0.9514 -0.3010  1.9502
 1446SOL     OW15796   0.702   0.566   3.903 -0.1081  0.1166  0.6191
 1446SOL    HW115797   0.782   0.605   3.868  0.2114 -0.6513  0.4865
 1446SOL    HW215798   0.659   0.543   3.820  0.0940  0.5654  0.3852
 1447SOL     OW15799   1.799   0.637   3.835 -0.7037 -0.7915  0.2983
 1447SOL    HW115800   1.764   0.666   3.920 -1.0950 -1.9609  0.5354
 1447SOL    HW215801   1.726   0.588   3.796  0.0641 -0.0009 -2.0980
 1448SOL     OW15802   4.023   3.488   6.642 -0.2418 -0.5192 -0.6883
 1448SOL    HW115803   4.018   3.412   6.584  0.9220 -0.7207 -0.5114
 1448SOL    HW215804   3.944   3.488   6.697  0.8310  0.2109  0.8366
 1449SOL     OW15805   0.613   0.634   6.558 -0.2175 -0.3065 -0.1857
 1449SOL    HW115806   0.662   0.564   6.516 -0.4417 -0.9326  0.5926
 1449SOL    HW215807   0.650   0.630   6.646  1.8902  0.1746 -1.0519
 1450SOL     OW15808   2.121   1.384  15.410 -0.2646  0.0569  0.1927
 1450SOL    HW115809   2.132   1.290  15.398  1.8192  0.3229 -0.0386
 1450SOL    HW215810   2.169   1.419  15.334 -0.9161  0.5404  0.0056
 1451SOL     OW15811   3.526   0.025   8.731  0.4741  0.5881  0.2665
 1451SOL    HW115812   3.455   0.060   8.677  0.0173  2.5366  2.1356
 1451SOL    HW215813   3.494   4.662   8.759  0.1272  0.6160 -0.0425
 1452SOL     OW15814   2.286   0.646   3.679 -0.8034  0.1112  0.3956
 1452SOL    HW115815   2.204   0.639   3.727 -0.9817  1.6990  0.3137
 1452SOL    HW215816   2.246   0.652   3.592 -0.3841 -1.1496  0.1195
 1453SOL     OW15817   1.157   3.877   0.931  0.0083  0.3964 -0.8417
 1453SOL    HW115818   1.168   3.937   1.005 -0.1176 -2.4526  1.5289
 1453SOL    HW215819   1.072   3.834   0.940  1.2013 -1.2759  2.4276
 1454SOL     OW15820   1.342   1.054   7.490  0.7463  0.0163  0.3333
 1454SOL    HW115821   1.369   1.027   7.402  1.1020 -0.6164  0.6304
 1454SOL    HW215822   1.337   1.149   7.486 -0.8682 -0.2212 -2.5863
 1455SOL     OW15823   4.422   1.821   1.925  0.1015  0.2627  0.6759
 1455SOL    HW115824   4.377   1.743   1.892 -1.2661  0.5694  1.8156
 1455SOL    HW215825   4.484   1.825   1.852 -0.8143  0.9720 -0.0693
 1456SOL     OW15826   1.636   1.880   6.804  0.1159 -0.4022 -0.0149
 1456SOL    HW115827   1.710   1.856   6.861  0.6728  1.6789  0.1637
 1456SOL    HW215828   1.573   1.915   6.867  0.3999 -1.9987  1.1535
 1457SOL     OW15829   3.302   2.754   9.333 -0.0016 -0.1005 -0.3941
 1457SOL    HW115830   3.320   2.661   9.314 -0.3779 -0.3730  0.6048
 1457SOL    HW215831   3.211   2.748   9.362  0.1228 -1.9771 -0.3726
 1458SOL     OW15832   3.390   4.697   3.234 -0.0527 -0.1390  0.2626
 1458SOL    HW115833   3.311   0.008   3.274 -0.2970  0.2534 -0.5560
 1458SOL    HW215834   3.436   4.684   3.317  0.2082 -1.2942 -0.0574
 1459SOL     OW15835   2.060   0.780  17.671 -0.3440  0.2798 -0.2752
 1459SOL    HW115836   1.978   0.740  17.641 -0.6333 -0.2179  1.2052
 1459SOL    HW215837   2.063   0.747   0.066 -2.1593  2.1430  0.4701
 1460SOL     OW15838   0.690   2.186   6.834  0.3878  0.8901 -0.0542
 1460SOL    HW115839   0.750   2.116   6.809 -0.2511  0.6285 -0.8531
 1460SOL    HW215840   0.702   2.169   6.927  0.9440 -0.6706 -0.4144
 1461SOL     OW15841   1.964   1.222   7.425 -0.1801 -0.1894  0.0756
 1461SOL    HW115842   1.958   1.308   7.384  2.1399  0.6259  1.3743
 1461SOL    HW215843   2.047   1.230   7.473 -2.3865 -0.9369  4.0597
 1462SOL     OW15844   3.349   2.747   5.590 -1.1432 -0.8301 -0.1238
 1462SOL    HW115845   3.388   2.696   5.518  2.1706 -0.6260  1.4913
 1462SOL    HW215846   3.366   2.695   5.669 -0.8420  0.6357  0.7744
 1463SOL     OW15847   3.786   1.512   3.015  0.3749 -0.4656 -0.4216
 1463SOL    HW115848   3.836   1.433   3.039  3.4929  1.8767  0.7490
 1463SOL    HW215849   3.854   1.579   3.008  1.5855 -1.4342  1.8998
 1464SOL     OW15850   3.826   1.857   7.000  0.2118  0.0548 -0.4777
 1464SOL    HW115851   3.761   1.927   6.999  3.0985  2.7434 -0.0973
 1464SOL    HW215852   3.798   1.801   7.071  0.6598  0.0536 -0.3019
 1465SOL     OW15853   1.538   2.505   2.897  0.2851  0.3964  0.0421
 1465SOL    HW115854   1.514   2.594   2.923 -0.3317 -0.3558  2.0373
 1465SOL    HW215855   1.605   2.479   2.960  2.4331  1.8582 -1.6254
 1466SOL     OW15856   1.803   2.955   3.327  0.2521  0.0194 -0.0417
 1466SOL    HW115857   1.850   3.031   3.362  0.0284  0.5112 -0.8173
 1466SOL    HW215858   1.862   2.880   3.329  0.0747 -0.0515  2.1281
 1467SOL     OW15859   0.179   2.038   6.458  0.2485  0.2809 -0.0657
 1467SOL    HW115860   0.266   2.000   6.445 -0.6854 -1.8217 -0.1505
 1467SOL    HW215861   0.187   2.125   6.418  1.4130 -0.6624 -1.8468
 1468SOL     OW15862   3.815   0.909   6.134  0.1197  0.4610  0.1984
 1468SOL    HW115863   3.867   0.964   6.193  1.8006 -1.0861  0.1561
 1468SOL    HW215864   3.846   0.821   6.157  0.2038  0.3961 -0.1743
 1469SOL     OW15865   3.232   2.541  11.963  0.2763 -0.4177  0.1804
 1469SOL    HW115866   3.320   2.576  11.973  0.1971 -0.2616  0.3274
 1469SOL    HW215867   3.242   2.471  11.898  0.2605 -1.4918  1.3322
 1470SOL     OW15868   0.416   2.812   2.986 -0.3823  0.4541 -0.7121
 1470SOL    HW115869   0.325   2.836   2.971 -0.8372  0.6822  2.5597
 1470SOL    HW215870   0.423   2.718   2.972 -0.2712  0.1569  1.4079
 1471SOL     OW15871   0.246   2.033   6.836 -0.1236 -0.3431  0.1510
 1471SOL    HW115872   0.295   1.973   6.892 -1.6916 -1.4039  0.3901
 1471SOL    HW215873   0.315   2.084   6.793 -0.1713 -0.5625 -0.1885
 1472SOL     OW15874   3.050   3.530   7.566 -0.6080 -0.2759 -0.6868
 1472SOL    HW115875   2.974   3.541   7.508 -0.5184 -0.2373 -0.7974
 1472SOL    HW215876   3.093   3.615   7.574  0.3170 -0.9773  1.6687
 1473SOL     OW15877   0.668   2.066   0.381 -0.0535 -0.0039  0.0910
 1473SOL    HW115878   0.573   2.075   0.392 -0.2065 -2.1778  0.5748
 1473SOL    HW215879   0.678   2.073   0.286  0.9678 -1.2793  0.1006
 1474SOL     OW15880   1.802   3.844   7.244 -0.0861  0.4071 -0.3572
 1474SOL    HW115881   1.829   3.777   7.182 -0.2519  0.8560 -0.9135
 1474SOL    HW215882   1.739   3.796   7.298  1.8355 -1.7631 -0.0415
 1475SOL     OW15883   1.193   4.311   7.287  0.7640 -0.3989 -0.2398
 1475SOL    HW115884   1.133   4.381   7.312 -1.2195 -1.4859 -1.9013
 1475SOL    HW215885   1.131   4.258   7.236 -1.4165 -1.0843  3.0918
 1476SOL     OW15886   4.580   0.394   2.452 -0.0006  0.2975  0.0529
 1476SOL    HW115887   4.508   0.393   2.389 -0.8830  1.1714  1.0366
 1476SOL    HW215888   4.588   0.299   2.449 -2.5543  0.0211  1.7936
 1477SOL     OW15889   0.946   2.333   9.573  0.0268 -0.1048 -0.1201
 1477SOL    HW115890   0.885   2.259   9.571 -1.7985  1.4194 -1.0269
 1477SOL    HW215891   1.003   2.301   9.503 -1.8509 -0.2340 -1.6102
 1478SOL     OW15892   3.273   0.734  16.356  0.2999  0.6432 -0.3127
 1478SOL    HW115893   3.255   0.810  16.411 -2.3940 -0.3903  0.2538
 1478SOL    HW215894   3.363   0.751  16.328 -0.2289  4.4028  0.2777
 1479SOL     OW15895   0.377   3.326  16.837  0.5165  0.5765 -0.3218
 1479SOL    HW115896   0.390   3.286  16.923  1.6785 -0.3541 -0.9369
 1479SOL    HW215897   0.300   3.380  16.855 -1.5339 -1.2328 -3.6179
 1480SOL     OW15898   3.756   2.984   6.675  0.4587  0.0398 -0.1386
 1480SOL    HW115899   3.852   2.980   6.669  0.6597  1.2372  2.0466
 1480SOL    HW215900   3.748   2.978   6.771 -0.4611 -0.9515 -0.2792
 1481SOL     OW15901   0.340   4.142   3.803  0.1633  0.1237  0.0285
 1481SOL    HW115902   0.368   4.051   3.800 -0.0227  0.0370  0.8898
 1481SOL    HW215903   0.398   4.193   3.747  0.3016 -0.6668 -0.5547
 1482SOL     OW15904   4.203   3.110   7.755  0.0114 -0.4300  0.5348
 1482SOL    HW115905   4.256   3.046   7.708  1.8041 -0.6799  2.8532
 1482SOL    HW215906   4.174   3.146   7.672  0.6009 -0.2115  0.4201
 1483SOL     OW15907   4.006   0.022  15.004 -0.3799 -0.8624  1.1841
 1483SOL    HW115908   4.061   4.715  14.932  0.5568  0.3536  1.3904
 1483SOL    HW215909   4.071   0.035  15.073  1.6140 -0.3604 -0.7990
 1484SOL     OW15910   1.143   0.473   3.274  0.2047 -0.1125  0.3213
 1484SOL    HW115911   1.211   0.540   3.272 -0.2032  0.3418  1.7069
 1484SOL    HW215912   1.183   0.404   3.220 -2.7034 -1.1305 -0.5291
 1485SOL     OW15913   4.488   2.504   5.592  0.1580 -0.4994 -0.6545
 1485SOL    HW115914   4.431   2.427   5.591  0.5937 -0.8174 -0.8264
 1485SOL    HW215915   4.485   2.539   5.681 -0.4882  1.3778 -1.4195
 1486SOL     OW15916   2.197   2.945   6.258 -0.1375  0.0357  0.3395
 1486SOL    HW115917   2.171   3.034   6.284 -2.3027 -0.3616 -0.4635
 1486SOL    HW215918   2.192   2.904   6.345 -3.8838 -0.7414 -0.2237
 1487SOL     OW15919   0.659   1.518   2.513  0.1642  0.1476 -0.3952
 1487SOL    HW115920   0.595   1.460   2.553  1.0186  0.3691  1.2908
 1487SOL    HW215921   0.655   1.497   2.420 -0.2256  1.5665 -0.6984
 1488SOL     OW15922   4.604   2.094   3.573  0.5114  0.1842 -0.0889
 1488SOL    HW115923   4.516   2.059   3.569 -0.4255  2.5501 -0.2463
 1488SOL    HW215924   4.642   2.037   3.640 -0.5771 -3.3137 -2.4204
 1489SOL     OW15925   2.797   1.577   4.973 -0.3069  0.1895 -0.8724
 1489SOL    HW115926   2.745   1.523   4.913  0.7540 -0.3085 -1.3523
 1489SOL    HW215927   2.785   1.666   4.941 -1.0899  0.1750 -0.6113
 1490SOL     OW15928   3.806   3.519   5.812  0.2848 -0.1618 -0.0470
 1490SOL    HW115929   3.728   3.516   5.868 -0.1080 -0.0696 -0.6006
 1490SOL    HW215930   3.881   3.521   5.873  2.1584 -0.2349 -2.3565
 1491SOL     OW15931   0.736   1.621  13.461 -0.0621  0.6343 -0.1550
 1491SOL    HW115932   0.734   1.716  13.448 -2.2185  0.6313  0.2490
 1491SOL    HW215933   0.807   1.624  13.526  1.1077 -0.5761 -1.3648
 1492SOL     OW15934   2.312   0.685  12.382  0.0247  0.2996  0.2598
 1492SOL    HW115935   2.318   0.759  12.442 -0.3543  0.1356  0.4967
 1492SOL    HW215936   2.376   0.715  12.317 -0.3766  0.7772  0.0786
 1493SOL     OW15937   1.051   3.253   3.077  0.3136  0.8034 -0.3582
 1493SOL    HW115938   1.094   3.167   3.069  2.5447  1.9403 -0.5432
 1493SOL    HW215939   0.985   3.229   3.141  0.3283 -0.6104 -0.8710
 1494SOL     OW15940   4.183   0.108   4.119  0.3101  0.2720 -0.9921
 1494SOL    HW115941   4.176   0.016   4.095 -1.4471  0.5527 -1.5656
 1494SOL    HW215942   4.275   0.116   4.145  0.0794 -0.7068  0.1039
 1495SOL     OW15943   3.139   0.982   6.672  0.5682  0.0953 -0.2618
 1495SOL    HW115944   3.141   1.060   6.617  1.8194  1.1736  1.3320
 1495SOL    HW215945   3.233   0.971   6.681  0.4164 -1.1905 -0.1077
 1496SOL     OW15946   4.404   2.197  16.880  0.3258  0.0007 -0.4797
 1496SOL    HW115947   4.446   2.242  16.807  1.9223 -0.3682  0.2030
 1496SOL    HW215948   4.411   2.106  16.852 -1.5958 -0.1306 -0.4855
 1497SOL     OW15949   3.679   0.935   3.248 -0.5877  0.4516 -0.2632
 1497SOL    HW115950   3.735   0.909   3.321 -0.4975 -2.1924 -1.2938
 1497SOL    HW215951   3.694   0.878   3.173 -0.2747  0.0005  0.1422
 1498SOL     OW15952   3.372   0.702   3.251  0.2187 -1.0049  0.0654
 1498SOL    HW115953   3.456   0.660   3.232  0.9063  0.0423  0.8120
 1498SOL    HW215954   3.390   0.794   3.234  0.5038 -1.0115  0.3384
 1499SOL     OW15955   3.850   2.201  17.644  0.0657 -0.2631 -0.3831
 1499SOL    HW115956   3.841   2.232   0.040  1.7650  0.2400 -0.3900
 1499SOL    HW215957   3.890   2.115  17.658 -0.3299 -0.0469  1.9846
 1500SOL     OW15958   0.879   3.923  14.727  0.3459 -0.0566  0.0987
 1500SOL    HW115959   0.905   4.004  14.683 -1.2033  0.4550  0.1128
 1500SOL    HW215960   0.856   3.969  14.808 -1.2149  0.9110 -0.8935
 1501SOL     OW15961   2.010   3.162  12.924  0.2323 -0.2862 -0.0625
 1501SOL    HW115962   1.946   3.132  12.859 -0.6464  1.2595  0.1008
 1501SOL    HW215963   2.050   3.236  12.878  0.4885 -0.2788  0.1765
 1502SOL     OW15964   2.369   2.744   7.207 -0.2496 -0.0896 -0.2297
 1502SOL    HW115965   2.442   2.685   7.224  0.0020 -0.2258 -1.8061
 1502SOL    HW215966   2.292   2.691   7.224 -0.2313  0.2387  0.8909
 1503SOL     OW15967   1.106   0.606  10.878 -0.3744 -0.2730 -0.1425
 1503SOL    HW115968   1.153   0.539  10.928  0.7226  1.6498  1.4549
 1503SOL    HW215969   1.018   0.571  10.870  0.8111 -3.7236  1.8473
 1504SOL     OW15970   3.335   0.761   4.683 -0.1508 -0.0855 -0.1049
 1504SOL    HW115971   3.272   0.702   4.724 -1.3653 -0.1666 -2.0862
 1504SOL    HW215972   3.383   0.794   4.759  1.8111  1.8324 -2.1753
 1505SOL     OW15973   3.315   0.750   5.203 -0.2822  0.7230 -0.3984
 1505SOL    HW115974   3.275   0.809   5.138  0.0769 -0.4184 -1.6507
 1505SOL    HW215975   3.287   0.668   5.162  0.0542  1.0246 -1.2318
 1506SOL     OW15976   1.504   3.627   7.047  0.5763  0.0131 -0.4133
 1506SOL    HW115977   1.507   3.532   7.036 -1.8335  0.0766 -1.6363
 1506SOL    HW215978   1.582   3.660   7.002  0.7591  0.1784  0.0330
 1507SOL     OW15979   1.868   3.603  12.137  0.4431  0.7126 -0.2144
 1507SOL    HW115980   1.922   3.589  12.215  1.4525  0.8713 -0.8784
 1507SOL    HW215981   1.929   3.646  12.077 -0.2433 -0.4373 -1.7275
 1508SOL     OW15982   2.504   2.266  16.549  0.1826  0.1944  0.0202
 1508SOL    HW115983   2.566   2.316  16.497  2.3817 -3.0221 -0.4215
 1508SOL    HW215984   2.546   2.273  16.635  1.2208  0.6151 -0.5263
 1509SOL     OW15985   4.053   2.089   9.694  0.2119  0.7869 -0.3314
 1509SOL    HW115986   4.135   2.115   9.650 -0.4349 -1.5826 -2.9531
 1509SOL    HW215987   4.068   2.109   9.786 -0.0108 -1.3681  0.1861
 1510SOL     OW15988   3.013   1.138   9.709 -0.3273  0.0158 -0.1011
 1510SOL    HW115989   3.054   1.083   9.776  0.9203  0.4672 -0.5068
 1510SOL    HW215990   3.088   1.174   9.662  1.0370  0.2410  2.2700
 1511SOL     OW15991   2.854   4.029  10.270  0.4071 -0.0268  0.2086
 1511SOL    HW115992   2.923   3.995  10.327 -0.5608 -0.3602  1.1741
 1511SOL    HW215993   2.875   4.122  10.282  1.9787  0.0151 -2.6559
 1512SOL     OW15994   2.596   2.799   6.927  0.3238  0.0220 -0.3772
 1512SOL    HW115995   2.526   2.752   6.881  0.1714  1.7952 -1.9272
 1512SOL    HW215996   2.624   2.732   6.990  0.8103  1.0123  0.4562
 1513SOL     OW15997   2.693   3.279   0.318 -0.2667 -0.5123  0.3363
 1513SOL    HW115998   2.635   3.265   0.393 -0.9576 -2.5343 -0.5801
 1513SOL    HW215999   2.768   3.318   0.362  0.7175 -0.3606 -1.4831
 1514SOL     OW16000   4.657   2.136   1.656  0.2343  0.5612 -0.1776
 1514SOL    HW116001   4.658   2.134   1.560  1.9695 -2.2597 -0.1000
 1514SOL    HW216002   4.565   2.125   1.679  0.1533 -1.7696 -1.5928
 1515SOL     OW16003   2.120   4.451   5.682  0.3044  0.4105  0.1734
 1515SOL    HW116004   2.054   4.381   5.688  0.7378 -0.0733 -0.6587
 1515SOL    HW216005   2.189   4.417   5.739  0.2294  1.7175  1.0385
 1516SOL     OW16006   1.191   4.116   7.997 -0.2708 -0.5226 -0.4549
 1516SOL    HW116007   1.257   4.101   7.929  1.2803 -1.5750  1.2613
 1516SOL    HW216008   1.118   4.068   7.959 -0.5995  0.6255 -1.2677
 1517SOL     OW16009   2.030   3.900   2.318 -0.2817  0.1203  0.6092
 1517SOL    HW116010   2.114   3.880   2.359  0.3460  1.4707 -0.0229
 1517SOL    HW216011   2.055   3.905   2.226 -1.0496 -2.3757  0.2665
 1518SOL     OW16012   3.013   3.071   3.875  0.4754 -0.0943 -0.3684
 1518SOL    HW116013   3.040   3.116   3.795 -0.2301 -0.2156 -0.6781
 1518SOL    HW216014   2.948   3.135   3.905  1.6566  0.7683  0.3401
 1519SOL     OW16015   1.061   2.973   4.221 -0.1286 -0.1807 -0.2093
 1519SOL    HW116016   1.147   2.968   4.180 -0.7353  1.0358 -1.6089
 1519SOL    HW216017   1.074   2.985   4.315  1.8479  1.4499 -0.7013
 1520SOL     OW16018   3.738   0.277   6.592 -0.1050  0.4756  0.1237
 1520SOL    HW116019   3.673   0.223   6.545 -0.9553  1.7128 -0.1249
 1520SOL    HW216020   3.696   0.361   6.609 -0.9909  0.2432 -0.8880
 1521SOL     OW16021   3.438   1.833  10.750 -0.5576 -0.3862 -0.0508
 1521SOL    HW116022   3.516   1.888  10.760 -0.5364 -0.4087 -0.0927
 1521SOL    HW216023   3.373   1.863  10.813 -0.0579 -1.0606  0.7846
 1522SOL     OW16024   3.135   0.207   4.967  0.1218  0.0049 -0.4166
 1522SOL    HW116025   3.158   0.237   5.055 -0.0896  0.7455 -0.6183
 1522SOL    HW216026   3.217   0.171   4.933  0.6563  1.6390 -0.8723
 1523SOL     OW16027   0.170   1.012  12.312  0.1418 -0.0537 -0.0580
 1523SOL    HW116028   0.105   1.029  12.380 -0.3038  0.3894 -0.5981
 1523SOL    HW216029   0.173   0.917  12.306 -0.2887 -0.1286  0.9059
 1524SOL     OW16030   1.502   2.753  13.643 -0.7057 -0.2243 -0.4563
 1524SOL    HW116031   1.503   2.806  13.722  0.9753  0.7921 -1.1568
 1524SOL    HW216032   1.581   2.795  13.610  0.9372 -2.0188  1.2168
 1525SOL     OW16033   0.032   4.192   3.982 -0.0261  0.0041  0.3665
 1525SOL    HW116034   4.671   4.157   4.011  0.8852 -0.4846  2.3985
 1525SOL    HW216035   0.008   4.169   3.892  2.3691  0.5136 -0.3979
 1526SOL     OW16036   1.898   0.483   7.048  0.4656  0.1765  0.4532
 1526SOL    HW116037   1.959   0.535   6.996  2.0124 -2.0646  0.0595
 1526SOL    HW216038   1.920   0.394   7.022 -1.0850 -0.0034 -0.2745
 1527SOL     OW16039   4.484   3.684  13.053 -0.1267  0.1869  0.4156
 1527SOL    HW116040   4.436   3.722  13.127 -0.6288  2.9402 -1.3469
 1527SOL    HW216041   4.573   3.672  13.086  0.2838  0.3879 -0.6055
 1528SOL     OW16042   0.792   2.152   4.773 -0.3503  0.5449  0.4738
 1528SOL    HW116043   0.864   2.096   4.744 -1.2134  1.3609 -3.2013
 1528SOL    HW216044   0.721   2.121   4.716  0.5258  0.6098 -0.6597
 1529SOL     OW16045   1.464   0.122  15.327  0.0212  0.5706 -0.7221
 1529SOL    HW116046   1.397   0.160  15.382  0.4775  1.4063 -0.7437
 1529SOL    HW216047   1.545   0.163  15.359 -0.4777  0.9499  0.0416
 1530SOL     OW16048   1.316   4.601  11.870  0.1390 -0.1562 -0.1968
 1530SOL    HW116049   1.260   4.591  11.793  1.1725  1.5360 -1.1809
 1530SOL    HW216050   1.397   4.631  11.829 -0.3904 -0.3079 -1.3602
 1531SOL     OW16051   0.357   0.929   8.085 -0.4096 -0.0211 -0.3235
 1531SOL    HW116052   0.343   0.946   7.992 -0.4935  1.8606  0.0267
 1531SOL    HW216053   0.269   0.943   8.120 -0.7516 -2.3114 -0.2873
 1532SOL     OW16054   1.605   1.015   6.801  0.2865  0.0823 -0.2238
 1532SOL    HW116055   1.530   1.026   6.743 -0.9625 -1.4215  1.1059
 1532SOL    HW216056   1.594   1.092   6.857  0.3992 -0.6002  0.7360
 1533SOL     OW16057   0.150   2.083   7.100  0.2734 -0.9130  0.8089
 1533SOL    HW116058   0.111   2.171   7.100  1.7255 -0.3101 -3.9682
 1533SOL    HW216059   0.182   2.079   7.010 -0.3755  2.7799  0.3961
 1534SOL     OW16060   4.555   4.642   7.997  0.3183 -0.5652 -0.4440
 1534SOL    HW116061   4.570   4.646   7.903 -1.0402 -2.3243 -0.7469
 1534SOL    HW216062   4.638   4.682   8.022 -0.0480 -0.6295  0.8955
 1535SOL     OW16063   0.489   2.839   9.703 -0.0388 -0.2144 -0.1338
 1535SOL    HW116064   0.522   2.855   9.614  1.1743  0.8932  0.5238
 1535SOL    HW216065   0.503   2.745   9.711 -1.9342 -0.6016 -1.3229
 1536SOL     OW16066   2.549   4.719   6.023  0.1667  0.2192  0.3295
 1536SOL    HW116067   2.617   4.654   6.005 -2.1958 -2.2683  0.5014
 1536SOL    HW216068   2.527   4.686   6.110 -2.5404 -1.2625 -0.9129
 1537SOL     OW16069   1.738   3.847   4.838  0.3608 -0.1211 -0.2001
 1537SOL    HW116070   1.675   3.775   4.842  0.3525 -0.1309 -0.4823
 1537SOL    HW216071   1.764   3.840   4.746  3.2003  0.9825  0.5144
 1538SOL     OW16072   3.103   2.631   5.823  0.7046  0.5036 -0.3906
 1538SOL    HW116073   3.069   2.638   5.912 -0.8813  1.8776 -1.1166
 1538SOL    HW216074   3.072   2.717   5.795 -1.8620 -0.6858 -1.1173
 1539SOL     OW16075   0.183   1.655   7.573 -0.6343 -0.2837 -0.5977
 1539SOL    HW116076   0.224   1.718   7.632 -0.5686 -0.6672 -0.2343
 1539SOL    HW216077   0.133   1.606   7.639  1.5502 -0.8781  0.6251
 1540SOL     OW16078   2.631   2.825   6.220  0.0441 -0.0414  0.6551
 1540SOL    HW116079   2.636   2.739   6.262  1.5578 -0.2613  0.0475
 1540SOL    HW216080   2.630   2.889   6.291 -2.1028  0.2671  0.3314
 1541SOL     OW16081   3.718   3.022   4.648  0.1874 -0.4502 -0.1252
 1541SOL    HW116082   3.684   3.030   4.737  0.6410  1.0372 -0.0717
 1541SOL    HW216083   3.654   3.073   4.598 -1.0015 -1.1070  0.7330
 1542SOL     OW16084   0.778   2.804   6.624 -0.2843  0.3757 -0.7819
 1542SOL    HW116085   0.699   2.764   6.588  0.2722  0.4599 -2.1140
 1542SOL    HW216086   0.747   2.859   6.695 -1.5173 -0.0356 -1.0069
 1543SOL     OW16087   3.935   1.149   0.697  0.1141 -0.1059  0.4201
 1543SOL    HW116088   3.943   1.057   0.672 -4.0658  0.1164 -1.8534
 1543SOL    HW216089   3.975   1.198   0.625  0.6927  0.3507  1.0478
 1544SOL     OW16090   2.031   3.896   1.581 -0.2474  0.2578 -0.0081
 1544SOL    HW116091   1.942   3.913   1.549  0.5804  1.2691 -1.8038
 1544SOL    HW216092   2.081   3.924   1.504 -0.0200 -2.9508 -1.0413
 1545SOL     OW16093   2.121   2.128  13.554  0.0830 -0.6194 -0.3341
 1545SOL    HW116094   2.115   2.218  13.585  1.5484 -0.4312 -0.5900
 1545SOL    HW216095   2.200   2.125  13.500  0.1004 -2.8970 -0.2015
 1546SOL     OW16096   0.213   3.906   6.782 -0.3836  0.8133  0.0719
 1546SOL    HW116097   0.203   3.838   6.849  2.1207  0.8857  0.5165
 1546SOL    HW216098   0.180   3.982   6.830 -1.6213  0.5377 -0.3321
 1547SOL     OW16099   3.054   3.167   4.976 -0.1316  0.7100 -0.0679
 1547SOL    HW116100   3.029   3.075   4.984  0.1987  0.6081 -0.2062
 1547SOL    HW216101   2.996   3.198   5.045 -3.3861 -1.4880 -1.8530
 1548SOL     OW16102   0.844   1.968   6.756  0.5567  0.0046  0.2381
 1548SOL    HW116103   0.933   1.986   6.728  0.0110  0.2974 -1.3300
 1548SOL    HW216104   0.802   1.935   6.677 -0.4215  1.4328  0.1558
 1549SOL     OW16105   1.263   2.768   3.179 -0.0901  0.1022  0.2823
 1549SOL    HW116106   1.173   2.795   3.163  0.0339 -0.8180 -1.9708
 1549SOL    HW216107   1.261   2.673   3.181  0.1550  0.0952  0.2636
 1550SOL     OW16108   3.898   0.329   3.920  0.4298 -0.2405  1.0713
 1550SOL    HW116109   3.976   0.373   3.951  0.2558  1.4025 -0.8500
 1550SOL    HW216110   3.892   0.255   3.981  0.6934 -1.7249 -0.7060
 1551SOL     OW16111   1.914   4.165   4.569 -0.1951  0.6967 -0.1763
 1551SOL    HW116112   1.900   4.257   4.592 -0.9233  0.2787  1.0960
 1551SOL    HW216113   2.003   4.169   4.535 -0.5674 -1.2156 -1.3743
 1552SOL     OW16114   4.332   0.439   4.772  0.4499 -0.4410  0.1514
 1552SOL    HW116115   4.338   0.473   4.861  1.5113  1.6368 -0.7161
 1552SOL    HW216116   4.370   0.353   4.790 -0.8322 -1.4003 -1.7774
 1553SOL     OW16117   0.415   0.674  14.794  0.0172  1.0719 -0.5878
 1553SOL    HW116118   0.405   0.583  14.766 -1.4139  0.6425  1.2663
 1553SOL    HW216119   0.336   0.691  14.846 -0.3981 -1.5748 -0.3260
 1554SOL     OW16120   4.516   2.633   5.846  0.0074  0.0858  0.6995
 1554SOL    HW116121   4.578   2.572   5.887  0.8213  0.6220  0.2678
 1554SOL    HW216122   4.539   2.710   5.897  0.3112 -0.4662  1.3956
 1555SOL     OW16123   3.694   1.373   7.146  0.1748 -0.2106  0.0830
 1555SOL    HW116124   3.638   1.438   7.104  0.0430  1.0083  2.1110
 1555SOL    HW216125   3.730   1.427   7.217 -0.9612 -0.7457  1.0653
 1556SOL     OW16126   0.576   4.137   6.368 -0.3898 -0.1796 -0.4088
 1556SOL    HW116127   0.655   4.096   6.404 -0.5359  3.4170  4.1336
 1556SOL    HW216128   0.504   4.095   6.415 -0.7075 -1.0666 -1.6981
 1557SOL     OW16129   2.525   2.580   0.989 -0.0911  0.1983 -0.2778
 1557SOL    HW116130   2.563   2.666   1.010  1.5064 -0.4874 -0.3649
 1557SOL    HW216131   2.556   2.561   0.900  0.5235  2.2406 -0.5002
 1558SOL     OW16132   1.614   4.552   9.707 -0.1539  0.0064  0.2382
 1558SOL    HW116133   1.530   4.597   9.705  0.1668  0.5593 -0.7053
 1558SOL    HW216134   1.590   4.473   9.755  1.0400 -1.0515 -0.9007
 1559SOL     OW16135   1.891   1.018  13.189  0.0068  0.1994 -0.3281
 1559SOL    HW116136   1.867   1.036  13.098  1.4927 -3.6623 -1.5097
 1559SOL    HW216137   1.981   1.047  13.181  0.2492 -0.0589  1.4576
 1560SOL     OW16138   2.806   0.187   4.159 -0.1570 -0.5634 -0.1649
 1560SOL    HW116139   2.751   0.235   4.097 -1.0671  0.3830  1.3710
 1560SOL    HW216140   2.854   0.259   4.201  0.1801  0.1355 -1.7552
 1561SOL     OW16141   2.280   0.743   6.451 -0.2529  0.0217  0.2630
 1561SOL    HW116142   2.249   0.653   6.451 -0.1135 -0.0261  0.5169
 1561SOL    HW216143   2.236   0.780   6.528 -0.5142 -1.1889  0.6822
 1562SOL     OW16144   3.777   0.694  13.291 -0.1671 -0.2608 -0.2553
 1562SOL    HW116145   3.817   0.686  13.204 -2.1223  3.3122 -1.4956
 1562SOL    HW216146   3.774   0.604  13.323 -1.5552 -0.3603 -0.6753
 1563SOL     OW16147   2.137   3.605   6.502  0.8781  0.1129 -0.0698
 1563SOL    HW116148   2.218   3.617   6.553 -0.4500  2.9194  1.3629
 1563SOL    HW216149   2.136   3.695   6.469  2.2986  0.4761  0.8867
 1564SOL     OW16150   3.489   3.489   5.045 -0.2910 -0.6182 -0.2341
 1564SOL    HW116151   3.482   3.547   4.969 -0.2847 -1.2609 -0.7179
 1564SOL    HW216152   3.410   3.439   5.029 -1.2055  0.5854  0.4965
 1565SOL     OW16153   4.309   0.877   0.682 -0.7908  0.3466 -0.0069
 1565SOL    HW116154   4.334   0.789   0.711 -1.1344 -0.4181 -2.0259
 1565SOL    HW216155   4.380   0.898   0.620 -0.2266 -0.3375  0.4002
 1566SOL     OW16156   2.902   0.257   7.116 -0.2945 -0.2702  0.8564
 1566SOL    HW116157   2.835   0.298   7.171 -0.7107 -0.0756  0.1940
 1566SOL    HW216158   2.856   0.190   7.066  1.5815 -0.0323 -1.1414
 1567SOL     OW16159   0.647   1.042  15.772 -0.2735  0.1521  0.4371
 1567SOL    HW116160   0.597   1.076  15.846  0.7126  1.5570  0.4510
 1567SOL    HW216161   0.672   0.963  15.820  0.5147  0.4234  0.4664
 1568SOL     OW16162   0.424   0.205   8.772 -0.9039 -0.8977  0.7056
 1568SOL    HW116163   0.478   0.176   8.846  1.0417  0.8741 -0.0348
 1568SOL    HW216164   0.415   0.124   8.722 -1.6614 -0.0971 -0.4348
 1569SOL     OW16165   1.336   1.439   2.557 -0.1521  0.2020 -0.4457
 1569SOL    HW116166   1.281   1.399   2.624  1.0858 -0.9731 -0.1477
 1569SOL    HW216167   1.390   1.363   2.539  0.2514  0.5494 -0.6917
 1570SOL     OW16168   3.603   0.051  13.699  0.1453 -0.0761  0.1850
 1570SOL    HW116169   3.560   0.008  13.625 -2.6636  0.8964  1.2375
 1570SOL    HW216170   3.550   0.028  13.776  2.1047 -1.5036  1.0993
 1571SOL     OW16171   4.721   4.480   5.709  0.0520 -0.2219 -0.2357
 1571SOL    HW116172   4.632   4.449   5.692 -0.3878  0.5617  0.6249
 1571SOL    HW216173   0.028   4.432   5.785 -2.0429  0.5267  1.0592
 1572SOL     OW16174   1.571   3.590   6.730 -0.8246 -0.3077  0.4182
 1572SOL    HW116175   1.524   3.533   6.790 -1.4597 -1.1969 -0.9338
 1572SOL    HW216176   1.654   3.543   6.727  0.9202  2.6661  1.5362
 1573SOL     OW16177   1.412   0.998   7.244  0.7065 -0.4970 -0.4375
 1573SOL    HW116178   1.490   0.969   7.291 -0.2765 -1.9871  0.2509
 1573SOL    HW216179   1.435   0.955   7.162  0.8594 -0.5037 -0.3902
 1574SOL     OW16180   2.277   2.908   5.371 -0.7395  0.2353 -0.6696
 1574SOL    HW116181   2.288   3.002   5.384 -1.0702 -0.2889  3.4910
 1574SOL    HW216182   2.191   2.896   5.411 -0.1988 -0.4032  0.3150
 1575SOL     OW16183   0.610   3.238   1.477 -0.2959  0.0712 -0.2980
 1575SOL    HW116184   0.639   3.263   1.390 -1.2905  1.0632 -0.3329
 1575SOL    HW216185   0.685   3.270   1.527 -0.1977  0.5479 -0.7609
 1576SOL     OW16186   3.547   2.675   7.290 -0.2591 -0.7379 -0.2696
 1576SOL    HW116187   3.475   2.616   7.272 -2.2426  1.4302  0.5135
 1576SOL    HW216188   3.622   2.626   7.325  0.2351 -0.6081 -1.1469
 1577SOL     OW16189   4.692   2.943  14.091 -0.7826  0.0163 -0.4468
 1577SOL    HW116190   4.655   2.861  14.125 -0.7953 -0.1206 -0.7821
 1577SOL    HW216191   0.057   2.913  14.070 -0.5734  1.0058 -0.9554
 1578SOL     OW16192   0.769   0.474   5.599  0.3949  0.5542 -0.7369
 1578SOL    HW116193   0.711   0.421   5.546  0.8042  1.5333 -2.1628
 1578SOL    HW216194   0.725   0.451   5.681  0.9425 -1.6150 -1.0637
 1579SOL     OW16195   4.424   3.040   5.876 -0.3751 -0.4292  0.2781
 1579SOL    HW116196   4.345   3.078   5.837 -2.5483 -4.1808  1.1142
 1579SOL    HW216197   4.483   3.071   5.807  0.8404  0.8533  1.8810
 1580SOL     OW16198   3.908   1.812   9.604  0.1788 -0.3461 -0.2597
 1580SOL    HW116199   3.991   1.805   9.556 -0.7816  1.4297 -2.1825
 1580SOL    HW216200   3.889   1.722   9.629  0.5101 -0.1948  0.5519
 1581SOL     OW16201   2.678   2.079   7.316  0.0421 -0.2624  0.1580
 1581SOL    HW116202   2.766   2.091   7.350 -0.0115  3.2716 -1.0421
 1581SOL    HW216203   2.632   2.135   7.379 -1.1011  0.6098 -1.4548
 1582SOL     OW16204   3.684   0.925  10.963  0.0130 -0.0960 -0.0959
 1582SOL    HW116205   3.698   0.920  11.058 -0.0056  2.2114  0.0430
 1582SOL    HW216206   3.687   1.020  10.948 -0.7792  0.2287  1.7310
 1583SOL     OW16207   3.114   0.451   8.260 -0.0437 -0.3985 -0.5312
 1583SOL    HW116208   3.057   0.388   8.304  0.2243 -0.4196 -0.2116
 1583SOL    HW216209   3.054   0.526   8.255  0.7128  0.2121 -0.4052
 1584SOL     OW16210   0.572   4.357   2.668  0.1239  0.0208  0.0756
 1584SOL    HW116211   0.484   4.343   2.632  0.3144  0.9680 -0.7604
 1584SOL    HW216212   0.615   4.396   2.592 -0.4362  1.1448  0.3383
 1585SOL     OW16213   0.036   4.171   3.043  0.5623  0.4763  1.0014
 1585SOL    HW116214   0.086   4.123   2.977  2.0899 -0.3363  2.7599
 1585SOL    HW216215   0.003   4.102   3.100  1.9755 -2.0228 -1.1891
 1586SOL     OW16216   0.760   4.705   5.814  0.2745  0.0025  0.8426
 1586SOL    HW116217   0.703   0.040   5.763 -1.2473 -2.6159 -0.4917
 1586SOL    HW216218   0.803   0.046   5.871 -0.1160  1.5364 -0.5936
 1587SOL     OW16219   0.003   0.005   5.585 -0.1341  0.6997 -0.6953
 1587SOL    HW116220   0.085   0.054   5.580 -0.3027  0.9060 -1.3655
 1587SOL    HW216221   0.028   4.651   5.636  1.0468  1.1469 -0.5948
 1588SOL     OW16222   1.153   4.046   3.450  0.2752 -0.2257  0.1196
 1588SOL    HW116223   1.087   4.027   3.516  0.0958  0.3101  0.1006
 1588SOL    HW216224   1.101   4.040   3.369  2.2179  0.9177 -1.2239
 1589SOL     OW16225   1.577   0.855  14.677  0.4674  0.0107 -0.4254
 1589SOL    HW116226   1.600   0.772  14.636 -2.4253 -0.1522 -1.6860
 1589SOL    HW216227   1.653   0.874  14.732 -1.2894  0.6120  1.8239
 1590SOL     OW16228   3.659   3.507   7.939  0.0556 -0.0407 -0.5225
 1590SOL    HW116229   3.619   3.422   7.920 -1.3140  0.5314 -0.1840
 1590SOL    HW216230   3.657   3.492   8.033  2.9770  0.9694 -0.2909
 1591SOL     OW16231   2.142   3.580  12.291  0.0658 -0.1066  0.3314
 1591SOL    HW116232   2.143   3.582  12.195 -1.0563  1.1313  0.3597
 1591SOL    HW216233   2.139   3.675  12.303  2.1831  0.0110 -0.0516
 1592SOL     OW16234   0.534   2.079   2.665  0.5288 -0.3025 -0.0907
 1592SOL    HW116235   0.473   2.006   2.675 -0.1666  0.2345 -0.4157
 1592SOL    HW216236   0.511   2.099   2.574 -0.8923 -2.3141 -0.1665
 1593SOL     OW16237   2.400   0.516   9.290  0.1885  0.1281  0.1755
 1593SOL    HW116238   2.368   0.478   9.209  0.1289 -0.5815  0.5320
 1593SOL    HW216239   2.470   0.572   9.256 -0.8511  1.2012 -0.1938
 1594SOL     OW16240   2.272   4.198  12.496 -0.0416  0.3306 -0.1585
 1594SOL    HW116241   2.242   4.248  12.571  0.0577  0.4497 -0.1974
 1594SOL    HW216242   2.269   4.253  12.417  1.3873 -0.3656 -0.7159
 1595SOL     OW16243   1.409   1.356  11.500  0.4222  0.2099  0.0808
 1595SOL    HW116244   1.393   1.271  11.541  2.2825 -0.8640 -1.3839
 1595SOL    HW216245   1.449   1.394  11.578  0.0948 -1.8349  1.2494
 1596SOL     OW16246   2.628   0.658  16.081  0.3599  0.2820  0.4527
 1596SOL    HW116247   2.533   0.644  16.071  0.3238  1.2523 -0.6153
 1596SOL    HW216248   2.633   0.738  16.029 -2.1648  0.2186  0.0704
 1597SOL     OW16249   3.992   3.205   8.558 -0.2625 -0.3653  0.0181
 1597SOL    HW116250   4.078   3.179   8.589 -1.1068 -2.4821  0.6055
 1597SOL    HW216251   3.955   3.264   8.624 -0.3267  0.3616 -0.6664
 1598SOL     OW16252   1.484   3.095   6.657 -0.7240  0.3724 -0.4013
 1598SOL    HW116253   1.433   3.057   6.586  0.7685 -1.3863 -0.5314
 1598SOL    HW216254   1.527   3.171   6.618 -2.0511  1.9064  1.0991
 1599SOL     OW16255   4.285   3.343  15.520 -0.4757 -0.0437 -0.2917
 1599SOL    HW116256   4.193   3.314  15.519  0.0498 -1.7043 -0.1541
 1599SOL    HW216257   4.338   3.271  15.485 -0.6833  0.8293 -2.3878
 1600SOL     OW16258   4.057   2.775   4.166  0.0892  0.5375  0.2779
 1600SOL    HW116259   4.138   2.791   4.119  2.6347 -1.4570  4.0063
 1600SOL    HW216260   4.012   2.858   4.149  0.0407  0.3945 -0.2988
 1601SOL     OW16261   1.924   1.743   4.023 -0.5049  0.4241  0.0323
 1601SOL    HW116262   1.850   1.752   3.963 -0.8803  2.4698  0.8055
 1601SOL    HW216263   1.895   1.677   4.087 -0.9512  0.9918  0.4111
 1602SOL     OW16264   3.194   4.099   4.411  0.0040  0.2859  0.3847
 1602SOL    HW116265   3.111   4.073   4.371  0.0677  0.3070  0.2366
 1602SOL    HW216266   3.161   4.161   4.476 -0.8522 -0.4303  0.6300
 1603SOL     OW16267   2.122   3.465   1.050  0.1850  0.0106 -0.2765
 1603SOL    HW116268   2.042   3.420   1.075 -0.8474  2.1461  0.2554
 1603SOL    HW216269   2.164   3.445   1.134 -3.2540  0.3773  1.5254
 1604SOL     OW16270   1.971   4.299  10.708  0.8058  0.4953 -0.0481
 1604SOL    HW116271   2.031   4.360  10.665 -0.2467  1.6399  0.0771
 1604SOL    HW216272   2.008   4.296  10.796 -0.4811 -1.5686  0.4164
 1605SOL     OW16273   0.274   1.656  12.306  0.1002  0.0241  0.0176
 1605SOL    HW116274   0.276   1.747  12.338  0.0091  1.0603 -2.8786
 1605SOL    HW216275   0.334   1.665  12.232  0.6858  1.3161  0.6327
 1606SOL     OW16276   2.108   4.399   8.874 -0.4178 -0.3225  0.2402
 1606SOL    HW116277   2.029   4.436   8.915 -1.9359 -2.1970 -0.9917
 1606SOL    HW216278   2.099   4.305   8.888 -1.9295  0.0020  1.4694
 1607SOL     OW16279   2.881   2.857   2.117 -0.1745 -0.2071  0.3753
 1607SOL    HW116280   2.833   2.930   2.158  0.0134  0.3179 -0.3536
 1607SOL    HW216281   2.831   2.841   2.037 -0.5972  2.9914 -0.0000
 1608SOL     OW16282   0.129   1.278   7.336  0.5415 -0.0103 -0.0299
 1608SOL    HW116283   0.189   1.299   7.408 -1.2971 -0.3590  1.6315
 1608SOL    HW216284   0.182   1.246   7.264  4.1872  3.1214  1.2494
 1609SOL     OW16285   0.399   3.854   8.656 -0.3515 -0.2668  0.6687
 1609SOL    HW116286   0.426   3.888   8.571  0.6650  0.3721  1.2335
 1609SOL    HW216287   0.367   3.768   8.630 -0.8250  0.4590 -1.1649
 1610SOL     OW16288   1.127   2.312   5.743 -0.0472  0.0128  0.5611
 1610SOL    HW116289   1.203   2.347   5.789  1.1150  0.5311 -1.7433
 1610SOL    HW216290   1.147   2.350   5.657 -1.2492  0.7566  0.6158
 1611SOL     OW16291   0.045   2.262   8.206 -0.3700  0.5451 -0.2093
 1611SOL    HW116292   0.014   2.215   8.129 -1.3766  0.3801  0.2913
 1611SOL    HW216293   0.110   2.201   8.241  0.4433  0.7580 -1.3703
 1612SOL     OW16294   1.761   0.958   4.793 -0.9233  0.4611  0.1793
 1612SOL    HW116295   1.767   1.039   4.842  0.8197 -0.2217  1.0772
 1612SOL    HW216296   1.791   0.978   4.704  0.9233  2.8672  1.3681
 1613SOL     OW16297   3.875   4.385  14.499 -0.4981  0.1872  0.3645
 1613SOL    HW116298   3.943   4.398  14.432  1.0432  0.3361  1.9620
 1613SOL    HW216299   3.897   4.298  14.534  1.6462  0.7654  0.4823
 1614SOL     OW16300   3.163   0.055   5.799  0.0055 -0.3157 -0.3506
 1614SOL    HW116301   3.222   0.106   5.744 -1.1595  1.4246  0.0150
 1614SOL    HW216302   3.085   0.109   5.792 -0.5334 -1.1721 -1.0255
 1615SOL     OW16303   1.785   4.542   7.598 -0.2073 -0.7763 -0.0069
 1615SOL    HW116304   1.825   4.461   7.629  1.0165 -0.0148  0.3949
 1615SOL    HW216305   1.748   4.572   7.681 -0.1053  0.8423 -0.5482
 1616SOL     OW16306   2.952   1.701  11.102  0.0488 -0.2677 -0.3577
 1616SOL    HW116307   2.967   1.684  11.195 -3.4872 -0.4580  0.1741
 1616SOL    HW216308   3.031   1.663  11.064 -0.1828  0.0058 -1.1158
 1617SOL     OW16309   0.655   4.557  17.528 -0.5514 -0.1338  0.3840
 1617SOL    HW116310   0.737   4.520  17.494 -0.3386  1.5709 -0.9723
 1617SOL    HW216311   0.688   4.590  17.611 -1.3372  0.2940  0.5244
 1618SOL     OW16312   4.682   2.826   5.719 -0.6683  0.1069 -0.1557
 1618SOL    HW116313   4.587   2.810   5.725 -0.7407 -0.2009 -2.0168
 1618SOL    HW216314   4.715   2.762   5.657 -0.6066  0.2010 -0.2188
 1619SOL     OW16315   4.713   3.055   7.934 -0.3768  0.7339 -0.3190
 1619SOL    HW116316   4.667   3.024   8.012  0.0712  0.3837 -0.1890
 1619SOL    HW216317   4.713   3.151   7.942 -0.8429  0.4314  3.4500
 1620SOL     OW16318   1.126   2.962   2.751 -0.4251  0.3717  0.2112
 1620SOL    HW116319   1.139   2.871   2.727  2.5391  1.1279 -1.0249
 1620SOL    HW216320   1.201   3.000   2.705 -0.2605 -2.0267 -1.4781
 1621SOL     OW16321   3.046   2.198  11.997 -0.1607  0.2244 -0.3210
 1621SOL    HW116322   3.067   2.105  12.008 -2.6692 -0.0656  2.0086
 1621SOL    HW216323   3.027   2.204  11.903 -2.8289  1.1517  0.2800
 1622SOL     OW16324   3.695   0.841  10.138 -0.6010  0.1115 -0.0950
 1622SOL    HW116325   3.727   0.754  10.113 -1.1826 -0.6757  1.9134
 1622SOL    HW216326   3.759   0.895  10.093  0.7096 -1.5970 -0.3060
 1623SOL     OW16327   4.517   4.604  10.322  0.5300 -0.0414 -0.4815
 1623SOL    HW116328   4.473   4.525  10.291  1.7195 -0.6429 -0.6632
 1623SOL    HW216329   4.565   4.574  10.400  0.0787  0.4247 -0.0316
 1624SOL     OW16330   1.440   3.086   7.891 -0.6444  0.1273 -0.3823
 1624SOL    HW116331   1.378   3.086   7.963  0.6398  2.2935  0.7326
 1624SOL    HW216332   1.401   3.148   7.829 -0.2499  0.4466 -0.3145
 1625SOL     OW16333   1.534   1.097  16.881 -0.6643 -0.3580  0.0543
 1625SOL    HW116334   1.492   1.143  16.953  0.6303  0.8180  0.0480
 1625SOL    HW216335   1.471   1.026  16.872 -0.5885 -0.5735  1.2467
 1626SOL     OW16336   4.305   3.857   8.414  0.3242 -0.2117 -0.0859
 1626SOL    HW116337   4.325   3.776   8.460  1.9732 -1.2364 -2.6531
 1626SOL    HW216338   4.247   3.836   8.341 -2.5104 -1.2114  2.4371
 1627SOL     OW16339   1.471   1.039   7.747 -0.3166  0.2335  0.0266
 1627SOL    HW116340   1.526   1.117   7.745 -1.3151  0.9711  1.4484
 1627SOL    HW216341   1.445   1.020   7.656  0.2520 -0.2125 -0.0421
 1628SOL     OW16342   4.431   0.980   0.939 -0.3049  0.0276 -0.5599
 1628SOL    HW116343   4.441   0.950   0.849  0.3386  0.3390 -0.5982
 1628SOL    HW216344   4.350   1.025   0.916 -0.7496  0.2637  1.4578
 1629SOL     OW16345   3.938   4.236   3.870  0.7064  0.3916 -0.1985
 1629SOL    HW116346   3.935   4.148   3.908 -0.7131 -0.0131 -1.2449
 1629SOL    HW216347   3.916   4.221   3.778 -0.1533  1.1179 -0.1117
 1630SOL     OW16348   4.668   0.951   7.643 -0.8943  0.7581  0.2216
 1630SOL    HW116349   4.671   1.043   7.614 -1.2322  0.7843  0.2697
 1630SOL    HW216350   4.583   0.932   7.682 -0.6537 -0.3073  0.2032
 1631SOL     OW16351   1.072   3.839  10.849 -0.2797  0.0383  0.5941
 1631SOL    HW116352   1.025   3.810  10.771 -2.2883  0.9155  1.4917
 1631SOL    HW216353   1.152   3.787  10.856 -1.5728 -2.2104 -1.1529
 1632SOL     OW16354   3.352   2.554   9.682  0.0394 -0.5691 -0.3217
 1632SOL    HW116355   3.278   2.615   9.686 -0.5446 -1.2289 -1.1518
 1632SOL    HW216356   3.417   2.605   9.730 -0.7842 -0.1379  0.3599
 1633SOL     OW16357   0.774   3.530   2.280  0.1057  0.3864 -0.0539
 1633SOL    HW116358   0.778   3.472   2.356  0.2844 -0.1488 -0.4698
 1633SOL    HW216359   0.720   3.478   2.220 -1.2525  1.0173  0.6117
 1634SOL     OW16360   0.158   3.886   3.697  0.1585  0.2201  0.0721
 1634SOL    HW116361   0.067   3.913   3.704  1.0605  2.8048  1.8611
 1634SOL    HW216362   0.172   3.915   3.607 -0.1925  2.5989  0.7843
 1635SOL     OW16363   0.435   1.589   6.213  0.0512 -0.0238 -0.1569
 1635SOL    HW116364   0.477   1.617   6.294 -2.1403 -0.6641  1.1955
 1635SOL    HW216365   0.406   1.499   6.232  1.7428 -0.4723  0.2876
 1636SOL     OW16366   1.225   2.120   2.548 -0.2859 -0.4813 -0.6238
 1636SOL    HW116367   1.302   2.165   2.580 -1.4818  0.8465  0.3582
 1636SOL    HW216368   1.203   2.058   2.618 -0.1859  0.4009  0.1764
 1637SOL     OW16369   2.874   3.381   9.733 -0.9103 -0.7885 -0.3581
 1637SOL    HW116370   2.948   3.367   9.674 -0.1157 -0.9678  0.6702
 1637SOL    HW216371   2.819   3.422   9.666 -1.4040 -1.8656 -0.6163
 1638SOL     OW16372   2.958   2.690   4.755 -0.1924  0.0955  0.1864
 1638SOL    HW116373   2.931   2.758   4.816  0.3263  0.9942 -0.5927
 1638SOL    HW216374   2.977   2.630   4.827 -1.4214 -0.0364  0.4050
 1639SOL     OW16375   1.107   3.658   8.816 -0.1611 -0.6271 -0.1751
 1639SOL    HW116376   1.180   3.626   8.762  0.4748  1.0926 -0.3387
 1639SOL    HW216377   1.149   3.648   8.902 -0.3526 -0.2072 -0.0362
 1640SOL     OW16378   1.095   1.418   7.385  0.0667  0.2542 -0.9053
 1640SOL    HW116379   1.134   1.376   7.461  1.1275  0.8812 -1.1082
 1640SOL    HW216380   1.171   1.416   7.327  0.3768 -3.0158 -0.3671
 1641SOL     OW16381   1.310   4.611  12.388 -0.4063  0.0399 -0.0575
 1641SOL    HW116382   1.313   4.707  12.392 -0.5064 -0.0126  1.1546
 1641SOL    HW216383   1.368   4.592  12.314 -0.4520  2.7935 -0.8132
 1642SOL     OW16384   4.310   2.138   3.550  0.4758  0.4569 -0.5962
 1642SOL    HW116385   4.253   2.170   3.620  1.1920  0.2318  0.0763
 1642SOL    HW216386   4.256   2.084   3.492 -0.2532  0.1906  0.3303
 1643SOL     OW16387   3.379   2.944   8.933 -0.3952  0.1352 -0.1003
 1643SOL    HW116388   3.456   2.985   8.892 -0.4113  0.8326  0.5770
 1643SOL    HW216389   3.398   2.952   9.026  2.2883 -0.0841 -0.6206
 1644SOL     OW16390   2.359   1.260   6.587  0.1833  0.0478 -0.3372
 1644SOL    HW116391   2.433   1.308   6.549 -2.8854  4.4120 -0.7957
 1644SOL    HW216392   2.397   1.206   6.657  2.5305 -0.2869 -1.8542
 1645SOL     OW16393   4.644   0.531   8.046 -0.5869 -0.0597  0.4394
 1645SOL    HW116394   4.710   0.600   8.047  0.7303 -1.2879 -0.4675
 1645SOL    HW216395   4.568   0.586   8.063 -1.4898 -0.9478 -0.7458
 1646SOL     OW16396   0.694   1.102   5.332 -0.3030 -0.1275 -0.0140
 1646SOL    HW116397   0.711   1.087   5.239  1.7570  0.7939  0.2073
 1646SOL    HW216398   0.782   1.117   5.366  0.2351  0.2482 -1.6238
 1647SOL     OW16399   1.188   1.078   7.739 -0.0668  0.0701  0.1092
 1647SOL    HW116400   1.203   1.072   7.645 -0.1453 -1.0767  0.1659
 1647SOL    HW216401   1.275   1.050   7.767 -0.0992 -1.8523 -1.6513
 1648SOL     OW16402   2.682   1.382   7.157 -0.5131  0.4184  0.0217
 1648SOL    HW116403   2.604   1.350   7.203  1.1816 -0.3978  2.3236
 1648SOL    HW216404   2.649   1.448   7.096 -0.4047 -1.9803 -2.6299
 1649SOL     OW16405   4.293   4.561   4.772 -0.6818 -0.0880  0.1471
 1649SOL    HW116406   4.257   4.555   4.683 -0.4991  0.4793  0.0333
 1649SOL    HW216407   4.388   4.556   4.762 -0.6960  0.4641 -0.2722
 1650SOL     OW16408   1.840   0.803  13.349 -0.5577  0.2296  0.3408
 1650SOL    HW116409   1.756   0.844  13.369 -0.3482  0.2916  1.0935
 1650SOL    HW216410   1.878   0.879  13.305  2.1316 -1.2843  0.0213
 1651SOL     OW16411   3.083   3.994   8.486  0.3957 -0.0960  0.2110
 1651SOL    HW116412   3.122   4.051   8.552  2.3763 -0.2183 -0.8534
 1651SOL    HW216413   3.160   3.949   8.451  0.2975 -1.0877  1.2910
 1652SOL     OW16414   3.878   1.240   8.982  0.2577 -0.4697 -0.1483
 1652SOL    HW116415   3.925   1.323   8.989  0.3933 -0.5170 -0.5014
 1652SOL    HW216416   3.937   1.182   9.030  1.9560  0.3532 -1.2425
 1653SOL     OW16417   2.389   0.205   4.697 -0.0511 -0.3956  0.5057
 1653SOL    HW116418   2.468   0.253   4.722  0.4273 -1.2821  0.7078
 1653SOL    HW216419   2.325   0.276   4.693 -1.4773 -1.6695  0.3668
 1654SOL     OW16420   4.510   4.108   4.045  0.2630 -0.2032  0.3311
 1654SOL    HW116421   4.449   4.036   4.063 -0.9211  0.7520  0.1228
 1654SOL    HW216422   4.468   4.142   3.966 -0.9943 -1.0569  0.6351
 1655SOL     OW16423   1.286   2.688   4.098  0.4309 -0.3675  0.1206
 1655SOL    HW116424   1.314   2.699   4.007 -2.1887  0.6636 -0.5894
 1655SOL    HW216425   1.214   2.626   4.086 -0.8945  1.0056  0.9332
 1656SOL     OW16426   1.811   0.859   2.864  0.1385 -0.7357 -0.0836
 1656SOL    HW116427   1.806   0.942   2.815  2.1687  1.0754  2.8044
 1656SOL    HW216428   1.836   0.891   2.951  0.9850 -0.1261 -0.5513
 1657SOL     OW16429   3.482   4.720  13.940  0.6314  0.0609 -0.5605
 1657SOL    HW116430   3.403   0.031  13.898 -0.1543 -0.9447  0.0993
 1657SOL    HW216431   3.495   0.042  14.023  2.4307 -0.8806 -0.3254
 1658SOL     OW16432   3.218   1.830   0.103  0.1640  0.3482  0.5105
 1658SOL    HW116433   3.312   1.815   0.108  0.4209  1.3497 -1.3656
 1658SOL    HW216434   3.194   1.778   0.026 -2.3400  1.7601  0.3566
 1659SOL     OW16435   3.317   1.508   8.151  0.1657 -0.8066  0.3986
 1659SOL    HW116436   3.407   1.485   8.127  0.3899 -1.6786  2.0424
 1659SOL    HW216437   3.291   1.454   8.226 -1.7675  2.3864  2.0223
 1660SOL     OW16438   2.722   2.076   3.233  0.1721  0.6424 -0.2290
 1660SOL    HW116439   2.757   2.153   3.188  0.4947  1.5209  1.5487
 1660SOL    HW216440   2.793   2.055   3.294 -0.5144  0.6140  0.5530
 1661SOL     OW16441   0.842   3.953   2.453  0.1457 -0.5132  0.4607
 1661SOL    HW116442   0.755   3.924   2.479 -0.4206 -0.5053 -1.4081
 1661SOL    HW216443   0.834   3.936   2.359 -0.6063  1.1639  0.2167
 1662SOL     OW16444   2.291   2.397   7.158  0.6289 -0.5706 -0.1347
 1662SOL    HW116445   2.310   2.358   7.073  0.0030  0.0767 -0.5750
 1662SOL    HW216446   2.195   2.395   7.162  0.6954  0.8220  1.9423
 1663SOL     OW16447   2.234   3.408   4.279  0.0633 -0.1925  0.5266
 1663SOL    HW116448   2.301   3.456   4.230 -2.3953  0.9100 -1.7636
 1663SOL    HW216449   2.167   3.476   4.285  0.2105 -0.0352  0.3657
 1664SOL     OW16450   0.728   3.163   8.892 -0.2883  0.0060  0.4585
 1664SOL    HW116451   0.792   3.226   8.926  1.1549 -0.4317 -1.4292
 1664SOL    HW216452   0.729   3.086   8.950  0.2233 -0.7966 -0.6012
 1665SOL     OW16453   3.749   1.416  16.034  0.2839  0.5629 -0.2869
 1665SOL    HW116454   3.782   1.485  15.976 -0.6307  1.9370  0.8319
 1665SOL    HW216455   3.656   1.436  16.042 -0.1455 -1.9939  1.2274
 1666SOL     OW16456   2.299   3.425  16.657  0.1288 -0.0513  0.4044
 1666SOL    HW116457   2.243   3.497  16.687  0.6305  1.0830 -1.3309
 1666SOL    HW216458   2.366   3.434  16.725  0.5586 -0.0079 -0.0203
 1667SOL     OW16459   0.278   1.632   3.090 -0.0354 -0.5049  0.1463
 1667SOL    HW116460   0.368   1.637   3.057 -0.6582  1.3327 -1.3035
 1667SOL    HW216461   0.276   1.542   3.123 -0.5169  0.0131  1.5324
 1668SOL     OW16462   0.917   3.834  16.132  0.2804  0.3152  0.1052
 1668SOL    HW116463   0.884   3.910  16.084  0.2005 -0.3246 -0.8518
 1668SOL    HW216464   0.904   3.866  16.222  1.4683  1.2141 -0.0329
 1669SOL     OW16465   3.076   1.818   0.334  0.1078  0.0834  0.1791
 1669SOL    HW116466   3.119   1.837   0.250 -0.3041 -1.0246 -0.2778
 1669SOL    HW216467   3.083   1.723   0.343  1.6812  0.1059 -0.7936
 1670SOL     OW16468   3.313   1.237   1.920 -0.4444  0.1528 -0.0701
 1670SOL    HW116469   3.382   1.300   1.942  0.7619 -0.8733 -0.9791
 1670SOL    HW216470   3.364   1.159   1.900 -0.8831  0.1556 -1.1789
 1671SOL     OW16471   3.288   3.305  11.193 -0.5202 -0.5107 -0.1143
 1671SOL    HW116472   3.332   3.295  11.109 -0.0362  2.1089 -0.1662
 1671SOL    HW216473   3.362   3.320  11.253  0.4429  0.6572 -1.6243
 1672SOL     OW16474   2.329   1.614   4.135  0.0289 -0.1610 -0.7648
 1672SOL    HW116475   2.358   1.702   4.158  1.8768 -0.3461 -2.3896
 1672SOL    HW216476   2.378   1.553   4.189  1.7975  0.0148 -2.1608
 1673SOL     OW16477   2.764   1.470  16.108  0.3294 -0.0676 -0.2336
 1673SOL    HW116478   2.816   1.500  16.034 -0.9447  1.2240 -0.6088
 1673SOL    HW216479   2.815   1.507  16.179 -1.5434  0.2322  0.9634
 1674SOL     OW16480   3.765   4.164   8.780 -0.5866 -0.2829 -0.0822
 1674SOL    HW116481   3.739   4.234   8.839  0.9666 -1.3569  1.8569
 1674SOL    HW216482   3.732   4.088   8.828 -0.7170 -1.2212 -1.6475
 1675SOL     OW16483   3.088   4.107  17.611  0.6109  0.2185 -0.0561
 1675SOL    HW116484   3.007   4.149  17.639  1.3431  1.8874 -0.4817
 1675SOL    HW216485   3.063   4.017  17.634  0.0065  0.5987  0.7790
 1676SOL     OW16486   3.696   2.462   0.560  0.0592  0.1892  0.3865
 1676SOL    HW116487   3.652   2.403   0.621 -0.7246  0.7460  0.3514
 1676SOL    HW216488   3.643   2.445   0.483  0.0219 -0.5629  0.5708
 1677SOL     OW16489   1.922   1.238  12.897  0.4352 -0.2126  0.1122
 1677SOL    HW116490   1.866   1.179  12.847  0.9784 -0.7694  0.1702
 1677SOL    HW216491   2.005   1.246  12.850 -0.9737  0.5588 -2.2646
 1678SOL     OW16492   0.562   4.000  13.298 -0.2044  0.1212 -0.2112
 1678SOL    HW116493   0.576   3.906  13.287 -0.4647 -0.0528  0.9861
 1678SOL    HW216494   0.520   4.022  13.215 -1.6102  0.1541  0.5253
 1679SOL     OW16495   3.866   1.307   4.378  0.3452  0.8900 -0.1611
 1679SOL    HW116496   3.943   1.276   4.426 -1.2012 -2.3317  0.2667
 1679SOL    HW216497   3.798   1.264   4.431 -0.2843  2.5325  0.3546
 1680SOL     OW16498   1.884   0.876   5.615 -0.1153 -0.3617 -0.4219
 1680SOL    HW116499   1.944   0.888   5.688 -0.3854 -1.7994  0.0228
 1680SOL    HW216500   1.796   0.864   5.651  0.6009 -1.3509  0.9765
 1681SOL     OW16501   0.707   4.357   3.979 -0.6480 -0.6585  0.2778
 1681SOL    HW116502   0.684   4.377   4.070 -0.4765  0.8812 -0.0102
 1681SOL    HW216503   0.799   4.334   3.989 -0.4384  0.6210  1.3349
 1682SOL     OW16504   2.016   2.721   5.907  0.5112 -0.2384 -0.0943
 1682SOL    HW116505   2.095   2.690   5.951 -0.0717 -1.5990 -0.0070
 1682SOL    HW216506   2.027   2.815   5.921 -1.0375 -0.6325  3.5880
 1683SOL     OW16507   1.654   0.929   8.039  0.4168 -0.2311  0.0424
 1683SOL    HW116508   1.730   0.961   8.087  0.6644  1.1486 -1.2523
 1683SOL    HW216509   1.614   0.905   8.122  0.0762 -4.2715 -1.3180
 1684SOL     OW16510   2.837   4.658  13.203 -0.4466  0.1533  0.0464
 1684SOL    HW116511   2.925   4.680  13.235 -0.7995  2.0472 -0.3232
 1684SOL    HW216512   2.851   4.589  13.138 -0.8050  1.4711 -1.4132
 1685SOL     OW16513   4.577   3.747   9.307 -0.0311  0.5842 -0.3561
 1685SOL    HW116514   4.560   3.834   9.344 -5.0507 -1.5379  2.2832
 1685SOL    HW216515   4.490   3.710   9.320  1.8206 -2.5514  3.2079
 1686SOL     OW16516   1.554   3.449   8.118 -0.1543 -0.2129  0.5386
 1686SOL    HW116517   1.504   3.509   8.174 -0.1010  0.3755 -0.0428
 1686SOL    HW216518   1.492   3.406   8.059 -0.6482  1.1956  0.0417
 1687SOL     OW16519   1.245   0.580   5.215  0.1057  0.2975 -0.5168
 1687SOL    HW116520   1.274   0.572   5.124 -2.5031 -2.6776 -1.0740
 1687SOL    HW216521   1.274   0.670   5.232 -1.9437  0.5641  1.5689
 1688SOL     OW16522   2.790   1.272   4.753 -0.3789 -0.4349 -0.0209
 1688SOL    HW116523   2.878   1.302   4.729 -0.1249 -1.5719 -0.5173
 1688SOL    HW216524   2.783   1.201   4.689 -3.1556  0.4029 -0.6539
 1689SOL     OW16525   3.212   1.497   7.904 -0.3686  0.4280  0.3883
 1689SOL    HW116526   3.216   1.402   7.891  0.0575  0.2143  2.1066
 1689SOL    HW216527   3.228   1.497   7.999  0.3328  2.4280  0.2795
 1690SOL     OW16528   2.205   4.522  16.054  0.1138 -1.0004 -0.4592
 1690SOL    HW116529   2.251   4.549  16.134  0.6686 -0.8803 -0.8262
 1690SOL    HW216530   2.159   4.446  16.090 -2.1197  1.5856  2.2557
 1691SOL     OW16531   3.737   4.540  15.009  0.4773 -0.1167 -0.1827
 1691SOL    HW116532   3.707   4.630  14.995 -0.5944 -0.1355  1.8665
 1691SOL    HW216533   3.682   4.499  14.943 -1.8854  0.3424  1.5093
 1692SOL     OW16534   4.193   3.701   1.294  0.5022 -0.8621  0.1700
 1692SOL    HW116535   4.264   3.758   1.322 -0.2164  0.1835 -0.1389
 1692SOL    HW216536   4.235   3.667   1.215  0.3424 -1.5517  0.3752
 1693SOL     OW16537   2.600   3.079  16.022 -0.3678 -0.0612  0.1169
 1693SOL    HW116538   2.584   2.999  16.072 -0.1620  1.1725  2.1662
 1693SOL    HW216539   2.564   3.066  15.934  0.5734 -2.9368  0.1832
 1694SOL     OW16540   4.126   1.967   3.867 -0.5616  0.5437 -0.1382
 1694SOL    HW116541   4.106   2.033   3.800 -0.3278  0.9021  0.1460
 1694SOL    HW216542   4.041   1.937   3.899 -0.1151  0.2223  0.7525
 1695SOL     OW16543   3.997   3.578   2.789 -0.3357  0.0856 -0.1144
 1695SOL    HW116544   3.909   3.591   2.825 -1.4852 -0.3564 -2.7235
 1695SOL    HW216545   3.980   3.516   2.717 -0.4399  0.6801 -0.5985
 1696SOL     OW16546   0.293   0.880  17.131 -0.3124  0.1562  0.0475
 1696SOL    HW116547   0.322   0.797  17.169 -1.2250 -0.6501 -1.0092
 1696SOL    HW216548   0.346   0.944  17.179 -0.3541  0.0060  0.2957
 1697SOL     OW16549   3.432   1.281   1.555  0.0729  0.0008 -0.2185
 1697SOL    HW116550   3.467   1.357   1.601  1.7006 -0.7827 -0.1544
 1697SOL    HW216551   3.467   1.209   1.607 -1.3137 -0.2460  0.3557
 1698SOL     OW16552   0.360   4.621  11.912  0.4401  0.5616 -0.4987
 1698SOL    HW116553   0.349   4.599  11.819  2.3077 -1.2089 -0.2956
 1698SOL    HW216554   0.442   4.581  11.941  0.0450  0.5842  0.6332
 1699SOL     OW16555   4.032   2.513  13.960  0.0408  0.6049 -0.7826
 1699SOL    HW116556   3.974   2.525  13.885 -1.6923 -0.2518  0.4078
 1699SOL    HW216557   3.987   2.560  14.029 -2.3514  0.1235 -2.0226
 1700SOL     OW16558   3.632   1.859  15.394 -0.9923 -0.0823 -0.4844
 1700SOL    HW116559   3.719   1.897  15.403 -1.6519  1.3799 -0.2992
 1700SOL    HW216560   3.582   1.940  15.397 -1.3510 -0.3380  0.6885
 1701SOL     OW16561   1.478   3.385   6.239 -0.5607 -0.1643 -0.3851
 1701SOL    HW116562   1.413   3.351   6.301 -1.0972  0.4747 -0.5989
 1701SOL    HW216563   1.471   3.331   6.161  1.5526  1.0915 -1.4322
 1702SOL     OW16564   4.031   3.111   6.649 -0.2330 -0.0206 -0.0787
 1702SOL    HW116565   4.004   3.184   6.592 -1.5533  0.9735  1.8098
 1702SOL    HW216566   4.123   3.103   6.625 -0.1122 -2.0643  1.0640
 1703SOL     OW16567   2.701   2.721   8.967  0.1307 -0.2396 -0.2085
 1703SOL    HW116568   2.650   2.745   9.044 -0.7800 -2.2143 -0.2156
 1703SOL    HW216569   2.660   2.766   8.893 -1.7936  0.5094  1.2970
 1704SOL     OW16570   0.706   0.840   4.318 -0.4141  0.2397  0.3032
 1704SOL    HW116571   0.680   0.855   4.228 -0.0714  0.2295  0.2023
 1704SOL    HW216572   0.775   0.906   4.321  0.7811 -0.8649 -2.6354
 1705SOL     OW16573   4.598   4.641   2.767 -0.1628  0.8006 -0.5328
 1705SOL    HW116574   4.511   4.633   2.808  0.3160 -0.0549  0.3029
 1705SOL    HW216575   4.611   4.558   2.722  1.1528 -0.4458  2.2055
 1706SOL     OW16576   2.001   4.508   2.513  0.0149  0.4610 -0.4633
 1706SOL    HW116577   2.084   4.522   2.468 -0.6768  0.3463 -1.7860
 1706SOL    HW216578   1.966   4.436   2.460 -0.1794 -1.0017  1.6533
 1707SOL     OW16579   0.413   4.239   8.397  0.6552  0.0221  0.3012
 1707SOL    HW116580   0.489   4.228   8.340  0.6066 -0.7539  0.3761
 1707SOL    HW216581   0.457   4.247   8.482  0.5202  0.1436  0.3588
 1708SOL     OW16582   4.006   3.109   7.192 -0.6157  0.2195  0.0219
 1708SOL    HW116583   4.009   3.075   7.103 -0.3753  1.9556 -0.6409
 1708SOL    HW216584   4.093   3.150   7.193 -0.6535  0.2317  1.9522
 1709SOL     OW16585   4.201   1.811   6.872 -0.0208 -0.5982  0.0794
 1709SOL    HW116586   4.293   1.838   6.873  0.1901 -1.3227  0.2204
 1709SOL    HW216587   4.202   1.752   6.797  0.2143 -2.0380  1.2240
 1710SOL     OW16588   4.173   4.616   8.800  0.0144  0.1384  0.1432
 1710SOL    HW116589   4.222   4.641   8.722 -0.7931  1.3583  0.0343
 1710SOL    HW216590   4.121   4.694   8.819  1.6141  0.9362  1.2676
 1711SOL     OW16591   4.580   1.602   9.001  0.2242  0.2465  0.0778
 1711SOL    HW116592   4.585   1.665   8.930  1.2252 -0.3960 -0.4257
 1711SOL    HW216593   4.673   1.584   9.018  0.4055 -0.8654 -2.0674
 1712SOL     OW16594   0.972   2.339  11.322  0.9768  0.3956 -0.1341
 1712SOL    HW116595   1.037   2.388  11.272 -0.5601  1.1771 -1.3488
 1712SOL    HW216596   0.923   2.409  11.366  2.1517 -0.0136  1.8320
 1713SOL     OW16597   0.457   3.789   6.420 -0.4858  0.2307  0.1162
 1713SOL    HW116598   0.541   3.758   6.386 -0.3904  0.1498  0.4313
 1713SOL    HW216599   0.475   3.882   6.432 -1.3555  0.6388 -1.7390
 1714SOL     OW16600   0.193   1.761   1.423 -0.3508 -0.7615  0.8566
 1714SOL    HW116601   0.182   1.789   1.332 -3.0468  0.1733  1.4644
 1714SOL    HW216602   0.102   1.747   1.449 -0.6231  0.8183  0.7846
 1715SOL     OW16603   0.110   0.158   3.654 -0.4353  0.3635  0.8318
 1715SOL    HW116604   0.085   0.210   3.578 -0.2330 -0.9488 -0.1324
 1715SOL    HW216605   0.155   0.086   3.610 -0.3212 -0.5411  2.3999
 1716SOL     OW16606   1.557   2.058   4.015  0.2511  0.3152 -0.1677
 1716SOL    HW116607   1.529   1.990   3.953 -0.0934  0.3740 -0.0775
 1716SOL    HW216608   1.577   2.132   3.958  1.9413  0.6185  0.8391
 1717SOL     OW16609   0.928   4.704   0.665 -0.1596 -0.0747  0.0459
 1717SOL    HW116610   0.914   4.618   0.626  3.4512 -0.4040 -0.4722
 1717SOL    HW216611   1.009   4.701   0.715  0.1101  0.0068 -0.3869
 1718SOL     OW16612   0.465   0.494   3.245  0.6314  0.2450  0.2279
 1718SOL    HW116613   0.434   0.565   3.187  2.5927  0.6561 -0.3133
 1718SOL    HW216614   0.514   0.441   3.183 -0.4701 -0.0872 -0.3680
 1719SOL     OW16615   2.588   2.611   2.584  0.4062 -0.8168  0.3108
 1719SOL    HW116616   2.602   2.520   2.609 -0.3942 -0.3036  2.5363
 1719SOL    HW216617   2.522   2.582   2.521  0.1833 -0.1678  0.2429
 1720SOL     OW16618   0.273   1.943  16.163 -0.3014  0.1560  0.1189
 1720SOL    HW116619   0.344   1.945  16.099  0.3173  1.1558  0.8425
 1720SOL    HW216620   0.224   1.876  16.116 -0.3368  0.1075  0.2249
 1721SOL     OW16621   3.108   3.718   2.413 -0.2070 -0.3525 -0.5639
 1721SOL    HW116622   3.110   3.664   2.334 -0.0042  1.1310 -1.5568
 1721SOL    HW216623   3.122   3.809   2.390  0.1591 -0.9316 -2.6144
 1722SOL     OW16624   3.090   2.777  12.143 -0.4910 -0.1886 -0.3411
 1722SOL    HW116625   3.182   2.750  12.146 -0.5382 -0.1476  1.5011
 1722SOL    HW216626   3.090   2.849  12.206 -0.6301 -0.8191  0.3883
 1723SOL     OW16627   0.753   4.247   4.922  0.2232  0.8854 -0.4101
 1723SOL    HW116628   0.674   4.259   4.974 -0.5746 -0.7601 -1.2381
 1723SOL    HW216629   0.726   4.166   4.877 -0.2262  0.0794  1.3293
 1724SOL     OW16630   1.614   1.229   8.678 -0.2238 -0.2355 -0.2428
 1724SOL    HW116631   1.548   1.160   8.688 -0.6363  0.7812  3.6055
 1724SOL    HW216632   1.618   1.257   8.769 -4.1383 -0.7697  0.1153
 1725SOL     OW16633   4.275   0.700   1.760  0.0271 -0.3392 -0.1119
 1725SOL    HW116634   4.217   0.689   1.836  1.1360  0.1066  0.7841
 1725SOL    HW216635   4.265   0.792   1.739  2.4331 -0.1760 -0.4972
 1726SOL     OW16636   3.469   0.786   7.242 -0.2076  0.1995 -0.3767
 1726SOL    HW116637   3.435   0.747   7.323  1.3523  0.9609  0.6279
 1726SOL    HW216638   3.463   0.880   7.260  0.0040 -0.1646  1.5849
 1727SOL     OW16639   4.040   1.233   7.940  0.1227 -0.4952 -0.2222
 1727SOL    HW116640   4.023   1.305   8.001  1.9885  0.0663 -0.3373
 1727SOL    HW216641   3.988   1.159   7.971 -0.1136 -0.2624 -0.0637
 1728SOL     OW16642   3.352   2.235   8.651 -0.2306 -0.2240 -0.2906
 1728SOL    HW116643   3.288   2.278   8.707 -0.6646 -0.9661 -0.2185
 1728SOL    HW216644   3.394   2.175   8.712 -0.3992  2.0097  2.0009
 1729SOL     OW16645   1.876   1.604   6.511  0.2233 -0.3093 -0.2521
 1729SOL    HW116646   1.844   1.546   6.441  0.3543  0.2224 -0.7450
 1729SOL    HW216647   1.793   1.632   6.551 -0.0206  0.9942 -1.6833
 1730SOL     OW16648   1.878   3.878   3.857  0.3722  0.0861  0.4547
 1730SOL    HW116649   1.841   3.871   3.768 -1.7937  1.7743  1.2194
 1730SOL    HW216650   1.802   3.866   3.914 -0.2331  1.6275 -0.0174
 1731SOL     OW16651   3.452   0.456   1.896 -0.9937 -0.2432  0.0312
 1731SOL    HW116652   3.547   0.456   1.888 -0.8936 -1.2475  1.1402
 1731SOL    HW216653   3.430   0.462   1.803 -1.2523 -2.3661 -0.0524
 1732SOL     OW16654   0.576   3.079  12.510 -0.1708  0.0293 -0.0065
 1732SOL    HW116655   0.658   3.113  12.545 -0.8597  0.3299  1.3053
 1732SOL    HW216656   0.565   3.131  12.430 -3.3695 -1.1568 -0.3226
 1733SOL     OW16657   1.292   0.818   4.757  0.5847  0.3889  0.4599
 1733SOL    HW116658   1.372   0.800   4.708 -0.3098  1.6121 -1.4377
 1733SOL    HW216659   1.330   0.879   4.821 -0.0697  1.2400  0.0412
 1734SOL     OW16660   0.253   4.460   7.051  0.0291  0.0100  0.2215
 1734SOL    HW116661   0.203   4.445   7.131  1.9605  1.3542  1.6985
 1734SOL    HW216662   0.187   4.457   6.982 -0.9555 -0.8571  1.2219
 1735SOL     OW16663   3.860   4.246  11.145  0.1448  0.4247  0.5905
 1735SOL    HW116664   3.808   4.228  11.223 -2.0468 -0.8388 -1.1635
 1735SOL    HW216665   3.805   4.308  11.097  0.6306  0.8869  0.6284
 1736SOL     OW16666   3.099   3.016  13.881  0.4968  0.5883 -0.2714
 1736SOL    HW116667   3.030   3.020  13.946  0.8642  0.4980  0.1269
 1736SOL    HW216668   3.174   3.027  13.940 -0.3255  2.2189  0.4606
 1737SOL     OW16669   0.952   0.394   4.699 -0.0848  0.4176  0.4622
 1737SOL    HW116670   0.905   0.470   4.731  1.6744  1.5632  0.3631
 1737SOL    HW216671   0.914   0.323   4.751  0.1799 -0.2588 -0.2498
 1738SOL     OW16672   4.248   3.193   0.939 -0.0365  0.0830  0.1134
 1738SOL    HW116673   4.300   3.122   0.976  2.6834  1.7932 -0.4245
 1738SOL    HW216674   4.196   3.234   1.008  0.6688  0.1447  0.6049
 1739SOL     OW16675   0.311   2.177   7.301  0.3801  0.3387 -0.5662
 1739SOL    HW116676   0.259   2.129   7.236 -3.0830 -0.1708  2.5705
 1739SOL    HW216677   0.243   2.181   7.368 -0.8803  2.1597 -1.9638
 1740SOL     OW16678   3.982   4.386   2.629 -0.5026  0.1068  0.0130
 1740SOL    HW116679   3.904   4.341   2.598 -0.0007 -0.0696 -0.9906
 1740SOL    HW216680   4.003   4.327   2.702  0.7652  2.7059  1.7570
 1741SOL     OW16681   3.758   0.932   9.837  0.8810  0.0554  0.2369
 1741SOL    HW116682   3.748   1.018   9.795  0.4426 -1.0546 -1.9321
 1741SOL    HW216683   3.848   0.919   9.808  1.0749  0.6114  0.6022
 1742SOL     OW16684   2.584   4.703   6.732  0.2105  0.1577 -0.0155
 1742SOL    HW116685   2.566   4.649   6.809 -1.1760 -0.2350 -0.6171
 1742SOL    HW216686   2.517   0.048   6.723 -1.6182 -1.1674  3.3565
 1743SOL     OW16687   1.103   1.668   4.930  0.4278 -0.1029  0.0441
 1743SOL    HW116688   1.137   1.700   4.846  0.3516 -0.5997 -0.1752
 1743SOL    HW216689   1.009   1.688   4.924  0.5271 -0.1121 -1.8441
 1744SOL     OW16690   2.011   1.879  15.908  0.6375  0.6580  0.0597
 1744SOL    HW116691   2.033   1.806  15.966 -0.4883 -1.5598 -2.2746
 1744SOL    HW216692   2.093   1.886  15.859  0.5657 -2.3116 -0.4768
 1745SOL     OW16693   1.266   1.690   7.055  0.6332  0.3343 -0.2122
 1745SOL    HW116694   1.192   1.686   7.116  0.8893  0.7299  0.1276
 1745SOL    HW216695   1.217   1.718   6.978  0.4870  0.8916  0.0787
 1746SOL     OW16696   2.948   0.082   7.830 -0.0163  0.3428  0.7603
 1746SOL    HW116697   2.905   0.099   7.746  1.8862  0.0612 -0.2558
 1746SOL    HW216698   2.884   0.036   7.885  0.4583  1.4439  2.2533
 1747SOL     OW16699   0.654   1.181   3.550 -0.6748 -0.0602  0.0477
 1747SOL    HW116700   0.570   1.141   3.529 -0.9390  0.9186 -0.7597
 1747SOL    HW216701   0.628   1.272   3.560  1.5384  0.6057 -0.2098
 1748SOL     OW16702   0.288   1.249  12.393  0.5340  0.2926 -0.4863
 1748SOL    HW116703   0.282   1.157  12.366 -1.7736  0.1271  0.5265
 1748SOL    HW216704   0.279   1.237  12.488  0.1211  0.4708 -0.5025
 1749SOL     OW16705   0.598   4.407   4.593  0.3886 -0.0776  0.0549
 1749SOL    HW116706   0.613   4.494   4.556  0.2797  0.0810  0.3902
 1749SOL    HW216707   0.686   4.371   4.600 -0.2060 -1.7424 -0.9458
 1750SOL     OW16708   4.266   3.362   6.029 -0.1373  0.1045 -0.3999
 1750SOL    HW116709   4.240   3.312   5.952  1.1389  1.1367 -1.5058
 1750SOL    HW216710   4.192   3.328   6.080  0.2966  0.3181  0.3758
 1751SOL     OW16711   0.730   1.270   8.202  0.4875 -0.0507 -0.1322
 1751SOL    HW116712   0.698   1.332   8.267 -0.6868 -1.4922  0.6678
 1751SOL    HW216713   0.791   1.217   8.253 -1.0378 -1.7245 -0.0576
 1752SOL     OW16714   2.546   2.186   8.298  0.1754  0.2796 -0.1092
 1752SOL    HW116715   2.476   2.195   8.362 -0.1787  1.4172 -0.6605
 1752SOL    HW216716   2.617   2.237   8.336  1.0093 -0.9855  0.0167
 1753SOL     OW16717   4.565   1.572  10.970  0.3970 -0.0986  0.6741
 1753SOL    HW116718   4.521   1.500  11.015 -0.7891  0.9276  1.1584
 1753SOL    HW216719   4.656   1.541  10.965  0.3272 -0.5213  2.1441
 1754SOL     OW16720   3.907   1.029   5.726 -0.3477  0.0563  0.1774
 1754SOL    HW116721   3.916   1.073   5.810  0.6583 -2.7030  1.5107
 1754SOL    HW216722   3.895   1.098   5.660 -1.9090  0.2776  0.6826
 1755SOL     OW16723   0.779   1.030  12.267 -0.2410 -0.3901 -0.4601
 1755SOL    HW116724   0.808   1.064  12.182  1.6427 -1.4759 -0.2451
 1755SOL    HW216725   0.685   1.016  12.256 -0.3603 -0.3126  0.4594
 1756SOL     OW16726   2.755   0.953   5.888  0.2875  0.9405  0.1741
 1756SOL    HW116727   2.844   0.988   5.898 -0.8101  3.3879  1.1486
 1756SOL    HW216728   2.702   1.031   5.901 -0.0649  0.2791  2.6528
 1757SOL     OW16729   3.557   4.682   3.011 -0.5660 -0.4550  0.8851
 1757SOL    HW116730   3.634   4.626   3.017  0.6978  1.0490 -1.3952
 1757SOL    HW216731   3.511   4.682   3.095 -0.9010 -0.0931  0.7017
 1758SOL     OW16732   0.244   1.486  15.765 -0.3171  0.4334  0.1349
 1758SOL    HW116733   0.189   1.460  15.691  0.0618 -0.5846  0.2028
 1758SOL    HW216734   0.215   1.423  15.832 -1.5810  1.6665  0.7441
 1759SOL     OW16735   1.684   1.836  15.995 -0.1392  0.0295  0.3830
 1759SOL    HW116736   1.595   1.812  16.023 -0.8225 -0.4739 -2.2100
 1759SOL    HW216737   1.673   1.930  16.012  0.2292 -0.3721  2.8186
 1760SOL     OW16738   0.507   0.745  13.514 -0.5314  0.1039 -0.3175
 1760SOL    HW116739   0.439   0.686  13.544  0.3163 -0.9380 -0.4474
 1760SOL    HW216740   0.556   0.691  13.452 -2.6185  0.4687 -2.2932
 1761SOL     OW16741   3.625   2.538   7.040 -0.4354  0.3521 -0.1249
 1761SOL    HW116742   3.547   2.483   7.043 -0.3043  0.2414  1.5161
 1761SOL    HW216743   3.621   2.597   7.116  1.2644 -1.2686  1.2089
 1762SOL     OW16744   3.214   3.573   1.399  0.3010  0.1060  0.6644
 1762SOL    HW116745   3.260   3.526   1.468 -0.5144 -1.1635  0.3473
 1762SOL    HW216746   3.231   3.660   1.434 -2.4581  0.7950  0.2681
 1763SOL     OW16747   0.082   3.477   3.608 -0.1771  0.0568  0.5486
 1763SOL    HW116748   0.094   3.457   3.515  0.4062 -0.8387  0.8173
 1763SOL    HW216749   4.710   3.477   3.620 -0.5682  0.2562 -2.6647
 1764SOL     OW16750   0.009   2.047  12.066 -0.5913 -0.1573  0.1030
 1764SOL    HW116751   0.103   2.034  12.058 -0.5129  1.0831 -1.0897
 1764SOL    HW216752   0.006   2.143  12.058 -0.4012 -0.4092 -3.0977
 1765SOL     OW16753   2.683   0.832   9.026  0.4695  0.4275 -0.4127
 1765SOL    HW116754   2.614   0.878   8.977  0.1482  0.8498  0.4175
 1765SOL    HW216755   2.720   0.907   9.074  2.0990 -0.3403 -0.4790
 1766SOL     OW16756   3.464   2.712   6.230  0.5906 -0.1052 -0.3831
 1766SOL    HW116757   3.539   2.714   6.289 -1.0830  1.5737  1.6991
 1766SOL    HW216758   3.398   2.668   6.284  1.6903 -0.1263  0.9244
 1767SOL     OW16759   3.464   4.291  11.870  0.6848 -0.1456 -0.0234
 1767SOL    HW116760   3.376   4.256  11.856  0.3683  0.9874 -0.8443
 1767SOL    HW216761   3.454   4.338  11.953 -1.7693  0.4935 -0.6577
 1768SOL     OW16762   1.296   0.037   4.214  0.1845 -0.5772  0.1064
 1768SOL    HW116763   1.244   0.020   4.293 -0.8913  0.9161 -0.2729
 1768SOL    HW216764   1.362   0.095   4.251 -0.9061  0.6759  0.0924
 1769SOL     OW16765   0.748   2.765   8.525  0.4250 -0.3527 -0.1204
 1769SOL    HW116766   0.673   2.735   8.475  0.9651  0.9588 -1.6971
 1769SOL    HW216767   0.825   2.741   8.473  1.6743  1.1830  1.0109
 1770SOL     OW16768   0.797   0.829  15.913  0.3577 -0.4095 -0.8950
 1770SOL    HW116769   0.865   0.886  15.950  0.7433 -1.1331 -0.4826
 1770SOL    HW216770   0.830   0.741  15.930 -0.8763 -0.7726 -0.4175
 1771SOL     OW16771   3.169   2.463   9.249  0.0096 -0.0367 -0.3522
 1771SOL    HW116772   3.235   2.396   9.265  0.0454 -0.4095 -1.9833
 1771SOL    HW216773   3.099   2.410   9.287  0.8389 -2.0163 -1.5797
 1772SOL     OW16774   3.431   1.418   1.127 -0.1327 -0.1174 -0.6647
 1772SOL    HW116775   3.354   1.378   1.087  1.0954 -1.1531 -2.0020
 1772SOL    HW216776   3.471   1.466   1.054 -0.2325  0.8363 -0.0970
 1773SOL     OW16777   1.990   1.203   6.680 -0.2795  0.1963  0.6076
 1773SOL    HW116778   1.918   1.265   6.665 -1.7531 -1.8235 -0.6410
 1773SOL    HW216779   1.949   1.122   6.711  0.5555 -1.5601 -2.9322
 1774SOL     OW16780   2.108   1.839   7.966  0.0433  0.5463 -0.4943
 1774SOL    HW116781   2.027   1.819   8.013 -0.3453  0.0328 -1.3876
 1774SOL    HW216782   2.083   1.907   7.904 -1.5668  0.6775  0.3024
 1775SOL     OW16783   2.661   4.337   7.951  0.0707  0.2684  0.2649
 1775SOL    HW116784   2.576   4.379   7.966  0.2249  1.8148 -3.1184
 1775SOL    HW216785   2.650   4.250   7.989  1.3930 -0.1165 -0.2609
 1776SOL     OW16786   3.343   4.180   6.468  0.3644 -0.6653 -0.1233
 1776SOL    HW116787   3.356   4.220   6.382  0.6654  0.7092  0.5688
 1776SOL    HW216788   3.296   4.250   6.513  0.3163 -0.8892  0.1728
 1777SOL     OW16789   1.685   4.132  13.126 -0.0031  0.3535 -0.3001
 1777SOL    HW116790   1.662   4.168  13.212 -1.7366 -0.1637 -0.5560
 1777SOL    HW216791   1.774   4.167  13.128 -0.1627  0.7845 -0.9711
 1778SOL     OW16792   3.357   3.442  17.596  0.3660  0.4304 -0.1423
 1778SOL    HW116793   3.440   3.490  17.597  1.0946 -0.7609 -2.1556
 1778SOL    HW216794   3.355   3.412  17.687 -0.2987  0.7828 -0.0406
 1779SOL     OW16795   4.564   3.317   5.091  0.1236 -0.1251  0.0518
 1779SOL    HW116796   4.558   3.265   5.011  0.0321 -0.5730  0.3520
 1779SOL    HW216797   4.604   3.399   5.062  0.8363  0.2109  1.9560
 1780SOL     OW16798   4.088   2.665   4.431  0.0251 -0.2795  0.2654
 1780SOL    HW116799   4.094   2.688   4.338  0.9336  0.6407  0.5563
 1780SOL    HW216800   4.100   2.750   4.472  1.3954 -0.3827  0.0860
 1781SOL     OW16801   3.163   3.650   0.015  0.3609 -0.3803  0.5225
 1781SOL    HW116802   3.167   3.585  17.639 -1.3334  1.9948 -1.7934
 1781SOL    HW216803   3.174   3.595   0.092 -0.6467 -0.9239  0.2770
 1782SOL     OW16804   0.821   4.321  17.292  0.3036 -0.3344  0.1715
 1782SOL    HW116805   0.801   4.293  17.382 -0.6477 -1.9219 -0.5349
 1782SOL    HW216806   0.741   4.297  17.246  0.2796 -1.2903  0.7110
 1783SOL     OW16807   2.781   4.586   3.313  0.1821  0.0268  0.5416
 1783SOL    HW116808   2.850   4.533   3.354  0.4193 -0.3560 -0.3490
 1783SOL    HW216809   2.804   4.671   3.351 -0.5155  0.3232  0.2900
 1784SOL     OW16810   4.287   1.846  15.799 -0.3680  0.2445  0.2756
 1784SOL    HW116811   4.201   1.817  15.830  0.4011  0.7114  2.8680
 1784SOL    HW216812   4.283   1.852  15.704 -0.6559  0.5652  0.3071
 1785SOL     OW16813   0.479   0.075   4.832 -0.4871 -0.0327  0.5969
 1785SOL    HW116814   0.558   0.028   4.859 -0.2849 -1.1709 -2.0056
 1785SOL    HW216815   0.473   0.057   4.738  0.9422 -1.0625  0.7025
 1786SOL     OW16816   1.301   4.396   1.911 -0.0943  0.1995 -0.2614
 1786SOL    HW116817   1.370   4.405   1.845 -1.0416  1.2092 -1.0935
 1786SOL    HW216818   1.234   4.370   1.847 -0.7778 -0.9457  0.9199
 1787SOL     OW16819   2.711   1.526   8.153 -0.2778  0.4405 -0.0398
 1787SOL    HW116820   2.645   1.461   8.177 -0.5902  0.8631  0.2435
 1787SOL    HW216821   2.664   1.609   8.155  0.1556  0.6755  0.2485
 1788SOL     OW16822   1.734   2.922  11.880  0.4832  0.1545  0.1988
 1788SOL    HW116823   1.728   3.015  11.898 -1.1812 -0.0072  0.4448
 1788SOL    HW216824   1.808   2.911  11.819 -0.3743  0.5329 -0.9073
 1789SOL     OW16825   4.368   3.213  13.782 -0.2356  0.3154  0.1985
 1789SOL    HW116826   4.412   3.140  13.825 -2.1746 -0.1138  1.4621
 1789SOL    HW216827   4.332   3.171  13.704 -2.2170  0.7696  0.8631
 1790SOL     OW16828   1.581   1.568  10.640 -0.1925  0.2879  0.7291
 1790SOL    HW116829   1.507   1.574  10.701 -0.6279 -1.2625  0.3358
 1790SOL    HW216830   1.584   1.660  10.611 -1.2520 -0.8545 -3.0358
 1791SOL     OW16831   4.146   4.016  11.018  0.0610  0.0432 -0.6529
 1791SOL    HW116832   4.220   4.042  11.072 -1.2532 -1.8552  2.0913
 1791SOL    HW216833   4.067   4.055  11.055  0.2644 -0.3765  0.2101
 1792SOL     OW16834   1.955   2.026   6.234 -0.0978  0.1443 -0.0061
 1792SOL    HW116835   1.924   1.966   6.301  0.2053  3.6682  3.3118
 1792SOL    HW216836   2.030   2.072   6.272  1.5531 -1.7982 -0.9418
 1793SOL     OW16837   1.181   2.398   7.205 -0.3621 -0.0317 -0.3088
 1793SOL    HW116838   1.183   2.421   7.112  2.4963 -2.1334 -0.7681
 1793SOL    HW216839   1.265   2.352   7.214 -0.2920  0.6697  2.8790
 1794SOL     OW16840   1.119   4.306   1.688 -0.5851 -0.1021 -0.0320
 1794SOL    HW116841   1.075   4.274   1.767 -0.9173  1.1901  0.3030
 1794SOL    HW216842   1.072   4.259   1.619  0.6320 -2.3392  0.6480
 1795SOL     OW16843   1.401   0.919   8.500 -0.1810  0.3706 -0.2474
 1795SOL    HW116844   1.317   0.927   8.546 -0.2897  0.4187 -0.4550
 1795SOL    HW216845   1.435   1.003   8.532  0.1251 -0.5752  1.9596
 1796SOL     OW16846   3.848   4.085   3.348  0.2096  0.2250 -0.1826
 1796SOL    HW116847   3.789   4.148   3.308  1.1500  1.0519 -0.2767
 1796SOL    HW216848   3.797   4.004   3.352 -0.8914  0.9361  0.3403
 1797SOL     OW16849   3.706   1.076  16.851  0.0354  0.1873  0.1100
 1797SOL    HW116850   3.748   1.152  16.891 -0.5601 -0.5405  2.1034
 1797SOL    HW216851   3.774   1.038  16.796 -0.2338 -0.9098  0.5427
 1798SOL     OW16852   4.109   3.601   5.826  0.3335  0.0616 -0.3190
 1798SOL    HW116853   4.092   3.565   5.739 -0.3086 -0.0913 -0.1285
 1798SOL    HW216854   4.109   3.521   5.878 -0.3365  0.7792  0.7888
 1799SOL     OW16855   0.280   4.683   8.905 -0.0795  0.1341 -0.3971
 1799SOL    HW116856   0.326   4.625   8.844  0.5388  0.4225 -0.2038
 1799SOL    HW216857   0.354   4.701   8.963  0.1459 -0.0992 -0.6109
 1800SOL     OW16858   1.707   1.565   5.712 -0.5125 -0.1268  0.3653
 1800SOL    HW116859   1.676   1.482   5.678  1.2351 -0.3293 -0.7380
 1800SOL    HW216860   1.639   1.572   5.779 -0.1933 -2.7149  0.9415
 1801SOL     OW16861   4.316   0.239   9.216 -0.0709  0.8444 -0.4788
 1801SOL    HW116862   4.371   0.189   9.277 -0.8228 -0.5149 -0.9029
 1801SOL    HW216863   4.358   0.324   9.206 -0.1982  1.0676  0.8655
 1802SOL     OW16864   4.184   1.323   8.721  0.3458 -0.1782 -0.6411
 1802SOL    HW116865   4.193   1.252   8.784 -0.7052  0.2267 -0.0505
 1802SOL    HW216866   4.229   1.289   8.644  0.4692 -2.2539  0.3487
 1803SOL     OW16867   2.854   1.568  12.690 -0.4274 -0.1509  0.0590
 1803SOL    HW116868   2.765   1.595  12.711 -0.0470  0.1905  1.2423
 1803SOL    HW216869   2.880   1.658  12.671  1.6136 -0.6194  0.6147
 1804SOL     OW16870   0.042   2.991   6.844  0.4254  0.0417 -0.2940
 1804SOL    HW116871   0.011   2.975   6.933 -0.4275  0.8394 -0.4431
 1804SOL    HW216872   4.685   3.018   6.798 -0.0822 -1.2099 -0.1340
 1805SOL     OW16873   4.122   4.219   4.252  0.2385 -0.2139  0.1031
 1805SOL    HW116874   4.094   4.284   4.316 -0.1960 -0.4220  0.1217
 1805SOL    HW216875   4.141   4.271   4.174 -0.2946 -1.0573 -0.5995
 1806SOL     OW16876   3.912   1.575   4.797  0.3411  0.0418 -0.3683
 1806SOL    HW116877   3.909   1.497   4.854  0.4741 -0.2467 -0.7553
 1806SOL    HW216878   4.002   1.607   4.794 -1.0227  3.6480 -2.0802
 1807SOL     OW16879   2.847   2.448   7.763 -0.1517 -0.0752  1.0495
 1807SOL    HW116880   2.923   2.400   7.731 -1.9692 -0.0620 -3.3030
 1807SOL    HW216881   2.867   2.540   7.741  0.5131 -0.2569  0.8808
 1808SOL     OW16882   4.118   2.462   6.719 -0.4459 -0.1754 -0.0737
 1808SOL    HW116883   4.084   2.474   6.807  1.4220 -0.4888  0.6838
 1808SOL    HW216884   4.053   2.505   6.663  1.1740 -0.7463 -2.4052
 1809SOL     OW16885   4.240   4.634   7.893  0.0551  0.3642 -0.1713
 1809SOL    HW116886   4.167   4.686   7.929  0.2707  0.7100 -0.2269
 1809SOL    HW216887   4.279   4.690   7.826 -1.9255 -0.7009 -2.2005
 1810SOL     OW16888   4.479   4.333   4.231  0.5754  0.1708 -0.0082
 1810SOL    HW116889   4.486   4.252   4.180 -0.8701 -0.7963  1.3035
 1810SOL    HW216890   4.539   4.387   4.181  1.5794  1.2615  2.3662
 1811SOL     OW16891   0.872   0.732   5.627 -0.1492 -0.2059  0.3008
 1811SOL    HW116892   0.853   0.640   5.609 -0.8008 -0.0306  0.1071
 1811SOL    HW216893   0.790   0.776   5.606 -0.6898 -0.1938  2.5058
 1812SOL     OW16894   1.021   4.496   4.013  0.5927 -0.1194 -0.1902
 1812SOL    HW116895   0.967   4.553   4.067  1.3280 -0.4473  0.8722
 1812SOL    HW216896   0.989   4.410   4.038  1.9743 -0.4955  0.2625
 1813SOL     OW16897   1.122   0.559   2.339 -0.2262 -0.5983  0.2617
 1813SOL    HW116898   1.204   0.533   2.380  0.4818  1.1967  0.0041
 1813SOL    HW216899   1.113   0.644   2.384 -0.1990 -0.1843 -0.5210
 1814SOL     OW16900   4.228   3.938   3.215  0.3803 -0.1267  0.0506
 1814SOL    HW116901   4.317   3.946   3.180 -0.1120  0.3741 -1.0777
 1814SOL    HW216902   4.170   3.992   3.162 -0.0334 -1.1180 -0.5097
 1815SOL     OW16903   4.536   4.038  17.383 -0.3647 -0.4652  0.0041
 1815SOL    HW116904   4.465   4.000  17.435 -0.2027 -2.3577 -1.1626
 1815SOL    HW216905   4.598   3.966  17.374  1.3475  0.7491  2.0535
 1816SOL     OW16906   0.478   1.234   5.472  0.2181 -0.0688 -0.0243
 1816SOL    HW116907   0.522   1.312   5.506 -1.5911  1.4669 -1.2071
 1816SOL    HW216908   0.547   1.193   5.421  1.0091  0.7931  0.3527
 1817SOL     OW16909   2.545   3.448   7.364 -0.2563  0.3236  0.4435
 1817SOL    HW116910   2.505   3.491   7.440 -0.1064  0.7137  0.3049
 1817SOL    HW216911   2.518   3.357   7.377  1.7562 -0.7885 -3.3005
 1818SOL     OW16912   3.775   1.426   4.162  0.9839 -0.2515  0.3071
 1818SOL    HW116913   3.743   1.484   4.232 -0.1637 -0.8622  0.2858
 1818SOL    HW216914   3.808   1.356   4.218  1.0605 -1.0167 -0.7110
 1819SOL     OW16915   4.013   4.630   2.962  0.5600  0.1030  0.2796
 1819SOL    HW116916   4.000   0.001   2.968 -1.7047 -0.1429 -0.4910
 1819SOL    HW216917   4.108   4.621   2.958  0.5837 -0.4938  2.0464
 1820SOL     OW16918   3.253   0.424   9.226 -0.5284  0.4277 -0.0919
 1820SOL    HW116919   3.234   0.501   9.279  1.9375  1.0201 -0.0385
 1820SOL    HW216920   3.230   0.356   9.289 -2.0620 -1.1936 -2.3766
 1821SOL     OW16921   0.275   4.116   7.022  0.1429 -0.4468  0.7323
 1821SOL    HW116922   0.180   4.116   7.019  0.1666 -0.2468  0.0115
 1821SOL    HW216923   0.290   4.130   6.929  1.8509 -0.3640  1.0159
 1822SOL     OW16924   1.520   0.075   3.769 -0.2716  0.7194 -0.6869
 1822SOL    HW116925   1.475   0.017   3.830  2.6801  0.2341  1.0522
 1822SOL    HW216926   1.451   0.121   3.721 -2.8713 -1.0343  1.4198
 1823SOL     OW16927   2.489   3.391   0.135 -0.1115 -0.2971 -0.3109
 1823SOL    HW116928   2.517   3.479   0.158  0.4614  0.0951 -2.5433
 1823SOL    HW216929   2.563   3.343   0.171  0.0200  0.5339  0.5135
 1824SOL     OW16930   1.953   3.708  15.256  0.0757  0.0224 -0.2361
 1824SOL    HW116931   1.914   3.787  15.218  0.3805  1.4327  2.4002
 1824SOL    HW216932   1.888   3.681  15.321 -0.7312  1.9190 -0.2425
 1825SOL     OW16933   0.087   3.105  15.155  0.2042  0.4706 -0.5231
 1825SOL    HW116934   0.019   3.114  15.222 -1.8696 -0.6183 -2.4464
 1825SOL    HW216935   0.162   3.135  15.206  1.7851 -0.7197 -2.1301
 1826SOL     OW16936   0.276   0.035   5.355  0.1511 -0.4034 -0.1733
 1826SOL    HW116937   0.336   4.692   5.391  0.0299 -1.3275 -1.6556
 1826SOL    HW216938   0.323   0.043   5.272 -2.1462 -0.5279 -1.4787
 1827SOL     OW16939   1.782   1.701   3.797  0.5741  0.3885  0.0441
 1827SOL    HW116940   1.835   1.635   3.753 -0.2492 -1.0167  1.1936
 1827SOL    HW216941   1.713   1.724   3.734  1.6056 -1.4219 -1.7368
 1828SOL     OW16942   3.278   1.296   0.953 -0.4392 -0.1357 -0.0065
 1828SOL    HW116943   3.228   1.220   0.923 -1.1709  0.8795 -1.3865
 1828SOL    HW216944   3.318   1.328   0.872 -0.7689  2.2639  0.7874
 1829SOL     OW16945   4.071   0.197   6.066  0.4092  0.0216 -0.0897
 1829SOL    HW116946   4.158   0.234   6.078  0.4016  0.1699 -0.4886
 1829SOL    HW216947   4.074   0.171   5.974 -1.4864 -0.4355 -0.0281
 1830SOL     OW16948   2.765   0.840  10.937  0.2118 -0.1365  0.0461
 1830SOL    HW116949   2.820   0.827  10.860  1.5951 -2.5476  1.4289
 1830SOL    HW216950   2.800   0.923  10.972 -0.4340 -0.4461  1.4301
 1831SOL     OW16951   2.238   2.277  11.209 -0.0635  0.1683 -0.2512
 1831SOL    HW116952   2.254   2.280  11.303 -0.1697 -2.6022 -0.1311
 1831SOL    HW216953   2.143   2.290  11.206 -0.2935 -1.1283  1.1638
 1832SOL     OW16954   2.326   0.273  16.496  0.5003 -0.0862 -0.7923
 1832SOL    HW116955   2.274   0.349  16.525 -0.2244 -0.4170 -1.2357
 1832SOL    HW216956   2.253   0.225  16.457  0.6669  1.0546 -2.5045
 1833SOL     OW16957   2.464   0.814   4.050 -0.0285 -0.1387  0.0578
 1833SOL    HW116958   2.466   0.875   4.124  0.5023 -0.3048  0.1866
 1833SOL    HW216959   2.542   0.841   4.002 -0.3848 -1.3836 -1.1915
 1834SOL     OW16960   0.634   1.201   1.871 -0.5899  0.1616  0.2622
 1834SOL    HW116961   0.610   1.197   1.963 -0.7008  2.2171  0.3245
 1834SOL    HW216962   0.550   1.188   1.827 -0.4594  1.5534 -0.3901
 1835SOL     OW16963   4.288   2.118   0.340  0.5923 -0.4357 -0.2704
 1835SOL    HW116964   4.326   2.181   0.401  1.1297  0.4356 -1.5161
 1835SOL    HW216965   4.256   2.046   0.395 -1.0405  0.0077 -0.6459
 1836SOL     OW16966   1.760   3.813   3.335  0.1522  0.4896  0.0346
 1836SOL    HW116967   1.833   3.824   3.273  1.6198 -0.3818  1.5881
 1836SOL    HW216968   1.691   3.870   3.301  1.2628  2.5963  1.3353
 1837SOL     OW16969   2.389   4.060   9.312 -0.1011  0.2169 -0.3142
 1837SOL    HW116970   2.480   4.083   9.331  0.1414 -0.1767 -1.0164
 1837SOL    HW216971   2.397   3.965   9.301  2.5306  0.4521 -0.5634
 1838SOL     OW16972   0.114   3.253   9.754  0.2038  0.2077  0.4662
 1838SOL    HW116973   0.115   3.325   9.691 -1.1854  0.4135  0.6667
 1838SOL    HW216974   0.197   3.210   9.732  2.4391  2.9875  3.4812
 1839SOL     OW16975   1.580   3.617   4.816 -0.1905 -0.1944  0.1498
 1839SOL    HW116976   1.564   3.630   4.722  1.8094  0.5374 -0.0969
 1839SOL    HW216977   1.607   3.525   4.818  0.9109  0.1203 -0.0037
 1840SOL     OW16978   1.289   3.713   2.063  0.2477  0.3250  0.1383
 1840SOL    HW116979   1.302   3.761   2.145  1.1288 -0.3094  0.3765
 1840SOL    HW216980   1.266   3.622   2.085  1.0993 -0.6229 -2.8399
 1841SOL     OW16981   4.447   0.452  14.972 -0.8758 -0.5725  0.1241
 1841SOL    HW116982   4.380   0.391  14.942 -0.1688 -1.4841  0.4203
 1841SOL    HW216983   4.478   0.407  15.051  2.6966  2.0719  0.2409
 1842SOL     OW16984   3.313   3.472   8.790  0.3224  0.4346  0.0865
 1842SOL    HW116985   3.220   3.488   8.777  0.2137  0.0440  0.3759
 1842SOL    HW216986   3.344   3.517   8.712  2.0395  0.7735  0.9668
 1843SOL     OW16987   3.199   4.038  13.456 -0.8560  0.3026  0.1262
 1843SOL    HW116988   3.253   3.999  13.387  3.1343  1.7337  2.4584
 1843SOL    HW216989   3.122   4.056  13.401 -1.2969  1.8011  1.2128
 1844SOL     OW16990   0.720   1.869  12.805  0.2165 -0.5056  0.4725
 1844SOL    HW116991   0.812   1.858  12.830  0.3598  0.9625  0.5771
 1844SOL    HW216992   0.679   1.832  12.883  1.0634 -2.1405  0.1464
 1845SOL     OW16993   3.314   1.618   3.970  0.0887  0.2411  0.2714
 1845SOL    HW116994   3.312   1.624   3.874  0.4896  0.4568  0.2776
 1845SOL    HW216995   3.297   1.712   3.982  1.9475  0.5820  0.2108
 1846SOL     OW16996   3.249   2.461   8.757 -0.0320 -0.1192 -0.1088
 1846SOL    HW116997   3.311   2.534   8.750  0.2101 -0.3411 -0.3012
 1846SOL    HW216998   3.173   2.495   8.804  0.2791  0.6607 -0.1731
 1847SOL     OW16999   3.116   1.592  15.624  0.3573  0.5330  0.0642
 1847SOL    HW117000   3.116   1.501  15.595  2.3157  0.0208  1.6251
 1847SOL    HW217001   3.170   1.641  15.562  0.2191  1.0585  0.3539
 1848SOL     OW17002   4.573   2.759   1.475  0.1767 -0.0526  0.2704
 1848SOL    HW117003   4.598   2.688   1.535  0.6177 -0.2313 -0.1289
 1848SOL    HW217004   4.517   2.810   1.534  3.7509  0.4385  3.2219
 1849SOL     OW17005   1.770   0.698   7.548 -0.8518 -0.4098 -0.3137
 1849SOL    HW117006   1.817   0.623   7.583 -0.4293 -0.6727 -1.4569
 1849SOL    HW217007   1.739   0.736   7.631  0.7284  0.1977 -0.0036
 1850SOL     OW17008   2.924   4.346  14.051  0.0885  0.6828 -0.1445
 1850SOL    HW117009   2.913   4.275  14.114 -0.9418  0.3399 -0.7118
 1850SOL    HW217010   3.016   4.335  14.026  0.4053 -0.9568  1.7334
 1851SOL     OW17011   1.252   3.368  12.037 -0.3586  0.4815 -0.3168
 1851SOL    HW117012   1.290   3.416  11.964  1.5706  0.1763  0.4828
 1851SOL    HW217013   1.331   3.321  12.063 -0.4038 -0.1567 -1.3380
 1852SOL     OW17014   4.099   0.576  14.706  0.2719 -0.3564 -0.0668
 1852SOL    HW117015   4.182   0.618  14.684  0.4076 -0.1463  0.8595
 1852SOL    HW217016   4.101   0.492  14.660  2.0988 -0.8898  0.9929
 1853SOL     OW17017   3.758   2.781   3.380  0.3375  0.6400 -0.3367
 1853SOL    HW117018   3.811   2.757   3.456  0.5173 -0.0751 -0.6908
 1853SOL    HW217019   3.819   2.782   3.306  0.7332  0.2653 -0.0167
 1854SOL     OW17020   2.918   1.872   1.208  0.0878 -0.1498  0.3719
 1854SOL    HW117021   3.000   1.864   1.160 -0.7510 -2.3956 -0.6613
 1854SOL    HW217022   2.926   1.950   1.265 -0.6433 -1.1632  1.8690
 1855SOL     OW17023   0.136   4.473   1.803  0.3911 -0.2220 -0.2014
 1855SOL    HW117024   0.099   4.435   1.724 -0.2020  0.3799 -0.2130
 1855SOL    HW217025   0.227   4.450   1.787  1.0377  1.5022  0.9173
 1856SOL     OW17026   0.986   3.364   0.518 -0.3763  0.4403 -0.5011
 1856SOL    HW117027   0.891   3.370   0.507 -0.0197  0.2723 -3.6026
 1856SOL    HW217028   1.000   3.297   0.451  0.9406  1.5425 -1.3271
 1857SOL     OW17029   3.768   2.941  13.054  0.3046 -0.6542 -1.1707
 1857SOL    HW117030   3.739   2.954  12.964 -1.6268 -2.8568 -0.8524
 1857SOL    HW217031   3.685   2.942  13.102  1.4115 -1.8498  0.8087
 1858SOL     OW17032   2.203   2.167   8.757  0.1460  0.7640  0.0601
 1858SOL    HW117033   2.110   2.191   8.752  0.0789  0.2433 -1.1128
 1858SOL    HW217034   2.185   2.078   8.788  0.5138 -0.0079 -1.9457
 1859SOL     OW17035   2.943   2.927  15.418 -0.2689  0.1243 -0.4837
 1859SOL    HW117036   2.936   2.983  15.341 -0.6061 -1.4942 -1.6276
 1859SOL    HW217037   2.937   2.839  15.380 -2.6025 -0.4552  1.1951
 1860SOL     OW17038   0.550   4.140   7.565  0.0282  0.3737 -0.9945
 1860SOL    HW117039   0.507   4.146   7.651  0.4310  0.7066 -0.8150
 1860SOL    HW217040   0.499   4.200   7.512 -1.2166  1.3116  1.2635
 1861SOL     OW17041   1.101   2.430   6.718 -0.3045  0.4680  0.6771
 1861SOL    HW117042   1.140   2.472   6.641 -2.8327 -0.1099 -0.9501
 1861SOL    HW217043   1.009   2.424   6.689 -0.4276 -1.2377  1.4647
 1862SOL     OW17044   1.805   4.212   2.118  0.2666 -0.4711  0.1537
 1862SOL    HW117045   1.784   4.128   2.076  2.7031 -1.6955  1.3886
 1862SOL    HW217046   1.749   4.281   2.082 -0.6074 -0.2512  1.9206
 1863SOL     OW17047   4.200   1.381   9.286 -0.0049  0.0362  0.1804
 1863SOL    HW117048   4.239   1.328   9.355 -0.7695  2.0370  2.1157
 1863SOL    HW217049   4.278   1.424   9.251  0.7796 -0.9586  0.7127
 1864SOL     OW17050   2.968   4.703   4.271  0.3101 -1.0817 -0.2994
 1864SOL    HW117051   2.882   0.022   4.261  1.1523  1.1014  1.8311
 1864SOL    HW217052   3.008   0.029   4.343 -1.1019  0.4984 -0.6021
 1865SOL     OW17053   2.415   2.091   6.678 -0.3715  0.3481  0.1880
 1865SOL    HW117054   2.373   2.014   6.641  0.6754 -0.0746 -0.1404
 1865SOL    HW217055   2.499   2.056   6.707  0.0308  0.5314 -0.7321
 1866SOL     OW17056   2.695   0.703   4.261  0.2193  0.0214  0.5106
 1866SOL    HW117057   2.645   0.658   4.330 -0.7943 -1.7969 -1.4061
 1866SOL    HW217058   2.649   0.683   4.180 -0.8016  1.4681  0.7467
 1867SOL     OW17059   0.992   0.304   5.598 -0.4433  0.1577  0.2562
 1867SOL    HW117060   0.914   0.360   5.596 -0.6689 -0.1786 -0.5830
 1867SOL    HW217061   1.045   0.362   5.544 -1.2969  0.4453 -0.2887
 1868SOL     OW17062   0.465   2.023   6.033  0.2610 -0.2608  0.3291
 1868SOL    HW117063   0.441   1.963   5.962  0.4348 -1.7487  1.5108
 1868SOL    HW217064   0.545   1.983   6.067  0.0435  1.6569  3.0908
 1869SOL     OW17065   0.661   3.381   9.129 -0.2086  0.3544  0.0195
 1869SOL    HW117066   0.748   3.419   9.144 -1.3200  2.5771  0.9268
 1869SOL    HW217067   0.661   3.390   9.034 -1.2819 -0.4312 -0.0499
 1870SOL     OW17068   1.466   0.603   4.084 -0.6899  0.5307 -0.0374
 1870SOL    HW117069   1.534   0.536   4.083 -1.8722 -0.5928 -3.3031
 1870SOL    HW217070   1.489   0.634   4.172 -0.4806  3.2013 -1.0309
 1871SOL     OW17071   0.340   1.683   2.135 -0.2433  0.0974  0.6546
 1871SOL    HW117072   0.287   1.662   2.058 -2.4962  1.9403  1.6819
 1871SOL    HW217073   0.295   1.764   2.161  0.6812  1.2903 -1.4800
 1872SOL     OW17074   4.555   3.846   4.322 -0.1241 -0.3933  0.5290
 1872SOL    HW117075   4.460   3.848   4.308 -0.4698  0.3707  2.8010
 1872SOL    HW217076   4.580   3.763   4.284  2.6288  1.0938 -0.8549
 1873SOL     OW17077   1.763   0.340  12.297 -0.3138 -0.0794  0.5130
 1873SOL    HW117078   1.714   0.322  12.217 -1.5327  1.7775  0.8510
 1873SOL    HW217079   1.696   0.314  12.361  0.6454 -0.5469  1.3349
 1874SOL     OW17080   2.244   0.902   7.116 -0.6918  0.1568  0.4414
 1874SOL    HW117081   2.302   0.946   7.178  1.3391 -3.5415  1.1304
 1874SOL    HW217082   2.161   0.931   7.154 -0.7319  0.3843  0.1780
 1875SOL     OW17083   2.752   1.690   6.406  0.3761  0.4376  0.0768
 1875SOL    HW117084   2.745   1.779   6.372  0.9375  0.9499  1.2773
 1875SOL    HW217085   2.805   1.649   6.338 -3.0385 -0.3676 -2.0822
 1876SOL     OW17086   1.428   4.557  12.161 -0.1042  0.2483  0.3627
 1876SOL    HW117087   1.514   4.547  12.120 -0.5062  1.2254 -0.7201
 1876SOL    HW217088   1.377   4.556  12.080 -1.8611 -0.2111  1.4566
 1877SOL     OW17089   3.869   1.221   3.034  0.0697  0.0403 -0.5494
 1877SOL    HW117090   3.919   1.218   3.116  0.4639 -0.7025 -0.8177
 1877SOL    HW217091   3.919   1.162   2.978 -0.8644 -1.4995  0.2225
 1878SOL     OW17092   0.679   1.921   6.142 -0.8916 -0.2023  0.0801
 1878SOL    HW117093   0.769   1.937   6.169 -1.3871  2.2681  0.1845
 1878SOL    HW217094   0.686   1.831   6.108 -2.1356 -0.1330 -0.3576
 1879SOL     OW17095   1.640   0.943  12.374  0.1513 -0.7317  0.4954
 1879SOL    HW117096   1.591   0.927  12.454 -1.1510  0.5847 -0.0539
 1879SOL    HW217097   1.568   0.946  12.311  0.4573  1.0192  0.2491
 1880SOL     OW17098   3.101   2.543   6.487  0.0170 -0.0684  0.3069
 1880SOL    HW117099   3.102   2.464   6.542  0.4528 -1.5986 -1.8921
 1880SOL    HW217100   3.195   2.555   6.474 -0.1171 -0.4106 -0.9133
 1881SOL     OW17101   1.743   0.258   0.017  0.1554 -0.0322  0.2745
 1881SOL    HW117102   1.769   0.350   0.011 -2.3031  0.7696  1.6510
 1881SOL    HW217103   1.789   0.216  17.639  0.1771 -1.4409  1.1108
 1882SOL     OW17104   2.315   2.092   3.929 -0.2792 -0.3018  0.2382
 1882SOL    HW117105   2.401   2.079   3.889 -0.8473 -0.7448 -0.8213
 1882SOL    HW217106   2.292   2.002   3.951  0.6555 -0.7432 -0.5558
 1883SOL     OW17107   4.111   3.409  11.756 -0.2500 -0.0912 -0.1285
 1883SOL    HW117108   4.174   3.481  11.755 -1.1882  0.7165 -1.3076
 1883SOL    HW217109   4.117   3.378  11.846 -1.9516 -0.2637 -0.0697
 1884SOL     OW17110   4.306   0.445  10.918  0.1805  0.4043  0.4553
 1884SOL    HW117111   4.342   0.365  10.880 -2.3226 -0.8175  0.6346
 1884SOL    HW217112   4.383   0.496  10.940  0.5496 -0.4126  1.0385
 1885SOL     OW17113   1.731   3.056   5.934 -0.5595  0.0038 -0.0430
 1885SOL    HW117114   1.777   3.023   6.011  2.7748  0.5714 -1.7947
 1885SOL    HW217115   1.656   3.098   5.976  0.0176  0.6926  0.2861
 1886SOL     OW17116   1.973   3.654  14.621 -0.0798 -0.7185 -0.4633
 1886SOL    HW117117   1.944   3.743  14.644 -1.0814 -1.2775  0.4347
 1886SOL    HW217118   2.009   3.670  14.534  1.9161  1.8335  0.7991
 1887SOL     OW17119   2.233   1.969  11.130  0.1087 -0.5686  0.2964
 1887SOL    HW117120   2.179   2.044  11.151  0.8671  0.3683 -1.0880
 1887SOL    HW217121   2.317   1.989  11.171 -1.8778  2.7546  2.7229
 1888SOL     OW17122   0.429   0.952   8.644  0.0027  0.0207  0.3797
 1888SOL    HW117123   0.438   0.981   8.554 -3.3495 -0.2526 -0.0583
 1888SOL    HW217124   0.512   0.908   8.660  0.0473  0.0369  0.1877
 1889SOL     OW17125   4.300   0.582   2.846 -0.2122 -0.2266 -0.0295
 1889SOL    HW117126   4.283   0.617   2.759 -0.5519 -0.6216 -0.1192
 1889SOL    HW217127   4.239   0.508   2.847  0.0416 -0.4077  1.8320
 1890SOL     OW17128   2.131   2.951  12.669  0.5076  0.3771 -0.4871
 1890SOL    HW117129   2.080   2.994  12.738 -1.0428 -0.3420 -1.1855
 1890SOL    HW217130   2.068   2.891  12.629  0.0564  0.0757  0.6842
 1891SOL     OW17131   3.047   1.236   4.602  0.4224  0.6304  0.2355
 1891SOL    HW117132   3.101   1.192   4.668 -1.5298 -2.8432 -0.4515
 1891SOL    HW217133   3.055   1.172   4.532 -0.5568  0.4829  0.2660
 1892SOL     OW17134   1.769   1.988   5.123 -0.2051  0.0677  0.3422
 1892SOL    HW117135   1.819   1.942   5.191  1.2752 -0.5017 -1.1543
 1892SOL    HW217136   1.787   1.932   5.048  1.4429 -0.2817  0.9899
 1893SOL     OW17137   2.537   2.121  11.476  0.1622  0.2795 -0.3740
 1893SOL    HW117138   2.557   2.205  11.435 -0.4568  1.2497  1.3204
 1893SOL    HW217139   2.509   2.066  11.402  0.9814 -0.5253 -0.0903
 1894SOL     OW17140   0.996   4.669  12.418 -0.0959 -0.5571  0.3765
 1894SOL    HW117141   1.024   0.026  12.374  2.2847 -0.1840  2.6221
 1894SOL    HW217142   1.074   4.614  12.424 -0.6156 -1.4323 -0.5970
 1895SOL     OW17143   1.815   1.715  11.326  0.0829  0.3743 -0.3079
 1895SOL    HW117144   1.851   1.735  11.413  0.3282  1.5876 -0.6958
 1895SOL    HW217145   1.720   1.719  11.340  0.0972  0.7650 -0.3203
 1896SOL     OW17146   2.781   4.066   6.211  0.4529 -0.1354 -0.0433
 1896SOL    HW117147   2.867   4.074   6.169  0.7428  1.0901  0.7859
 1896SOL    HW217148   2.811   4.054   6.301  1.0774  1.1590 -0.0775
 1897SOL     OW17149   0.880   4.048  13.476  0.3061  0.1690  0.0654
 1897SOL    HW117150   0.921   4.134  13.477  3.2276 -1.1964 -1.0238
 1897SOL    HW217151   0.959   3.996  13.486 -1.2433 -1.7641  2.3223
 1898SOL     OW17152   3.114   2.425  14.686 -0.1217 -0.3095 -0.3346
 1898SOL    HW117153   3.077   2.388  14.605  1.3819 -0.7552 -0.8138
 1898SOL    HW217154   3.205   2.414  14.660  0.0460  2.0910 -0.8222
 1899SOL     OW17155   1.737   1.146   6.334 -0.2284  0.7883  0.0282
 1899SOL    HW117156   1.812   1.204   6.320 -0.1713  0.2092 -2.0573
 1899SOL    HW217157   1.732   1.143   6.430  3.7201 -0.1242  0.2103
 1900SOL     OW17158   2.577   2.412   2.872 -0.2972  0.1649  0.6401
 1900SOL    HW117159   2.612   2.389   2.786  1.8369  1.8755  1.0404
 1900SOL    HW217160   2.485   2.385   2.866 -0.0709 -0.0847 -1.8788
 1901SOL     OW17161   4.444   1.763  10.267 -0.4599 -0.1364 -0.6146
 1901SOL    HW117162   4.520   1.773  10.324 -1.1705 -0.5470  0.3949
 1901SOL    HW217163   4.408   1.851  10.279 -0.4846 -0.4267  1.3900
 1902SOL     OW17164   0.175   3.188  11.253  0.2557 -0.2255  0.1479
 1902SOL    HW117165   0.238   3.203  11.324  1.0319 -3.2378  0.0757
 1902SOL    HW217166   0.222   3.135  11.189  3.9349  0.7288  2.0788
 1903SOL     OW17167   4.053   3.840   7.126  0.2929 -0.3501 -0.4059
 1903SOL    HW117168   4.131   3.887   7.155  0.2558 -0.5034 -0.0675
 1903SOL    HW217169   3.981   3.877   7.177  1.3495  1.4232 -0.2238
 1904SOL     OW17170   4.645   1.584   6.233 -0.0560  0.2406 -0.4387
 1904SOL    HW117171   4.663   1.668   6.275 -2.2506 -0.3522  1.6728
 1904SOL    HW217172   4.578   1.620   6.175 -0.3770 -0.5507 -0.5505
 1905SOL     OW17173   0.560   0.745   1.324  0.1169  0.3211 -0.1635
 1905SOL    HW117174   0.551   0.652   1.303  1.3311 -0.6233  3.4294
 1905SOL    HW217175   0.467   0.764   1.318  0.2821  1.0607 -0.3332
 1906SOL     OW17176   3.653   2.674   8.105  0.0514  0.0386  0.1026
 1906SOL    HW117177   3.562   2.666   8.135  0.4269 -1.4743  0.8369
 1906SOL    HW217178   3.678   2.763   8.130  0.5678  0.2087 -1.0030
 1907SOL     OW17179   0.226   2.973   9.165 -0.2201 -0.0852 -0.2888
 1907SOL    HW117180   0.261   2.886   9.149  1.5386  0.4565  0.5750
 1907SOL    HW217181   0.244   3.028   9.089 -1.3891 -0.8554 -1.1193
 1908SOL     OW17182   0.106   4.377   7.693 -0.2342 -0.1845  0.0972
 1908SOL    HW117183   0.125   4.457   7.742  2.6873 -1.4279  0.9621
 1908SOL    HW217184   0.092   4.412   7.605  0.1351  1.1954  0.5922
 1909SOL     OW17185   3.871   3.128   5.699 -0.0567  0.4245 -0.2509
 1909SOL    HW117186   3.833   3.084   5.623 -3.0347  0.6622  1.0726
 1909SOL    HW217187   3.874   3.054   5.759 -0.2749  0.6665  0.0612
 1910SOL     OW17188   4.272   3.893   7.242  0.1082  0.4495 -0.2664
 1910SOL    HW117189   4.273   3.813   7.294 -1.5951 -0.1007 -1.0821
 1910SOL    HW217190   4.274   3.955   7.315  0.3847  0.1743 -0.0397
 1911SOL     OW17191   0.343   0.966   2.011  0.3639 -0.4807  0.1663
 1911SOL    HW117192   0.375   0.959   1.921 -2.3315 -1.0153 -0.7450
 1911SOL    HW217193   0.398   1.034   2.050  0.8308 -1.5548  1.4295
 1912SOL     OW17194   2.807   2.465   6.384 -0.3542  0.0890 -0.1835
 1912SOL    HW117195   2.858   2.545   6.396  1.4559 -1.5226  2.9833
 1912SOL    HW217196   2.850   2.426   6.308 -0.9060 -0.1079 -0.3919
 1913SOL     OW17197   3.103   1.498   6.250 -0.1326  0.1537 -0.0216
 1913SOL    HW117198   3.010   1.502   6.227 -1.3996  1.6115  5.3558
 1913SOL    HW217199   3.150   1.503   6.167  1.0394  1.1039  0.6945
 1914SOL     OW17200   1.474   4.617   2.825 -0.0924  0.0220 -0.6601
 1914SOL    HW117201   1.553   4.671   2.823 -0.9183  1.2897  1.3659
 1914SOL    HW217202   1.514   4.535   2.852 -1.3495 -0.7372 -1.0874
 1915SOL     OW17203   4.172   0.731   4.299  0.1018 -0.3404  0.6834
 1915SOL    HW117204   4.242   0.770   4.246  0.7115 -2.4615 -0.0762
 1915SOL    HW217205   4.157   0.807   4.355 -0.8656 -0.1809  0.2165
 1916SOL     OW17206   0.710   2.194  12.705  0.0981  0.0927 -0.1807
 1916SOL    HW117207   0.733   2.181  12.797  0.7163 -3.0954 -0.7795
 1916SOL    HW217208   0.646   2.126  12.688  0.4782  0.1468 -1.7701
 1917SOL     OW17209   1.677   2.615  14.168 -0.5789  0.3669 -0.1974
 1917SOL    HW117210   1.750   2.674  14.188  0.0919 -0.1724 -1.0290
 1917SOL    HW217211   1.636   2.615  14.255 -0.0458  2.4103  0.0484
 1918SOL     OW17212   3.493   4.399  10.419  0.0658 -0.0920  0.0153
 1918SOL    HW117213   3.523   4.370  10.333 -0.6912 -0.4662 -0.1187
 1918SOL    HW217214   3.414   4.445  10.393 -0.8866  0.0851  3.1593
 1919SOL     OW17215   2.940   0.401   4.898  0.1598  0.4595  0.6007
 1919SOL    HW117216   3.007   0.336   4.920  1.1688  1.2308 -0.2015
 1919SOL    HW217217   2.865   0.342   4.907 -0.2320  0.7527 -0.8038
 1920SOL     OW17218   1.103   2.509  11.143  0.0045 -0.3801  0.1766
 1920SOL    HW117219   1.027   2.566  11.134 -0.0370  0.1601  3.8040
 1920SOL    HW217220   1.162   2.552  11.081  0.7889 -2.5340 -0.5751
 1921SOL     OW17221   0.405   0.508  10.102  0.2843  0.3268 -0.0918
 1921SOL    HW117222   0.386   0.561  10.025 -0.3206  0.2933  0.0355
 1921SOL    HW217223   0.466   0.440  10.074 -0.9107 -0.5729 -0.5060
 1922SOL     OW17224   1.951   3.145   1.888 -0.1224 -0.6431  0.5509
 1922SOL    HW117225   1.946   3.130   1.794 -0.0532  1.3079  0.2491
 1922SOL    HW217226   2.040   3.112   1.901 -0.0246 -0.4910  0.2695
 1923SOL     OW17227   4.583   1.229   6.759 -0.7553  0.5407 -0.1556
 1923SOL    HW117228   4.619   1.168   6.823 -2.0244 -1.2351 -1.1483
 1923SOL    HW217229   4.528   1.160   6.722  0.9802  0.4186 -2.5331
 1924SOL     OW17230   1.473   1.765   8.497  0.1963 -0.5517  0.2161
 1924SOL    HW117231   1.438   1.716   8.571  2.8375 -0.3197  1.5991
 1924SOL    HW217232   1.475   1.697   8.430  2.1137 -0.6210  0.3563
 1925SOL     OW17233   3.635   0.557   9.541  0.2937 -0.0817 -0.0715
 1925SOL    HW117234   3.664   0.526   9.455  0.2680  0.1304 -0.1567
 1925SOL    HW217235   3.721   0.577   9.578  0.5031  0.6348 -0.9430
 1926SOL     OW17236   3.800   0.445   4.899 -0.3019 -0.3365  0.2967
 1926SOL    HW117237   3.728   0.400   4.942 -0.1667  1.1603  2.0773
 1926SOL    HW217238   3.754   0.483   4.823 -2.2381 -2.7846  0.2641
 1927SOL     OW17239   0.716   2.951  16.439  0.2804  0.4608 -0.2991
 1927SOL    HW117240   0.662   2.906  16.505  2.0923  1.3608  1.7899
 1927SOL    HW217241   0.657   3.024  16.417 -1.8503 -1.0022  0.5206
 1928SOL     OW17242   1.885   0.984   6.815 -0.6272 -0.4353 -0.0209
 1928SOL    HW117243   1.792   0.999   6.799 -1.0799 -1.7095  1.4021
 1928SOL    HW217244   1.886   0.916   6.882  0.5450  1.1096  1.5441
 1929SOL     OW17245   2.573   3.516   2.235 -0.2139 -0.1649 -0.3558
 1929SOL    HW117246   2.576   3.608   2.264 -0.0767 -0.5950  0.9858
 1929SOL    HW217247   2.620   3.474   2.306  0.1978 -0.2232 -0.6632
 1930SOL     OW17248   3.804   0.669   4.693  0.0837 -0.9460 -0.1813
 1930SOL    HW117249   3.878   0.617   4.661  0.6238  0.0756 -0.5753
 1930SOL    HW217250   3.770   0.695   4.608  0.8908 -0.0437 -0.2268
 1931SOL     OW17251   2.957   2.820   3.701  0.2077  0.0621 -0.3168
 1931SOL    HW117252   2.975   2.912   3.720  0.2926 -0.3041  1.3922
 1931SOL    HW217253   3.015   2.801   3.628 -0.2680 -0.0313 -0.6730
 1932SOL     OW17254   0.784   4.383  14.643 -0.1951  0.3726  0.4380
 1932SOL    HW117255   0.730   4.336  14.579  1.5400 -1.8248  0.5563
 1932SOL    HW217256   0.726   4.459  14.652 -0.4634  0.2522 -0.2364
 1933SOL     OW17257   2.951   1.832   5.933 -0.1250  0.2222  0.0860
 1933SOL    HW117258   3.045   1.831   5.914 -0.0422  3.3859  0.3916
 1933SOL    HW217259   2.933   1.924   5.954 -0.4604  0.2433 -0.3166
 1934SOL     OW17260   2.841   2.057   4.295  0.6723  0.6964  0.5028
 1934SOL    HW117261   2.820   2.150   4.301 -0.9440  0.4056 -0.6555
 1934SOL    HW217262   2.758   2.027   4.257  1.0755  0.0974  0.0958
 1935SOL     OW17263   1.389   1.188   9.354 -0.5871  0.2907  0.1581
 1935SOL    HW117264   1.471   1.215   9.396 -1.6788  1.3051  1.6161
 1935SOL    HW217265   1.415   1.109   9.307  1.7920 -0.0051  1.9687
 1936SOL     OW17266   4.451   3.167  15.714  0.2090  0.1320 -0.4863
 1936SOL    HW117267   4.477   3.179  15.623  1.1605  0.5782 -0.1574
 1936SOL    HW217268   4.364   3.132  15.695  1.4410 -2.3731 -1.5948
 1937SOL     OW17269   3.688   4.185   5.787  0.3444  0.0067  0.5408
 1937SOL    HW117270   3.753   4.219   5.725 -0.7138  0.1202 -0.5052
 1937SOL    HW217271   3.675   4.264   5.840 -0.1483 -0.0630  0.5219
 1938SOL     OW17272   4.556   3.963   0.001 -0.2616 -0.1249 -0.4141
 1938SOL    HW117273   4.476   3.943  17.646  0.3641 -0.5226 -1.2729
 1938SOL    HW217274   4.535   4.047   0.042 -1.3877 -0.1687 -0.9021
 1939SOL     OW17275   0.736   0.169   3.388  0.1387 -0.2333  0.3453
 1939SOL    HW117276   0.672   0.212   3.332 -0.9563 -0.9127  1.0685
 1939SOL    HW217277   0.809   0.231   3.382  0.8169 -0.9333  1.2166
 1940SOL     OW17278   1.078   1.775   8.917 -0.4002 -0.0247  0.7535
 1940SOL    HW117279   1.152   1.752   8.973 -1.2135 -2.0639  0.9755
 1940SOL    HW217280   1.039   1.688   8.915  1.6779 -0.8944 -2.3760
 1941SOL     OW17281   0.537   4.716   2.238  0.4030 -0.1218 -0.5987
 1941SOL    HW117282   0.535   4.636   2.186 -0.3796 -0.6583  0.2649
 1941SOL    HW217283   0.499   4.694   2.323 -0.0767  0.5605 -0.6372
 1942SOL     OW17284   1.225   3.932   3.120 -0.4150  0.4487 -0.0557
 1942SOL    HW117285   1.243   3.883   3.039 -1.6855 -1.1913  0.6562
 1942SOL    HW217286   1.152   3.991   3.104 -0.7428  0.9157  3.2101
 1943SOL     OW17287   1.681   0.040   4.599  0.3453  0.1251 -0.7298
 1943SOL    HW117288   1.719   0.123   4.571 -0.8219  1.0516  0.4299
 1943SOL    HW217289   1.669   0.059   4.693  2.4581  0.9969 -0.6367
 1944SOL     OW17290   1.399   2.383   9.100  0.0730  0.7773  0.2151
 1944SOL    HW117291   1.452   2.394   9.021  0.4313 -0.3012  0.3061
 1944SOL    HW217292   1.319   2.394   9.048  1.2093  0.3161 -1.6265
 1945SOL     OW17293   4.525   1.390  12.796 -0.3031  0.1227 -0.4545
 1945SOL    HW117294   4.467   1.315  12.808 -0.1154  0.2581  1.2086
 1945SOL    HW217295   4.572   1.366  12.715  1.4213  0.6938  0.3702
 1946SOL     OW17296   3.891   3.353   4.049  0.0382  0.1363 -0.1761
 1946SOL    HW117297   3.984   3.333   4.047  0.1805  0.7530  0.7010
 1946SOL    HW217298   3.865   3.359   3.956 -3.2289  1.1478  0.7803
 1947SOL     OW17299   2.617   2.042   4.111 -0.0012  0.0817  0.4760
 1947SOL    HW117300   2.579   1.959   4.080 -0.0194  0.4486 -0.4865
 1947SOL    HW217301   2.650   2.078   4.029 -1.0836  0.0774  0.0382
 1948SOL     OW17302   3.712   0.447   7.430 -0.2870  0.0969 -0.2204
 1948SOL    HW117303   3.617   0.455   7.422 -0.3257 -0.3596 -0.2146
 1948SOL    HW217304   3.705   0.351   7.427  1.1486 -0.0370  0.7989
 1949SOL     OW17305   0.286   2.917   8.707 -0.7239  0.1578 -0.1347
 1949SOL    HW117306   0.359   2.976   8.724  0.1101 -0.7342 -0.6432
 1949SOL    HW217307   0.217   2.976   8.676 -0.9789  0.4798  1.0230
 1950SOL     OW17308   1.023   0.645   8.076  0.2768  0.2455 -0.0567
 1950SOL    HW117309   1.069   0.637   7.993  1.6154 -0.2723  0.7376
 1950SOL    HW217310   0.973   0.563   8.073  0.6076  0.0742 -0.8001
 1951SOL     OW17311   3.800   3.499   4.281  0.5639 -0.2650  0.2575
 1951SOL    HW117312   3.848   3.463   4.206 -0.8077 -0.8570 -0.3345
 1951SOL    HW217313   3.797   3.592   4.257  0.5008 -0.0830  0.9738
 1952SOL     OW17314   2.863   4.686   8.566 -0.0457  0.5628 -0.5333
 1952SOL    HW117315   2.954   4.714   8.569  0.1874 -0.3224  0.7013
 1952SOL    HW217316   2.815   0.015   8.631  2.2595  2.1493 -0.1173
 1953SOL     OW17317   0.749   1.887   2.274 -0.2069  0.0136 -0.4534
 1953SOL    HW117318   0.671   1.866   2.324 -1.7452  2.9515 -1.5923
 1953SOL    HW217319   0.799   1.814   2.310 -0.0663  0.7907  0.9427
 1954SOL     OW17320   0.020   3.465   7.470 -0.3705  0.5604  0.0806
 1954SOL    HW117321   0.088   3.398   7.467 -1.2650 -0.2827 -1.2220
 1954SOL    HW217322   0.049   3.523   7.540 -0.2587 -1.0973  1.3931
 1955SOL     OW17323   3.432   0.742   9.599 -0.4357 -0.3180  0.7709
 1955SOL    HW117324   3.515   0.694   9.588 -1.2948 -1.6353  0.0849
 1955SOL    HW217325   3.435   0.776   9.688 -1.0954  0.0975  0.6330
 1956SOL     OW17326   2.955   3.629   6.766 -0.0061  0.4530 -0.3414
 1956SOL    HW117327   2.964   3.534   6.776 -2.0705  0.4760  1.6678
 1956SOL    HW217328   2.869   3.641   6.806 -0.5775 -1.6212 -0.9517
 1957SOL     OW17329   0.025   4.650   4.211 -0.3172  0.2433  0.5425
 1957SOL    HW117330   0.081   4.617   4.142 -0.4964  2.0250 -0.4654
 1957SOL    HW217331   4.675   4.589   4.218 -0.1357 -0.3555 -2.9835
 1958SOL     OW17332   1.973   1.514   3.734 -0.0236  0.0067 -0.5425
 1958SOL    HW117333   2.038   1.539   3.799 -1.5928  1.3231  0.5071
 1958SOL    HW217334   2.026   1.503   3.654  2.0018  1.2672  0.6255
 1959SOL     OW17335   3.638   2.795   0.815 -0.5729 -0.0484  0.2231
 1959SOL    HW117336   3.607   2.783   0.725  1.2554 -0.3401 -0.3688
 1959SOL    HW217337   3.648   2.890   0.820 -0.7773 -0.0029 -0.1834
 1960SOL     OW17338   2.815   0.519   5.558  0.2480  0.1230 -0.4875
 1960SOL    HW117339   2.818   0.493   5.650  0.1324  0.3625 -0.4168
 1960SOL    HW217340   2.894   0.570   5.541 -0.2282  1.5075  1.4530
 1961SOL     OW17341   4.621   0.871   9.021 -0.6363 -0.1332 -0.6484
 1961SOL    HW117342   4.577   0.877   8.936 -2.4271  0.8304  0.3363
 1961SOL    HW217343   4.682   0.798   9.010 -0.0720  0.1866  0.3955
 1962SOL     OW17344   0.947   3.120  12.049  0.2844 -0.2441 -0.0323
 1962SOL    HW117345   0.984   3.181  12.113  0.0320 -0.9390  0.7780
 1962SOL    HW217346   1.026   3.084  12.009 -1.0782  1.3991 -4.2692
 1963SOL     OW17347   3.831   3.587   3.391  0.3701 -0.2601 -0.3857
 1963SOL    HW117348   3.740   3.565   3.407 -0.0366  1.9111  0.2904
 1963SOL    HW217349   3.825   3.622   3.302 -1.8008  1.8330  0.5960
 1964SOL     OW17350   1.750   2.534   3.131  0.3557  0.2545 -0.5735
 1964SOL    HW117351   1.815   2.603   3.119  0.6028  0.0136 -0.6272
 1964SOL    HW217352   1.685   2.572   3.189  2.6570  0.0605  2.1490
 1965SOL     OW17353   3.292   1.201  17.072  0.5434  0.2062  0.2090
 1965SOL    HW117354   3.349   1.144  17.021  1.8704  0.4596  1.4012
 1965SOL    HW217355   3.271   1.260  16.999 -1.6660  0.4125  1.0092
 1966SOL     OW17356   1.079   3.344   6.564 -0.4512 -0.1373 -0.2775
 1966SOL    HW117357   1.046   3.338   6.654 -0.7814 -0.2999 -0.4118
 1966SOL    HW217358   1.043   3.263   6.530  0.0741 -0.1139 -0.8858
 1967SOL     OW17359   3.736   2.698   3.950  0.0103 -0.3316 -0.3421
 1967SOL    HW117360   3.688   2.635   3.896  0.3483 -1.2346  0.4113
 1967SOL    HW217361   3.704   2.681   4.039  0.6022 -0.3588 -0.1383
 1968SOL     OW17362   4.577   3.309   4.356  0.3528  0.1571 -0.3876
 1968SOL    HW117363   4.568   3.361   4.436 -1.1186 -0.2939 -0.2613
 1968SOL    HW217364   4.597   3.371   4.285  1.2952  0.9281  0.5577
 1969SOL     OW17365   4.525   2.389   9.657 -0.4264  0.3794  0.1554
 1969SOL    HW117366   4.538   2.385   9.563 -2.0232 -0.8108 -0.0066
 1969SOL    HW217367   4.601   2.341   9.690 -1.3412 -1.1838 -0.0071
 1970SOL     OW17368   2.611   2.776   2.828  0.0349  0.1460 -0.3011
 1970SOL    HW117369   2.571   2.724   2.759 -0.6978 -2.0272  1.7405
 1970SOL    HW217370   2.539   2.758   2.890 -1.1290  1.7418 -1.1688
 1971SOL     OW17371   3.232   1.436  11.775 -0.7265  0.2669  0.0034
 1971SOL    HW117372   3.159   1.378  11.799 -0.1377 -0.9296 -1.0640
 1971SOL    HW217373   3.256   1.454  11.866 -1.2482  0.8196  0.0303
 1972SOL     OW17374   4.016   0.365   7.007  0.0599  0.2421  0.1807
 1972SOL    HW117375   4.020   0.344   6.914  0.4566 -1.1240  0.5080
 1972SOL    HW217376   3.922   0.367   7.024  0.4761 -0.2694  2.5208
 1973SOL     OW17377   3.534   2.289   5.859 -0.1883 -0.3866 -0.2068
 1973SOL    HW117378   3.626   2.306   5.879 -0.8738 -0.6354  3.2284
 1973SOL    HW217379   3.496   2.371   5.891  2.3372 -0.7436  3.7485
 1974SOL     OW17380   0.855   0.030   9.889  0.3365 -0.0045 -0.0842
 1974SOL    HW117381   0.777   0.050   9.836  0.1857  0.8292  0.4523
 1974SOL    HW217382   0.876   4.667   9.853 -1.5399  0.1162 -1.4596
 1975SOL     OW17383   3.696   2.191  11.948  0.4007  0.2431  0.1095
 1975SOL    HW117384   3.723   2.100  11.955 -0.5689 -0.0608 -0.1893
 1975SOL    HW217385   3.721   2.209  11.857  0.3789  0.1206  0.0805
 1976SOL     OW17386   3.975   2.412   6.430  0.6989 -0.3017  0.7190
 1976SOL    HW117387   3.979   2.491   6.485  0.9691  0.8767 -0.9820
 1976SOL    HW217388   3.929   2.354   6.489 -0.2592  0.4564  0.7135
 1977SOL     OW17389   3.278   1.187   1.343  0.0979  0.1031 -0.1741
 1977SOL    HW117390   3.290   1.096   1.370  1.1373  0.3766  0.3034
 1977SOL    HW217391   3.349   1.227   1.394 -0.3197  0.6315 -0.0073
 1978SOL     OW17392   2.432   0.532  12.096 -0.2762  0.4045  0.0336
 1978SOL    HW117393   2.426   0.488  12.011  1.8631  0.5540 -0.2113
 1978SOL    HW217394   2.390   0.616  12.079 -0.2092 -0.0670 -2.3935
 1979SOL     OW17395   2.769   2.888   8.489 -1.0301  0.0016 -0.4997
 1979SOL    HW117396   2.819   2.812   8.459  0.5173  0.2124  1.6001
 1979SOL    HW217397   2.725   2.927   8.413  1.7101  0.5812 -1.8005
 1980SOL     OW17398   0.094   4.300   0.507  0.0328  0.6620  0.5033
 1980SOL    HW117399   0.064   4.322   0.596 -1.7827 -1.5181  0.4192
 1980SOL    HW217400   0.177   4.347   0.497  1.4153 -1.9430 -0.2121
 1981SOL     OW17401   2.034   0.641  13.453 -0.0109  0.3470  0.4940
 1981SOL    HW117402   1.962   0.694  13.417 -0.5893 -1.5251 -1.1079
 1981SOL    HW217403   2.098   0.704  13.484  0.1198  0.1411  0.6381
 1982SOL     OW17404   4.599   1.092   5.298 -0.1231  0.4591 -0.4898
 1982SOL    HW117405   4.621   1.185   5.306 -2.0500  0.8834 -0.1387
 1982SOL    HW217406   4.683   1.055   5.271 -1.4792 -1.7070 -1.7074
 1983SOL     OW17407   0.543   4.233  11.023 -0.1819  0.0238 -0.1430
 1983SOL    HW117408   0.635   4.206  11.016  0.7043  2.1329  2.9399
 1983SOL    HW217409   0.542   4.283  11.105 -1.5399 -0.3602  0.0646
 1984SOL     OW17410   3.264   4.197  17.456 -0.2305  0.5087 -0.4727
 1984SOL    HW117411   3.186   4.189  17.511  0.3559  0.5921  0.3640
 1984SOL    HW217412   3.329   4.218  17.522  0.6414 -2.9975 -0.2377
 1985SOL     OW17413   3.948   0.315  14.756 -0.0255 -0.1108  0.2378
 1985SOL    HW117414   3.969   0.362  14.837  0.4085  3.2160 -1.8131
 1985SOL    HW217415   3.920   0.383  14.695 -0.9288 -0.4580  0.2643
 1986SOL     OW17416   2.390   3.064   8.861  0.2647  0.4907  0.4472
 1986SOL    HW117417   2.340   3.131   8.814 -1.8496 -1.1723  0.2864
 1986SOL    HW217418   2.467   3.087   8.809  1.0973  0.0726  1.5050
 1987SOL     OW17419   0.068   3.969   5.862 -0.3826 -0.0453 -0.0848
 1987SOL    HW117420   0.111   4.036   5.810 -0.1559 -0.1896 -0.0831
 1987SOL    HW217421   0.131   3.897   5.855 -1.2388 -1.1201  3.2343
 1988SOL     OW17422   4.306   2.614   6.424 -0.4090 -1.0333 -0.1830
 1988SOL    HW117423   4.249   2.660   6.486  0.1901  0.5501 -0.8074
 1988SOL    HW217424   4.271   2.657   6.346 -0.4064  0.1869  0.4789
 1989SOL     OW17425   3.683   1.953   9.968 -0.2632 -0.5504  0.0637
 1989SOL    HW117426   3.652   2.033  10.010  0.2963  1.5123 -3.4442
 1989SOL    HW217427   3.719   1.992   9.888 -0.1591 -1.1531 -0.1831
 1990SOL     OW17428   4.286   3.649   1.043 -0.2353 -0.1049 -0.4681
 1990SOL    HW117429   4.314   3.718   0.983  0.6658 -1.8400 -2.0604
 1990SOL    HW217430   4.327   3.583   0.987  0.6392  0.8525 -0.9573
 1991SOL     OW17431   0.759   4.025   7.662  0.2656 -0.0291  0.3512
 1991SOL    HW117432   0.711   4.019   7.745 -0.7491  1.1641 -0.1499
 1991SOL    HW217433   0.708   4.085   7.607 -1.2796 -1.1259  0.5804
 1992SOL     OW17434   0.350   2.644   0.289  0.2334 -0.0472  0.3005
 1992SOL    HW117435   0.430   2.611   0.248  0.2869 -0.0505  0.4051
 1992SOL    HW217436   0.351   2.599   0.374  1.1675  2.2220  1.4888
 1993SOL     OW17437   1.313   3.355   8.493 -0.2286  0.1363 -0.5329
 1993SOL    HW117438   1.389   3.410   8.512 -0.4329  0.2125  0.0695
 1993SOL    HW217439   1.245   3.422   8.490  0.5183  0.9250  0.2722
 1994SOL     OW17440   3.265   1.972   9.341 -0.2636 -0.3135 -0.1849
 1994SOL    HW117441   3.311   1.899   9.384  0.3868 -0.7633 -1.6317
 1994SOL    HW217442   3.325   1.994   9.269 -0.4607  2.3137  0.4441
 1995SOL     OW17443   0.469   3.201   6.828 -0.2562 -0.0842  0.2785
 1995SOL    HW117444   0.391   3.146   6.822 -0.5013  0.4786 -1.6300
 1995SOL    HW217445   0.506   3.198   6.740  0.5655 -0.5295  0.6414
 1996SOL     OW17446   0.503   0.333   6.624 -0.0138 -0.1648  0.0906
 1996SOL    HW117447   0.420   0.288   6.610  0.2623 -0.6001 -0.1284
 1996SOL    HW217448   0.474   0.424   6.609  0.2053 -0.5501 -2.6332
 1997SOL     OW17449   0.224   1.002   2.940  0.3406  0.2113 -0.6028
 1997SOL    HW117450   0.241   0.981   2.848 -1.8121 -0.2810 -0.8925
 1997SOL    HW217451   0.134   0.969   2.944  0.3883  0.3081  1.2809
 1998SOL     OW17452   2.398   4.037   7.728  0.2936  0.1920  0.2384
 1998SOL    HW117453   2.491   4.038   7.709  0.1938  0.5000 -0.2160
 1998SOL    HW217454   2.400   3.970   7.797  0.3595  2.1293  2.1336
 1999SOL     OW17455   4.351   1.473  14.642  0.3272  0.5632  0.0101
 1999SOL    HW117456   4.282   1.529  14.678 -1.8943 -0.9734 -1.9375
 1999SOL    HW217457   4.388   1.441  14.724 -0.4255 -0.3290  0.0009
 2000SOL     OW17458   0.908   0.702   3.772  0.5994 -0.3684  0.2208
 2000SOL    HW117459   0.876   0.793   3.771  1.8866  0.0824  0.3245
 2000SOL    HW217460   0.920   0.687   3.678 -1.5243  0.3497 -0.1653
 2001SOL     OW17461   3.804   0.952  11.368  0.1526  0.9798 -0.7682
 2001SOL    HW117462   3.798   1.028  11.310  0.1391  0.9734 -0.7752
 2001SOL    HW217463   3.776   0.889  11.302  0.3809 -0.7390  0.7825
 2002SOL     OW17464   2.383   2.869   3.794 -0.9913 -0.1279 -1.0895
 2002SOL    HW117465   2.345   2.842   3.877 -0.2160 -1.8714 -1.3107
 2002SOL    HW217466   2.301   2.889   3.749  0.1203  1.9181 -2.2167
 2003SOL     OW17467   4.399   1.997   3.806 -0.1845  0.5491 -0.4394
 2003SOL    HW117468   4.310   2.014   3.835 -0.7328 -1.8861 -0.6380
 2003SOL    HW217469   4.449   1.972   3.884 -2.7821  2.7828  1.8962
 2004SOL     OW17470   2.379   2.610   6.891 -0.4799 -0.4791 -0.7079
 2004SOL    HW117471   2.366   2.592   6.984  1.1418  2.0426  0.0188
 2004SOL    HW217472   2.312   2.676   6.874 -0.3200 -0.2030 -0.2828
 2005SOL     OW17473   3.011   2.893  16.041  0.6098 -0.0245 -0.0683
 2005SOL    HW117474   3.104   2.874  16.027  0.8168  1.4076 -0.6599
 2005SOL    HW217475   3.013   2.968  16.100  3.4105 -1.0833  1.1784
 2006SOL     OW17476   3.407   4.401   2.244  0.4662 -0.5025 -0.0900
 2006SOL    HW117477   3.485   4.448   2.275  0.5514 -0.9624  0.4040
 2006SOL    HW217478   3.351   4.428   2.317 -0.2220  0.6982 -1.0803
 2007SOL     OW17479   3.780   1.393   3.890  0.1090  0.5497 -0.0924
 2007SOL    HW117480   3.775   1.389   3.985  0.0254 -0.7697 -0.1471
 2007SOL    HW217481   3.781   1.488   3.883 -3.7940  0.7004  1.1200
 2008SOL     OW17482   0.157   3.324   2.680 -0.1824  0.4177  0.2139
 2008SOL    HW117483   0.216   3.395   2.706  0.5505 -0.0031 -0.2652
 2008SOL    HW217484   0.209   3.246   2.700 -0.2815  0.1707 -0.4710
 2009SOL     OW17485   1.507   3.118  10.443 -0.1771 -0.0443  0.4138
 2009SOL    HW117486   1.483   3.077  10.527 -0.9576  1.9959  1.1793
 2009SOL    HW217487   1.429   3.095  10.392 -1.0677  1.9951  0.8430
 2010SOL     OW17488   1.056   1.423  12.963 -0.0760 -0.5422  0.3344
 2010SOL    HW117489   0.993   1.493  12.982  0.2841 -0.3178  0.6895
 2010SOL    HW217490   1.045   1.377  13.047  0.7468 -0.3493  0.5463
 2011SOL     OW17491   3.187   3.009   9.866  0.3055 -0.0168  0.5064
 2011SOL    HW117492   3.218   3.100   9.873  2.2070 -0.6936  0.7896
 2011SOL    HW217493   3.092   3.022   9.869  0.3151 -0.3927  2.5243
 2012SOL     OW17494   0.337   3.039  15.678  0.0273 -0.1904  0.2852
 2012SOL    HW117495   0.389   3.046  15.759 -1.9532  0.7978  1.4609
 2012SOL    HW217496   0.268   3.098  15.706 -0.4637  0.1956 -1.7986
 2013SOL     OW17497   0.865   4.163  11.643 -0.6450  0.0228  0.0303
 2013SOL    HW117498   0.845   4.069  11.636  0.2423 -0.1663 -0.0319
 2013SOL    HW217499   0.959   4.167  11.622 -0.2187 -0.6565  1.8236
 2014SOL     OW17500   4.577   2.152   5.939  0.4134  0.6633  0.1115
 2014SOL    HW117501   4.584   2.163   5.844 -0.0026  0.1718  0.0223
 2014SOL    HW217502   4.482   2.150   5.949  0.1916 -2.7386 -2.5215
 2015SOL     OW17503   1.115   1.045  17.080  0.0173 -0.2132 -0.2308
 2015SOL    HW117504   1.083   1.016  16.995 -0.1806 -1.1379  0.1536
 2015SOL    HW217505   1.038   1.096  17.105  0.7400  1.5876 -1.7232
 2016SOL     OW17506   1.684   1.909  15.609 -0.1332  0.4182 -0.4419
 2016SOL    HW117507   1.699   1.978  15.544 -0.2703  0.8704  0.0101
 2016SOL    HW217508   1.628   1.848  15.561  0.2791  0.4652 -0.9886
 2017SOL     OW17509   2.691   0.081   6.355  0.0967 -0.7469 -0.1717
 2017SOL    HW117510   2.659   4.716   6.333 -0.1870 -0.7246  0.1450
 2017SOL    HW217511   2.613   0.137   6.352  1.0683  0.5645 -0.6186
 2018SOL     OW17512   1.464   2.807  14.780 -0.5361 -0.3581 -0.5297
 2018SOL    HW117513   1.513   2.835  14.703  2.2642  1.3674  1.8564
 2018SOL    HW217514   1.411   2.887  14.777 -1.1045 -0.6574  1.2769
 2019SOL     OW17515   1.785   1.352   1.616 -0.1861  0.0579 -0.2823
 2019SOL    HW117516   1.816   1.439   1.594 -0.5014  0.9613  2.8135
 2019SOL    HW217517   1.746   1.362   1.703 -0.9331 -1.6647 -0.4088
 2020SOL     OW17518   3.822   3.498   2.243  0.0728  0.4526 -0.1836
 2020SOL    HW117519   3.892   3.520   2.181  1.5750 -0.4442  1.1805
 2020SOL    HW217520   3.863   3.496   2.329 -1.3739  1.7543  0.5396
 2021SOL     OW17521   0.101   1.386  15.142  0.0533 -0.2427 -0.1207
 2021SOL    HW117522   0.197   1.391  15.144  0.1114 -1.2467 -0.4065
 2021SOL    HW217523   0.090   1.292  15.127 -2.2567  0.2315 -1.3610
 2022SOL     OW17524   2.593   4.306   1.569  0.5610  0.3734  0.8362
 2022SOL    HW117525   2.503   4.339   1.566  0.3943 -0.4635 -3.1752
 2022SOL    HW217526   2.635   4.389   1.544  1.4634 -0.2457  0.2948
 2023SOL     OW17527   0.400   0.893  10.059  0.4761  0.4279 -0.1938
 2023SOL    HW117528   0.476   0.841  10.088 -0.8764 -0.5688  1.5735
 2023SOL    HW217529   0.436   0.977  10.032 -2.4036  1.4566 -0.8385
 2024SOL     OW17530   3.383   1.141  10.100 -0.1870  0.0234 -0.0040
 2024SOL    HW117531   3.325   1.075  10.138 -0.5794  1.1916  1.4803
 2024SOL    HW217532   3.437   1.153  10.178  0.5281 -1.2661 -0.3104
 2025SOL     OW17533   3.544   4.104   0.954  0.2864 -0.2991 -0.3612
 2025SOL    HW117534   3.490   4.030   0.925 -0.8725  0.2154  0.4607
 2025SOL    HW217535   3.487   4.179   0.935 -1.3751 -1.0433  1.6399
 2026SOL     OW17536   0.822   1.074   5.011  0.0270 -0.3516  0.5232
 2026SOL    HW117537   0.789   1.033   4.931  0.7343 -1.2510  0.6976
 2026SOL    HW217538   0.802   1.167   4.996  0.8654 -0.5772 -2.0104
 2027SOL     OW17539   2.367   0.591  16.284  0.4917 -0.4921  0.4623
 2027SOL    HW117540   2.390   0.681  16.262  1.8552 -0.4170  2.2496
 2027SOL    HW217541   2.309   0.604  16.359 -1.3309 -1.3596 -0.7880
 2028SOL     OW17542   1.516   1.273   2.749 -0.2887 -0.4349 -0.6462
 2028SOL    HW117543   1.457   1.234   2.813  2.0445 -1.9710  0.5715
 2028SOL    HW217544   1.494   1.223   2.671  1.5826  0.4572 -1.7353
 2029SOL     OW17545   2.471   0.102   1.294 -0.0022 -0.0266  0.4112
 2029SOL    HW117546   2.466   0.089   1.389 -1.5422 -2.1911  0.0243
 2029SOL    HW217547   2.550   0.155   1.286  0.7638 -1.4566 -1.3986
 2030SOL     OW17548   1.039   2.752   6.688  0.6191  0.4656  0.3173
 2030SOL    HW117549   1.059   2.747   6.594  0.3621 -1.7935  0.3859
 2030SOL    HW217550   0.948   2.771   6.667  0.8280  0.8511 -0.2581
 2031SOL     OW17551   2.479   3.101   6.248 -0.3716  0.4599 -0.3042
 2031SOL    HW117552   2.510   3.186   6.279  1.7916 -0.5137  0.2485
 2031SOL    HW217553   2.536   3.046   6.301  1.1933  1.0310 -1.3851
 2032SOL     OW17554   0.372   0.683   5.840  0.2321 -0.1055 -0.2716
 2032SOL    HW117555   0.341   0.608   5.790 -0.2284 -0.2782  0.2712
 2032SOL    HW217556   0.420   0.641   5.911 -0.2154 -1.6201 -0.8620
 2033SOL     OW17557   0.658   1.339   7.498 -0.5274 -0.2531 -0.6115
 2033SOL    HW117558   0.599   1.406   7.532 -0.7954 -0.2909 -1.0094
 2033SOL    HW217559   0.718   1.330   7.572 -1.5334 -0.5233  0.1770
 2034SOL     OW17560   0.353   2.788  10.218  0.0421  0.4563  0.2984
 2034SOL    HW117561   0.348   2.752  10.307  4.3049 -0.2623  0.2693
 2034SOL    HW217562   0.449   2.789  10.215  0.0194  0.3730 -0.3473
 2035SOL     OW17563   0.832   2.866  11.847  0.0225 -0.0507 -0.2640
 2035SOL    HW117564   0.762   2.867  11.913  1.2196 -1.9603  1.0282
 2035SOL    HW217565   0.771   2.852  11.775 -0.9447 -0.1022  0.5513
 2036SOL     OW17566   4.361   2.284  15.446 -0.1080  0.3808  0.3335
 2036SOL    HW117567   4.355   2.371  15.485 -3.0254  0.5630 -0.5669
 2036SOL    HW217568   4.449   2.276  15.408  0.4779 -0.8151  1.9026
 2037SOL     OW17569   0.228   4.606   4.036 -0.6671  0.1403 -0.1927
 2037SOL    HW117570   0.244   4.700   4.025 -0.0780  0.1213  0.5031
 2037SOL    HW217571   0.249   4.579   3.947 -1.6047 -1.4405  0.0585
 2038SOL     OW17572   4.329   2.106   6.537  0.5400 -0.2158 -0.1479
 2038SOL    HW117573   4.375   2.158   6.603  1.3393  0.6240 -1.3374
 2038SOL    HW217574   4.400   2.063   6.488  0.5771  0.2067 -0.4690
 2039SOL     OW17575   3.479   3.479   7.483 -0.0853 -0.1991 -0.4121
 2039SOL    HW117576   3.483   3.519   7.397 -0.7828 -3.0264 -1.7557
 2039SOL    HW217577   3.435   3.551   7.529  0.0447  0.5924 -1.5354
 2040SOL     OW17578   4.486   1.144   8.832 -0.9630 -0.4750 -0.3583
 2040SOL    HW117579   4.492   1.209   8.903 -0.6401  1.8341 -2.4698
 2040SOL    HW217580   4.391   1.132   8.829 -0.9032 -1.0127  0.0543
 2041SOL     OW17581   2.709   0.407   3.371  0.3509 -0.0862 -0.1170
 2041SOL    HW117582   2.699   0.314   3.390 -1.1970  0.2035  0.5022
 2041SOL    HW217583   2.634   0.423   3.315 -2.3393 -3.2724  2.5630
 2042SOL     OW17584   0.331   4.535   3.810 -0.2000  0.1340  0.2090
 2042SOL    HW117585   0.395   4.498   3.749 -2.0672 -1.7574 -0.5682
 2042SOL    HW217586   0.304   4.609   3.754 -1.4983  1.0234  2.0229
 2043SOL     OW17587   1.931   0.232   3.140  0.5488  0.3922  0.5155
 2043SOL    HW117588   1.976   0.147   3.143 -0.8316 -0.3572  0.1645
 2043SOL    HW217589   1.909   0.240   3.233 -3.2239  0.4407 -0.3941
 2044SOL     OW17590   0.370   4.160   5.241 -0.2672 -0.0015 -0.6425
 2044SOL    HW117591   0.334   4.231   5.294  1.2720 -0.2890  0.7715
 2044SOL    HW217592   0.319   4.084   5.271  0.1798 -0.5937 -1.3887
 2045SOL     OW17593   1.783   3.023   7.473 -0.0687  0.3427 -0.1463
 2045SOL    HW117594   1.701   2.974   7.468  0.7706 -1.2297  1.4540
 2045SOL    HW217595   1.770   3.055   7.562 -0.0126 -2.6526  0.9522
 2046SOL     OW17596   1.211   4.019   1.152  0.4060  0.2348  0.2879
 2046SOL    HW117597   1.259   4.097   1.176  4.7527 -2.1732 -0.6517
 2046SOL    HW217598   1.213   3.977   1.238  1.9654 -2.6996 -1.1808
 2047SOL     OW17599   1.044   0.885   1.876  0.6778  0.2874  0.1398
 2047SOL    HW117600   1.043   0.825   1.951 -0.5507  1.9536  1.4652
 2047SOL    HW217601   0.950   0.894   1.861  0.7692  0.1083 -0.5272
 2048SOL     OW17602   2.033   0.499   2.196 -0.3454  0.0614 -0.3869
 2048SOL    HW117603   2.024   0.496   2.292  1.7510  0.3250 -0.1967
 2048SOL    HW217604   2.123   0.513   2.167 -0.0483  2.5770  1.7655
 2049SOL     OW17605   1.893   1.563   6.805  0.0091  0.5611 -0.0198
 2049SOL    HW117606   1.959   1.521   6.750 -0.5412  0.3454 -0.5140
 2049SOL    HW217607   1.901   1.510   6.884 -0.1353 -1.3328 -1.2726
 2050SOL     OW17608   4.468   3.796  15.194  0.0946 -0.2364  0.7729
 2050SOL    HW117609   4.495   3.742  15.120 -0.8716  0.5628 -0.1523
 2050SOL    HW217610   4.374   3.806  15.179  0.3059 -0.9501 -1.0037
 2051SOL     OW17611   3.486   2.678   2.450  0.5629  0.1181 -0.5459
 2051SOL    HW117612   3.440   2.598   2.425  0.9876 -1.0845  2.5119
 2051SOL    HW217613   3.416   2.737   2.423 -2.3469 -1.9588  2.4939
 2052SOL     OW17614   3.780   2.840  17.276 -0.0019 -0.8875  0.0404
 2052SOL    HW117615   3.836   2.889  17.336  0.3361 -1.2855  0.0525
 2052SOL    HW217616   3.694   2.860  17.311 -0.4160 -1.5073 -0.6105
 2053SOL     OW17617   4.422   3.483  17.170 -0.1914  0.0229  0.0554
 2053SOL    HW117618   4.462   3.396  17.172 -0.0564  0.0943  0.4641
 2053SOL    HW217619   4.486   3.528  17.225  1.3970 -1.2447 -0.7422
 2054SOL     OW17620   0.172   0.251  15.251  0.3530  0.3768 -0.3774
 2054SOL    HW117621   0.100   0.263  15.189  0.3896 -0.8561 -0.6628
 2054SOL    HW217622   0.156   0.304  15.329 -2.6024  1.2940 -1.6156
 2055SOL     OW17623   1.031   3.592  12.102 -0.3673 -0.1836  0.1870
 2055SOL    HW117624   0.964   3.659  12.117 -0.2330 -0.2191  0.9428
 2055SOL    HW217625   1.064   3.616  12.016  0.3084 -0.4566  0.3769
 2056SOL     OW17626   0.323   1.119   8.854  0.0383  0.8306 -0.4352
 2056SOL    HW117627   0.377   1.090   8.780 -0.7938 -2.4003  0.2498
 2056SOL    HW217628   0.238   1.093   8.819 -0.0574  0.1623  0.3147
 2057SOL     OW17629   2.685   0.824   8.686 -0.0946  0.1988 -0.4149
 2057SOL    HW117630   2.667   0.816   8.592 -1.3207 -0.9793 -0.0880
 2057SOL    HW217631   2.744   0.749   8.695 -1.7174 -0.9362  0.7860
 2058SOL     OW17632   2.290   3.794   3.906  0.0496 -0.1191 -0.4630
 2058SOL    HW117633   2.215   3.799   3.966 -0.0928  2.3525 -0.8295
 2058SOL    HW217634   2.338   3.737   3.966  0.9231 -0.3793 -1.4273
 2059SOL     OW17635   2.090   2.057   7.778  0.2454  0.2810  0.5860
 2059SOL    HW117636   2.089   2.047   7.683 -0.3971 -0.4406  0.6595
 2059SOL    HW217637   2.150   2.130   7.791 -0.7565  1.4720 -1.4610
 2060SOL     OW17638   1.855   3.283  14.900 -0.2076  0.7347  0.3727
 2060SOL    HW117639   1.856   3.361  14.955 -1.2595  1.7329 -1.0223
 2060SOL    HW217640   1.903   3.322  14.827 -1.1494  2.1533  0.5108
 2061SOL     OW17641   1.257   4.594  14.149 -0.2013  0.1592  0.2707
 2061SOL    HW117642   1.203   4.603  14.227  1.3560  0.8547  1.2814
 2061SOL    HW217643   1.190   4.613  14.083 -1.8084 -0.6119  1.6800
 2062SOL     OW17644   1.391   0.383   0.821 -0.3309  1.0205 -0.2939
 2062SOL    HW117645   1.358   0.469   0.792 -1.6794  0.2700 -0.9906
 2062SOL    HW217646   1.311   0.339   0.850 -0.2001  0.4415 -0.8128
 2063SOL     OW17647   0.865   2.732  15.761  0.1082 -0.5538 -0.4863
 2063SOL    HW117648   0.824   2.733  15.847 -0.6079 -1.3788 -0.8256
 2063SOL    HW217649   0.931   2.800  15.773  1.9677 -2.2974 -0.8721
 2064SOL     OW17650   1.320   4.309   2.930  0.1254  0.0934 -0.3079
 2064SOL    HW117651   1.308   4.218   2.902  1.9707 -0.0522 -0.6864
 2064SOL    HW217652   1.233   4.347   2.928  0.3253  0.4875 -1.5595
 2065SOL     OW17653   0.325   1.884  11.239 -0.3408 -0.1113 -0.2974
 2065SOL    HW117654   0.272   1.877  11.319  2.6100 -3.7401  1.3369
 2065SOL    HW217655   0.337   1.793  11.212  0.7135  0.1605 -0.7100
 2066SOL     OW17656   2.206   0.558  13.808 -0.0758  0.3915 -0.6607
 2066SOL    HW117657   2.294   0.593  13.819 -0.3121  0.1747  1.7694
 2066SOL    HW217658   2.175   0.549  13.898  0.5305  0.9340 -0.4016
 2067SOL     OW17659   1.026   3.585   5.341  0.1467 -0.1102  0.0041
 2067SOL    HW117660   1.118   3.566   5.322  0.1847 -0.0769  0.1530
 2067SOL    HW217661   0.988   3.590   5.253  1.0805 -0.5476 -0.4251
 2068SOL     OW17662   1.206   3.651   7.316  0.0122 -0.0764 -0.1916
 2068SOL    HW117663   1.245   3.581   7.263  0.3421 -0.6496  0.7927
 2068SOL    HW217664   1.264   3.723   7.291  0.7792 -1.3180 -2.0028
 2069SOL     OW17665   1.894   3.248  13.161 -0.2008  0.5274  0.2052
 2069SOL    HW117666   1.930   3.205  13.083  2.6415  0.9700  1.2824
 2069SOL    HW217667   1.949   3.325  13.159 -0.7959  0.9637  0.9414
 2070SOL     OW17668   0.661   3.539   3.010  1.1949  0.1338 -0.5967
 2070SOL    HW117669   0.739   3.587   2.981  1.9101 -0.8569 -0.3141
 2070SOL    HW217670   0.659   3.482   2.933 -0.4830 -0.6225  0.0168
 2071SOL     OW17671   3.351   0.497   1.191  0.2336 -0.6563 -0.0205
 2071SOL    HW117672   3.344   0.404   1.174  0.6359 -1.0139  1.7152
 2071SOL    HW217673   3.440   0.515   1.223  0.6000 -0.3813 -1.1816
 2072SOL     OW17674   2.244   3.220   8.676  0.5297  0.1775  0.0466
 2072SOL    HW117675   2.159   3.177   8.684 -0.5736  2.4823  0.9258
 2072SOL    HW217676   2.244   3.238   8.582 -0.3054 -1.3198 -0.2337
 2073SOL     OW17677   0.670   2.617  16.201 -0.1088 -0.0378  0.1064
 2073SOL    HW117678   0.683   2.535  16.248 -1.0420  0.1645  0.7004
 2073SOL    HW217679   0.622   2.592  16.122 -0.8266 -0.9130  0.8199
 2074SOL     OW17680   1.903   1.139   7.885 -0.6719  0.8107 -0.2913
 2074SOL    HW117681   1.894   1.088   7.965  0.6099 -0.4205 -0.9417
 2074SOL    HW217682   1.970   1.088   7.841  0.3162 -0.0681  2.2908
 2075SOL     OW17683   3.390   2.197  15.759  0.6066  0.1867  0.1509
 2075SOL    HW117684   3.366   2.289  15.746  3.6964  0.5358 -3.2613
 2075SOL    HW217685   3.485   2.200  15.748  0.3662  0.6802 -1.8336
 2076SOL     OW17686   0.637   0.328   4.756 -0.2464 -0.0212 -0.5733
 2076SOL    HW117687   0.663   0.405   4.807 -0.8272  1.2771 -2.2154
 2076SOL    HW217688   0.675   0.260   4.811  0.0430 -0.9002 -1.8646
 2077SOL     OW17689   1.101   1.400   5.053  0.1735  0.2514 -0.2033
 2077SOL    HW117690   1.085   1.493   5.040 -0.5380  0.0322 -0.8974
 2077SOL    HW217691   1.020   1.362   5.019  0.8101 -2.0655  0.9122
 2078SOL     OW17692   2.996   3.312   5.291  0.2206 -0.0936 -0.0209
 2078SOL    HW117693   3.012   3.274   5.378  0.5259  1.3997  0.5657
 2078SOL    HW217694   3.041   3.396   5.296 -1.8930  1.1452 -1.5411
 2079SOL     OW17695   2.661   3.996   2.820 -0.0177 -0.1557  0.6777
 2079SOL    HW117696   2.726   4.061   2.847  0.3195  0.8020 -2.4401
 2079SOL    HW217697   2.659   4.017   2.727 -1.1162 -1.9514  0.2885
 2080SOL     OW17698   0.975   0.655   5.863 -0.1839 -0.9470 -0.1532
 2080SOL    HW117699   1.018   0.741   5.867 -1.5775 -0.3348  1.3016
 2080SOL    HW217700   0.924   0.660   5.782 -0.7094  0.0228  0.2327
 2081SOL     OW17701   2.174   4.563   5.022  0.8394  0.3548 -0.0626
 2081SOL    HW117702   2.230   4.584   4.947  0.5090 -1.1672 -0.7365
 2081SOL    HW217703   2.213   4.614   5.093 -1.5916 -0.6240  1.9808
 2082SOL     OW17704   1.478   2.327  10.960 -0.5204 -0.6430 -0.1186
 2082SOL    HW117705   1.388   2.355  10.945 -0.5537 -0.0655  1.0980
 2082SOL    HW217706   1.525   2.408  10.940 -2.4448  0.9782  1.9206
 2083SOL     OW17707   0.768   0.768   7.927  0.0657 -0.4863  0.5418
 2083SOL    HW117708   0.840   0.767   7.990  0.1695 -0.2564  0.4276
 2083SOL    HW217709   0.809   0.778   7.842 -0.3320 -0.7542  0.3169
 2084SOL     OW17710   1.177   0.819   4.273 -0.1600  0.6417  0.4620
 2084SOL    HW117711   1.204   0.906   4.244 -1.8799  0.6611 -1.0477
 2084SOL    HW217712   1.129   0.803   4.192  1.1258  0.1738 -0.2091
 2085SOL     OW17713   0.491   0.078  12.146  0.2145 -0.1738  0.2653
 2085SOL    HW117714   0.537   0.141  12.202 -2.0586  0.8719  0.9655
 2085SOL    HW217715   0.549   0.070  12.071 -0.9346  0.7199 -0.7136
 2086SOL     OW17716   3.741   2.608   6.808  0.8601  0.4357  0.0068
 2086SOL    HW117717   3.654   2.613   6.768  1.1227  0.3369 -0.5653
 2086SOL    HW217718   3.713   2.609   6.900  0.4086 -1.1842 -0.1187
 2087SOL     OW17719   1.207   1.717   6.672 -0.3651  0.2800 -0.4605
 2087SOL    HW117720   1.195   1.795   6.617 -1.2912 -0.4843 -1.3229
 2087SOL    HW217721   1.142   1.736   6.740 -1.8875 -0.0172 -1.8322
 2088SOL     OW17722   4.688   4.112   9.241 -0.0813 -0.3040  0.0281
 2088SOL    HW117723   4.687   4.067   9.325  0.7712 -3.3243 -1.5731
 2088SOL    HW217724   0.054   4.100   9.208 -1.3099 -0.8183 -3.1962
 2089SOL     OW17725   4.342   0.509   3.868  0.0857 -0.2682 -0.2429
 2089SOL    HW117726   4.322   0.592   3.824 -0.1450  0.8695  2.0057
 2089SOL    HW217727   4.254   0.484   3.894 -0.2335 -0.8040 -1.8392
 2090SOL     OW17728   4.001   1.244  10.435  0.0707 -0.4109 -0.3353
 2090SOL    HW117729   4.028   1.335  10.421  0.0859 -0.4617 -0.6405
 2090SOL    HW217730   3.928   1.232  10.374  0.3816 -1.1032 -0.5679
 2091SOL     OW17731   1.644   4.721  15.615 -0.4227  0.1950 -0.2161
 2091SOL    HW117732   1.553   4.694  15.627 -0.6370  0.6036 -0.8886
 2091SOL    HW217733   1.632   0.088  15.585 -0.7937  0.2976  0.2471
 2092SOL     OW17734   0.073   1.461   7.733  0.3264 -0.2224 -0.3642
 2092SOL    HW117735   0.074   1.403   7.657 -1.5811 -2.1645  1.0860
 2092SOL    HW217736   0.053   1.399   7.804 -0.1081  2.6177  2.0133
 2093SOL     OW17737   0.305   2.026   1.440  0.4168  0.7800 -0.3632
 2093SOL    HW117738   0.321   1.946   1.492  0.1703  0.6188 -0.5368
 2093SOL    HW217739   0.367   2.081   1.488  2.3843 -2.4828  0.9198
 2094SOL     OW17740   0.377   3.050  13.726  0.2923  0.0015  0.2706
 2094SOL    HW117741   0.446   3.098  13.680 -1.3547 -0.5020 -2.7651
 2094SOL    HW217742   0.316   3.035  13.653 -0.8516 -1.7691  1.6077
 2095SOL     OW17743   1.815   2.452   5.499 -0.1767 -0.1147  0.6190
 2095SOL    HW117744   1.867   2.373   5.488 -0.1659  0.3399 -2.6011
 2095SOL    HW217745   1.727   2.415   5.504 -0.0034 -0.5182  0.6873
 2096SOL     OW17746   1.048   3.738   3.263  0.4151 -0.3062  0.3518
 2096SOL    HW117747   1.047   3.708   3.171 -0.2833 -0.0780  0.2868
 2096SOL    HW217748   1.109   3.810   3.255 -0.5326  0.4987  0.3754
 2097SOL     OW17749   3.154   3.789   4.488 -0.7702  0.5072  0.0863
 2097SOL    HW117750   3.170   3.811   4.396  1.7689 -0.1442  0.3567
 2097SOL    HW217751   3.068   3.826   4.505 -0.2625  0.1450  3.4209
 2098SOL     OW17752   3.006   4.406   5.151 -0.2362  0.5717 -1.0027
 2098SOL    HW117753   3.067   4.468   5.112  2.9452 -2.8804 -1.5296
 2098SOL    HW217754   2.955   4.461   5.210  0.3514  0.8935 -0.7920
 2099SOL     OW17755   1.004   2.413   9.194  0.6814 -0.3667 -0.1538
 2099SOL    HW117756   1.075   2.423   9.257  1.2975  3.4275 -1.4200
 2099SOL    HW217757   1.008   2.496   9.146 -2.2294  0.7145  1.4370
 2100SOL     OW17758   0.971   3.593  13.268  0.2660 -0.4128 -0.3898
 2100SOL    HW117759   0.965   3.671  13.213  0.7370 -0.7270 -0.8877
 2100SOL    HW217760   0.944   3.524  13.208 -0.5975  1.6002 -2.3476
 2101SOL     OW17761   4.472   0.851   5.137  0.0448  0.0189 -0.3273
 2101SOL    HW117762   4.557   0.809   5.152  0.0496  0.5000  0.9926
 2101SOL    HW217763   4.491   0.937   5.175 -1.3453 -0.0737  0.5601
 2102SOL     OW17764   2.939   3.433   3.056  0.3055  0.3349 -0.3712
 2102SOL    HW117765   2.923   3.505   3.117 -0.9205 -1.0587  0.9497
 2102SOL    HW217766   2.954   3.477   2.972 -0.1308 -2.4501 -1.9148
 2103SOL     OW17767   2.582   3.627  15.350  0.6908 -0.8143 -0.5327
 2103SOL    HW117768   2.577   3.629  15.254 -0.0437 -0.8386 -0.4900
 2103SOL    HW217769   2.511   3.563  15.360  0.1272  0.0454  0.8906
 2104SOL     OW17770   3.577   4.074   3.211  0.3270 -0.2057  0.5171
 2104SOL    HW117771   3.539   4.156   3.243  0.3788 -0.1904  0.5390
 2104SOL    HW217772   3.519   4.058   3.137  1.1890  2.4865 -0.7509
 2105SOL     OW17773   1.021   4.013   7.822 -0.0066 -0.0446 -0.1542
 2105SOL    HW117774   1.052   3.928   7.790 -2.3822 -0.6250 -0.8646
 2105SOL    HW217775   0.936   4.018   7.779 -1.0350 -0.5408  1.8048
 2106SOL     OW17776   3.190   1.636   2.846  0.2272 -0.1112 -0.2520
 2106SOL    HW117777   3.244   1.563   2.817 -0.4941 -1.0429  0.7731
 2106SOL    HW217778   3.226   1.650   2.934 -0.1309 -0.6335 -0.0270
 2107SOL     OW17779   3.618   3.076   8.859 -0.5396 -0.0133  0.6024
 2107SOL    HW117780   3.688   3.123   8.904  0.1583 -0.5802  0.0981
 2107SOL    HW217781   3.664   3.001   8.821 -0.7173 -0.2808  0.9112
 2108SOL     OW17782   3.415   2.734   6.932 -0.4708  0.1600 -0.4308
 2108SOL    HW117783   3.498   2.773   6.959 -0.8586  0.1196  0.8029
 2108SOL    HW217784   3.371   2.810   6.894  0.2169 -0.1331 -1.8248
 2109SOL     OW17785   2.077   3.915   8.691  0.0543  0.1451  0.3594
 2109SOL    HW117786   2.030   3.844   8.646 -0.4426  1.6251 -1.4566
 2109SOL    HW217787   2.094   3.881   8.778 -0.9519 -1.6104 -0.1353
 2110SOL     OW17788   0.805   0.502  15.888 -0.3138  0.4943  0.1079
 2110SOL    HW117789   0.713   0.525  15.877  0.4972  3.2817 -0.7188
 2110SOL    HW217790   0.817   0.533  15.978  1.8514  1.7287 -0.6094
 2111SOL     OW17791   4.050   4.312   9.666  0.5068 -0.1161 -0.1435
 2111SOL    HW117792   3.976   4.321   9.606 -0.4634 -0.4085  1.0135
 2111SOL    HW217793   4.112   4.372   9.623  2.2493 -1.6343  0.2466
 2112SOL     OW17794   0.938   3.579   1.257  0.4336 -0.1186 -0.3001
 2112SOL    HW117795   0.987   3.577   1.339 -0.7442  1.7922  0.4480
 2112SOL    HW217796   0.851   3.592   1.293  0.2788 -3.1036  0.4177
 2113SOL     OW17797   2.186   2.751  15.661  0.2506 -0.3897 -0.3545
 2113SOL    HW117798   2.105   2.783  15.622  0.9842  0.1599 -1.4189
 2113SOL    HW217799   2.163   2.735  15.753  0.2700  1.0714 -0.0925
 2114SOL     OW17800   4.420   0.195   6.848  0.7132 -0.0292  0.0096
 2114SOL    HW117801   4.410   0.119   6.905  2.3002 -1.0880 -1.1476
 2114SOL    HW217802   4.511   0.219   6.864  0.5987  0.7928 -0.5935
 2115SOL     OW17803   0.123   0.501   3.208  0.2822 -0.2236 -0.5870
 2115SOL    HW117804   0.165   0.558   3.273 -1.4693 -1.4694  1.6409
 2115SOL    HW217805   0.060   0.559   3.164  0.9933  0.0456 -1.2463
 2116SOL     OW17806   1.133   0.945  16.681 -0.2328  0.0381 -0.1628
 2116SOL    HW117807   1.097   0.989  16.604  0.8775  1.6229  0.2184
 2116SOL    HW217808   1.057   0.942  16.739 -1.3401  0.8006 -1.5537
 2117SOL     OW17809   1.556   4.399   7.567 -0.2723  0.1762 -0.2282
 2117SOL    HW117810   1.487   4.463   7.551  0.9890  1.4646 -0.4544
 2117SOL    HW217811   1.635   4.452   7.560 -0.8043  0.6475 -2.4947
 2118SOL     OW17812   1.840   0.253  11.964  0.0104  0.1333  0.0900
 2118SOL    HW117813   1.775   0.205  11.912  1.1199  1.1092 -2.1571
 2118SOL    HW217814   1.915   0.255  11.906 -1.2664 -0.6966 -1.5932
 2119SOL     OW17815   2.337   2.679   4.731 -0.7184 -0.2221  0.1926
 2119SOL    HW117816   2.274   2.657   4.800 -0.7194 -0.2812  0.1734
 2119SOL    HW217817   2.414   2.626   4.751  0.0002 -0.3704 -2.8629
 2120SOL     OW17818   2.549   0.316   7.242 -0.0634 -0.1846 -0.5135
 2120SOL    HW117819   2.485   0.328   7.312 -0.5927  0.0449 -1.0267
 2120SOL    HW217820   2.497   0.265   7.180 -0.3706 -0.6585  0.1352
 2121SOL     OW17821   1.134   3.970   1.929 -0.0567 -0.5131 -0.3232
 2121SOL    HW117822   1.180   3.974   1.846  0.2676 -0.1216 -0.1248
 2121SOL    HW217823   1.171   3.887   1.959 -0.3989 -0.4163  0.3694
 2122SOL     OW17824   1.462   4.202   0.623 -0.4060 -0.2455 -0.6548
 2122SOL    HW117825   1.386   4.237   0.576  0.3015  0.3865 -1.3149
 2122SOL    HW217826   1.539   4.227   0.572 -0.7164  0.7015 -0.6453
 2123SOL     OW17827   4.368   0.754  10.260  0.0130 -0.8037  0.0736
 2123SOL    HW117828   4.447   0.804  10.236 -2.3694  2.7016 -0.5486
 2123SOL    HW217829   4.405   0.674  10.297  0.9823 -0.1531  0.5337
 2124SOL     OW17830   4.644   4.043  13.247  0.1537  0.0679 -0.0280
 2124SOL    HW117831   0.001   3.994  13.263  0.6771  1.2495  1.0315
 2124SOL    HW217832   4.597   3.988  13.310  0.8625 -2.3528 -1.6214
 2125SOL     OW17833   2.987   0.739   7.522 -0.0718  0.2508  0.2265
 2125SOL    HW117834   2.943   0.822   7.545 -0.6503  0.6932 -2.4966
 2125SOL    HW217835   2.995   0.707   7.612  0.4374  0.4669  0.2553
 2126SOL     OW17836   3.919   3.041  12.005  0.0083 -0.1897 -0.0280
 2126SOL    HW117837   3.975   3.091  12.065  0.6884 -0.3050 -0.5631
 2126SOL    HW217838   3.894   3.117  11.953  2.5888  0.0557 -0.9238
 2127SOL     OW17839   0.616   1.062   2.957  0.1072  0.2991 -0.2088
 2127SOL    HW117840   0.644   1.048   2.866  1.5015 -0.7406  0.3979
 2127SOL    HW217841   0.536   1.109   2.932  0.3539  0.1312 -1.3109
 2128SOL     OW17842   1.128   0.256   4.553  0.2867 -0.2690 -0.0355
 2128SOL    HW117843   1.169   0.317   4.491 -1.6500 -1.0659 -2.0857
 2128SOL    HW217844   1.061   0.315   4.588  1.2429  0.0110  1.3386
 2129SOL     OW17845   1.978   3.448   2.994  0.2231  0.0295 -0.6664
 2129SOL    HW117846   2.023   3.432   3.077 -1.4133 -0.5943  0.0941
 2129SOL    HW217847   2.048   3.417   2.936  1.0631  1.0423 -0.1976
 2130SOL     OW17848   3.949   0.230   5.351 -0.0323 -0.3807  0.5645
 2130SOL    HW117849   3.977   0.318   5.326  1.6584 -0.6813  1.4012
 2130SOL    HW217850   3.983   0.182   5.275 -1.0135 -1.3812  0.7518
 2131SOL     OW17851   2.505   4.000   5.602 -0.2647  0.2952  0.1735
 2131SOL    HW117852   2.497   3.982   5.508 -3.9270  0.0101  0.5261
 2131SOL    HW217853   2.599   4.015   5.611 -0.7049  2.0237  1.8181
 2132SOL     OW17854   0.007   0.334   0.541  0.1789  0.5013 -0.0367
 2132SOL    HW117855   0.002   0.360   0.633  2.0380 -1.1421  0.5512
 2132SOL    HW217856   4.683   0.250   0.538 -0.3247  0.7707  0.4628
 2133SOL     OW17857   1.246   0.013   5.824  0.1859 -0.0998  0.2978
 2133SOL    HW117858   1.333   4.719   5.788  0.0724  1.3844 -0.6976
 2133SOL    HW217859   1.202   4.658   5.790 -0.6427  0.5338 -0.0903
 2134SOL     OW17860   1.648   0.198  14.944 -0.1536  0.4021  0.1437
 2134SOL    HW117861   1.634   0.155  14.860 -0.9533 -1.0037  0.9977
 2134SOL    HW217862   1.721   0.147  14.979  0.4831  0.8387 -0.5679
 2135SOL     OW17863   0.341   0.874   5.619  0.4534 -0.7762 -0.1886
 2135SOL    HW117864   0.421   0.879   5.566  1.8296 -2.1359  1.7481
 2135SOL    HW217865   0.359   0.808   5.686 -0.7680  0.8472  1.7713
 2136SOL     OW17866   0.663   3.722   9.660  0.0576  0.1339  0.3154
 2136SOL    HW117867   0.723   3.794   9.683  2.4092 -1.6146 -0.3749
 2136SOL    HW217868   0.630   3.702   9.747 -2.7125  0.4996 -0.6624
 2137SOL     OW17869   0.898   0.986   6.258 -0.0387 -0.2985 -0.2556
 2137SOL    HW117870   0.911   1.029   6.173  0.1956 -2.6494 -1.4163
 2137SOL    HW217871   0.990   0.984   6.284  0.6250 -0.0455 -2.6143
 2138SOL     OW17872   2.166   1.233  13.989  0.1593  0.0667  0.5669
 2138SOL    HW117873   2.215   1.206  13.912 -2.2441 -2.0543 -0.2416
 2138SOL    HW217874   2.081   1.189  13.986 -0.2308  0.8944 -0.2841
 2139SOL     OW17875   4.230   3.030   3.247 -0.3669  0.0596 -0.4455
 2139SOL    HW117876   4.265   3.061   3.330  0.6654 -0.1710 -0.7933
 2139SOL    HW217877   4.235   3.108   3.191 -4.0365  0.5882 -0.0780
 2140SOL     OW17878   3.339   3.705  16.363 -0.1043  0.3687  0.2797
 2140SOL    HW117879   3.250   3.678  16.341 -0.1276  0.5917  0.0921
 2140SOL    HW217880   3.346   3.659  16.447 -0.4761  1.7038  1.0457
 2141SOL     OW17881   2.604   3.585  12.169  0.0645 -0.0522 -0.1671
 2141SOL    HW117882   2.651   3.650  12.221 -3.0225  1.4260  0.7112
 2141SOL    HW217883   2.551   3.544  12.237 -0.6206  2.2897  0.6829
 2142SOL     OW17884   2.558   1.881   8.397  0.6598 -0.0628  0.5421
 2142SOL    HW117885   2.552   1.969   8.358 -1.2079 -0.6604 -0.5310
 2142SOL    HW217886   2.570   1.815   8.328 -1.1657  0.2295 -0.0630
 2143SOL     OW17887   0.305   3.040   4.475 -0.1534 -0.5963  0.7118
 2143SOL    HW117888   0.255   2.969   4.436  0.6679 -0.0480 -1.3655
 2143SOL    HW217889   0.368   2.997   4.534  0.8946 -1.9512 -1.3964
 2144SOL     OW17890   2.895   0.560   6.954 -0.3480 -0.6401  0.2415
 2144SOL    HW117891   2.883   0.541   7.047  0.5779 -0.0558  0.4865
 2144SOL    HW217892   2.889   0.480   6.902 -1.7004  0.9852 -2.0842
 2145SOL     OW17893   3.891   0.294   9.358 -0.2067  0.2477  0.2423
 2145SOL    HW117894   3.860   0.204   9.364 -1.1296  0.4670 -1.0203
 2145SOL    HW217895   3.899   0.315   9.451 -0.5391  3.9164 -0.5472
 2146SOL     OW17896   1.905   1.489  11.142  0.3732 -0.4529  0.1265
 2146SOL    HW117897   1.903   1.558  11.209 -1.4000  2.0282 -2.5149
 2146SOL    HW217898   1.812   1.470  11.134  0.0463  0.2386  2.2801
 2147SOL     OW17899   4.476   1.192   4.490 -0.0758  0.0808  0.1882
 2147SOL    HW117900   4.523   1.108   4.495 -1.0602 -0.3634  2.0480
 2147SOL    HW217901   4.407   1.159   4.548  0.9227  0.9284  1.8811
 2148SOL     OW17902   2.179   2.872   8.814  0.1196 -0.0707 -0.1803
 2148SOL    HW117903   2.232   2.812   8.867 -0.2704  1.1897  1.6142
 2148SOL    HW217904   2.245   2.939   8.792  0.1682 -0.5336 -1.4360
 2149SOL     OW17905   3.068   4.557  14.497  0.5321  0.2573  0.7265
 2149SOL    HW117906   3.048   4.479  14.445  0.6131  1.1098 -0.5846
 2149SOL    HW217907   3.162   4.558  14.482  0.1090  0.7728 -1.8847
 2150SOL     OW17908   4.088   0.677   2.002 -0.3990  0.4203  0.2886
 2150SOL    HW117909   4.138   0.649   2.079  0.5727  0.6310 -0.2638
 2150SOL    HW217910   4.045   0.753   2.042 -0.4113  1.1326 -1.0753
 2151SOL     OW17911   3.291   0.327   8.114  0.0139 -0.4800 -0.1224
 2151SOL    HW117912   3.225   0.368   8.170 -1.2049  0.5201 -2.2621
 2151SOL    HW217913   3.236   0.262   8.070  0.1639  0.3092 -1.4605
 2152SOL     OW17914   4.704   4.527   8.298  0.1321  0.4370 -0.3096
 2152SOL    HW117915   4.670   4.458   8.355  1.9721  0.9241  1.3437
 2152SOL    HW217916   4.625   4.579   8.282  0.7849  1.6329  0.4248
 2153SOL     OW17917   1.426   0.094  10.771  0.3556  0.2287 -0.1379
 2153SOL    HW117918   1.421   0.009  10.815 -0.9058 -0.0185 -0.7704
 2153SOL    HW217919   1.395   0.079  10.682  1.8157  0.2484 -0.6544
 2154SOL     OW17920   3.727   4.067  16.624 -0.4382 -0.2219 -0.1457
 2154SOL    HW117921   3.725   3.974  16.605 -3.2248  0.2302 -1.9437
 2154SOL    HW217922   3.676   4.090  16.547 -2.1678  2.8534  1.9117
 2155SOL     OW17923   1.586   0.814  13.449  0.0913 -0.4479 -0.2728
 2155SOL    HW117924   1.552   0.747  13.508 -1.3317  0.4357 -0.1033
 2155SOL    HW217925   1.621   0.868  13.520 -1.1923  1.3200 -0.9880
 2156SOL     OW17926   1.943   4.337   3.517 -0.5649 -0.3762  0.3492
 2156SOL    HW117927   2.031   4.347   3.482 -0.7551  1.8746  0.4977
 2156SOL    HW217928   1.894   4.281   3.457  0.5059 -0.3637 -0.5389
 2157SOL     OW17929   0.746   2.645   0.820  0.7353 -0.0603  0.1446
 2157SOL    HW117930   0.800   2.572   0.790 -0.2046 -0.6523 -0.1199
 2157SOL    HW217931   0.799   2.720   0.796  0.6560 -0.5998 -1.6629
 2158SOL     OW17932   0.492   2.790   8.117  0.6066  0.4483  0.7054
 2158SOL    HW117933   0.404   2.778   8.082  1.0801 -1.3962  0.1120
 2158SOL    HW217934   0.555   2.787   8.045  0.4636 -0.9249  0.6303
 2159SOL     OW17935   0.417   2.974  14.285  0.1928 -0.2462  0.0082
 2159SOL    HW117936   0.429   2.912  14.213  3.5376  1.5607 -0.9938
 2159SOL    HW217937   0.423   3.061  14.245  1.3482  0.8283  2.5553
 2160SOL     OW17938   1.755   3.433   6.108 -0.2480 -0.1679  0.0580
 2160SOL    HW117939   1.754   3.431   6.012 -0.7013 -1.0603  0.0801
 2160SOL    HW217940   1.660   3.442   6.116 -0.3605  0.2360 -1.7118
 2161SOL     OW17941   1.947   3.173   3.636  0.1983 -0.7169 -0.3967
 2161SOL    HW117942   1.899   3.246   3.674 -1.4925 -2.2849  0.4550
 2161SOL    HW217943   1.868   3.125   3.611 -0.6305  0.2155  0.4681
 2162SOL     OW17944   1.857   2.919   6.150  0.0943  0.1756 -0.6494
 2162SOL    HW117945   1.844   2.827   6.173 -1.5961  0.4600 -0.4751
 2162SOL    HW217946   1.924   2.913   6.081  0.3073  1.8003 -0.5759
 2163SOL     OW17947   0.655   1.811   9.257  0.0550  0.3526  0.4729
 2163SOL    HW117948   0.644   1.731   9.206  4.3133  0.0942 -0.0707
 2163SOL    HW217949   0.679   1.773   9.342 -0.6825 -1.0210  0.0737
 2164SOL     OW17950   1.483   1.096   6.267  0.1321  0.1132 -0.2582
 2164SOL    HW117951   1.569   1.127   6.292  0.7084 -1.1667 -0.6203
 2164SOL    HW217952   1.469   1.020   6.324  1.3319  0.7957  0.9270
 2165SOL     OW17953   1.714   2.129   8.292  0.2241 -0.4096 -0.1765
 2165SOL    HW117954   1.786   2.068   8.280  2.1830  1.6501  1.0765
 2165SOL    HW217955   1.648   2.077   8.337 -0.4200 -0.6285 -1.3827
 2166SOL     OW17956   2.555   1.195   8.435  0.2693  0.0248  0.9516
 2166SOL    HW117957   2.613   1.266   8.462 -0.1024  0.7585 -0.2202
 2166SOL    HW217958   2.546   1.216   8.342  0.1467 -0.3123  0.8865
 2167SOL     OW17959   0.849   3.691  17.490 -0.3672 -0.6990 -0.0745
 2167SOL    HW117960   0.938   3.703  17.455 -0.1332 -0.1554  0.7015
 2167SOL    HW217961   0.824   3.782  17.474 -1.1896 -1.0715 -0.8941
 2168SOL     OW17962   3.750   3.437  13.652  0.0395 -0.1512  0.5774
 2168SOL    HW117963   3.748   3.356  13.601 -0.2719 -0.5132  1.1662
 2168SOL    HW217964   3.842   3.462  13.647 -0.1911  0.7168  0.6739
 2169SOL     OW17965   0.131   0.356   4.316 -0.2830 -0.8866  0.4857
 2169SOL    HW117966   0.049   0.307   4.308 -0.9462  0.1290  0.8854
 2169SOL    HW217967   0.097   0.442   4.343 -0.7512 -0.8663 -0.1760
 2170SOL     OW17968   1.966   2.884   9.015 -0.4638 -0.3497 -0.3588
 2170SOL    HW117969   2.049   2.855   8.976 -1.0792  0.1881 -2.0426
 2170SOL    HW217970   1.911   2.806   9.025  1.3082 -1.2441  2.5867
 2171SOL     OW17971   0.035   2.163   2.433 -0.2825  0.2357  0.2006
 2171SOL    HW117972   0.116   2.136   2.390 -1.8489 -2.4586 -1.1127
 2171SOL    HW217973   4.715   2.224   2.373 -0.2363 -0.3203 -0.4061
 2172SOL     OW17974   3.836   0.771   5.728 -0.2863 -0.1993  0.5933
 2172SOL    HW117975   3.756   0.764   5.780 -1.1479  0.2195 -0.6588
 2172SOL    HW217976   3.858   0.864   5.733 -0.9454 -0.0354  0.5116
 2173SOL     OW17977   4.230   1.849   7.554  0.4380  0.2886  0.1705
 2173SOL    HW117978   4.266   1.931   7.519  0.6381  0.7575  1.4784
 2173SOL    HW217979   4.202   1.803   7.475  1.8734  0.9639 -0.7375
 2174SOL     OW17980   3.519   1.862   6.625  0.0733  0.3031  0.2330
 2174SOL    HW117981   3.435   1.816   6.622 -0.2531  0.8138  1.5300
 2174SOL    HW217982   3.558   1.806   6.692  0.0948  0.0900  0.0428
 2175SOL     OW17983   3.806   0.195  15.604  0.7970 -0.3844 -0.0872
 2175SOL    HW117984   3.792   0.148  15.686  0.9663 -1.8725 -0.9147
 2175SOL    HW217985   3.866   0.134  15.560  1.4490  0.8713 -0.9244
 2176SOL     OW17986   1.425   2.225   7.212  0.4138  0.3671  0.3215
 2176SOL    HW117987   1.469   2.308   7.192  1.9829 -0.8113 -1.1691
 2176SOL    HW217988   1.487   2.196   7.279  2.3680  3.3304 -0.1837
 2177SOL     OW17989   3.636   1.771   8.040  0.0728  0.0798 -0.0638
 2177SOL    HW117990   3.716   1.723   8.021  0.0653  0.2548 -0.5339
 2177SOL    HW217991   3.632   1.745   8.132  1.4907 -2.2359 -0.6592
 2178SOL     OW17992   0.976   2.941   2.971  0.0037  0.0918 -0.3948
 2178SOL    HW117993   1.039   2.962   2.901  1.4995 -2.0491  0.3173
 2178SOL    HW217994   0.903   2.966   2.914 -0.3276  0.6089  0.2506
 2179SOL     OW17995   0.465   2.758  14.123 -0.2627  0.1046 -0.3641
 2179SOL    HW117996   0.541   2.699  14.120 -0.2352  0.2821 -3.1685
 2179SOL    HW217997   0.471   2.805  14.040 -0.5200 -1.6639 -1.3811
 2180SOL     OW17998   2.507   0.766   5.984 -0.4910 -0.1143 -0.7691
 2180SOL    HW117999   2.562   0.829   5.937  0.8796 -0.3475  0.5143
 2180SOL    HW218000   2.534   0.767   6.076 -0.4813 -1.6493 -0.7553
 2181SOL     OW18001   0.744   4.365   8.115 -0.5967  0.4665  0.7081
 2181SOL    HW118002   0.752   4.461   8.112 -1.5769  0.6005  2.5884
 2181SOL    HW218003   0.818   4.354   8.175 -1.9038 -0.9987  2.0458
 2182SOL     OW18004   3.638   3.507   6.223 -0.1417 -0.3340 -0.1749
 2182SOL    HW118005   3.664   3.535   6.135  1.0881 -1.0767 -0.0433
 2182SOL    HW218006   3.557   3.556   6.239  1.0589  0.6674  2.9186
 2183SOL     OW18007   0.483   4.007   5.679  0.0511 -0.4265 -0.1999
 2183SOL    HW118008   0.548   3.991   5.747  0.7541  0.9561 -0.5434
 2183SOL    HW218009   0.427   3.930   5.686 -1.7186  0.8514 -0.3033
 2184SOL     OW18010   4.659   2.689  12.945 -0.2198 -0.7378  0.3075
 2184SOL    HW118011   0.031   2.696  12.945 -0.1485 -1.7846 -2.5321
 2184SOL    HW218012   4.636   2.782  12.953 -2.2620 -1.3351  1.4045
 2185SOL     OW18013   0.624   3.100   5.858 -0.7336  0.4531  0.5365
 2185SOL    HW118014   0.620   3.176   5.800 -0.4531 -1.6063 -2.2040
 2185SOL    HW218015   0.595   3.035   5.794  1.7555 -1.2185  1.0885
 2186SOL     OW18016   4.174   4.585   7.445 -0.2161  0.6722 -0.2065
 2186SOL    HW118017   4.223   4.661   7.478  0.2783 -0.3016  1.3336
 2186SOL    HW218018   4.084   4.617   7.449 -0.6331 -0.2830 -1.8080
 2187SOL     OW18019   1.146   4.615   6.701  0.5215  0.6139  0.0143
 2187SOL    HW118020   1.169   4.681   6.634 -0.3800 -0.1815 -1.0793
 2187SOL    HW218021   1.052   4.630   6.698  0.0865 -1.6518  3.1851
 2188SOL     OW18022   2.471   1.499   0.472 -0.0102 -0.0278 -0.2318
 2188SOL    HW118023   2.546   1.440   0.477 -0.1865 -0.1375  1.2696
 2188SOL    HW218024   2.470   1.540   0.558  2.3262 -0.6651  0.0971
 2189SOL     OW18025   1.700   4.494   2.384 -0.1246 -0.3521  0.3839
 2189SOL    HW118026   1.635   4.467   2.320 -0.0246  0.7378 -0.1790
 2189SOL    HW218027   1.746   4.567   2.343  1.1211 -0.2679  1.9129
 2190SOL     OW18028   1.213   1.195   4.827 -0.0802 -0.0874  0.1253
 2190SOL    HW118029   1.262   1.245   4.892  0.3146  0.9877 -1.0048
 2190SOL    HW218030   1.240   1.241   4.748  1.4709 -2.3710 -0.6742
 2191SOL     OW18031   1.348   0.477   8.395 -0.0072 -0.1983 -0.1884
 2191SOL    HW118032   1.379   0.531   8.468 -1.5820  2.4758 -1.4885
 2191SOL    HW218033   1.407   0.402   8.396  0.1873 -0.0329  0.6482
 2192SOL     OW18034   0.308   1.268   2.939 -0.1190  0.3928  0.3581
 2192SOL    HW118035   0.267   1.270   2.852 -0.8759  0.7342  0.7231
 2192SOL    HW218036   0.270   1.193   2.984 -1.4182  1.0337  0.3354
 2193SOL     OW18037   2.986   1.549  16.256 -0.0778  0.0570  0.3697
 2193SOL    HW118038   3.080   1.565  16.262 -0.4057  1.0257  3.2615
 2193SOL    HW218039   2.955   1.622  16.310 -0.6235  0.3279 -0.3060
 2194SOL     OW18040   0.474   3.591  10.353 -0.1214  0.2875 -0.1115
 2194SOL    HW118041   0.464   3.512  10.406 -2.0060  1.8445  1.8717
 2194SOL    HW218042   0.405   3.570  10.290  0.5678  0.2611 -0.8526
 2195SOL     OW18043   1.362   4.378  15.476  0.3799  0.7573 -0.3558
 2195SOL    HW118044   1.274   4.416  15.483  0.0911  0.1489 -0.6968
 2195SOL    HW218045   1.336   4.286  15.476  1.3643  0.4801  0.9292
 2196SOL     OW18046   1.044   1.086   1.462  0.3395 -0.1911 -0.3113
 2196SOL    HW118047   0.987   1.161   1.479 -0.0354  0.1253 -3.0457
 2196SOL    HW218048   1.038   1.088   1.367 -0.0926  0.9223 -0.2616
 2197SOL     OW18049   3.451   3.810   0.743 -0.3215 -0.3662  0.0367
 2197SOL    HW118050   3.402   3.887   0.716  2.4787  2.4231  2.8681
 2197SOL    HW218051   3.474   3.774   0.657  0.8148 -2.5020  1.2220
 2198SOL     OW18052   1.273   3.683   6.591  0.3920 -0.6576 -0.7167
 2198SOL    HW118053   1.281   3.646   6.679 -1.3057 -0.3934 -0.4424
 2198SOL    HW218054   1.183   3.716   6.596  0.6390 -0.0957 -0.0561
 2199SOL     OW18055   2.277   2.241   6.878 -0.3154  0.2310  0.2843
 2199SOL    HW118056   2.198   2.241   6.824 -1.8463  5.4468  2.5215
 2199SOL    HW218057   2.327   2.174   6.831 -0.5823 -0.4957  1.0517
 2200SOL     OW18058   1.676   4.259  14.118 -0.2861 -0.3440 -0.0763
 2200SOL    HW118059   1.694   4.195  14.187  0.9294  2.1445  1.9257
 2200SOL    HW218060   1.607   4.310  14.161 -1.6582 -1.1616 -1.3139
 2201SOL     OW18061   0.547   1.165   2.131 -0.1881  0.2084  0.0017
 2201SOL    HW118062   0.488   1.216   2.187  0.0954 -1.4539  1.8427
 2201SOL    HW218063   0.624   1.192   2.180  0.6953  0.1708 -1.3644
 2202SOL     OW18064   1.325   3.695   1.071  0.6390 -0.8983 -0.2650
 2202SOL    HW118065   1.258   3.748   1.028  0.3391 -0.6284  0.5227
 2202SOL    HW218066   1.294   3.698   1.161 -1.4870  0.3995 -1.0484
 2203SOL     OW18067   4.609   1.110   7.167 -0.9861  0.1370  0.3782
 2203SOL    HW118068   4.623   1.028   7.121 -2.2230  0.2385 -0.1837
 2203SOL    HW218069   4.686   1.125   7.221  0.0361  0.6476 -1.2137
 2204SOL     OW18070   0.198   4.608   7.812  0.1639  0.4260 -0.0500
 2204SOL    HW118071   0.235   4.687   7.772 -1.1826  0.8645 -0.3952
 2204SOL    HW218072   0.168   4.648   7.893  1.6354 -0.0532  0.7496
 2205SOL     OW18073   1.226   4.612   8.327  0.3571 -0.1211 -0.3456
 2205SOL    HW118074   1.223   4.524   8.364 -0.5404  0.4134  0.8635
 2205SOL    HW218075   1.131   4.617   8.317  0.0967 -1.3151  1.4450
 2206SOL     OW18076   0.497   4.259   5.019  0.1427 -0.7431 -0.0577
 2206SOL    HW118077   0.494   4.183   4.961 -3.2857 -0.6560  0.0230
 2206SOL    HW218078   0.461   4.221   5.099  1.6285 -2.8544 -0.3784
 2207SOL     OW18079   0.874   0.517   5.290  0.0723  0.4628 -0.0439
 2207SOL    HW118080   0.902   0.440   5.241 -1.4102 -1.3761  2.0501
 2207SOL    HW218081   0.811   0.493   5.358  0.8296  0.6150  0.7146
 2208SOL     OW18082   3.670   1.140  17.578  0.4982 -0.3442 -0.1330
 2208SOL    HW118083   3.718   1.113  17.500 -0.2911 -0.1842 -0.6726
 2208SOL    HW218084   3.673   1.060  17.630 -2.2300 -0.7127 -0.5472
 2209SOL     OW18085   2.281   1.981   3.656 -0.0355 -0.4269  0.2321
 2209SOL    HW118086   2.337   1.904   3.670  1.0825  0.5747  1.2410
 2209SOL    HW218087   2.212   1.950   3.715 -1.7109 -0.5070 -1.7932
 2210SOL     OW18088   0.006   1.929   4.216 -0.0235 -0.0865 -0.0619
 2210SOL    HW118089   4.710   1.935   4.309 -2.0173 -0.0941 -0.4755
 2210SOL    HW218090   4.705   2.015   4.181  2.2738  1.0203  1.0832
 2211SOL     OW18091   3.615   1.696   9.897  0.4561 -0.0968  0.4379
 2211SOL    HW118092   3.706   1.683   9.924  0.9227  2.1003 -0.0404
 2211SOL    HW218093   3.609   1.791   9.911  0.5256 -0.0416  0.0979
 2212SOL     OW18094   0.819   3.862  11.130 -0.5668  0.5083  0.1897
 2212SOL    HW118095   0.794   3.908  11.210  2.1823  0.1041  1.2948
 2212SOL    HW218096   0.754   3.794  11.111 -0.1967  0.8316 -2.3254
 2213SOL     OW18097   3.316   4.604  14.448 -0.2297  0.0494  0.6268
 2213SOL    HW118098   3.341   4.646  14.365 -1.0704 -0.1478  0.2792
 2213SOL    HW218099   3.391   4.546  14.464  0.4152  0.1553 -1.9730
 2214SOL     OW18100   3.476   4.655  14.218  0.1231 -0.2743  0.2269
 2214SOL    HW118101   3.558   4.628  14.260  1.0746 -0.1657 -1.6005
 2214SOL    HW218102   3.447   4.579  14.168 -2.8027  1.9204 -1.4367
 2215SOL     OW18103   1.990   2.415   6.167  0.2410  0.0994 -0.5793
 2215SOL    HW118104   2.045   2.482   6.127 -1.1895  1.7914  0.3165
 2215SOL    HW218105   1.932   2.390   6.095  0.7167 -0.1855 -0.8672
 2216SOL     OW18106   1.859   2.888   8.480  0.4478  0.1541 -0.5582
 2216SOL    HW118107   1.775   2.920   8.446  1.2637  3.1443  0.2034
 2216SOL    HW218108   1.893   2.886   8.390 -2.9495 -0.0355 -1.8282
 2217SOL     OW18109   0.261   1.043   2.281  0.2051  0.2349 -0.3682
 2217SOL    HW118110   0.269   1.019   2.188  1.8878 -0.7278  0.0306
 2217SOL    HW218111   0.216   1.128   2.276  0.7797  0.4180 -2.8213
 2218SOL     OW18112   2.713   3.729  14.332 -0.0214  0.0441  0.1938
 2218SOL    HW118113   2.706   3.814  14.375 -1.3612  0.1079 -0.1331
 2218SOL    HW218114   2.628   3.688  14.349 -0.0704  0.4243  0.8538
 2219SOL     OW18115   1.650   1.029   5.265  0.5268 -0.2589 -0.1501
 2219SOL    HW118116   1.736   1.018   5.223  1.4631  1.4630  1.3323
 2219SOL    HW218117   1.620   1.109   5.224  0.9043  0.2659  0.5981
 2220SOL     OW18118   1.354   2.422   1.170  0.6008  0.2799 -0.0721
 2220SOL    HW118119   1.448   2.443   1.176  1.2890 -2.5284 -1.2063
 2220SOL    HW218120   1.357   2.347   1.229 -1.0916 -0.3603 -0.8188
 2221SOL     OW18121   2.115   0.330   1.954 -0.1028  0.1260  0.8986
 2221SOL    HW118122   2.051   0.395   1.984 -1.3566 -0.5733 -0.2201
 2221SOL    HW218123   2.150   0.314   2.042  2.2789  0.1141 -0.0744
 2222SOL     OW18124   1.813   1.577   8.888  0.0893 -0.0695 -0.3429
 2222SOL    HW118125   1.819   1.623   8.972 -2.1167  0.4896 -0.5090
 2222SOL    HW218126   1.763   1.499   8.911  3.0168 -1.3288  1.7978
 2223SOL     OW18127   1.629   4.407  17.571  0.1167 -0.1520  0.4060
 2223SOL    HW118128   1.669   4.345  17.632  0.8928 -2.1211 -2.1183
 2223SOL    HW218129   1.594   4.350  17.503 -1.1244 -0.4580  1.2943
 2224SOL     OW18130   1.713   2.018  10.487  0.2683  0.0820  0.4229
 2224SOL    HW118131   1.655   2.089  10.459 -0.1687  0.2251  1.6658
 2224SOL    HW218132   1.752   2.001  10.402  1.7792  0.0853  1.1304
 2225SOL     OW18133   4.637   1.191   2.985 -0.5064 -0.1131 -0.1398
 2225SOL    HW118134   4.672   1.249   3.053 -0.5619  0.9625 -1.0353
 2225SOL    HW218135   4.644   1.247   2.908  0.4914 -1.3314 -0.9262
 2226SOL     OW18136   2.355   1.455   1.770 -0.1373 -0.2242 -0.0610
 2226SOL    HW118137   2.327   1.512   1.841 -0.1425 -1.3747  0.8722
 2226SOL    HW218138   2.444   1.435   1.798 -0.2621  0.1154  0.5692
 2227SOL     OW18139   2.579   0.713   7.173 -0.4320  0.2574 -0.1370
 2227SOL    HW118140   2.666   0.747   7.194  0.0627 -0.7668 -0.5475
 2227SOL    HW218141   2.584   0.713   7.078  3.9996  1.2180  0.0812
 2228SOL     OW18142   1.087   2.086  14.221 -0.1317  0.7760 -0.1881
 2228SOL    HW118143   1.081   2.099  14.126  0.4093 -3.1924 -0.7477
 2228SOL    HW218144   1.033   2.009  14.232  2.1336 -0.3487  3.1276
 2229SOL     OW18145   4.236   1.400   5.509  0.3077 -0.3716 -0.3217
 2229SOL    HW118146   4.332   1.398   5.506  0.3436  1.5143  0.1183
 2229SOL    HW218147   4.224   1.492   5.530 -0.5072 -0.0254 -2.3097
 2230SOL     OW18148   4.721   1.540   7.391  0.7329 -0.5893  0.6345
 2230SOL    HW118149   0.020   1.447   7.395 -0.4302 -0.8757  0.1275
 2230SOL    HW218150   0.045   1.588   7.460  0.0849 -0.5535  1.0480
 2231SOL     OW18151   3.849   3.228  16.256  0.0929  0.0381  0.1922
 2231SOL    HW118152   3.798   3.308  16.262  2.2084  1.4386 -0.2563
 2231SOL    HW218153   3.786   3.168  16.216 -0.6659  1.6087 -0.9751
 2232SOL     OW18154   1.216   3.909  11.753  0.3129  0.1663 -0.0088
 2232SOL    HW118155   1.191   3.993  11.792 -1.6580  1.7854 -4.7664
 2232SOL    HW218156   1.147   3.905  11.687 -0.1039 -0.3893  0.4608
 2233SOL     OW18157   1.397   1.295   8.199 -0.0320  0.0021  0.6214
 2233SOL    HW118158   1.421   1.243   8.122 -0.2526 -1.3251  1.4511
 2233SOL    HW218159   1.472   1.345   8.230  1.3356 -0.5478 -1.8192
 2234SOL     OW18160   3.294   2.205   0.596  0.2125 -0.1160  0.9306
 2234SOL    HW118161   3.334   2.142   0.656 -0.8072 -3.3428 -1.7665
 2234SOL    HW218162   3.300   2.282   0.652  1.3041 -1.2231  2.3275
 2235SOL     OW18163   3.014   1.011   7.573  0.8203 -0.4105 -0.0665
 2235SOL    HW118164   2.989   0.993   7.664 -0.2762  1.5208  0.0365
 2235SOL    HW218165   3.078   1.079   7.594  1.6386 -1.5544  1.1524
 2236SOL     OW18166   4.110   2.352   2.069 -0.0625  0.4279 -0.3774
 2236SOL    HW118167   4.192   2.373   2.114 -1.4660 -0.4343  2.6480
 2236SOL    HW218168   4.143   2.307   1.992  2.6086 -0.0452  1.0396
 2237SOL     OW18169   4.468   0.148  10.372 -0.5384 -0.3772 -0.6441
 2237SOL    HW118170   4.486   0.059  10.341  0.6809 -0.2228 -0.3770
 2237SOL    HW218171   4.415   0.178  10.298 -0.1339  0.2184 -0.6897
 2238SOL     OW18172   0.050   4.030   4.297  0.3502  0.2324  0.1968
 2238SOL    HW118173   4.697   3.975   4.277  0.1320  1.2340 -1.7320
 2238SOL    HW218174   0.036   4.082   4.218 -2.4194  1.2725  1.3793
 2239SOL     OW18175   0.003   0.166   5.989  0.0961 -0.3497  0.2880
 2239SOL    HW118176   4.671   0.168   6.067  0.7458 -1.4797  0.7712
 2239SOL    HW218177   4.664   0.199   5.923 -0.4657  0.4423  1.2117
 2240SOL     OW18178   0.210   0.940   8.431 -0.0349  0.6927  0.3534
 2240SOL    HW118179   0.302   0.964   8.416  0.3684 -2.1903 -1.7914
 2240SOL    HW218180   0.223   0.858   8.478  1.8868  0.7124 -0.1308
 2241SOL     OW18181   2.579   2.123  14.112 -0.1351 -0.2407  0.6860
 2241SOL    HW118182   2.670   2.130  14.141 -0.2560 -1.9106  1.4447
 2241SOL    HW218183   2.520   2.154  14.181 -0.2911  1.2145 -0.0798
 2242SOL     OW18184   4.662   1.202   7.543  0.4112 -0.2273  0.5958
 2242SOL    HW118185   4.698   1.209   7.454 -3.7672  0.5403 -1.0244
 2242SOL    HW218186   4.575   1.239   7.529  0.7064 -0.0849 -0.8511
 2243SOL     OW18187   0.770   2.171   5.214 -0.7963  0.6954  0.8268
 2243SOL    HW118188   0.819   2.092   5.237 -0.0329 -0.1172 -3.5675
 2243SOL    HW218189   0.759   2.201   5.304  0.3980  1.7780  0.6042
 2244SOL     OW18190   4.585   3.884   5.540  0.1798  0.1708 -0.0343
 2244SOL    HW118191   4.548   3.956   5.590  1.7955  0.1369  1.2054
 2244SOL    HW218192   4.550   3.815   5.596  0.7004  1.2807  1.6359
 2245SOL     OW18193   4.429   3.235   5.668 -0.4896  0.2960 -0.4933
 2245SOL    HW118194   4.344   3.277   5.656 -2.2491 -3.5357 -1.4741
 2245SOL    HW218195   4.437   3.187   5.586 -1.8917 -1.7116  0.5363
 2246SOL     OW18196   2.201   0.513  16.567  0.3179  0.5376  0.2800
 2246SOL    HW118197   2.199   0.608  16.560  0.1274  0.5894  1.0951
 2246SOL    HW218198   2.109   0.498  16.589 -0.3770  2.5820 -1.2483
 2247SOL     OW18199   3.165   0.938  12.637  0.4449 -0.4223 -0.2714
 2247SOL    HW118200   3.225   0.881  12.589 -0.1825  1.1320 -2.8857
 2247SOL    HW218201   3.083   0.894  12.618  0.6072 -0.6467 -0.4471
 2248SOL     OW18202   2.937   2.417  14.862 -0.0004 -0.5285 -0.6635
 2248SOL    HW118203   2.999   2.407  14.790  2.2109  1.2802  0.9791
 2248SOL    HW218204   2.900   2.503  14.845  0.4519 -0.3129 -0.5596
 2249SOL     OW18205   2.282   0.876   2.130 -0.3181 -0.7540 -0.4340
 2249SOL    HW118206   2.312   0.846   2.216 -0.3269  1.2531  0.2708
 2249SOL    HW218207   2.329   0.832   2.059  0.5033  1.1534 -1.0591
 2250SOL     OW18208   4.715   2.343   7.531  0.6561 -0.0228 -0.2342
 2250SOL    HW118209   0.031   2.390   7.604  1.0804  0.5479 -0.8229
 2250SOL    HW218210   0.054   2.275   7.507  1.6680  1.3692 -1.6204
 2251SOL     OW18211   3.678   0.251   4.260 -0.0562  0.2536  0.2565
 2251SOL    HW118212   3.760   0.300   4.253 -1.1019  1.8341 -0.7048
 2251SOL    HW218213   3.616   0.302   4.209 -0.0591  0.8734  0.8822
 2252SOL     OW18214   2.007   1.487   0.345 -0.1017 -0.2182  0.0876
 2252SOL    HW118215   2.089   1.464   0.302  0.4366 -0.9871  1.5331
 2252SOL    HW218216   2.032   1.516   0.432 -0.4364 -2.2589  0.8740
 2253SOL     OW18217   1.216   0.952  16.146 -0.2591  0.0782  0.5646
 2253SOL    HW118218   1.271   1.003  16.086 -0.0758 -3.1970 -2.0408
 2253SOL    HW218219   1.239   0.985  16.233  0.8527  2.0745 -0.4730
 2254SOL     OW18220   0.406   0.481   4.772 -0.0155 -0.1281  0.5215
 2254SOL    HW118221   0.370   0.450   4.688 -1.6500  1.5183  0.5980
 2254SOL    HW218222   0.493   0.441   4.770 -0.3255 -0.9806  4.5889
 2255SOL     OW18223   2.196   3.234  11.661  0.3364 -0.2511  0.2799
 2255SOL    HW118224   2.219   3.181  11.585 -1.5720  0.6944 -0.9461
 2255SOL    HW218225   2.164   3.175  11.730  0.2239 -0.6491 -0.1151
 2256SOL     OW18226   4.623   3.955   2.038  0.2813 -0.1415 -0.2613
 2256SOL    HW118227   4.546   3.902   2.018  1.0735 -1.6239  0.5611
 2256SOL    HW218228   4.619   4.021   1.969 -2.6249  0.7395  0.7639
 2257SOL     OW18229   0.758   3.260  12.986 -0.0980 -0.7233  0.0091
 2257SOL    HW118230   0.775   3.230  12.897 -1.0540  0.5161 -0.5938
 2257SOL    HW218231   0.845   3.258  13.025  0.9863  1.2747 -2.2675
 2258SOL     OW18232   4.649   2.402   5.977  0.3332  0.2054 -0.2092
 2258SOL    HW118233   4.629   2.402   6.071 -4.7376  0.1184 -1.2588
 2258SOL    HW218234   4.649   2.310   5.953 -2.4219  0.2388 -0.3814
 2259SOL     OW18235   0.633   4.212   0.106  0.3237 -0.1986 -0.7100
 2259SOL    HW118236   0.585   4.261   0.173 -3.1520 -0.0662 -3.3158
 2259SOL    HW218237   0.572   4.138   0.101 -1.2059  1.0498 -0.5039
 2260SOL     OW18238   2.105   1.637   0.561  0.0355 -0.1656 -0.0244
 2260SOL    HW118239   2.162   1.665   0.489 -0.3468 -0.4649 -0.4472
 2260SOL    HW218240   2.109   1.704   0.630 -0.3156 -0.2619  0.0888
 2261SOL     OW18241   4.045   3.715   3.516  0.0793  0.1783  0.3525
 2261SOL    HW118242   4.013   3.677   3.598 -0.1268 -2.3516 -0.9004
 2261SOL    HW218243   3.974   3.691   3.456 -0.8927  3.3625  0.2413
 2262SOL     OW18244   2.310   0.184   7.962  0.5344  0.1565 -0.0282
 2262SOL    HW118245   2.253   0.163   7.888 -0.1013  4.8957 -0.9350
 2262SOL    HW218246   2.252   0.175   8.037  1.4974  2.0269  0.9369
 2263SOL     OW18247   1.056   2.741   6.962  0.0820 -0.2149  0.2907
 2263SOL    HW118248   0.963   2.728   6.977 -0.5000  1.1588 -2.1388
 2263SOL    HW218249   1.063   2.731   6.867  0.2005 -2.2136  0.5057
 2264SOL     OW18250   0.144   0.802   2.087 -0.0348  0.4317 -0.5134
 2264SOL    HW118251   0.054   0.835   2.078 -0.7557 -1.3447  0.1114
 2264SOL    HW218252   0.210   0.849   2.037  1.5275 -0.9429  0.2584
 2265SOL     OW18253   3.517   1.516   7.035 -0.4748 -0.0939 -0.3796
 2265SOL    HW118254   3.447   1.580   7.022 -2.3410 -1.7172  1.8160
 2265SOL    HW218255   3.514   1.461   6.957  0.5756  0.9023 -1.1215
 2266SOL     OW18256   2.848   1.764   3.085  0.0387 -0.1956 -0.3494
 2266SOL    HW118257   2.756   1.768   3.061  0.2058 -1.1834 -1.1370
 2266SOL    HW218258   2.871   1.682   3.040  1.6587  0.3210 -0.4776
 2267SOL     OW18259   1.065   3.533   4.837  0.1167  0.2166 -0.0543
 2267SOL    HW118260   1.009   3.562   4.764  0.4696 -0.0184 -0.4220
 2267SOL    HW218261   1.151   3.533   4.794  0.1248  0.3046 -0.0389
 2268SOL     OW18262   2.177   2.493   0.754  0.0397 -0.0838 -0.5893
 2268SOL    HW118263   2.234   2.419   0.776 -1.1973 -0.7117  0.4990
 2268SOL    HW218264   2.235   2.560   0.717 -0.4120  1.5227  1.6371
 2269SOL     OW18265   2.164   2.138   6.394 -0.2278 -0.8389 -0.3305
 2269SOL    HW118266   2.244   2.190   6.404 -0.9385 -0.1228  1.5554
 2269SOL    HW218267   2.187   2.051   6.426 -0.2889 -0.8351 -0.2763
 2270SOL     OW18268   3.022   0.143   4.482  0.1641  0.7826  0.0204
 2270SOL    HW118269   3.039   0.090   4.560  2.1106  0.0860 -0.8898
 2270SOL    HW218270   3.031   0.232   4.517 -1.7984  0.8511  0.3606
 2271SOL     OW18271   3.140   0.308  11.231 -0.3675  0.4566 -0.1316
 2271SOL    HW118272   3.096   0.381  11.189 -2.9657 -0.9346  0.1932
 2271SOL    HW218273   3.085   0.231  11.219 -0.4616  0.5563 -0.3258
 2272SOL     OW18274   3.979   0.204   3.280 -0.5297  0.4647 -0.2722
 2272SOL    HW118275   3.940   0.133   3.331  0.9507 -0.3915 -0.3379
 2272SOL    HW218276   4.045   0.230   3.343  0.6878 -0.1219 -1.3175
 2273SOL     OW18277   0.999   2.673   9.114  0.0327  0.2122 -0.1195
 2273SOL    HW118278   0.930   2.657   9.050 -0.7247 -0.8324  0.9625
 2273SOL    HW218279   0.947   2.704   9.187 -0.5822 -0.9636 -0.0572
 2274SOL     OW18280   0.315   3.803  14.193 -0.5933  0.1972  0.6118
 2274SOL    HW118281   0.392   3.750  14.173 -0.3833  1.4742 -1.9310
 2274SOL    HW218282   0.257   3.762  14.128  0.2624  3.0497 -1.9555
 2275SOL     OW18283   0.226   1.692   3.358  0.0793  0.1549 -0.4003
 2275SOL    HW118284   0.276   1.773   3.350  2.0622 -1.2715 -2.4133
 2275SOL    HW218285   0.210   1.672   3.266 -0.8264 -1.9543  0.1955
 2276SOL     OW18286   0.166   4.122   7.473 -0.0382  0.2039 -0.4191
 2276SOL    HW118287   0.225   4.105   7.547  1.6414  1.8678 -1.3537
 2276SOL    HW218288   0.112   4.043   7.471  0.7771 -0.3375 -1.1262
 2277SOL     OW18289   2.712   0.056   2.203  0.3367 -0.5107  0.0924
 2277SOL    HW118290   2.714   4.722   2.280  0.6466  2.3171  2.2023
 2277SOL    HW218291   2.799   0.044   2.166  0.6540  1.0199  0.3282
 2278SOL     OW18292   1.080   1.953   1.875  0.0980 -0.5753 -0.3787
 2278SOL    HW118293   1.120   2.001   1.803  0.2062  0.0326  0.0910
 2278SOL    HW218294   1.015   2.017   1.904  1.3482 -0.2346  1.6528
 2279SOL     OW18295   4.015   3.942   6.889 -0.1284 -0.0560 -0.5282
 2279SOL    HW118296   3.953   3.880   6.851 -1.1240 -0.2001  1.3010
 2279SOL    HW218297   4.031   3.905   6.975  0.5096 -0.2092 -0.7127
 2280SOL     OW18298   2.724   3.782  10.845 -0.1687 -0.7329 -0.3033
 2280SOL    HW118299   2.703   3.850  10.782 -1.4401  1.9349  2.9967
 2280SOL    HW218300   2.639   3.756  10.881 -0.1509  0.7556  0.8051
 2281SOL     OW18301   2.320   3.235   6.084  0.2083  0.4562  0.4436
 2281SOL    HW118302   2.366   3.168   6.134  1.6780 -0.6229 -2.3657
 2281SOL    HW218303   2.365   3.316   6.107 -2.3182  1.9362  0.2081
 2282SOL     OW18304   2.964   4.381   3.456 -0.1814  0.1527 -0.4529
 2282SOL    HW118305   3.031   4.426   3.506 -0.4695 -0.7955  0.8090
 2282SOL    HW218306   2.995   4.290   3.450 -0.9774 -0.3654  2.9298
 2283SOL     OW18307   2.111   1.848   4.973  0.2462 -0.4505  0.0451
 2283SOL    HW118308   2.145   1.779   5.030  1.3553  1.2452  1.4456
 2283SOL    HW218309   2.022   1.818   4.954 -0.2220  0.1560  1.2538
 2284SOL     OW18310   0.759   1.081  15.515 -0.5189 -0.6015  0.0512
 2284SOL    HW118311   0.779   0.988  15.506  2.2146 -0.2331  2.0820
 2284SOL    HW218312   0.697   1.071  15.587 -1.5090  1.0607 -0.5794
 2285SOL     OW18313   1.734   3.937   7.711  0.3545  0.0470  0.3585
 2285SOL    HW118314   1.673   3.920   7.639  0.8220  0.9801 -0.2597
 2285SOL    HW218315   1.724   3.851   7.752 -2.0124 -0.0336 -0.4061
 2286SOL     OW18316   1.147   2.504   8.329  0.3222  0.3381  0.4266
 2286SOL    HW118317   1.109   2.462   8.406 -0.6616  0.5908  0.0863
 2286SOL    HW218318   1.239   2.511   8.355  0.1677 -1.9348  1.5190
 2287SOL     OW18319   0.910   1.850  10.224 -0.1004  0.2757  0.6887
 2287SOL    HW118320   0.848   1.829  10.293  1.2191 -0.8709  1.5228
 2287SOL    HW218321   0.923   1.944  10.238 -1.3533  0.8369 -1.9361
 2288SOL     OW18322   3.056   3.589   5.331  0.1868  0.1909 -0.0941
 2288SOL    HW118323   3.027   3.579   5.421 -1.7398  0.9114 -0.6424
 2288SOL    HW218324   3.147   3.618   5.340  0.3041 -0.3913  0.5211
 2289SOL     OW18325   3.603   2.753  12.125 -0.4232  0.4980 -0.1106
 2289SOL    HW118326   3.523   2.775  12.172 -1.2239 -1.4554 -0.5586
 2289SOL    HW218327   3.620   2.666  12.160  0.2217 -0.2038 -2.1752
 2290SOL     OW18328   3.913   3.388  14.511 -0.2997 -0.3217  0.0380
 2290SOL    HW118329   3.949   3.466  14.468 -1.3485  1.8473  3.0814
 2290SOL    HW218330   3.848   3.367  14.444 -1.2988 -0.6424  1.0949
 2291SOL     OW18331   4.476   0.510   5.567 -0.0225  0.1657  0.0554
 2291SOL    HW118332   4.433   0.587   5.529  2.2373  1.6166  0.3970
 2291SOL    HW218333   4.478   0.522   5.662 -1.5663  1.4120 -0.0834
 2292SOL     OW18334   0.924   3.607   5.059 -0.1883 -0.1509  0.0369
 2292SOL    HW118335   0.905   3.691   5.017 -0.6971 -0.8096 -1.0615
 2292SOL    HW218336   0.970   3.558   4.991  0.3589  0.3868  0.0186
 2293SOL     OW18337   3.569   4.445   5.239  0.0860  0.7240  0.6633
 2293SOL    HW118338   3.620   4.431   5.160 -0.8792  0.1048  0.1631
 2293SOL    HW218339   3.525   4.361   5.246  0.8850  0.3094  0.6617
 2294SOL     OW18340   4.174   2.794   1.920  0.5323 -0.2434  0.2822
 2294SOL    HW118341   4.236   2.808   1.991  2.3338  0.4105 -1.4295
 2294SOL    HW218342   4.198   2.712   1.878  1.6419 -0.1512  0.7287
 2295SOL     OW18343   1.748   2.891   1.196  0.0244  0.3606  0.3138
 2295SOL    HW118344   1.831   2.858   1.161 -1.1320 -0.7244 -1.3814
 2295SOL    HW218345   1.729   2.819   1.256  0.5045 -1.6616 -1.9453
 2296SOL     OW18346   3.618   0.449   9.808  0.3504  0.5555 -0.1610
 2296SOL    HW118347   3.550   0.472   9.871 -0.2203 -1.8009  0.0750
 2296SOL    HW218348   3.576   0.491   9.733  0.7080  2.1165  0.5082
 2297SOL     OW18349   4.602   3.379   1.163 -0.7416 -0.1430  0.8780
 2297SOL    HW118350   4.649   3.318   1.220 -1.1712 -1.3046 -0.0219
 2297SOL    HW218351   4.678   3.432   1.139  0.8636 -2.7060  0.3164
 2298SOL     OW18352   0.932   3.160  13.233 -0.3751 -0.4972 -0.5299
 2298SOL    HW118353   0.979   3.179  13.152  1.2348 -0.1435  0.4812
 2298SOL    HW218354   1.005   3.153  13.295 -1.2161 -2.7751  0.2189
 2299SOL     OW18355   2.493   2.327  13.919  0.2404 -0.3088  0.6292
 2299SOL    HW118356   2.522   2.255  13.975 -0.4199 -0.4874  0.7450
 2299SOL    HW218357   2.460   2.269  13.850  1.6408  0.4182 -0.6570
 2300SOL     OW18358   4.261   2.470   8.851 -0.0581 -0.5000 -0.2736
 2300SOL    HW118359   4.198   2.529   8.893  1.6443 -0.9744  2.9153
 2300SOL    HW218360   4.315   2.534   8.805  1.8741 -1.0685  1.2479
 2301SOL     OW18361   1.226   2.910   0.097 -0.1414 -0.0684 -0.7396
 2301SOL    HW118362   1.257   2.846   0.032  0.8227 -0.5949  0.2350
 2301SOL    HW218363   1.251   2.864   0.177 -1.5972 -0.6103 -0.6103
 2302SOL     OW18364   2.058   4.709   5.755  0.0902  0.0948 -0.0839
 2302SOL    HW118365   2.040   4.637   5.695  0.9271  0.0974 -0.3398
 2302SOL    HW218366   2.154   4.707   5.751  0.0655 -1.3745 -0.0274
 2303SOL     OW18367   0.907   0.461   1.998  0.0523  0.6757 -0.1196
 2303SOL    HW118368   0.992   0.459   2.042  0.5855  0.2313 -1.1566
 2303SOL    HW218369   0.937   0.497   1.914 -0.3551 -0.4233 -0.7424
 2304SOL     OW18370   4.211   2.996   4.522 -0.1134 -0.0822  0.1375
 2304SOL    HW118371   4.237   3.074   4.571 -2.1846  1.1246 -0.7075
 2304SOL    HW218372   4.271   3.011   4.449  0.7844  1.1947  1.1393
 2305SOL     OW18373   3.914   0.096   4.091 -0.0199 -0.0684  0.4984
 2305SOL    HW118374   4.004   0.100   4.122  0.3770  1.7319 -0.9125
 2305SOL    HW218375   3.865   0.128   4.168 -1.1856  1.4962 -0.8894
 2306SOL     OW18376   1.242   3.489   4.409 -0.3766  0.4800  0.2482
 2306SOL    HW118377   1.237   3.481   4.313  1.0945 -3.3925  0.4684
 2306SOL    HW218378   1.172   3.425   4.422  1.0403 -1.3453 -0.9875
 2307SOL     OW18379   3.828   1.814   6.459 -0.2641 -0.5982  0.2976
 2307SOL    HW118380   3.914   1.856   6.454  1.0355 -3.0241  2.2440
 2307SOL    HW218381   3.853   1.742   6.516 -0.4935  0.9024  2.3078
 2308SOL     OW18382   0.938   4.316   0.454  0.2525 -0.4967 -0.2240
 2308SOL    HW118383   0.884   4.324   0.375  0.0251  1.1778  0.0890
 2308SOL    HW218384   0.873   4.325   0.523 -0.1625  0.8593 -0.7897
 2309SOL     OW18385   3.997   0.831   9.774  0.4595 -0.0144  0.2372
 2309SOL    HW118386   4.082   0.799   9.743 -0.1934  0.4839 -2.0200
 2309SOL    HW218387   4.025   0.917   9.806  3.5715 -0.2045 -1.9443
 2310SOL     OW18388   1.339   2.407   7.606  0.1178 -0.1761 -0.1875
 2310SOL    HW118389   1.412   2.350   7.584  0.4802  0.5268 -0.8239
 2310SOL    HW218390   1.349   2.408   7.701 -1.7752 -1.0736  0.0152
 2311SOL     OW18391   3.710   0.175   7.450  0.2489  0.4073  0.2788
 2311SOL    HW118392   3.675   0.086   7.462  1.3172 -0.0495 -0.0178
 2311SOL    HW218393   3.781   0.176   7.515  0.2137  0.7276  0.3143
 2312SOL     OW18394   2.095   1.976   5.454 -0.6834  0.0718  0.1308
 2312SOL    HW118395   2.175   1.936   5.421 -1.7243 -1.4733 -0.5213
 2312SOL    HW218396   2.113   1.988   5.548  1.9775 -1.8444 -0.1489
 2313SOL     OW18397   0.793   2.173  13.999 -0.1123 -0.3845  0.3394
 2313SOL    HW118398   0.838   2.089  13.990 -0.0685  0.0913 -3.8696
 2313SOL    HW218399   0.727   2.161  13.930 -0.5755 -1.1362  0.9040
 2314SOL     OW18400   3.326   3.385   2.335  0.8155  0.5022  0.5923
 2314SOL    HW118401   3.271   3.453   2.296  1.3664  0.9824  0.6508
 2314SOL    HW218402   3.383   3.387   2.258 -1.7384 -0.6768 -1.3558
 2315SOL     OW18403   0.232   4.358  15.120 -0.3433 -0.3013 -0.0288
 2315SOL    HW118404   0.279   4.275  15.114 -0.6189 -0.4243 -0.4667
 2315SOL    HW218405   0.212   4.352  15.026 -1.2224 -1.4905  0.2357
 2316SOL     OW18406   0.005   2.796   9.437 -0.1145 -0.0822  0.0639
 2316SOL    HW118407   4.649   2.782   9.489 -0.7450  4.1542  0.2239
 2316SOL    HW218408   0.016   2.891   9.431  1.5128 -0.1706  1.8181
 2317SOL     OW18409   4.051   3.992   8.902 -0.2303 -0.7440 -0.0686
 2317SOL    HW118410   4.096   4.071   8.875  0.9479 -1.5290 -0.3833
 2317SOL    HW218411   4.130   3.939   8.891 -0.0895 -0.2929 -1.2562
 2318SOL     OW18412   1.216   2.974   0.486 -0.3292 -0.2783 -0.4448
 2318SOL    HW118413   1.173   2.999   0.404  0.3802  1.3288 -0.3174
 2318SOL    HW218414   1.281   3.044   0.483 -2.1737  1.3623 -1.9032
 2319SOL     OW18415   4.564   3.970   8.315  0.3170 -0.3061  0.1301
 2319SOL    HW118416   4.543   4.007   8.229  0.0055 -0.1245  0.2827
 2319SOL    HW218417   4.475   3.952   8.347  0.4528  0.5931  1.0048
 2320SOL     OW18418   4.011   0.611  10.516 -0.1031 -0.1601 -0.3737
 2320SOL    HW118419   4.074   0.681  10.499  1.2096 -0.9892  1.0245
 2320SOL    HW218420   3.956   0.618  10.439 -1.0710 -0.6923  0.2596
 2321SOL     OW18421   2.929   3.359   1.148  0.3016  0.4156  0.3994
 2321SOL    HW118422   2.938   3.294   1.218 -1.6869  0.9802  1.1742
 2321SOL    HW218423   2.939   3.309   1.067 -1.7356  2.4730 -1.1001
 2322SOL     OW18424   1.985   4.042   0.355  0.2818 -0.5603  0.2047
 2322SOL    HW118425   1.983   4.071   0.446 -1.3783  1.6003 -0.5421
 2322SOL    HW218426   1.898   4.070   0.328  0.2263 -0.3954  0.5606
 2323SOL     OW18427   2.785   0.885   1.815 -0.6681 -0.3212  0.3377
 2323SOL    HW118428   2.820   0.969   1.847 -1.8608 -0.4165  1.8800
 2323SOL    HW218429   2.867   0.847   1.782  0.3257  0.6979  1.6256
 2324SOL     OW18430   3.639   2.670  13.946 -0.3301 -0.1642  0.3684
 2324SOL    HW118431   3.650   2.765  13.947 -1.8099  0.0249 -1.4337
 2324SOL    HW218432   3.556   2.666  13.993 -1.5815 -0.6669 -1.9132
 2325SOL     OW18433   0.009   2.633   4.347  0.5381  0.2976 -0.1285
 2325SOL    HW118434   0.030   2.712   4.297  2.5148  1.1187  1.9765
 2325SOL    HW218435   0.077   2.569   4.325  0.6050  0.4844 -0.4605
 2326SOL     OW18436   1.243   3.248   7.714 -0.1678 -0.2104 -0.2296
 2326SOL    HW118437   1.288   3.278   7.635  0.6769 -2.0445 -0.4590
 2326SOL    HW218438   1.177   3.191   7.674  0.5150  0.0112 -1.6716
 2327SOL     OW18439   4.555   4.401   2.623  0.2729  0.4028 -0.8758
 2327SOL    HW118440   4.462   4.407   2.646  0.2440  0.8869 -1.0971
 2327SOL    HW218441   4.580   4.319   2.664  0.0170  0.9415  0.3664
 2328SOL     OW18442   4.537   0.558  12.971 -0.1674 -0.0412  0.0188
 2328SOL    HW118443   4.570   0.475  13.003  1.2841  0.9763  1.1563
 2328SOL    HW218444   4.487   0.570  13.051 -0.1277 -0.5822  0.1248
 2329SOL     OW18445   4.041   3.254   5.066 -0.4589 -0.3456  0.8689
 2329SOL    HW118446   3.969   3.251   5.003 -1.0210 -0.3112  1.5041
 2329SOL    HW218447   4.059   3.345   5.043  1.6319 -0.9945 -0.0638
 2330SOL     OW18448   1.464   3.333  13.429 -0.3159  0.1669  0.8889
 2330SOL    HW118449   1.370   3.329  13.410  0.4421  0.8829 -3.0092
 2330SOL    HW218450   1.460   3.343  13.524 -0.3433  1.1933  0.7825
 2331SOL     OW18451   0.902   3.797   4.419 -0.1937  0.4484  0.1493
 2331SOL    HW118452   0.979   3.823   4.369 -0.3531  0.5210 -0.0623
 2331SOL    HW218453   0.831   3.847   4.378  0.2461  1.2250  0.3413
 2332SOL     OW18454   1.294   3.486   7.843 -0.1486  0.5552 -0.0543
 2332SOL    HW118455   1.268   3.406   7.798  1.4632  0.7667 -1.3612
 2332SOL    HW218456   1.317   3.455   7.930 -0.6765  1.2461  0.3353
 2333SOL     OW18457   1.415   3.283   4.699 -0.3483  0.3053  0.2108
 2333SOL    HW118458   1.491   3.223   4.696 -0.3926  0.1888  1.3950
 2333SOL    HW218459   1.347   3.223   4.729 -0.9028  0.9833  0.3016
 2334SOL     OW18460   3.361   2.448   7.278  0.2004  0.2314  0.0723
 2334SOL    HW118461   3.320   2.438   7.192 -0.6139 -1.2809  0.6514
 2334SOL    HW218462   3.386   2.357   7.294 -0.4524  0.0558  0.0787
 2335SOL     OW18463   3.179   2.122  13.051 -0.3676  0.1521 -0.0021
 2335SOL    HW118464   3.231   2.160  13.122 -0.3688  0.9939 -0.4462
 2335SOL    HW218465   3.239   2.148  12.980 -0.3640  0.7084  0.2081
 2336SOL     OW18466   0.288   3.058   5.645  0.1053 -0.9676  0.2828
 2336SOL    HW118467   0.238   2.984   5.681 -3.7896  0.9042 -1.2573
 2336SOL    HW218468   0.228   3.130   5.664  1.3127  0.0993 -0.0044
 2337SOL     OW18469   1.379   2.757  17.612  0.1629  0.2435 -0.1402
 2337SOL    HW118470   1.398   2.700  17.537  1.2920  0.0988  0.2655
 2337SOL    HW218471   1.451   2.736  17.671 -0.3905  0.2371  0.5292
 2338SOL     OW18472   0.496   1.384  11.103 -0.0862  0.2029  0.3678
 2338SOL    HW118473   0.582   1.352  11.077 -0.3683 -0.4565  0.2627
 2338SOL    HW218474   0.484   1.357  11.193 -0.9700  0.2148  0.2617
 2339SOL     OW18475   0.479   3.142   7.494  0.0594 -0.4335  0.5410
 2339SOL    HW118476   0.425   3.074   7.535 -1.3196 -1.0919 -2.4086
 2339SOL    HW218477   0.540   3.173   7.561 -0.7506  1.2101  0.5275
 2340SOL     OW18478   0.581   0.902   9.507  0.2043 -0.0330 -0.3642
 2340SOL    HW118479   0.666   0.945   9.518 -1.4721  2.7943  1.1536
 2340SOL    HW218480   0.586   0.890   9.412 -0.2639 -1.7325 -0.1762
 2341SOL     OW18481   0.779   0.553  16.398  0.1014  0.0601  0.1988
 2341SOL    HW118482   0.690   0.560  16.432 -0.3910  0.4684 -1.1675
 2341SOL    HW218483   0.824   0.519  16.475  1.4644  2.7956  0.5775
 2342SOL     OW18484   2.320   2.779   1.918 -0.2219 -0.0437  0.4234
 2342SOL    HW118485   2.337   2.851   1.857 -0.0013  1.1685  1.9130
 2342SOL    HW218486   2.313   2.826   2.000 -0.3156  0.4144  0.1538
 2343SOL     OW18487   2.923   0.934   8.042  0.4521  0.0408  0.0916
 2343SOL    HW118488   2.860   0.997   8.076  2.1966  1.1582  1.2684
 2343SOL    HW218489   2.916   0.867   8.110  1.9640 -1.1368 -0.8997
 2344SOL     OW18490   3.758   2.722   4.355  0.3015 -0.1309  0.3339
 2344SOL    HW118491   3.832   2.695   4.409  1.5289 -0.4012 -1.4682
 2344SOL    HW218492   3.775   2.813   4.331  1.8867 -0.8237 -1.2455
 2345SOL     OW18493   3.642   4.501   2.310  0.0943 -0.7936 -0.0525
 2345SOL    HW118494   3.682   4.541   2.387  1.5876  2.0010 -2.2701
 2345SOL    HW218495   3.638   4.573   2.247 -1.6782 -0.1713  0.7650
 2346SOL     OW18496   3.067   1.643   5.113 -0.2188  0.0720  0.3923
 2346SOL    HW118497   3.038   1.574   5.053 -0.8801 -2.4993  3.6818
 2346SOL    HW218498   3.138   1.677   5.059  1.1903 -2.0286  0.9415
 2347SOL     OW18499   2.293   1.904   6.511  0.3099  0.0087  0.6900
 2347SOL    HW118500   2.280   1.812   6.533 -1.4528  1.1693  4.5719
 2347SOL    HW218501   2.316   1.902   6.419 -2.7144  0.1531 -0.0712
 2348SOL     OW18502   0.506   3.621   1.986  0.2201  0.0499  0.1082
 2348SOL    HW118503   0.473   3.586   1.902 -0.4290  1.0046 -0.0347
 2348SOL    HW218504   0.578   3.676   1.956  0.1147  0.6492  0.9764
 2349SOL     OW18505   0.332   1.819   7.706  0.9767  0.0284  0.1317
 2349SOL    HW118506   0.400   1.828   7.774 -1.4986  4.2978  2.0336
 2349SOL    HW218507   0.342   1.907   7.671  3.6361  0.5579  2.1604
 2350SOL     OW18508   2.683   4.102   2.196  0.0130 -0.0915 -0.1008
 2350SOL    HW118509   2.716   4.073   2.281 -0.6227 -0.8325 -0.1008
 2350SOL    HW218510   2.733   4.183   2.186  0.1081 -0.1853 -0.4015
 2351SOL     OW18511   1.971   0.108  16.125  0.2856  0.3735  0.1234
 2351SOL    HW118512   1.908   0.130  16.057 -1.6995 -1.9994  1.1870
 2351SOL    HW218513   2.050   0.091  16.075  0.0651  0.0860 -0.1214
 2352SOL     OW18514   0.146   3.714   8.218  0.0752 -0.0395 -0.3348
 2352SOL    HW118515   0.098   3.728   8.300 -1.2574 -0.5272 -1.0357
 2352SOL    HW218516   0.238   3.709   8.245 -0.6612  2.6198  2.7392
 2353SOL     OW18517   1.419   3.960   4.507 -0.2413  0.4198 -0.6431
 2353SOL    HW118518   1.400   3.882   4.455 -0.8849  0.1979 -0.0726
 2353SOL    HW218519   1.514   3.973   4.502 -0.2313  1.1422  1.5147
 2354SOL     OW18520   3.568   0.910   8.255  0.0212  0.6564  0.6411
 2354SOL    HW118521   3.507   0.886   8.325 -0.7053 -0.0812 -0.2594
 2354SOL    HW218522   3.632   0.840   8.271 -0.9194 -0.0984  1.1164
 2355SOL     OW18523   0.901   3.306   7.901 -0.0152  0.0002 -0.3250
 2355SOL    HW118524   0.988   3.300   7.862  0.2992 -1.6050  0.5784
 2355SOL    HW218525   0.910   3.243   7.974 -2.8181 -0.0856 -0.0527
 2356SOL     OW18526   0.585   0.886   5.505  0.8184  0.8030 -0.3527
 2356SOL    HW118527   0.593   0.959   5.444  0.8211  0.5911 -0.6080
 2356SOL    HW218528   0.578   0.813   5.444  0.1881 -1.1214  2.0436
 2357SOL     OW18529   2.745   1.838  13.929 -0.5129  0.0537  0.4531
 2357SOL    HW118530   2.740   1.896  13.853 -0.7160  1.3545  1.4604
 2357SOL    HW218531   2.840   1.845  13.943 -0.1954 -0.8664 -1.2808
 2358SOL     OW18532   3.959   1.700  11.316  0.1470  0.0299 -0.6891
 2358SOL    HW118533   3.969   1.730  11.406  2.2275 -0.1323 -0.8553
 2358SOL    HW218534   4.015   1.622  11.313 -0.7403 -0.6218 -0.3924
 2359SOL     OW18535   3.505   0.398   6.355 -0.3459  0.2658  0.3454
 2359SOL    HW118536   3.421   0.445   6.350  0.2661  1.3962  0.6738
 2359SOL    HW218537   3.532   0.422   6.443  2.3197 -0.2115 -0.3532
 2360SOL     OW18538   2.175   3.518   0.230  0.3106  0.6144 -0.6197
 2360SOL    HW118539   2.148   3.605   0.260  0.9478  0.8386 -0.6895
 2360SOL    HW218540   2.092   3.479   0.257  0.9645  0.7431  1.5597
 2361SOL     OW18541   3.769   0.480   6.992  0.5499  0.4978  0.0954
 2361SOL    HW118542   3.755   0.574   7.004 -0.4841  0.2732  0.6620
 2361SOL    HW218543   3.678   0.452   6.995  0.3776  1.0302 -0.1874
 2362SOL     OW18544   0.764   3.048   4.367  0.2327  0.6134 -0.5229
 2362SOL    HW118545   0.690   3.105   4.351  0.3210  1.1909  1.1680
 2362SOL    HW218546   0.759   3.001   4.283 -0.4757  0.9897 -0.6866
 2363SOL     OW18547   1.548   4.000  15.158 -0.0945  0.1240 -0.1129
 2363SOL    HW118548   1.633   3.957  15.146  1.1101  2.0828  1.4928
 2363SOL    HW218549   1.519   4.014  15.068  0.1949 -0.3007 -0.2737
 2364SOL     OW18550   3.109   1.287   9.992  0.0432  0.4356 -0.0242
 2364SOL    HW118551   3.196   1.247   9.993 -0.0304  0.2213 -1.7354
 2364SOL    HW218552   3.126   1.372   9.950  1.0560 -1.2374 -3.0076
 2365SOL     OW18553   2.014   2.402   7.100  0.1723 -0.1309 -0.1110
 2365SOL    HW118554   1.994   2.339   7.030 -0.2744  1.2168 -1.2027
 2365SOL    HW218555   1.973   2.479   7.060  0.3656  0.3227  0.5730
 2366SOL     OW18556   1.253   0.797   0.478 -0.5288  0.0039 -0.3308
 2366SOL    HW118557   1.259   0.886   0.444 -1.4922  0.7396  1.3809
 2366SOL    HW218558   1.316   0.752   0.423  0.8002  2.0192 -0.4385
 2367SOL     OW18559   1.743   3.146   1.059 -0.2134 -0.2345  0.3484
 2367SOL    HW118560   1.815   3.132   0.998 -0.1711  3.5709 -0.4781
 2367SOL    HW218561   1.749   3.074   1.122  3.3902 -1.2001 -1.0875
 2368SOL     OW18562   0.660   1.665   9.034  0.7372  0.2879  0.0525
 2368SOL    HW118563   0.736   1.721   9.022  2.5185 -1.8455  1.5856
 2368SOL    HW218564   0.666   1.621   8.949 -1.1180  0.3764 -0.1406
 2369SOL     OW18565   0.005   3.613  13.161  0.2262  0.2883  0.3509
 2369SOL    HW118566   4.690   3.614  13.248  0.0216  0.7757  0.2556
 2369SOL    HW218567   0.078   3.674  13.176 -0.6375  1.2560  0.5842
 2370SOL     OW18568   0.115   1.552   1.060  0.0283  0.0502 -0.1258
 2370SOL    HW118569   0.153   1.505   0.986 -1.3609  1.9448 -2.0397
 2370SOL    HW218570   0.034   1.506   1.085 -0.1868  0.6259  0.2293
 2371SOL     OW18571   2.236   2.633  10.093 -0.0315  0.6951  0.0084
 2371SOL    HW118572   2.243   2.542  10.065  0.1554  0.7341 -0.0691
 2371SOL    HW218573   2.145   2.637  10.124 -0.1671  1.3611 -0.4599
 2372SOL     OW18574   2.955   3.214  10.871  0.0197  0.7568 -0.6633
 2372SOL    HW118575   3.013   3.214  10.795  1.0685 -0.4568  0.1456
 2372SOL    HW218576   2.886   3.278  10.854  0.5599  1.6942  0.6779
 2373SOL     OW18577   1.990   0.315  14.293  0.6424 -0.2553  0.1736
 2373SOL    HW118578   1.903   0.291  14.264  0.9862  1.8741 -2.5528
 2373SOL    HW218579   1.966   0.339  14.383 -0.0582 -1.9309  0.4403
 2374SOL     OW18580   3.613   3.134   2.163 -0.1408 -0.4477 -0.7104
 2374SOL    HW118581   3.594   3.145   2.257  0.4001  1.4306 -0.8069
 2374SOL    HW218582   3.704   3.112   2.181 -0.4510 -1.4574 -0.4240
 2375SOL     OW18583   0.516   2.901   5.622 -0.5428 -0.4558  0.2904
 2375SOL    HW118584   0.442   2.961   5.621  0.3455  0.6423 -0.8886
 2375SOL    HW218585   0.487   2.820   5.581  0.0673 -1.7068  2.3648
 2376SOL     OW18586   1.999   4.054  11.668  0.1109 -0.3563 -0.4386
 2376SOL    HW118587   1.935   4.083  11.732  0.0810 -2.0315  0.2729
 2376SOL    HW218588   1.990   3.959  11.680 -0.4991 -0.4927 -1.9407
 2377SOL     OW18589   1.518   3.780   3.620  0.0796 -0.2389 -0.1506
 2377SOL    HW118590   1.472   3.728   3.554 -0.7863 -0.0812  0.3244
 2377SOL    HW218591   1.479   3.866   3.605  0.5004 -0.1796 -0.8846
 2378SOL     OW18592   1.891   2.170   7.233 -0.1626  0.2747  0.2793
 2378SOL    HW118593   1.862   2.253   7.194  1.7146  0.9487  0.2866
 2378SOL    HW218594   1.836   2.105   7.191 -0.9295  1.2038 -0.1455
 2379SOL     OW18595   0.574   1.910   8.526 -0.0343 -0.3180 -0.1555
 2379SOL    HW118596   0.497   1.933   8.578 -2.1686 -3.1536 -2.0924
 2379SOL    HW218597   0.622   1.869   8.597 -0.0488  0.2032  0.1593
 2380SOL     OW18598   2.811   0.127   4.841 -0.4673  0.1139  0.3270
 2380SOL    HW118599   2.761   0.059   4.796 -0.1118  0.8017 -1.1194
 2380SOL    HW218600   2.898   0.117   4.802 -0.3976 -0.9725  0.7804
 2381SOL     OW18601   3.564   4.067   7.336  0.4810 -0.0805 -0.2307
 2381SOL    HW118602   3.650   4.095   7.303  0.1887  2.1497  0.8705
 2381SOL    HW218603   3.588   3.996   7.395  1.9569  0.8174  0.2805
 2382SOL     OW18604   3.061   1.408   3.802  0.5690  0.2165 -0.0523
 2382SOL    HW118605   3.115   1.435   3.727 -0.4777  0.1556 -0.8196
 2382SOL    HW218606   3.085   1.316   3.800  0.8202  0.2842 -0.1847
 2383SOL     OW18607   1.804   1.085   4.349 -0.3977  0.4616  0.5196
 2383SOL    HW118608   1.798   1.176   4.376 -0.3018  0.1649  1.5484
 2383SOL    HW218609   1.713   1.055   4.351 -0.1266 -0.4001  0.3312
 2384SOL     OW18610   0.606   2.589   0.602 -0.2800 -0.3183  0.1678
 2384SOL    HW118611   0.622   2.673   0.560 -1.4359  0.2657  0.8970
 2384SOL    HW218612   0.638   2.605   0.691  0.9721 -0.6396 -0.2223
 2385SOL     OW18613   0.663   2.966  10.411  0.2050 -0.4670 -0.2109
 2385SOL    HW118614   0.611   3.040  10.380  0.6234  0.0306  0.2804
 2385SOL    HW218615   0.672   2.921  10.327  0.4347  0.9357 -0.9424
 2386SOL     OW18616   2.816   1.831   2.624  0.1991  0.6544 -0.2522
 2386SOL    HW118617   2.785   1.877   2.701 -1.3378  1.3152 -1.2720
 2386SOL    HW218618   2.861   1.901   2.578 -0.0109  1.3564  0.6315
 2387SOL     OW18619   0.059   1.902   8.979  0.0761 -0.2014  0.4482
 2387SOL    HW118620   0.121   1.831   8.992 -0.4466 -1.0315 -1.6105
 2387SOL    HW218621   0.007   1.886   8.900  0.7280  0.3213 -0.0822
 2388SOL     OW18622   1.643   1.783   7.615  0.2197 -0.1591 -0.2651
 2388SOL    HW118623   1.586   1.828   7.553 -1.5595  0.9785  2.1971
 2388SOL    HW218624   1.726   1.789   7.567 -0.0222 -1.2202 -0.8026
 2389SOL     OW18625   2.008   1.619   8.399 -0.2613  0.1146 -0.3802
 2389SOL    HW118626   1.926   1.580   8.369 -1.1072  0.6836  1.1624
 2389SOL    HW218627   1.991   1.622   8.493 -0.6665  0.1706 -0.4557
 2390SOL     OW18628   2.936   4.011  15.053 -0.3465 -0.6521  0.0818
 2390SOL    HW118629   2.971   4.094  15.086  1.8650 -1.4154 -0.3609
 2390SOL    HW218630   3.004   3.988  14.991  0.7720  1.4845  0.5173
 2391SOL     OW18631   4.661   0.557   0.389  0.2167 -0.3370 -0.7220
 2391SOL    HW118632   0.005   0.511   0.339  1.0162  0.5979 -0.5101
 2391SOL    HW218633   4.678   0.519   0.476  2.6150  0.4455 -0.8498
 2392SOL     OW18634   1.823   3.423   8.178  0.3367 -0.0801 -0.4504
 2392SOL    HW118635   1.732   3.425   8.150  0.4685 -0.4314 -0.8973
 2392SOL    HW218636   1.828   3.330   8.204 -0.4627 -0.5057 -1.8369
 2393SOL     OW18637   3.744   4.088   4.942  0.3019 -0.0333  0.0699
 2393SOL    HW118638   3.769   4.030   5.013  1.5544 -1.3152 -1.4093
 2393SOL    HW218639   3.725   4.166   4.994  0.1359  0.4140 -0.6562
 2394SOL     OW18640   3.510   3.698   2.782 -0.4141  0.1647  0.0858
 2394SOL    HW118641   3.420   3.684   2.753  0.3348 -0.6392 -1.7987
 2394SOL    HW218642   3.497   3.780   2.831 -0.5093  0.1023  0.1656
 2395SOL     OW18643   0.018   1.951   3.771  0.2309 -0.6177 -0.0339
 2395SOL    HW118644   0.041   2.043   3.787  0.9360 -0.9538  0.9154
 2395SOL    HW218645   4.664   1.940   3.827  1.5808 -0.8314  1.8086
 2396SOL     OW18646   0.262   4.408   5.624 -0.1088  0.5198  0.1210
 2396SOL    HW118647   0.257   4.391   5.530  2.2645  0.1904  0.0559
 2396SOL    HW218648   0.173   4.430   5.650 -0.7917 -0.4614 -1.3977
 2397SOL     OW18649   0.076   1.871   7.239  0.1011 -0.5253 -0.6757
 2397SOL    HW118650   0.103   1.951   7.194 -0.5913  0.3880  0.5547
 2397SOL    HW218651   0.070   1.809   7.166 -2.6929 -1.9224  0.7707
 2398SOL     OW18652   0.972   1.462  14.090 -0.2730  0.2359 -0.1856
 2398SOL    HW118653   1.066   1.450  14.079 -0.2373 -1.1739  1.6019
 2398SOL    HW218654   0.960   1.487  14.182  2.4783 -0.6664  0.4139
 2399SOL     OW18655   0.760   2.207   6.055  0.3947 -0.0927 -0.5164
 2399SOL    HW118656   0.738   2.153   6.131  1.7012  0.8105  0.5259
 2399SOL    HW218657   0.797   2.142   5.996 -0.8736 -3.4092  2.3774
 2400SOL     OW18658   2.889   0.393  15.393 -0.0813  0.5417 -0.5721
 2400SOL    HW118659   2.972   0.376  15.349  0.3466 -4.0147  2.0132
 2400SOL    HW218660   2.863   0.301  15.395 -0.2569  0.6143  0.6109
 2401SOL     OW18661   2.936   0.982   2.227  0.5371 -0.4570 -0.0987
 2401SOL    HW118662   2.889   1.056   2.266 -0.9712 -0.1781 -2.4597
 2401SOL    HW218663   3.022   1.004   2.261  0.1944 -1.6720  1.5840
 2402SOL     OW18664   0.930   0.995  16.127  0.3268 -0.0805 -0.1776
 2402SOL    HW118665   1.015   0.951  16.123 -0.4193 -1.7211  2.4572
 2402SOL    HW218666   0.950   1.075  16.175 -0.9443 -0.0190  0.2476
 2403SOL     OW18667   2.209   1.381   7.823 -0.1845  0.0230  0.0172
 2403SOL    HW118668   2.118   1.404   7.844 -0.9829 -0.8109 -2.5455
 2403SOL    HW218669   2.253   1.449   7.875  1.0878 -0.6884 -0.1321
 2404SOL     OW18670   2.003   4.114  17.242 -0.2737  0.5726  0.0222
 2404SOL    HW118671   1.980   4.160  17.323  0.0346  1.0802 -0.1770
 2404SOL    HW218672   1.964   4.168  17.173 -0.8510  3.1970  2.3902
 2405SOL     OW18673   1.315   0.186   3.625 -0.0981 -0.2414  0.4793
 2405SOL    HW118674   1.286   0.193   3.534 -4.7672  0.8327  2.0713
 2405SOL    HW218675   1.244   0.211   3.683  1.8306  3.6943  1.0906
 2406SOL     OW18676   4.234   0.842  11.959 -0.6477  0.6711 -0.1009
 2406SOL    HW118677   4.148   0.823  11.920 -1.4220  0.0948  1.8828
 2406SOL    HW218678   4.281   0.896  11.895 -1.1124 -0.8310 -1.7331
 2407SOL     OW18679   3.291   0.323   5.968 -0.0002 -0.2261 -0.1567
 2407SOL    HW118680   3.303   0.302   5.875 -1.6591  1.5503 -0.7624
 2407SOL    HW218681   3.240   0.247   5.994  2.4106 -1.0133  2.2129
 2408SOL     OW18682   1.800   3.660  11.661  0.3998  0.2768  0.0224
 2408SOL    HW118683   1.728   3.708  11.621 -0.5186 -0.0754  1.2400
 2408SOL    HW218684   1.842   3.722  11.720  0.3950  1.4062 -1.1566
 2409SOL     OW18685   3.710   0.483   7.730 -0.2102  0.2842 -0.2860
 2409SOL    HW118686   3.695   0.458   7.639 -1.9684  1.2141 -0.2593
 2409SOL    HW218687   3.635   0.441   7.774 -0.7229  1.7979  0.3075
 2410SOL     OW18688   4.003   2.213   4.726  0.1041  0.2338 -0.0380
 2410SOL    HW118689   4.066   2.191   4.658  1.1778  1.1958  0.6370
 2410SOL    HW218690   3.927   2.238   4.673 -1.7208 -1.1643  1.9002
 2411SOL     OW18691   1.475   3.572   7.574 -0.3282  0.1619 -0.1624
 2411SOL    HW118692   1.439   3.485   7.556  1.0468 -0.8700  1.9764
 2411SOL    HW218693   1.488   3.563   7.669  0.5202  1.4336 -0.1508
 2412SOL     OW18694   1.708   3.712  11.338  0.3134  0.1124  0.4274
 2412SOL    HW118695   1.612   3.716  11.333  0.4022  0.8426 -0.7584
 2412SOL    HW218696   1.741   3.782  11.395  0.1473 -0.0885  0.7684
 2413SOL     OW18697   1.226   4.052   6.475 -0.5227  0.1997 -0.2179
 2413SOL    HW118698   1.187   3.985   6.419  1.1434 -0.2658 -0.7943
 2413SOL    HW218699   1.167   4.056   6.550  1.0738 -2.8032  1.1972
 2414SOL     OW18700   0.882   0.430  13.959 -0.2586  0.0990  0.6917
 2414SOL    HW118701   0.912   0.459  13.872 -0.5633  1.4269  1.0225
 2414SOL    HW218702   0.841   0.512  13.988  1.2692  1.0500  0.1908
 2415SOL     OW18703   4.174   3.466   8.363  0.0571 -0.2959  0.2251
 2415SOL    HW118704   4.219   3.456   8.447 -2.1328  0.9789  1.5362
 2415SOL    HW218705   4.089   3.499   8.392  0.1899  0.3207 -0.0946
 2416SOL     OW18706   2.088   3.361   2.743  0.2389  0.0788 -0.1486
 2416SOL    HW118707   2.037   3.293   2.698 -1.4860 -0.1891  2.2010
 2416SOL    HW218708   2.032   3.437   2.726 -1.7142 -1.2309  0.4352
 2417SOL     OW18709   0.093   1.500   9.559  0.1444 -0.0756  0.5320
 2417SOL    HW118710   0.091   1.584   9.605  1.7570  0.1969  0.1242
 2417SOL    HW218711   0.186   1.477   9.565  0.7297  2.0456 -0.4603
 2418SOL     OW18712   0.694   1.975   7.648 -0.7919 -0.3126 -0.2435
 2418SOL    HW118713   0.638   1.947   7.575 -0.1629 -1.1166 -0.4150
 2418SOL    HW218714   0.776   1.928   7.631  0.0558  2.0981 -2.9217
 2419SOL     OW18715   2.180   2.333  12.016  0.0702 -0.6162 -0.2825
 2419SOL    HW118716   2.239   2.391  12.064  0.0884  0.5863 -1.7532
 2419SOL    HW218717   2.190   2.249  12.061 -0.6537 -0.1904  0.6811
 2420SOL     OW18718   4.721   2.380  12.887 -0.0147 -0.3592 -0.0640
 2420SOL    HW118719   4.710   2.463  12.840  2.3017  0.7942  1.4067
 2420SOL    HW218720   4.669   2.382  12.967  0.0704 -1.0048  0.0067
 2421SOL     OW18721   4.666   1.901   1.226  0.0464 -0.1790 -0.0791
 2421SOL    HW118722   4.595   1.838   1.217 -0.3845  0.2003  0.6060
 2421SOL    HW218723   0.018   1.846   1.204  0.4135  1.6322 -3.3919
 2422SOL     OW18724   3.317   3.679   5.379  0.4977  0.4515 -0.4521
 2422SOL    HW118725   3.369   3.746   5.334 -0.2871  0.2919 -1.5883
 2422SOL    HW218726   3.390   3.621   5.400  1.4645  2.9988  3.3279
 2423SOL     OW18727   0.693   0.154   4.253 -0.1148 -0.3730  0.0115
 2423SOL    HW118728   0.689   0.219   4.322  1.6696 -2.5272  2.1159
 2423SOL    HW218729   0.701   0.213   4.178  0.7043 -1.0812 -0.4588
 2424SOL     OW18730   0.038   2.561   9.261  0.5724  0.0710 -0.0292
 2424SOL    HW118731   0.032   2.641   9.313  0.0764 -0.3420  0.5448
 2424SOL    HW218732   0.118   2.572   9.209  0.3287  1.0083 -0.1960
 2425SOL     OW18733   3.299   0.031   4.612 -0.2490  0.4689 -0.0803
 2425SOL    HW118734   3.284   4.718   4.525  1.9876  0.5560 -0.5179
 2425SOL    HW218735   3.331   0.119   4.589  0.5184  0.3054  0.3322
 2426SOL     OW18736   4.653   4.132   7.721 -0.3040  0.2669  0.3510
 2426SOL    HW118737   4.634   4.142   7.814  1.5704 -1.3426  0.8929
 2426SOL    HW218738   4.678   4.220   7.692 -0.5890  0.2700  0.1070
 2427SOL     OW18739   4.694   3.015  13.143  0.1038 -0.0442 -0.3958
 2427SOL    HW118740   4.619   3.005  13.085  0.5241 -1.2847 -0.7153
 2427SOL    HW218741   4.689   2.936  13.197  0.6434  0.8119  0.9183
 2428SOL     OW18742   1.654   0.471   2.875 -0.1001  0.1841 -0.5185
 2428SOL    HW118743   1.657   0.541   2.941 -1.2433  0.1567 -0.4287
 2428SOL    HW218744   1.717   0.413   2.916 -0.6497 -0.8847 -1.1842
 2429SOL     OW18745   2.382   3.302   4.485  0.3461  0.0138  0.6197
 2429SOL    HW118746   2.334   3.348   4.417  1.4282 -1.0568 -0.8637
 2429SOL    HW218747   2.413   3.376   4.538 -1.5952  0.7382  0.7194
 2430SOL     OW18748   3.960   2.774  11.712 -0.4842 -0.1975 -0.2042
 2430SOL    HW118749   3.993   2.776  11.622 -0.5552  0.8499 -0.2042
 2430SOL    HW218750   3.871   2.744  11.694 -0.2925  1.0695 -3.2247
 2431SOL     OW18751   1.641   3.292  15.945 -0.2121 -0.3641 -0.1495
 2431SOL    HW118752   1.665   3.260  15.858  0.6326  1.1757 -0.4937
 2431SOL    HW218753   1.555   3.252  15.956  0.1588 -0.7397  1.4059
 2432SOL     OW18754   3.988   0.162   2.990 -0.0824 -0.3973 -0.2182
 2432SOL    HW118755   3.905   0.203   2.965 -0.2065 -0.2040  0.5117
 2432SOL    HW218756   3.997   0.176   3.084 -1.1442  0.7752 -0.3030
 2433SOL     OW18757   1.851   4.275   7.962 -0.5406 -0.5202  0.2468
 2433SOL    HW118758   1.839   4.284   8.057  0.0622 -2.6774  0.5244
 2433SOL    HW218759   1.927   4.221   7.943  1.4712  1.9322  1.3236
 2434SOL     OW18760   4.711   0.668   0.106 -0.3409  0.1324 -0.5097
 2434SOL    HW118761   4.642   0.733   0.095 -0.8055 -0.4976 -1.3420
 2434SOL    HW218762   4.697   0.642   0.197  0.0300  0.4022 -0.3733
 2435SOL     OW18763   3.194   1.237   6.270  0.1241  0.1297  0.0089
 2435SOL    HW118764   3.169   1.330   6.277  3.1833  0.8501  1.4092
 2435SOL    HW218765   3.111   1.199   6.241  0.4793  0.7933 -1.8503
 2436SOL     OW18766   4.444   1.911   6.938 -0.0716  0.4794 -0.2050
 2436SOL    HW118767   4.499   1.871   6.871  1.0860  0.2444  0.8882
 2436SOL    HW218768   4.458   1.859   7.017  0.1700 -1.8623 -1.7880
 2437SOL     OW18769   1.127   2.392  15.648  0.8229  0.8331  0.2677
 2437SOL    HW118770   1.169   2.384  15.734 -0.3891 -1.4084  0.6535
 2437SOL    HW218771   1.047   2.339  15.653  2.9956 -2.5715 -1.0232
 2438SOL     OW18772   2.076   2.091   5.713 -0.1011  0.1834 -0.2911
 2438SOL    HW118773   2.154   2.139   5.686  0.2878  0.4756  1.3502
 2438SOL    HW218774   2.090   2.091   5.808 -1.8246 -2.1677 -0.0382
 2439SOL     OW18775   4.554   2.963  12.921 -0.7990  0.9717 -0.2650
 2439SOL    HW118776   4.461   2.943  12.921 -0.3717 -0.9735  0.2226
 2439SOL    HW218777   4.575   2.938  12.831 -0.5769  1.0507 -0.2350
 2440SOL     OW18778   3.596   2.595   4.170  0.2635 -0.1700 -0.1323
 2440SOL    HW118779   3.651   2.633   4.238 -0.1760  0.5092 -0.1507
 2440SOL    HW218780   3.512   2.593   4.215  1.2234 -4.1797  1.4744
 2441SOL     OW18781   3.122   2.595   7.379  0.1885  0.1738 -0.6795
 2441SOL    HW118782   3.173   2.675   7.363 -0.9295  1.0264  0.0326
 2441SOL    HW218783   3.200   2.539   7.370  0.1010 -0.1465  0.5997
 2442SOL     OW18784   0.155   0.317   2.697 -0.2645 -0.4411 -0.0788
 2442SOL    HW118785   0.140   0.391   2.639  0.2771  0.7124  1.2566
 2442SOL    HW218786   0.141   0.365   2.779  0.4986  0.3011 -0.3873
 2443SOL     OW18787   0.648   2.869   3.577  0.3302  0.2065  0.8306
 2443SOL    HW118788   0.740   2.846   3.587  0.4757  0.6617  0.5512
 2443SOL    HW218789   0.659   2.964   3.577 -2.0773  0.4906  0.2104
 2444SOL     OW18790   0.328   3.497  12.986 -0.4981 -0.6826  0.5467
 2444SOL    HW118791   0.272   3.478  12.910 -1.1426  1.4209  0.4887
 2444SOL    HW218792   0.414   3.469  12.954  0.3969  2.7739 -0.0441
 2445SOL     OW18793   4.228   4.171   8.219  0.2840  0.0642 -0.0079
 2445SOL    HW118794   4.282   4.125   8.155  0.3019  0.7364 -0.4741
 2445SOL    HW218795   4.139   4.172   8.184 -0.3805 -1.4325  1.6346
 2446SOL     OW18796   4.143   4.198   6.962 -0.2248 -0.3164  0.4460
 2446SOL    HW118797   4.206   4.193   6.890  1.2492 -2.3579  1.8811
 2446SOL    HW218798   4.104   4.111   6.962 -0.4062 -0.2333  0.2075
 2447SOL     OW18799   2.527   3.476   6.848 -0.2414  0.3285 -0.1692
 2447SOL    HW118800   2.563   3.477   6.937  2.0175 -0.8593 -1.0595
 2447SOL    HW218801   2.507   3.570   6.854  0.3493  0.4678 -0.3539
 2448SOL     OW18802   2.827   4.378   7.343  0.1415 -0.0989 -0.6631
 2448SOL    HW118803   2.905   4.383   7.287 -0.8265  2.8762 -1.7422
 2448SOL    HW218804   2.872   4.403   7.424 -1.3812 -0.7746  0.3938
 2449SOL     OW18805   2.754   3.475   2.446 -0.1534 -0.3049  0.6913
 2449SOL    HW118806   2.838   3.466   2.490  0.3331 -0.5401 -0.2729
 2449SOL    HW218807   2.690   3.418   2.489  0.1966  0.0860  1.7202
 2450SOL     OW18808   4.031   2.704   2.923 -0.1577  0.0301 -0.0368
 2450SOL    HW118809   4.035   2.624   2.976 -1.9164 -0.6423 -0.8966
 2450SOL    HW218810   4.104   2.755   2.958 -2.8011  3.3571  0.6340
 2451SOL     OW18811   2.542   3.984   6.134 -0.0176 -0.1045 -0.0014
 2451SOL    HW118812   2.526   4.036   6.055 -0.9201  0.9133  0.8553
 2451SOL    HW218813   2.620   4.032   6.161 -0.1097 -0.6815  1.2915
 2452SOL     OW18814   2.719   2.016  13.747 -0.0612  0.5538 -0.0657
 2452SOL    HW118815   2.745   2.106  13.764 -1.2402  0.8433  0.2363
 2452SOL    HW218816   2.631   2.037  13.716  0.2417 -0.5446 -1.6812
 2453SOL     OW18817   0.269   3.879   1.241 -0.3845 -0.4500 -0.5669
 2453SOL    HW118818   0.263   3.818   1.315 -0.3616 -2.1667 -1.9663
 2453SOL    HW218819   0.193   3.936   1.255  0.0191 -0.0080 -0.2052
 2454SOL     OW18820   3.369   1.576   7.410  0.3778  0.3803 -0.7051
 2454SOL    HW118821   3.352   1.639   7.480  1.3842  0.5337 -0.5958
 2454SOL    HW218822   3.458   1.605   7.393 -0.2642  1.4630 -2.2356
 2455SOL     OW18823   1.267   3.897   5.039 -0.2967  0.2677 -0.0501
 2455SOL    HW118824   1.210   3.935   4.972 -1.2993 -1.3980 -0.1413
 2455SOL    HW218825   1.220   3.923   5.118 -1.5420 -0.3681 -0.5789
 2456SOL     OW18826   3.536   2.362   8.264 -0.0140  0.5073  0.1559
 2456SOL    HW118827   3.530   2.458   8.262  1.7216  0.5796 -1.0890
 2456SOL    HW218828   3.486   2.357   8.346 -1.5075 -0.2036 -0.7848
 2457SOL     OW18829   2.523   1.211   3.318 -0.2387  0.2966  0.3161
 2457SOL    HW118830   2.453   1.184   3.377  0.8528 -1.4626  0.8023
 2457SOL    HW218831   2.544   1.124   3.283 -3.4318 -1.0882  1.8794
 2458SOL     OW18832   4.101   4.280   4.567 -0.2601 -0.4830 -0.1505
 2458SOL    HW118833   4.097   4.199   4.518 -0.3794 -0.3338 -0.3872
 2458SOL    HW218834   4.187   4.303   4.532 -0.5626  2.0570  0.7396
 2459SOL     OW18835   2.970   0.956  16.775 -0.6090 -0.5118 -0.6928
 2459SOL    HW118836   3.062   0.935  16.760 -0.5308 -2.6124  2.7315
 2459SOL    HW218837   2.925   0.877  16.744 -1.5645 -0.9246  1.7180
 2460SOL     OW18838   4.025   0.509   2.570 -0.4783  0.7637 -0.0666
 2460SOL    HW118839   4.088   0.507   2.498  0.8440  0.3146  1.1001
 2460SOL    HW218840   4.004   0.419   2.595 -0.6824  0.4361 -1.4046
 2461SOL     OW18841   0.028   4.344  13.710  0.2791  0.1075 -0.5627
 2461SOL    HW118842   0.083   4.267  13.721 -3.3177 -2.7797 -2.9715
 2461SOL    HW218843   0.053   4.397  13.785 -1.1617 -1.8607  1.2904
 2462SOL     OW18844   2.030   0.965   3.460 -0.4376 -0.4817  0.3697
 2462SOL    HW118845   2.099   0.903   3.436 -0.9106 -0.9902  0.3068
 2462SOL    HW218846   2.047   0.981   3.553  0.8246 -1.2434  0.2716
 2463SOL     OW18847   3.400   0.312  16.534 -0.3169 -0.0516  0.0811
 2463SOL    HW118848   3.379   0.251  16.464 -0.1415 -0.0210  0.0019
 2463SOL    HW218849   3.393   0.251  16.607  0.3594 -1.7852 -1.3310
 2464SOL     OW18850   0.435   1.624  15.424 -0.0419 -0.1962  0.1737
 2464SOL    HW118851   0.506   1.616  15.360 -0.8517  1.7460 -0.9664
 2464SOL    HW218852   0.477   1.578  15.496 -0.0215  0.2435  0.4477
 2465SOL     OW18853   2.344   4.547   2.491 -0.2798 -0.4579 -0.6401
 2465SOL    HW118854   2.421   4.530   2.436 -0.1950 -3.0038  0.2906
 2465SOL    HW218855   2.297   4.464   2.493 -1.5143  0.2398 -0.9229
 2466SOL     OW18856   3.203   0.981  16.448  0.6213  0.4211  0.4910
 2466SOL    HW118857   3.220   1.062  16.399 -0.1961  0.2164 -0.1344
 2466SOL    HW218858   3.217   1.009  16.539  1.6206 -1.7796  0.9964
 2467SOL     OW18859   1.203   2.847   4.448  0.2972  0.0048 -0.6722
 2467SOL    HW118860   1.238   2.912   4.387 -1.0261  1.0380 -0.3331
 2467SOL    HW218861   1.270   2.781   4.464  1.1925  0.9775 -0.4312
 2468SOL     OW18862   4.237   0.747   9.668  0.2469 -0.3121 -0.5779
 2468SOL    HW118863   4.286   0.772   9.746  0.5009 -1.4413 -0.3797
 2468SOL    HW218864   4.293   0.782   9.599  0.3794 -0.3186 -0.4715
 2469SOL     OW18865   4.152   1.146   6.032 -0.1095  0.4099 -0.5843
 2469SOL    HW118866   4.065   1.114   6.055  0.3007 -0.7236 -0.5662
 2469SOL    HW218867   4.137   1.170   5.941  1.8812  0.2088 -0.9814
 2470SOL     OW18868   4.652   3.395   2.537 -0.2262 -0.4502  0.2369
 2470SOL    HW118869   0.002   3.357   2.585 -0.2846  0.7039  1.2531
 2470SOL    HW218870   4.577   3.358   2.584 -0.7179  0.3095  0.0505
 2471SOL     OW18871   0.929   1.615  10.914  0.1036  0.0361 -0.0053
 2471SOL    HW118872   0.890   1.690  10.870  0.8285  1.6263  2.0741
 2471SOL    HW218873   0.859   1.598  10.977 -0.5220  0.4325 -0.5918
 2472SOL     OW18874   1.762   4.645  16.067 -0.0793  0.0931 -0.3070
 2472SOL    HW118875   1.796   4.647  15.977 -0.4486 -0.5639 -0.4602
 2472SOL    HW218876   1.805   4.711  16.121 -0.6666  0.6177 -0.4823
 2473SOL     OW18877   3.664   1.502  10.126  0.8041  1.0685  0.2844
 2473SOL    HW118878   3.671   1.583  10.076 -1.1178 -0.2609 -2.1085
 2473SOL    HW218879   3.710   1.439  10.071 -0.2803  1.6810 -1.3044
 2474SOL     OW18880   2.018   3.084  11.846  0.2961  0.0112 -0.1737
 2474SOL    HW118881   2.016   3.102  11.940  0.0017  1.1156 -0.3927
 2474SOL    HW218882   2.058   2.996  11.847  0.0073 -0.1151  1.1122
 2475SOL     OW18883   0.604   1.937   9.611  0.4654  0.1229  0.1357
 2475SOL    HW118884   0.652   2.009   9.571  1.4031 -1.6365 -1.8802
 2475SOL    HW218885   0.532   1.995   9.638  0.8079 -0.6010  2.6532
 2476SOL     OW18886   1.230   2.009   6.490  0.3890  0.7203  0.0477
 2476SOL    HW118887   1.207   2.037   6.402  3.2495  1.9726 -0.3062
 2476SOL    HW218888   1.325   2.002   6.488  0.1589 -2.3339 -0.4424
 2477SOL     OW18889   2.716   2.312   6.750 -0.0403 -0.0569 -0.0178
 2477SOL    HW118890   2.705   2.227   6.705 -0.9853  0.0886 -0.0669
 2477SOL    HW218891   2.637   2.357   6.719  0.9409  2.0688  0.6101
 2478SOL     OW18892   2.721   2.516   1.899  0.1310 -0.2954  0.2476
 2478SOL    HW118893   2.743   2.562   1.818  2.5259  0.6373  1.4498
 2478SOL    HW218894   2.638   2.554   1.930  0.7594  1.7968 -0.6322
 2479SOL     OW18895   3.208   1.724  17.552 -0.4414  0.2598 -0.1170
 2479SOL    HW118896   3.286   1.670  17.539  0.4072  1.3017  0.6343
 2479SOL    HW218897   3.164   1.695  17.472  2.2318  0.2894 -1.5927
 2480SOL     OW18898   0.285   2.572   3.595 -0.0077 -0.3686  0.6845
 2480SOL    HW118899   0.323   2.537   3.515  3.1504  0.5813  1.7444
 2480SOL    HW218900   0.195   2.594   3.573  0.5717  1.2707 -0.0991
 2481SOL     OW18901   1.049   1.137  13.432 -0.3071  0.2762  0.2154
 2481SOL    HW118902   1.086   1.137  13.344 -0.9444 -0.8392 -0.0527
 2481SOL    HW218903   1.082   1.223  13.459  2.0011  0.0429 -1.8046
 2482SOL     OW18904   1.044   4.189   2.728  0.1154 -0.0293  0.3643
 2482SOL    HW118905   1.063   4.264   2.672 -2.4240 -0.7342 -1.4331
 2482SOL    HW218906   0.988   4.233   2.792  2.3714  1.2780  1.4289
 2483SOL     OW18907   4.588   2.671   8.523 -0.5560 -0.0704 -0.5302
 2483SOL    HW118908   4.574   2.618   8.445 -0.3927 -1.4213  0.3635
 2483SOL    HW218909   4.497   2.684   8.550 -0.1203  0.0637  0.8914
 2484SOL     OW18910   4.604   1.854  13.873 -0.0119 -0.6543 -0.2218
 2484SOL    HW118911   4.537   1.794  13.906 -1.2796  0.3399 -0.9692
 2484SOL    HW218912   4.545   1.916  13.831  0.2496 -0.4771 -0.3218
 2485SOL     OW18913   1.966   3.155   8.708  0.0218 -0.2407 -0.1203
 2485SOL    HW118914   1.937   3.232   8.757 -1.2822 -0.3107 -0.7806
 2485SOL    HW218915   1.929   3.085   8.763  2.9120 -1.8201 -0.1988
 2486SOL     OW18916   3.077   1.667   5.585  0.1141  0.1542  0.0535
 2486SOL    HW118917   3.085   1.723   5.508 -0.5125  0.7893  0.4437
 2486SOL    HW218918   3.040   1.591   5.540 -1.1011 -0.3037  1.8154
 2487SOL     OW18919   2.123   4.340  12.685  1.1511 -0.5716  0.3148
 2487SOL    HW118920   2.127   4.403  12.757 -2.5153 -0.2521  0.2628
 2487SOL    HW218921   2.092   4.267  12.739 -0.5372 -2.0016 -2.5670
 2488SOL     OW18922   2.365   2.089   9.263 -0.5407  0.8233 -0.1424
 2488SOL    HW118923   2.348   2.132   9.179 -0.0882  1.3689  0.0507
 2488SOL    HW218924   2.350   2.002   9.225  1.0236  0.4883  0.0338
 2489SOL     OW18925   1.996   3.037   8.237 -0.1868 -0.3532  0.3420
 2489SOL    HW118926   1.967   2.982   8.165  0.4584  0.7932 -0.7926
 2489SOL    HW218927   2.047   3.105   8.194  1.0725 -1.9362 -0.6747
 2490SOL     OW18928   0.007   3.618   4.261 -0.4506 -0.0325 -0.1206
 2490SOL    HW118929   0.030   3.625   4.168  0.1205  0.2256  0.0449
 2490SOL    HW218930   0.087   3.641   4.308  0.1162  4.3058 -3.2492
 2491SOL     OW18931   3.319   0.470   2.176  0.0738  0.1933  0.6226
 2491SOL    HW118932   3.367   0.435   2.101  0.7895  1.2925  0.5795
 2491SOL    HW218933   3.294   0.555   2.140 -2.0256 -0.0772  1.4062
 2492SOL     OW18934   1.284   3.723   8.065  0.0241  0.9642 -0.2256
 2492SOL    HW118935   1.353   3.764   8.014  0.8467 -0.6477 -0.4164
 2492SOL    HW218936   1.228   3.694   7.993 -1.8728  0.1277  1.5925
 2493SOL     OW18937   4.225   2.375   4.883 -0.1538 -0.0964  0.5449
 2493SOL    HW118938   4.194   2.458   4.847  3.1626  1.9652  2.4826
 2493SOL    HW218939   4.151   2.317   4.863  0.2342 -1.1284  2.0843
 2494SOL     OW18940   0.869   1.783   7.585  0.1490 -0.1412  0.0454
 2494SOL    HW118941   0.855   1.699   7.542 -0.6679 -0.1281  0.2899
 2494SOL    HW218942   0.962   1.805   7.573 -0.1581  0.3318 -1.4775
 2495SOL     OW18943   3.382   0.838   8.449 -0.2962 -0.3081 -0.0887
 2495SOL    HW118944   3.302   0.825   8.398  0.7102 -1.7448 -1.2930
 2495SOL    HW218945   3.351   0.918   8.493  1.0333 -0.0230  0.3176
 2496SOL     OW18946   4.307   2.752   0.494 -0.5667  0.1553 -0.7030
 2496SOL    HW118947   4.217   2.737   0.522 -0.2418  0.9198  0.7049
 2496SOL    HW218948   4.312   2.847   0.485  2.3621  0.1726  1.2823
 2497SOL     OW18949   3.085   4.251   7.475  0.2064 -0.1678 -0.1490
 2497SOL    HW118950   3.067   4.182   7.410  3.7942 -0.9112 -0.3838
 2497SOL    HW218951   3.176   4.225   7.493 -0.4979 -1.3142  1.6605
 2498SOL     OW18952   1.086   4.583   1.556 -0.2599 -0.2339  0.0881
 2498SOL    HW118953   1.034   4.614   1.630  1.3053  2.0750  0.2463
 2498SOL    HW218954   1.123   4.498   1.580  1.4357  0.5604  0.2983
 2499SOL     OW18955   3.634   2.829   9.134 -0.4354  0.0464 -0.4090
 2499SOL    HW118956   3.604   2.740   9.149  0.0313 -0.2788 -1.4017
 2499SOL    HW218957   3.553   2.878   9.122  0.4646  1.1999 -1.8187
 2500SOL     OW18958   0.037   4.602   4.529 -0.1572  0.0693  0.4849
 2500SOL    HW118959   0.110   4.584   4.589 -1.0707 -1.1154  1.2278
 2500SOL    HW218960   0.088   4.654   4.467 -0.1508 -0.4642  0.0479
 2501SOL     OW18961   4.685   0.868   9.312 -0.2162 -0.2843 -0.0682
 2501SOL    HW118962   4.650   0.856   9.224  2.0576 -0.5393 -0.9424
 2501SOL    HW218963   0.056   0.867   9.296 -0.1613 -0.3322  0.2518
 2502SOL     OW18964   3.774   3.519   7.529 -0.3706 -0.0416 -0.3252
 2502SOL    HW118965   3.684   3.486   7.525 -0.9206  1.5116 -0.7821
 2502SOL    HW218966   3.819   3.439   7.553 -0.9103 -0.1064  0.4502
 2503SOL     OW18967   0.861   1.497   5.934 -0.0498  0.3242 -0.2721
 2503SOL    HW118968   0.815   1.420   5.902  0.7501 -0.7495  1.1755
 2503SOL    HW218969   0.951   1.477   5.908 -0.3444 -0.7604 -0.4305
 2504SOL     OW18970   1.321   4.660   7.199  0.0750 -0.0177 -0.7394
 2504SOL    HW118971   1.414   4.678   7.215  0.7490 -2.4643 -1.9229
 2504SOL    HW218972   1.329   4.573   7.160 -1.7555 -0.1209 -0.8794
 2505SOL     OW18973   1.068   3.050   0.254  0.0585  0.1776  0.0467
 2505SOL    HW118974   1.109   2.991   0.189  1.0873 -1.0979  1.8507
 2505SOL    HW218975   1.057   3.122   0.192 -0.4702  0.6550  0.7102
 2506SOL     OW18976   3.058   0.474   2.831 -0.0458 -0.0333  0.3449
 2506SOL    HW118977   3.027   0.520   2.753  3.2431  0.4181 -0.7381
 2506SOL    HW218978   3.135   0.530   2.843  1.6421 -2.1917 -0.2214
 2507SOL     OW18979   1.628   4.326   5.323  0.7253  0.1196  0.4754
 2507SOL    HW118980   1.685   4.265   5.276  1.1736 -0.7823  2.2112
 2507SOL    HW218981   1.626   4.396   5.258  0.5404  0.9316  1.3503
 2508SOL     OW18982   3.614   2.489   6.589  0.5142 -0.3229 -0.4793
 2508SOL    HW118983   3.701   2.450   6.590  0.9539  0.5935 -2.5801
 2508SOL    HW218984   3.563   2.408   6.587 -0.5304  0.2936  0.8929
 2509SOL     OW18985   4.572   1.414   1.086  0.1700  0.0257 -0.4644
 2509SOL    HW118986   4.609   1.332   1.117 -2.0357  0.0558  2.1993
 2509SOL    HW218987   4.525   1.380   1.010  0.6912  2.4185 -1.8540
 2510SOL     OW18988   3.458   2.764   2.806  0.4183 -0.1648 -0.2171
 2510SOL    HW118989   3.474   2.710   2.883 -1.0420  2.5207  1.9766
 2510SOL    HW218990   3.397   2.707   2.759  2.3816 -2.1656 -0.3673
 2511SOL     OW18991   3.634   3.480   4.629 -0.0123  0.7822  0.1852
 2511SOL    HW118992   3.702   3.516   4.687 -0.2349  2.2708 -0.4590
 2511SOL    HW218993   3.560   3.516   4.678  0.1712 -0.6951  1.5399
 2512SOL     OW18994   3.073   2.989  14.385 -0.1855  0.1507 -0.5170
 2512SOL    HW118995   3.084   3.080  14.358 -1.5925  0.7453  0.9010
 2512SOL    HW218996   3.074   3.013  14.477  1.0124  0.9627 -0.7292
 2513SOL     OW18997   3.206   2.807  11.851 -0.4382  0.4301  0.2146
 2513SOL    HW118998   3.218   2.749  11.926  0.4167  0.4265  0.0804
 2513SOL    HW218999   3.293   2.847  11.848 -0.7703  1.2040  0.7591
 2514SOL     OW19000   0.864   3.987   6.311 -0.4724  0.1270 -0.3261
 2514SOL    HW119001   0.859   3.973   6.405  0.0704  2.2393  0.0085
 2514SOL    HW219002   0.930   3.919   6.295 -1.5351 -0.9216 -0.2163
 2515SOL     OW19003   2.727   0.778   6.886  0.1223 -0.0252 -0.0770
 2515SOL    HW119004   2.790   0.850   6.875  0.5913 -0.4058  0.0877
 2515SOL    HW219005   2.784   0.705   6.911 -1.0044 -0.7129  0.4769
 2516SOL     OW19006   0.746   3.288   0.834  0.4280  0.2930  0.4904
 2516SOL    HW119007   0.722   3.310   0.744  0.9568 -0.7555  0.0988
 2516SOL    HW219008   0.659   3.289   0.873 -0.3522  1.3750 -1.2478
 2517SOL     OW19009   2.222   0.623   6.170  0.2772 -0.1731 -0.5878
 2517SOL    HW119010   2.211   0.530   6.192 -2.8267 -0.3030 -2.7169
 2517SOL    HW219011   2.155   0.666   6.222 -0.2057  0.1367 -1.4674
 2518SOL     OW19012   1.087   3.224  16.190  0.5373  0.0770 -0.1465
 2518SOL    HW119013   1.027   3.159  16.152  2.1514  0.0440 -2.6421
 2518SOL    HW219014   1.014   3.270  16.234 -0.3816  0.2319 -1.8176
 2519SOL     OW19015   2.592   0.651   4.520  0.5117  0.5231 -0.0495
 2519SOL    HW119016   2.523   0.588   4.502  0.0564  0.7231  0.9614
 2519SOL    HW219017   2.549   0.736   4.528  0.5364  0.4917  0.4398
 2520SOL     OW19018   0.009   1.834   3.488 -0.0668  0.0582  0.7881
 2520SOL    HW119019   0.040   1.855   3.575  0.2325 -0.9562  0.9233
 2520SOL    HW219020   0.092   1.811   3.446 -0.7041  0.5739 -0.7726
 2521SOL     OW19021   3.747   3.197  15.392  0.2881  0.0387 -0.0947
 2521SOL    HW119022   3.739   3.282  15.348  2.2504  0.7548  0.9596
 2521SOL    HW219023   3.839   3.190  15.417  0.1233 -0.0195  0.4937
 2522SOL     OW19024   0.787   3.274   0.330 -0.3212 -0.4485  0.1872
 2522SOL    HW119025   0.799   3.330   0.253 -0.8959  0.6658  0.9113
 2522SOL    HW219026   0.695   3.249   0.318 -0.6210 -0.3421  2.2791
 2523SOL     OW19027   2.127   3.186   2.336  0.3310 -0.1320  0.4423
 2523SOL    HW119028   2.221   3.202   2.321  0.7735 -0.4216  2.9394
 2523SOL    HW219029   2.096   3.249   2.271  0.0042 -1.1585 -0.3994
 2524SOL     OW19030   1.295   0.004   1.401  0.2569  0.4874  0.5210
 2524SOL    HW119031   1.221   4.701   1.456 -3.0872  3.6161 -2.4821
 2524SOL    HW219032   1.274   0.096   1.414 -0.4646  0.6851 -2.1153
 2525SOL     OW19033   0.775   0.324   4.060  0.3712 -0.1536  0.1401
 2525SOL    HW119034   0.781   0.419   4.045 -1.8360 -0.3098 -1.7261
 2525SOL    HW219035   0.804   0.288   3.976 -1.9352 -1.3489 -0.1420
 2526SOL     OW19036   0.854   1.981  16.919 -0.1208  0.5560 -0.2071
 2526SOL    HW119037   0.799   2.058  16.931 -1.4141 -0.1077 -1.8452
 2526SOL    HW219038   0.820   1.923  16.988  0.9204 -1.1908 -1.1570
 2527SOL     OW19039   3.934   2.824   7.116  0.2418 -0.6361  0.4511
 2527SOL    HW119040   3.939   2.749   7.175 -1.8017 -0.7909  0.4123
 2527SOL    HW219041   3.974   2.903   7.153 -0.5009  0.5122 -1.1701
 2528SOL     OW19042   2.811   1.665   4.272  0.1902  0.3025 -0.4436
 2528SOL    HW119043   2.832   1.590   4.328 -0.9142  0.3022 -0.0429
 2528SOL    HW219044   2.771   1.719   4.340  1.2138 -1.1953  1.3364
 2529SOL     OW19045   2.651   1.427   1.811 -0.3760  0.4349  0.2338
 2529SOL    HW119046   2.742   1.432   1.783 -0.1802  0.6789  0.8980
 2529SOL    HW219047   2.611   1.413   1.725 -1.3786  0.2156  0.7280
 2530SOL     OW19048   3.899   1.902   0.486  0.1651 -0.1837  0.0710
 2530SOL    HW119049   3.823   1.958   0.504  1.1068  1.7829 -1.9979
 2530SOL    HW219050   3.908   1.890   0.392 -0.7778 -1.5243  0.1569
 2531SOL     OW19051   4.598   1.278  14.306  0.1508  0.0228 -0.4904
 2531SOL    HW119052   4.653   1.225  14.248 -0.2397 -0.1372 -0.7160
 2531SOL    HW219053   4.508   1.248  14.294  0.4061 -0.3133 -1.5650
 2532SOL     OW19054   2.803   2.982  11.407 -0.3433  0.0126  0.3031
 2532SOL    HW119055   2.791   2.936  11.324  0.4989 -0.4054  0.4181
 2532SOL    HW219056   2.765   2.919  11.468 -0.3111  0.4530  0.7804
 2533SOL     OW19057   4.676   3.288   5.954  0.2275  0.3238  0.7186
 2533SOL    HW119058   4.682   3.196   5.928  1.5544  0.4486  0.5734
 2533SOL    HW219059   4.617   3.293   6.029 -1.1039  0.2348 -0.3344
 2534SOL     OW19060   2.290   4.129   3.745  0.4580  0.0577 -0.4427
 2534SOL    HW119061   2.200   4.130   3.711  0.8693 -0.1384 -1.5394
 2534SOL    HW219062   2.339   4.173   3.675  2.8227 -1.4546  0.2426
 2535SOL     OW19063   4.324   2.143   2.204 -0.3502 -0.5086 -0.7878
 2535SOL    HW119064   4.267   2.097   2.143 -0.8738  0.5175 -1.0758
 2535SOL    HW219065   4.310   2.089   2.281  2.0545  0.2503  0.1753
 2536SOL     OW19066   2.113   2.248   8.320  0.0357  0.1983  0.7690
 2536SOL    HW119067   2.183   2.213   8.376  1.8466 -0.9888 -2.2559
 2536SOL    HW219068   2.038   2.191   8.340  1.3589 -1.6299  0.5336
 2537SOL     OW19069   3.168   2.985  15.579 -0.0879  0.3712 -0.0387
 2537SOL    HW119070   3.193   3.066  15.534  2.6970 -0.0465  0.7424
 2537SOL    HW219071   3.083   2.974  15.537 -0.7329  0.9186  1.1451
 2538SOL     OW19072   3.979   4.068   7.872  0.3120  0.2365  0.5508
 2538SOL    HW119073   3.904   4.020   7.837  0.8434  1.0195 -1.6605
 2538SOL    HW219074   3.955   4.072   7.965  0.4209  0.2125  0.5794
 2539SOL     OW19075   4.592   3.453   8.574 -0.7673 -0.0558  0.0933
 2539SOL    HW119076   4.652   3.420   8.507 -0.6377 -1.3097  0.8211
 2539SOL    HW219077   4.645   3.525   8.609 -1.5872  0.3237  0.5467
 2540SOL     OW19078   1.502   3.169   6.062 -0.0410  0.1991  0.1198
 2540SOL    HW119079   1.427   3.139   6.012  1.4111  1.1782 -2.6353
 2540SOL    HW219080   1.509   3.104   6.133 -1.3887  1.1151  1.0817
 2541SOL     OW19081   1.099   3.814   6.316 -0.8332  0.1808 -0.1202
 2541SOL    HW119082   1.110   3.719   6.323  3.3586  0.5632 -1.4350
 2541SOL    HW219083   1.110   3.821   6.221 -1.5255 -1.1623 -0.2985
 2542SOL     OW19084   2.640   3.610   1.760 -0.3099 -0.5805  0.2635
 2542SOL    HW119085   2.584   3.534   1.746  0.0650 -0.8480  0.2115
 2542SOL    HW219086   2.658   3.636   1.670  1.5394  0.3087  0.8811
 2543SOL     OW19087   4.708   4.311   4.819  0.0448  0.0970 -0.2172
 2543SOL    HW119088   4.677   4.308   4.729  0.8354 -0.8096 -0.4628
 2543SOL    HW219089   0.017   4.221   4.828  2.6627  1.1395  0.9633
 2544SOL     OW19090   4.707   4.639   9.349  0.2735 -0.8942 -0.1464
 2544SOL    HW119091   0.070   4.666   9.379  0.2034  0.3216 -1.0746
 2544SOL    HW219092   0.013   4.548   9.340 -0.7266 -1.3515  1.2346
 2545SOL     OW19093   3.405   1.381   5.120 -0.0330  0.0151 -0.0483
 2545SOL    HW119094   3.488   1.428   5.112  1.1420 -2.0481 -0.0205
 2545SOL    HW219095   3.357   1.446   5.171 -0.9612 -0.0490 -0.8420
 2546SOL     OW19096   1.164   0.452   5.806  0.3309  0.5805  0.1981
 2546SOL    HW119097   1.104   0.525   5.811  0.0012  0.3131  0.1402
 2546SOL    HW219098   1.103   0.378   5.798  0.8024  0.4006 -1.8393
 2547SOL     OW19099   0.498   1.684   2.925 -0.0713 -0.2484  0.1324
 2547SOL    HW119100   0.576   1.726   2.960 -0.6125  1.3320 -0.5794
 2547SOL    HW219101   0.504   1.703   2.831 -0.3662 -3.2011 -0.4964
 2548SOL     OW19102   1.126   2.841   8.827  0.1590 -0.4638 -0.1037
 2548SOL    HW119103   1.031   2.845   8.815  0.1909 -1.7093 -0.7502
 2548SOL    HW219104   1.157   2.806   8.744  0.1530  1.4788 -0.9278
 2549SOL     OW19105   1.668   1.509   2.664  0.1075  0.1464  0.0470
 2549SOL    HW119106   1.713   1.541   2.742 -0.1800  2.5641 -0.7970
 2549SOL    HW219107   1.619   1.436   2.703  1.1478 -0.7912 -0.4037
 2550SOL     OW19108   2.132   3.456  10.178 -0.4514 -0.1745  0.3424
 2550SOL    HW119109   2.043   3.438  10.149  0.0434 -0.2793 -1.1172
 2550SOL    HW219110   2.165   3.518  10.113  0.0416 -2.5005 -1.6291
 2551SOL     OW19111   0.885   1.768  16.468 -0.0850  0.1117  0.5230
 2551SOL    HW119112   0.849   1.841  16.518  3.7929  2.0044  0.5007
 2551SOL    HW219113   0.851   1.796  16.382  0.5224 -0.5054  0.0904
 2552SOL     OW19114   2.328   3.441   9.615  0.6268  0.0954 -0.3022
 2552SOL    HW119115   2.335   3.498   9.692 -3.3896 -0.7070  0.6290
 2552SOL    HW219116   2.282   3.366   9.653 -1.2961  1.0300 -0.7660
 2553SOL     OW19117   0.598   0.226   3.140  0.6133 -0.0839  0.6461
 2553SOL    HW119118   0.570   0.242   3.050  0.7042 -1.5135  0.3650
 2553SOL    HW219119   0.508   0.219   3.172 -0.4363  1.6034 -1.9443
 2554SOL     OW19120   0.096   1.022  11.754  0.1694  0.1897  0.7724
 2554SOL    HW119121   0.052   1.105  11.777 -2.5202 -1.5678  1.9696
 2554SOL    HW219122   0.132   1.006  11.841  2.0978  0.1511 -0.0443
 2555SOL     OW19123   4.533   4.682   1.621  0.0687 -0.3876 -1.0106
 2555SOL    HW119124   4.593   4.682   1.546  0.2270  0.5285 -0.8844
 2555SOL    HW219125   4.592   4.686   1.697  0.3434  0.8445 -1.3000
 2556SOL     OW19126   1.505   3.291  16.289  0.3892  0.3599 -0.1153
 2556SOL    HW119127   1.446   3.279  16.364  2.2543 -2.6269  0.8699
 2556SOL    HW219128   1.583   3.265  16.339  0.9487  0.5819 -0.8793
 2557SOL     OW19129   2.828   3.073   5.516  0.4437 -0.2907  0.1354
 2557SOL    HW119130   2.920   3.097   5.530  1.2559 -1.2413 -3.4249
 2557SOL    HW219131   2.811   3.077   5.610  1.4823  3.1073  0.1958
 2558SOL     OW19132   1.843   3.538   6.708  0.1094  0.3672 -0.2784
 2558SOL    HW119133   1.910   3.491   6.757 -1.1489 -3.4342 -2.1916
 2558SOL    HW219134   1.848   3.503   6.619  1.2050  0.8087 -0.3845
 2559SOL     OW19135   3.514   1.820   0.103 -0.7047 -0.0644  0.0685
 2559SOL    HW119136   3.534   1.854   0.016 -1.3459 -1.7977 -0.7372
 2559SOL    HW219137   3.567   1.875   0.161  0.9279 -1.0816 -0.4535
 2560SOL     OW19138   3.523   3.673   3.494 -0.1038 -0.2337 -0.4749
 2560SOL    HW119139   3.495   3.628   3.573 -1.2455 -1.9651 -1.8645
 2560SOL    HW219140   3.439   3.709   3.465 -0.9157 -0.6277  1.4562
 2561SOL     OW19141   2.086   3.640   4.319  0.0438  0.1697  0.1822
 2561SOL    HW119142   2.089   3.707   4.388  0.1391  1.0715 -0.7026
 2561SOL    HW219143   2.084   3.689   4.237  2.4257  3.4530  2.1064
 2562SOL     OW19144   3.349   2.106   7.035  0.1782 -0.4042  0.8994
 2562SOL    HW119145   3.359   2.011   7.035  2.5943 -0.1683 -1.1523
 2562SOL    HW219146   3.373   2.138   7.122 -0.9950  0.9324  0.7298
 2563SOL     OW19147   3.896   1.113   1.911 -0.1992 -0.0801 -0.0626
 2563SOL    HW119148   3.920   1.184   1.851 -0.4049  0.2040  0.1938
 2563SOL    HW219149   3.852   1.154   1.985  1.0760 -1.1372  1.2907
 2564SOL     OW19150   0.558   4.153  16.480 -0.2009 -0.2902  0.0749
 2564SOL    HW119151   0.640   4.156  16.431 -0.7807  2.0695 -0.7448
 2564SOL    HW219152   0.507   4.093  16.426  3.4856 -2.5990 -0.8380
 2565SOL     OW19153   1.722   3.025   3.614  0.5099  0.1925 -0.0799
 2565SOL    HW119154   1.644   3.004   3.666  2.9485 -1.1723  3.0167
 2565SOL    HW219155   1.713   2.975   3.533 -2.3264  0.5791 -0.0060
 2566SOL     OW19156   1.610   0.434   4.876  0.1059  0.5448 -0.3664
 2566SOL    HW119157   1.627   0.439   4.970  0.1620 -1.1206 -0.2837
 2566SOL    HW219158   1.569   0.521   4.873  0.5757  0.7446 -0.9389
 2567SOL     OW19159   2.622   3.586   0.250  0.5881 -0.1609 -0.5461
 2567SOL    HW119160   2.668   3.546   0.324 -1.2015 -1.1751  0.0276
 2567SOL    HW219161   2.547   3.623   0.297  1.6757  0.1231  0.9403
 2568SOL     OW19162   4.314   0.096  15.652 -0.1334  0.4857  0.5412
 2568SOL    HW119163   4.234   0.119  15.699  0.1391 -0.4321  1.4436
 2568SOL    HW219164   4.359   0.060  15.728  0.6158  3.1937  1.3840
 2569SOL     OW19165   0.061   2.866   4.740 -0.4363 -0.1913 -0.0927
 2569SOL    HW119166   0.003   2.867   4.817  0.3602 -2.6036  0.5181
 2569SOL    HW219167   0.030   2.948   4.700  0.7115  0.5848  0.5960
 2570SOL     OW19168   1.768   2.164  16.514  0.4729 -0.5888 -0.5933
 2570SOL    HW119169   1.673   2.159  16.523  0.2374 -0.0008 -2.7013
 2570SOL    HW219170   1.811   2.205  16.589 -2.1356 -1.9335  1.6114
 2571SOL     OW19171   3.332   4.390   2.833 -0.5605  0.1950  0.0128
 2571SOL    HW119172   3.347   4.296   2.840 -0.7385  0.1689  0.0474
 2571SOL    HW219173   3.391   4.421   2.764 -0.3424 -0.7208 -0.2090
 2572SOL     OW19174   0.100   0.334   7.308  0.1795 -0.4584  0.0237
 2572SOL    HW119175   0.012   0.367   7.288  0.1681  0.6092  1.8510
 2572SOL    HW219176   0.112   0.268   7.240 -0.6155  2.0913 -2.5687
 2573SOL     OW19177   4.393   3.147   2.977  0.2612 -0.2912 -0.0785
 2573SOL    HW119178   4.420   3.060   2.946 -2.5864 -1.2180  0.0228
 2573SOL    HW219179   4.451   3.198   2.921  1.0697  1.1990  2.0833
 2574SOL     OW19180   1.531   0.518   2.156  0.1945  0.0895  0.0949
 2574SOL    HW119181   1.494   0.601   2.126 -1.0770 -0.2874  0.6521
 2574SOL    HW219182   1.624   0.536   2.172  0.2996 -0.1640 -0.2189
 2575SOL     OW19183   4.171   2.761   9.230  0.0642 -0.1362  0.1051
 2575SOL    HW119184   4.245   2.817   9.206 -0.0866 -0.5092 -1.2361
 2575SOL    HW219185   4.122   2.826   9.281 -2.2113 -1.7988  0.0382
 2576SOL     OW19186   3.015   4.606   8.100  0.0067 -0.7010  0.0591
 2576SOL    HW119187   2.935   4.653   8.074 -0.4447 -1.9064 -0.7913
 2576SOL    HW219188   2.976   4.551   8.168  0.4289  0.4847  1.2364
 2577SOL     OW19189   1.832   0.333  16.876  0.1680 -0.1070  0.0822
 2577SOL    HW119190   1.882   0.351  16.797 -0.1657 -1.8113 -0.5109
 2577SOL    HW219191   1.749   0.303  16.839  0.0768 -0.5092  0.6013
 2578SOL     OW19192   4.238   0.020  12.307 -0.9292  0.3340  0.1381
 2578SOL    HW119193   4.265   0.101  12.263 -0.7490  0.5890  0.7271
 2578SOL    HW219194   4.300   4.683  12.266 -1.7691  0.8040 -1.8434
 2579SOL     OW19195   0.808   2.373   4.274 -0.3432 -0.3360  0.0431
 2579SOL    HW119196   0.844   2.425   4.346 -0.6042 -1.9709  1.3621
 2579SOL    HW219197   0.863   2.414   4.208  2.2623 -0.8027  1.9080
 2580SOL     OW19198   1.563   2.950   3.827  0.4704  0.0733  0.6389
 2580SOL    HW119199   1.521   3.034   3.846 -2.1821 -1.0521 -0.2880
 2580SOL    HW219200   1.495   2.884   3.841  1.1105 -0.8362 -0.5235
 2581SOL     OW19201   1.665   2.676  10.383  0.0863 -0.2240  0.3951
 2581SOL    HW119202   1.672   2.692  10.477  0.8111 -1.1747  0.5009
 2581SOL    HW219203   1.739   2.731  10.355 -0.1180 -1.0131 -1.7154
 2582SOL     OW19204   1.380   0.465   0.441 -0.6493 -0.0512 -0.2137
 2582SOL    HW119205   1.368   0.461   0.346  0.9060 -1.1820 -0.3722
 2582SOL    HW219206   1.443   0.534   0.461 -0.4980  0.3596 -2.1056
 2583SOL     OW19207   0.260   3.231   7.949 -0.1623  0.1000 -0.1313
 2583SOL    HW119208   0.211   3.280   8.016 -0.1129  1.6769 -1.2545
 2583SOL    HW219209   0.246   3.145   7.989 -0.6881 -1.2089 -3.1225
 2584SOL     OW19210   2.557   4.566  12.443 -0.4109 -0.6056 -0.0341
 2584SOL    HW119211   2.591   4.477  12.435 -0.8159 -0.6033 -1.8104
 2584SOL    HW219212   2.463   4.547  12.449 -0.2286 -1.5066  0.0015
 2585SOL     OW19213   4.265   2.929  16.511  0.1839  0.2208  0.1292
 2585SOL    HW119214   4.197   2.996  16.510  1.2647  1.2815 -0.6488
 2585SOL    HW219215   4.215   2.861  16.465  0.9487  0.4786 -1.0577
 2586SOL     OW19216   3.825   0.516   0.113 -0.3311  0.0783 -0.5622
 2586SOL    HW119217   3.813   0.437   0.060  2.5153  0.7929 -2.2359
 2586SOL    HW219218   3.830   0.579   0.041 -0.9435  0.2355 -0.4714
 2587SOL     OW19219   1.027   1.236  16.210  0.0899 -0.1098  0.2904
 2587SOL    HW119220   1.061   1.258  16.297 -0.7315  1.0010  0.3329
 2587SOL    HW219221   1.113   1.226  16.171 -1.6098 -2.5064 -2.8238
 2588SOL     OW19222   0.682   2.951   6.822 -0.1682 -0.2247 -0.6983
 2588SOL    HW119223   0.653   3.042   6.818  2.6869  0.7834  1.2463
 2588SOL    HW219224   0.613   2.919   6.879 -0.2576  0.2108 -0.5670
 2589SOL     OW19225   4.456   1.285   0.868  0.6514 -0.1983  0.3374
 2589SOL    HW119226   4.411   1.200   0.863  0.4157 -0.0673  0.2550
 2589SOL    HW219227   4.483   1.302   0.778 -0.9443 -0.0906 -0.1236
 2590SOL     OW19228   4.005   1.919   4.601 -0.3503 -1.0307  0.3123
 2590SOL    HW119229   4.008   1.868   4.520 -1.5755 -0.8762  0.1709
 2590SOL    HW219230   4.034   2.001   4.562 -0.3695  0.2095  2.8824
 2591SOL     OW19231   0.662   3.656   5.781 -0.2570  0.1516  0.1057
 2591SOL    HW119232   0.665   3.732   5.839 -1.0674  0.6996 -0.5800
 2591SOL    HW219233   0.642   3.690   5.694  0.4621  0.3364  0.0159
 2592SOL     OW19234   1.482   1.654  15.652  0.5797  0.7879 -0.0820
 2592SOL    HW119235   1.542   1.581  15.666 -0.9081 -0.9519 -2.7917
 2592SOL    HW219236   1.476   1.655  15.557  0.5970  1.1550 -0.0776
 2593SOL     OW19237   1.790   0.986  12.773 -0.0921 -0.3054  0.4748
 2593SOL    HW119238   1.717   1.046  12.785  0.1105 -0.1945  1.1690
 2593SOL    HW219239   1.753   0.906  12.810  1.2213 -0.7995  0.7159
 2594SOL     OW19240   3.939   0.712  10.017 -0.3149 -0.2468 -0.0572
 2594SOL    HW119241   4.034   0.701  10.017 -0.4466 -1.4183  1.9386
 2594SOL    HW219242   3.923   0.742   9.927  0.2596  0.8604  0.2110
 2595SOL     OW19243   1.710   4.015   4.527  0.1213  0.9184  0.3932
 2595SOL    HW119244   1.749   3.935   4.493  1.1501  1.8027 -0.5373
 2595SOL    HW219245   1.781   4.080   4.524 -1.0983  2.1930 -0.7353
 2596SOL     OW19246   0.946   2.757   3.960 -0.1996 -0.1250  0.2755
 2596SOL    HW119247   0.851   2.750   3.950  0.0546  0.0073 -2.1440
 2596SOL    HW219248   0.959   2.851   3.972  1.4079 -0.3138  0.0068
 2597SOL     OW19249   3.003   2.973   4.315  0.6530  0.3647 -0.2768
 2597SOL    HW119250   3.076   2.937   4.264  0.2230 -0.4037 -0.3539
 2597SOL    HW219251   2.995   2.917   4.392 -1.5616 -2.3909 -2.4828
 2598SOL     OW19252   1.754   3.031   2.067 -0.4827  0.4728 -0.1814
 2598SOL    HW119253   1.825   3.071   2.017 -1.8906  0.7587 -1.9384
 2598SOL    HW219254   1.795   3.034   2.154  2.4371 -1.5406 -1.5011
 2599SOL     OW19255   1.208   0.970   8.185  0.5742 -0.3374 -0.1747
 2599SOL    HW119256   1.247   0.883   8.195  1.2333 -0.2612 -2.2520
 2599SOL    HW219257   1.284   1.016   8.150  0.2273  0.2713 -0.1273
 2600SOL     OW19258   4.671   3.698   3.905  0.1680  0.0117  0.3803
 2600SOL    HW119259   0.026   3.736   3.944 -0.6554 -0.2887  2.3233
 2600SOL    HW219260   4.617   3.776   3.892 -0.8451 -0.6067  0.8488
 2601SOL     OW19261   2.916   3.136   8.542 -0.0223  0.2478  0.4292
 2601SOL    HW119262   2.863   3.056   8.538  0.6570 -0.2827  2.1262
 2601SOL    HW219263   2.978   3.116   8.612  3.1399  0.3146 -2.3744
 2602SOL     OW19264   3.041   1.726   8.003  0.8284 -0.1916  0.1314
 2602SOL    HW119265   2.992   1.644   8.004 -1.6317  1.2702 -2.0561
 2602SOL    HW219266   3.126   1.698   8.039  0.4399 -2.2697 -0.5640
 2603SOL     OW19267   0.655   3.146   3.556  0.7398  0.8439  0.3138
 2603SOL    HW119268   0.574   3.184   3.522 -0.6574 -3.4917 -1.2598
 2603SOL    HW219269   0.702   3.133   3.473  0.5465 -1.5090  0.5723
 2604SOL     OW19270   4.079   1.685   4.033 -0.4459 -0.2550 -0.4629
 2604SOL    HW119271   4.131   1.683   3.952 -0.3669 -0.5344 -0.4056
 2604SOL    HW219272   4.003   1.632   4.008  0.2860 -0.8533 -1.4479
 2605SOL     OW19273   0.518   1.102   6.579  0.0176  0.5354  0.4225
 2605SOL    HW119274   0.583   1.068   6.640 -0.7327  1.5204  1.7777
 2605SOL    HW219275   0.579   1.111   6.506  0.6534  1.2135  1.0399
 2606SOL     OW19276   0.699   0.024   1.205  0.8798  0.0678 -0.8694
 2606SOL    HW119277   0.643   4.685   1.251  0.6205  1.0955  0.2107
 2606SOL    HW219278   0.702   4.705   1.119 -0.1499 -3.5887  0.9199
 2607SOL     OW19279   3.033   2.994   7.249  0.0738 -0.5909 -0.1226
 2607SOL    HW119280   2.957   3.041   7.284  1.2857  1.7375 -0.5926
 2607SOL    HW219281   3.007   2.981   7.158 -0.7235 -0.9981  0.1645
 2608SOL     OW19282   0.616   2.080  13.794 -0.1934  0.5647 -0.0782
 2608SOL    HW119283   0.559   2.127  13.733  0.1190  0.6965 -0.2689
 2608SOL    HW219284   0.638   2.002  13.743  0.0350  0.5782 -0.0021
 2609SOL     OW19285   0.602   1.378  17.279  0.4409  0.3249  0.1911
 2609SOL    HW119286   0.550   1.312  17.232 -0.7637  0.8641  0.7913
 2609SOL    HW219287   0.666   1.318  17.317 -0.8784  0.5165  2.7018
 2610SOL     OW19288   2.029   4.014   6.072 -0.5837  0.3685 -0.4160
 2610SOL    HW119289   1.946   4.055   6.047  0.3392  2.3769 -0.2323
 2610SOL    HW219290   1.991   3.954   6.136  2.6283  1.2802  2.3366
 2611SOL     OW19291   4.046   3.172  14.495  0.3415  0.2010 -0.4656
 2611SOL    HW119292   3.995   3.253  14.496 -0.3776 -0.2569 -0.1773
 2611SOL    HW219293   4.085   3.186  14.409  1.0136 -0.4265 -0.2607
 2612SOL     OW19294   1.682   3.437  12.214  0.1460 -0.5153  0.1268
 2612SOL    HW119295   1.736   3.497  12.163 -0.2134  0.4533  0.9029
 2612SOL    HW219296   1.698   3.468  12.303 -0.6045  1.8809 -0.5768
 2613SOL     OW19297   1.619   1.575   4.947  0.2269  0.0223 -0.5047
 2613SOL    HW119298   1.546   1.611   4.997 -0.5715  2.0617 -3.1516
 2613SOL    HW219299   1.571   1.540   4.871  0.5124  0.1919 -0.7654
 2614SOL     OW19300   3.520   0.079   7.003 -0.2923 -0.2714 -0.0866
 2614SOL    HW119301   3.483   0.054   7.087 -2.7722 -2.1534 -1.7332
 2614SOL    HW219302   3.596   0.122   7.041 -0.3976  0.7598 -1.0279
 2615SOL     OW19303   4.055   4.408   6.548  0.4328  0.1854 -0.2271
 2615SOL    HW119304   3.969   4.431   6.513  0.3535 -2.2574 -1.6494
 2615SOL    HW219305   4.026   4.386   6.637 -1.0728  0.3271 -0.6786
 2616SOL     OW19306   1.647   0.195  16.205 -0.3721 -0.0675  0.0598
 2616SOL    HW119307   1.729   0.242  16.223 -2.0651  2.5345  0.9738
 2616SOL    HW219308   1.579   0.237  16.257  0.1039  1.1810 -0.3124
 2617SOL     OW19309   2.406   3.219   7.417 -0.5109  0.0209  0.0723
 2617SOL    HW119310   2.396   3.133   7.377  0.8376 -0.0440 -0.1402
 2617SOL    HW219311   2.362   3.229   7.502  1.4389 -1.9155  1.3124
 2618SOL     OW19312   4.625   2.615   6.899  0.3971 -0.3370 -0.1825
 2618SOL    HW119313   4.549   2.557   6.906 -0.5917  0.6105 -3.1431
 2618SOL    HW219314   4.580   2.698   6.914 -0.5144 -1.1079  1.3120
 2619SOL     OW19315   0.120   1.377   8.480 -0.2763 -0.4286  0.4404
 2619SOL    HW119316   0.122   1.344   8.390  0.5261 -1.4987  0.8442
 2619SOL    HW219317   0.067   1.310   8.524  0.5533 -0.5411  1.2751
 2620SOL     OW19318   0.674   2.782   3.864  0.2410  0.0417 -0.1448
 2620SOL    HW119319   0.708   2.834   3.792  1.4103  0.4220  0.6798
 2620SOL    HW219320   0.614   2.727   3.814 -0.3027  0.1523  0.3727
 2621SOL     OW19321   3.237   3.367   4.741 -0.5569 -0.4610 -0.1525
 2621SOL    HW119322   3.227   3.436   4.675  0.8092 -0.2440 -0.1456
 2621SOL    HW219323   3.226   3.297   4.678  3.3833 -0.9305 -0.3203
 2622SOL     OW19324   2.768   1.394   9.198  0.3759  0.1065  0.0698
 2622SOL    HW119325   2.739   1.343   9.274  1.8245  1.3936  1.4882
 2622SOL    HW219326   2.842   1.342   9.167 -0.0076 -2.2496  3.0606
 2623SOL     OW19327   3.741   1.823   3.594 -0.8656  0.4450 -0.9853
 2623SOL    HW119328   3.751   1.837   3.500  0.7414  0.6036 -0.7972
 2623SOL    HW219329   3.667   1.881   3.613 -0.7954  0.1334  0.2769
 2624SOL     OW19330   2.561   2.683   3.416 -0.6666  0.4312  0.1282
 2624SOL    HW119331   2.565   2.684   3.512 -0.0970  1.8109  0.0973
 2624SOL    HW219332   2.630   2.619   3.401 -1.1042  0.2423 -1.0735
 2625SOL     OW19333   3.103   1.291   1.176  0.0786 -0.3308 -0.5821
 2625SOL    HW119334   3.155   1.271   1.254  0.0133  3.6281  0.4564
 2625SOL    HW219335   3.170   1.283   1.108  0.5783 -0.1487 -0.1106
 2626SOL     OW19336   0.587   1.295   3.140  0.3374  0.1260 -0.0380
 2626SOL    HW119337   0.599   1.222   3.079 -0.2595 -0.2996  0.3463
 2626SOL    HW219338   0.618   1.369   3.088  1.7836 -0.7986 -0.5170
 2627SOL     OW19339   4.699   0.912   1.820  0.3188 -0.1896  0.2860
 2627SOL    HW119340   4.721   0.835   1.768  0.9644 -0.6110  1.1988
 2627SOL    HW219341   4.634   0.877   1.881 -0.4492  1.6902  0.5465
 2628SOL     OW19342   1.522   2.669  17.301  0.2082 -0.2686 -0.0179
 2628SOL    HW119343   1.496   2.577  17.306 -0.9709 -0.1102 -3.3127
 2628SOL    HW219344   1.436   2.702  17.277  0.6129 -0.2565 -1.4743
 2629SOL     OW19345   1.589   0.351  10.572 -0.1084  1.2783 -0.0378
 2629SOL    HW119346   1.562   0.317  10.657 -3.8599  1.1521 -1.2550
 2629SOL    HW219347   1.685   0.351  10.575 -0.1306  0.1541  0.7470
 2630SOL     OW19348   4.489   0.838   7.387 -0.1066 -0.0735  0.0156
 2630SOL    HW119349   4.446   0.923   7.399  2.1127  1.4258 -2.6156
 2630SOL    HW219350   4.446   0.815   7.304 -1.5709  0.3519  0.6508
 2631SOL     OW19351   1.728   1.795   5.532  0.5307  0.7377  0.0061
 2631SOL    HW119352   1.711   1.713   5.578 -0.5476  0.8432 -0.1981
 2631SOL    HW219353   1.694   1.872   5.576  0.2540  0.6312 -0.0211
 2632SOL     OW19354   1.782   2.782   7.994  0.2971  0.1899 -0.0091
 2632SOL    HW119355   1.843   2.752   8.061 -1.0264 -1.1811  0.5992
 2632SOL    HW219356   1.718   2.829   8.047  0.6874  1.0879 -0.3290
 2633SOL     OW19357   4.312   3.772  10.414  0.1427 -0.2593  0.1958
 2633SOL    HW119358   4.336   3.765  10.506  0.7004  0.1572  0.0861
 2633SOL    HW219359   4.225   3.811  10.416 -0.7474 -2.1074 -1.9956
 2634SOL     OW19360   2.536   0.559   4.058  0.3650 -0.2085 -0.1731
 2634SOL    HW119361   2.505   0.528   3.973 -0.6429  0.5833 -0.0931
 2634SOL    HW219362   2.501   0.647   4.045  2.0670  0.5607  0.5436
 2635SOL     OW19363   4.106   1.037  10.311 -0.4784  0.1134 -0.2670
 2635SOL    HW119364   4.074   1.116  10.355  0.1106  0.0022  0.3590
 2635SOL    HW219365   4.183   1.074  10.269 -0.7441 -1.9754 -2.6037
 2636SOL     OW19366   1.020   3.469   8.500  0.3562  0.1225 -0.0357
 2636SOL    HW119367   0.950   3.434   8.556  0.3596 -0.1351 -0.1930
 2636SOL    HW219368   0.992   3.560   8.496 -2.8335 -0.8276  0.3580
 2637SOL     OW19369   0.870   3.726   1.659 -0.9161  0.3406  0.2934
 2637SOL    HW119370   0.873   3.651   1.719 -0.6911 -0.3424 -0.5705
 2637SOL    HW219371   0.822   3.696   1.581  1.0747 -0.8927 -0.4535
 2638SOL     OW19372   0.976   2.293   7.739 -0.2056  0.2144  0.2096
 2638SOL    HW119373   0.989   2.371   7.793  3.3737 -0.7111  0.6830
 2638SOL    HW219374   1.012   2.323   7.655 -1.3696 -1.0412 -0.7381
 2639SOL     OW19375   2.233   4.592   6.700  0.0846  0.5690  0.4246
 2639SOL    HW119376   2.185   4.595   6.783  1.2417 -1.4952  1.1848
 2639SOL    HW219377   2.271   4.505   6.711 -0.0038  0.4387 -0.3253
 2640SOL     OW19378   2.710   3.416   2.793  0.0488 -0.4218 -0.1572
 2640SOL    HW119379   2.647   3.401   2.722 -0.4844 -1.3425  0.5044
 2640SOL    HW219380   2.650   3.437   2.865 -2.5870 -0.3776 -2.3555
 2641SOL     OW19381   4.123   2.279   2.505  0.1234  0.1840 -0.4428
 2641SOL    HW119382   4.164   2.315   2.584  0.5133 -1.7030  0.1979
 2641SOL    HW219383   4.075   2.353   2.467 -1.0844  0.0304  0.8236
 2642SOL     OW19384   3.236   4.381  15.251  0.0121 -0.1063  0.1399
 2642SOL    HW119385   3.161   4.388  15.309  0.5257 -0.0126  0.8019
 2642SOL    HW219386   3.266   4.472  15.259 -0.5823  0.1282 -0.3341
 2643SOL     OW19387   4.345   1.182  16.759  0.1869 -0.4646  0.5183
 2643SOL    HW119388   4.277   1.212  16.699 -0.4373  0.2539  1.5655
 2643SOL    HW219389   4.314   1.222  16.841  3.9808  1.4722  1.0229
 2644SOL     OW19390   3.139   2.472   8.064 -0.0265  0.4098 -0.6210
 2644SOL    HW119391   3.183   2.414   8.001  0.9888 -1.0963  1.4839
 2644SOL    HW219392   3.045   2.465   8.049 -0.1069 -3.1889  1.6012
 2645SOL     OW19393   1.855   1.443   9.355  0.2826 -0.5907 -0.4386
 2645SOL    HW119394   1.951   1.442   9.351  0.3446 -0.1546  1.0299
 2645SOL    HW219395   1.840   1.510   9.288 -0.1883 -0.3010 -0.0373
 2646SOL     OW19396   0.460   1.047   8.401  0.3650  0.0013  0.0133
 2646SOL    HW119397   0.448   1.137   8.370 -2.1024  0.4602  2.3113
 2646SOL    HW219398   0.536   1.020   8.350 -0.7166 -3.2080  0.1511
 2647SOL     OW19399   2.927   3.293   8.905 -0.0862  0.3796 -0.1132
 2647SOL    HW119400   2.989   3.231   8.866  0.9422  1.7742 -0.7114
 2647SOL    HW219401   2.901   3.247   8.985  2.0659 -0.7444 -0.0451
 2648SOL     OW19402   0.957   1.746   3.352 -0.8014 -0.5715  0.4239
 2648SOL    HW119403   0.894   1.677   3.374 -3.2793  1.0596 -1.5638
 2648SOL    HW219404   0.965   1.733   3.258 -2.1577  0.5452  0.1421
 2649SOL     OW19405   0.075   0.750   8.006 -0.2293  0.1409 -0.1631
 2649SOL    HW119406   0.100   0.802   7.929  0.3780 -0.8426 -0.6268
 2649SOL    HW219407   0.092   0.817   8.073 -0.0209 -0.9787  0.8995
 2650SOL     OW19408   2.154   2.310   3.917 -0.3266  0.0270  0.2441
 2650SOL    HW119409   2.088   2.259   3.964  1.0329 -0.4339  1.6486
 2650SOL    HW219410   2.221   2.242   3.908 -1.6508 -1.2561 -0.1457
 2651SOL     OW19411   3.263   3.405   6.558  0.3481 -0.7852 -0.1200
 2651SOL    HW119412   3.186   3.420   6.612  0.0360 -0.5752 -0.6161
 2651SOL    HW219413   3.283   3.496   6.535  0.6723 -0.5479  1.1082
 2652SOL     OW19414   1.601   3.022  10.127  0.4195 -0.3400 -0.4993
 2652SOL    HW119415   1.528   3.006  10.187  0.2413  0.9223 -0.3731
 2652SOL    HW219416   1.625   3.114  10.137  1.1228 -0.6668  0.9714
 2653SOL     OW19417   3.304   1.099   7.289  0.4706 -0.8884  0.6414
 2653SOL    HW119418   3.317   1.187   7.327 -0.7474 -0.7388  0.7026
 2653SOL    HW219419   3.357   1.108   7.210 -3.4648 -2.1996 -2.1101
 2654SOL     OW19420   3.023   4.062   3.479 -0.2502 -0.4951 -0.0259
 2654SOL    HW119421   2.954   4.014   3.433  0.2637  0.3631 -1.7051
 2654SOL    HW219422   3.099   4.049   3.422  0.1799  2.2186 -0.0867
 2655SOL     OW19423   2.097   1.038   2.250 -0.2805 -0.5348  0.3118
 2655SOL    HW119424   2.168   0.986   2.212 -0.9923 -0.1060 -1.6196
 2655SOL    HW219425   2.034   1.018   2.180  1.9888 -2.3764 -1.2060
 2656SOL     OW19426   4.163   0.972  12.321 -0.2058  0.0050 -0.1568
 2656SOL    HW119427   4.096   0.952  12.256 -1.5428  0.2498  1.1389
 2656SOL    HW219428   4.242   0.996  12.274  0.5692 -0.9415  0.6751
 2657SOL     OW19429   1.839   4.340   5.648 -0.3608 -0.1285  0.3063
 2657SOL    HW119430   1.822   4.306   5.735  1.8406 -0.6535  0.5365
 2657SOL    HW219431   1.837   4.255   5.603  2.4532 -0.2842  0.4289
 2658SOL     OW19432   3.535   1.444   2.919 -0.3348  0.3888 -0.0287
 2658SOL    HW119433   3.573   1.479   2.839  0.7846 -2.9838 -0.9597
 2658SOL    HW219434   3.617   1.451   2.968 -0.6754  3.4294  0.1331
 2659SOL     OW19435   3.905   1.496   3.460 -0.4749  0.2256 -0.0575
 2659SOL    HW119436   3.943   1.442   3.390  0.4401 -1.8122  2.0288
 2659SOL    HW219437   3.813   1.502   3.436 -0.6057 -0.8811  0.1695
 2660SOL     OW19438   4.561   3.111  16.063 -0.0791  0.7596  0.1246
 2660SOL    HW119439   4.567   3.196  16.105  0.8568  1.3674 -1.2000
 2660SOL    HW219440   4.495   3.128  15.995 -0.5506  0.1105  0.4180
 2661SOL     OW19441   3.682   3.637   9.015  0.0070  0.5559  0.9264
 2661SOL    HW119442   3.738   3.709   8.987 -1.8586  1.2861 -0.9615
 2661SOL    HW219443   3.640   3.677   9.091  0.0695 -1.0354  1.8001
 2662SOL     OW19444   2.755   0.040   8.333  0.0215  0.6913  0.5603
 2662SOL    HW119445   2.717   4.690   8.286 -1.5368  1.0956  1.1688
 2662SOL    HW219446   2.805   4.712   8.397  2.6225  0.4117 -1.7464
 2663SOL     OW19447   4.056   3.864  12.941 -0.1304 -0.1423 -0.1577
 2663SOL    HW119448   4.078   3.814  13.020  0.1635  0.6477  0.2604
 2663SOL    HW219449   4.110   3.943  12.941  0.7695 -0.7441  1.2832
 2664SOL     OW19450   3.013   3.164   3.026  0.3487 -0.0657 -0.1254
 2664SOL    HW119451   3.090   3.177   3.080  0.8316 -0.2048 -0.7750
 2664SOL    HW219452   2.990   3.255   3.008  1.1313  0.5085  1.7537
 2665SOL     OW19453   0.575   2.269  10.444 -0.1594 -0.2189  0.6773
 2665SOL    HW119454   0.652   2.218  10.466 -1.1336 -1.3986  1.3579
 2665SOL    HW219455   0.574   2.256  10.349  1.2524 -0.6225  0.7309
 2666SOL     OW19456   1.468   0.571   5.981  0.3194 -0.1990  0.1230
 2666SOL    HW119457   1.498   0.543   5.894  2.6094 -0.3945  0.9700
 2666SOL    HW219458   1.415   0.649   5.968 -2.0332 -1.8825 -0.4944
 2667SOL     OW19459   2.412   4.169  10.079  0.0996  0.4991  0.3999
 2667SOL    HW119460   2.337   4.211  10.122 -0.2549  0.8964 -0.6238
 2667SOL    HW219461   2.430   4.251  10.035  1.3550 -0.6851 -1.2536
 2668SOL     OW19462   0.771   0.113   1.639  0.0501 -0.5421  0.4927
 2668SOL    HW119463   0.767   0.207   1.654 -1.4001 -0.4718 -0.3113
 2668SOL    HW219464   0.843   0.082   1.694 -0.4315  0.6539  1.7752
 2669SOL     OW19465   2.810   1.029   5.086  0.9085 -0.3726 -0.5055
 2669SOL    HW119466   2.889   1.032   5.141  1.0008 -1.3565 -0.5862
 2669SOL    HW219467   2.811   0.942   5.047  0.3845 -0.0145 -1.3378
 2670SOL     OW19468   1.098   1.631   5.661 -0.2345 -0.1859 -0.4440
 2670SOL    HW119469   1.184   1.669   5.680 -0.4344 -0.1106  0.3225
 2670SOL    HW219470   1.121   1.539   5.647  0.5876  0.1970 -1.5613
 2671SOL     OW19471   0.444   3.565  17.030 -0.2149  0.0296  0.6762
 2671SOL    HW119472   0.407   3.480  17.057 -2.7294  0.0978 -2.5993
 2671SOL    HW219473   0.390   3.581  16.952  2.2023  1.7959 -0.6335
 2672SOL     OW19474   2.548   2.800   5.504  0.2947 -0.1148 -0.0482
 2672SOL    HW119475   2.470   2.816   5.557  1.0269 -2.1362  1.6293
 2672SOL    HW219476   2.574   2.888   5.478  1.6489 -0.9084 -1.3490
 2673SOL     OW19477   1.295   3.051   8.101 -0.0221 -0.3361 -0.3135
 2673SOL    HW119478   1.295   2.955   8.098 -3.2123 -0.3427  0.4993
 2673SOL    HW219479   1.296   3.064   8.196 -1.0613 -0.6763 -0.2590
 2674SOL     OW19480   2.113   3.652  16.691  0.3041 -0.4694  0.1692
 2674SOL    HW119481   2.019   3.655  16.710  0.2666  0.1332 -0.1055
 2674SOL    HW219482   2.120   3.728  16.634  0.3815  0.0874  0.9173
 2675SOL     OW19483   3.806   2.625  17.078  0.1825  0.0751  0.5563
 2675SOL    HW119484   3.733   2.588  17.127 -2.1840  0.5529 -2.5883
 2675SOL    HW219485   3.802   2.718  17.100 -3.5730 -0.4065  1.8515
 2676SOL     OW19486   1.426   0.466  17.646 -0.1209 -0.0014 -0.0535
 2676SOL    HW119487   1.520   0.476  17.632 -0.0546  0.6008  0.7885
 2676SOL    HW219488   1.389   0.521  17.577  0.0269  0.6767  0.4038
 2677SOL     OW19489   2.346   2.284   7.622 -0.6264 -0.3232  0.5078
 2677SOL    HW119490   2.254   2.308   7.613 -0.9663 -1.2562  1.5270
 2677SOL    HW219491   2.356   2.293   7.716 -0.1351 -2.7173  0.6892
 2678SOL     OW19492   2.136   2.852   1.648 -0.0545  0.4781  0.0502
 2678SOL    HW119493   2.194   2.911   1.697  3.2862 -1.4879 -1.5522
 2678SOL    HW219494   2.205   2.810   1.597 -0.3183 -0.4046  0.4305
 2679SOL     OW19495   4.160   1.402   7.042  0.1283 -0.8270 -0.4330
 2679SOL    HW119496   4.185   1.494   7.049  2.2600 -1.1559 -4.0945
 2679SOL    HW219497   4.236   1.356   7.079 -0.2733  0.4308  1.9914
 2680SOL     OW19498   1.915   1.600  12.669 -0.4501  0.1179  0.6638
 2680SOL    HW119499   1.850   1.616  12.600  0.2377  0.1638  0.0358
 2680SOL    HW219500   1.969   1.676  12.646 -0.3987 -0.2232 -0.3172
 2681SOL     OW19501   1.701   2.537  16.826 -0.2683  0.4125  0.6441
 2681SOL    HW119502   1.709   2.463  16.886  1.2096  0.1699  0.1488
 2681SOL    HW219503   1.704   2.488  16.744  1.4009  1.0918  0.3023
 2682SOL     OW19504   3.040   0.072   7.289  0.5749  0.3399 -0.2090
 2682SOL    HW119505   2.952   0.078   7.251  0.8849  2.3205 -0.6174
 2682SOL    HW219506   3.083   0.032   7.213  2.0438  1.4921  0.0212
 2683SOL     OW19507   3.960   2.202   9.404  0.0430 -0.1056 -0.0331
 2683SOL    HW119508   4.011   2.168   9.477 -2.2599 -1.9678  0.7170
 2683SOL    HW219509   3.869   2.183   9.426  0.3201 -0.8433  0.4484
 2684SOL     OW19510   0.284   4.085   6.051 -0.1545  0.7966  0.5000
 2684SOL    HW119511   0.371   4.127   6.052  1.4247 -2.4769 -1.6279
 2684SOL    HW219512   0.306   3.992   6.049 -0.3515  0.7401  0.9003
 2685SOL     OW19513   0.150   3.114  17.157 -0.4547 -0.0459  0.7014
 2685SOL    HW119514   0.186   3.042  17.104  1.1713 -0.3285  2.1784
 2685SOL    HW219515   0.173   3.092  17.248 -1.1347  1.3380  1.1942
 2686SOL     OW19516   3.916   0.226  14.165 -0.0336  0.2625 -0.0550
 2686SOL    HW119517   3.847   0.160  14.167 -0.4953  0.7258 -1.0020
 2686SOL    HW219518   3.865   0.306  14.157 -2.2749 -1.2113 -0.3663
 2687SOL     OW19519   4.341   4.641   2.901 -0.3467 -0.3080 -0.6202
 2687SOL    HW119520   4.354   0.009   2.877  1.2574 -0.3952 -0.0754
 2687SOL    HW219521   4.314   4.610   2.815  0.4433 -0.3669 -0.8463
 2688SOL     OW19522   1.868   4.010   2.941 -0.4880 -0.5660 -0.2408
 2688SOL    HW119523   1.773   4.005   2.936 -0.5772  0.6333  0.2474
 2688SOL    HW219524   1.889   4.022   3.033 -0.2854 -1.8847 -0.1220
 2689SOL     OW19525   3.108   1.863   3.038  0.4858 -0.1796  0.1675
 2689SOL    HW119526   3.013   1.858   3.050  0.2619 -1.1270 -2.0704
 2689SOL    HW219527   3.130   1.813   2.960  1.2632 -2.3654  1.7924
 2690SOL     OW19528   3.534   3.453   8.567  0.1029 -0.4801 -0.1313
 2690SOL    HW119529   3.580   3.437   8.649  1.7388  0.2826 -0.8893
 2690SOL    HW219530   3.509   3.367   8.534 -0.4782  0.0676 -1.1275
 2691SOL     OW19531   4.012   4.684  16.093  0.6238  0.6727 -0.2409
 2691SOL    HW119532   3.939   4.631  16.126 -0.0110  2.4079  1.1382
 2691SOL    HW219533   4.017   4.640  16.008 -0.8830 -0.1578  0.0759
 2692SOL     OW19534   4.707   3.815  10.075  0.4063 -0.6046  0.5021
 2692SOL    HW119535   4.612   3.812  10.079  0.3631 -0.2199 -0.2673
 2692SOL    HW219536   0.010   3.841  10.164 -0.2783  1.5488  0.0599
 2693SOL     OW19537   4.273   0.048  15.934  0.1348 -0.2646  0.1235
 2693SOL    HW119538   4.219   4.713  15.882 -0.3479 -2.0559  2.6259
 2693SOL    HW219539   4.209   0.101  15.983 -1.8593  1.2530 -4.1202
 2694SOL     OW19540   1.680   3.266   4.022  0.4396  0.0675 -0.0633
 2694SOL    HW119541   1.707   3.176   4.041  2.7341  0.6918 -0.3932
 2694SOL    HW219542   1.729   3.307   4.094  2.1026  0.7207 -1.5740
 2695SOL     OW19543   0.754   3.460  13.162 -0.2744  0.4953  0.0588
 2695SOL    HW119544   0.686   3.459  13.229 -0.5059 -0.9519 -0.2035
 2695SOL    HW219545   0.729   3.388  13.105 -1.5427  1.7483 -0.9446
 2696SOL     OW19546   0.651   2.558  15.723  0.2656 -0.2243 -0.5511
 2696SOL    HW119547   0.721   2.622  15.714 -0.9002  1.1111 -0.0846
 2696SOL    HW219548   0.603   2.588  15.646  0.5529 -2.8885 -1.7969
 2697SOL     OW19549   1.043   1.685   1.821 -0.1004 -0.1716 -0.4333
 2697SOL    HW119550   1.080   1.767   1.853 -0.5720  0.5451 -1.7238
 2697SOL    HW219551   0.964   1.709   1.772 -0.9075  1.8504  1.8534
 2698SOL     OW19552   3.326   4.428   1.460 -0.7798  0.5568 -0.0587
 2698SOL    HW119553   3.290   4.425   1.548  0.8129 -2.3022  0.5124
 2698SOL    HW219554   3.273   4.366   1.410  0.2627 -0.5383  0.1718
 2699SOL     OW19555   0.960   3.236   7.339  0.3983 -0.2601  0.6016
 2699SOL    HW119556   1.050   3.261   7.359  0.4136  0.1319  0.0404
 2699SOL    HW219557   0.920   3.266   7.421  0.3584  1.1158  0.0819
 2700SOL     OW19558   0.264   2.768  15.753 -0.4968  0.4445 -0.5899
 2700SOL    HW119559   0.268   2.849  15.704  1.6619  1.0748  0.6519
 2700SOL    HW219560   0.249   2.797  15.843  0.7010 -1.2727  0.1629
 2701SOL     OW19561   4.431   0.600   0.541  0.5634 -0.2573  0.0417
 2701SOL    HW119562   4.351   0.581   0.491 -1.0971  0.7821  2.3094
 2701SOL    HW219563   4.504   0.595   0.479  1.8058  1.2865  1.4105
 2702SOL     OW19564   2.436   1.963  13.946 -0.0398 -0.4741 -0.2153
 2702SOL    HW119565   2.507   1.900  13.933  0.6665  0.7480 -2.3198
 2702SOL    HW219566   2.478   2.017  14.012  1.3309 -0.9551 -0.6835
 2703SOL     OW19567   3.016   4.092   6.025  0.4911 -0.1370 -0.0259
 2703SOL    HW119568   3.099   4.051   6.051 -0.9301 -1.5928  2.2592
 2703SOL    HW219569   2.961   4.026   5.983 -0.7983  0.8008  0.1777
 2704SOL     OW19570   0.753   1.914   9.993  0.2623 -0.1619 -0.3002
 2704SOL    HW119571   0.671   1.954  10.023 -1.0082 -0.9208 -2.8098
 2704SOL    HW219572   0.787   1.879  10.076 -0.6563 -0.7587 -0.1697
 2705SOL     OW19573   1.444   1.613   8.277 -0.4161 -0.0686 -0.1771
 2705SOL    HW119574   1.500   1.618   8.199 -0.1511  0.5239  0.0546
 2705SOL    HW219575   1.359   1.639   8.241 -1.2368  0.5847  2.2161
 2706SOL     OW19576   1.625   2.720   7.298  0.0258 -0.1423  0.5274
 2706SOL    HW119577   1.582   2.804   7.313 -0.3248 -0.3771  0.8304
 2706SOL    HW219578   1.714   2.744   7.270  0.8142 -3.8529 -0.1569
 2707SOL     OW19579   3.742   0.688   8.269 -0.0043 -0.4026 -0.2237
 2707SOL    HW119580   3.753   0.612   8.212 -0.9928 -0.2134 -0.6770
 2707SOL    HW219581   3.810   0.683   8.336 -0.9766 -0.3192  0.7625
 2708SOL     OW19582   4.564   2.221   4.535 -0.0397  0.6182 -0.3179
 2708SOL    HW119583   4.635   2.278   4.562  0.3781 -0.2395  0.3893
 2708SOL    HW219584   4.514   2.220   4.616  0.0447 -0.8750 -0.2866
 2709SOL     OW19585   3.481   0.069  12.427 -0.6316  0.0497  0.0535
 2709SOL    HW119586   3.509   0.061  12.518 -2.2290 -1.8839  0.3585
 2709SOL    HW219587   3.435   0.153  12.421 -2.2892 -0.7868  1.0096
 2710SOL     OW19588   3.766   3.416  13.081 -0.1917  0.3778 -0.2170
 2710SOL    HW119589   3.674   3.420  13.055  0.0103 -1.4115 -1.2718
 2710SOL    HW219590   3.755   3.359  13.156 -1.1000 -0.2576 -0.8370
 2711SOL     OW19591   2.811   0.290  13.331 -0.1832 -0.2046 -0.4310
 2711SOL    HW119592   2.813   0.195  13.326 -0.4579 -0.1620 -1.5259
 2711SOL    HW219593   2.871   0.311  13.259  0.3337  0.7099  0.2716
 2712SOL     OW19594   3.119   2.153   7.701 -0.1917 -0.0477  0.4321
 2712SOL    HW119595   3.091   2.241   7.677  0.3464 -0.1949 -0.6989
 2712SOL    HW219596   3.034   2.109   7.707 -0.4618  0.3942 -0.2041
 2713SOL     OW19597   0.742   2.297   5.470  0.5135  0.6204  0.3045
 2713SOL    HW119598   0.792   2.377   5.458 -0.8233  1.5744  1.0236
 2713SOL    HW219599   0.798   2.256   5.536  2.5316  0.1750 -1.6849
 2714SOL     OW19600   3.088   0.000   5.385  0.4506  0.1221 -0.6479
 2714SOL    HW119601   3.076   4.641   5.433  1.3088  0.4723  0.1637
 2714SOL    HW219602   3.158   4.701   5.325  1.8851  1.1344  0.6671
 2715SOL     OW19603   3.193   3.107   9.458 -0.5902 -0.4081 -0.3805
 2715SOL    HW119604   3.284   3.137   9.457 -0.9187  0.5329 -1.8445
 2715SOL    HW219605   3.198   3.016   9.487  1.8294 -0.3736 -0.6799
 2716SOL     OW19606   1.001   3.355   8.243  0.4130 -0.3587 -0.7396
 2716SOL    HW119607   1.055   3.379   8.319  1.6380  2.2325 -2.4310
 2716SOL    HW219608   0.935   3.423   8.261  3.1798  2.1644 -0.0573
 2717SOL     OW19609   1.762   0.637   4.566  0.0898  0.2415 -0.5702
 2717SOL    HW119610   1.818   0.566   4.533 -0.2311 -1.0365  1.6299
 2717SOL    HW219611   1.790   0.647   4.657 -1.0989 -1.9632  0.0449
 2718SOL     OW19612   1.766   4.035   8.181  0.2080  0.2792 -0.0608
 2718SOL    HW119613   1.841   4.002   8.230  1.7240 -0.1437 -2.6682
 2718SOL    HW219614   1.786   4.128   8.167  0.1352  0.5971  1.8949
 2719SOL     OW19615   4.681   1.509   2.081 -0.0997 -0.1686 -0.1515
 2719SOL    HW119616   4.626   1.563   2.138  1.0565 -0.0613  0.8862
 2719SOL    HW219617   4.684   1.577   2.014 -0.7330  0.7285  0.7310
 2720SOL     OW19618   4.603   4.046   6.450  0.3602  0.1758  0.4460
 2720SOL    HW119619   4.688   4.002   6.456  0.5778  0.8825  2.6803
 2720SOL    HW219620   4.560   4.008   6.527 -0.7114 -1.5422 -0.9922
 2721SOL     OW19621   2.945   2.831   5.011 -0.6658 -0.4292 -0.8991
 2721SOL    HW119622   2.963   2.872   5.096 -0.7576 -1.7897 -0.2244
 2721SOL    HW219623   2.873   2.777   5.042  0.3870 -1.0105  0.5419
 2722SOL     OW19624   1.339   1.920   9.114 -0.0279 -0.1298 -0.2501
 2722SOL    HW119625   1.362   1.918   9.021 -1.6318  2.4537 -0.7159
 2722SOL    HW219626   1.344   1.827   9.137 -0.3742 -0.1688 -0.3377
 2723SOL     OW19627   4.363   3.633   8.538  0.0621  0.0434 -0.0015
 2723SOL    HW119628   4.445   3.621   8.586  0.2545  0.6313 -0.1874
 2723SOL    HW219629   4.307   3.581   8.596  0.6158 -1.2544 -0.6433
 2724SOL     OW19630   1.003   1.090   1.174  0.0037 -0.1459 -0.4506
 2724SOL    HW119631   0.994   1.065   1.082 -1.1656  2.7772 -1.1248
 2724SOL    HW219632   0.994   1.185   1.167  1.4561  0.0456  0.3729
 2725SOL     OW19633   4.389   3.092  13.540 -0.4481  0.4394 -0.3585
 2725SOL    HW119634   4.391   3.145  13.461 -0.5178  3.7095  1.8513
 2725SOL    HW219635   4.480   3.098  13.570  0.1689 -1.5642 -1.8064
 2726SOL     OW19636   0.442   0.131  13.037  0.4375  0.2134 -0.5423
 2726SOL    HW119637   0.507   0.179  12.985  1.6768 -1.0583 -0.1343
 2726SOL    HW219638   0.476   0.042  13.046 -1.9967 -0.7577 -0.9683
 2727SOL     OW19639   3.950   1.131   3.521  0.1868  0.2108  0.0468
 2727SOL    HW119640   3.947   1.159   3.612 -0.6895 -0.1354  0.1224
 2727SOL    HW219641   3.859   1.103   3.512  0.1325  0.6114 -0.6372
 2728SOL     OW19642   1.896   2.270   1.022  0.0690 -0.2586  0.1129
 2728SOL    HW119643   1.956   2.334   1.060  0.1268  1.0279 -2.1243
 2728SOL    HW219644   1.822   2.269   1.082  0.3440  1.9226  0.4825
 2729SOL     OW19645   4.533   3.000  17.601 -0.6089  0.2066  0.1701
 2729SOL    HW119646   4.563   2.999  17.692 -0.7963 -0.0894  0.2312
 2729SOL    HW219647   4.464   3.066  17.599 -0.5816  0.2477  0.5063
 2730SOL     OW19648   0.394   2.949  10.527  0.0156 -0.4016  0.0132
 2730SOL    HW119649   0.428   2.996  10.451 -0.1838  0.2029  0.2952
 2730SOL    HW219650   0.451   2.965  10.602  0.8501 -1.7465 -0.3321
 2731SOL     OW19651   4.285   3.271   7.958  0.0372 -0.3396 -0.0427
 2731SOL    HW119652   4.233   3.237   7.886 -0.4005 -1.0495  0.5982
 2731SOL    HW219653   4.261   3.363   7.954  1.8756  0.0759 -1.2771
 2732SOL     OW19654   2.844   3.784   5.326  0.1666  0.2158  0.2790
 2732SOL    HW119655   2.883   3.871   5.316 -0.8074  0.5127 -1.0171
 2732SOL    HW219656   2.920   3.729   5.346 -0.2281 -0.5444 -0.3031
 2733SOL     OW19657   0.487   3.581   7.067  0.5696  0.0860 -0.3557
 2733SOL    HW119658   0.508   3.669   7.034 -0.0166  0.5116  0.3943
 2733SOL    HW219659   0.521   3.594   7.156  0.4783  1.3497 -0.5032
 2734SOL     OW19660   2.517   3.877   2.228  0.1449  0.7744  1.0379
 2734SOL    HW119661   2.570   3.956   2.238 -2.4656  2.6584  0.1085
 2734SOL    HW219662   2.542   3.856   2.138  0.4017  1.2494  0.9972
 2735SOL     OW19663   3.123   1.321   0.166  0.2073  0.1402 -0.5806
 2735SOL    HW119664   3.040   1.274   0.164 -0.1491  0.7305  0.2468
 2735SOL    HW219665   3.123   1.345   0.073 -1.3101 -0.1043 -0.6544
 2736SOL     OW19666   3.345   4.053  10.478 -0.0179 -0.2070  0.7297
 2736SOL    HW119667   3.435   4.085  10.484 -0.4093  1.0247 -0.0009
 2736SOL    HW219668   3.312   4.080  10.564 -2.5533  0.7557 -0.5581
 2737SOL     OW19669   2.374   1.172  15.137 -0.7083  0.5187  0.0154
 2737SOL    HW119670   2.464   1.142  15.131 -1.0349 -0.3900 -0.3613
 2737SOL    HW219671   2.347   1.155  15.047  0.4831  1.4153 -0.5038
 2738SOL     OW19672   3.138   0.844   3.685  0.3375  0.0928 -0.4892
 2738SOL    HW119673   3.065   0.895   3.651  1.1208  1.0998 -0.6810
 2738SOL    HW219674   3.087   0.779   3.734  1.2783 -0.8277 -0.7393
 2739SOL     OW19675   0.094   1.848   6.675  0.6604 -0.3296 -0.5865
 2739SOL    HW119676   0.114   1.923   6.732  0.1746 -0.7683  0.1628
 2739SOL    HW219677   0.101   1.898   6.594  0.5822  0.1539 -0.2988
 2740SOL     OW19678   3.384   2.437   2.396 -0.3511 -0.1450 -0.6193
 2740SOL    HW119679   3.307   2.392   2.362 -3.2239  2.5387  2.2870
 2740SOL    HW219680   3.447   2.388   2.343 -0.8059  0.3295 -1.5851
 2741SOL     OW19681   2.687   1.426   8.515  0.1577  0.3453 -0.0579
 2741SOL    HW119682   2.741   1.420   8.594  0.6153  2.1839 -0.2292
 2741SOL    HW219683   2.753   1.431   8.446  2.0137 -2.1900  1.5391
 2742SOL     OW19684   3.559   3.742   9.221 -0.2585  0.6065  0.4740
 2742SOL    HW119685   3.491   3.777   9.163  0.0118 -0.2735 -0.3833
 2742SOL    HW219686   3.552   3.807   9.290  0.7027  0.2649  0.8798
 2743SOL     OW19687   0.342   2.233  16.639  0.2626 -0.0918 -0.2420
 2743SOL    HW119688   0.247   2.239  16.645  0.5085  1.9502  1.6193
 2743SOL    HW219689   0.350   2.143  16.607  2.1447 -0.1608  0.4086
 2744SOL     OW19690   2.733   3.997   3.762 -0.0297 -0.2243  0.0578
 2744SOL    HW119691   2.650   4.011   3.806  0.9850 -1.8195  2.4710
 2744SOL    HW219692   2.775   3.925   3.810 -1.4273 -0.8334  0.3497
 2745SOL     OW19693   2.003   3.941   8.308  0.3880 -0.2160  0.3560
 2745SOL    HW119694   2.023   3.896   8.390  0.9543 -0.5915  0.0046
 2745SOL    HW219695   2.051   3.892   8.242  1.9329  2.1061 -0.2808
 2746SOL     OW19696   0.206   2.259  11.984  0.5429 -0.5756 -0.0243
 2746SOL    HW119697   0.169   2.284  11.899  1.8576  2.3177  0.2301
 2746SOL    HW219698   0.299   2.278  11.971 -0.2718  3.5387  0.0809
 2747SOL     OW19699   4.377   4.305   3.284 -0.5911 -0.1767 -0.1353
 2747SOL    HW119700   4.329   4.293   3.202 -0.8115  1.7731 -0.2935
 2747SOL    HW219701   4.434   4.379   3.264  0.7366 -0.8334  1.2262
 2748SOL     OW19702   2.813   3.395   4.372  0.3218 -0.1417 -0.1432
 2748SOL    HW119703   2.780   3.312   4.405 -0.4689 -0.8130 -2.5563
 2748SOL    HW219704   2.900   3.363   4.348 -0.1244 -0.0662 -1.8813
 2749SOL     OW19705   0.991   1.119   5.467 -0.4445 -0.1998  0.2020
 2749SOL    HW119706   1.004   1.029   5.437  1.1877  0.5582 -1.3875
 2749SOL    HW219707   1.080   1.131   5.501 -0.9289 -3.1288  2.5635
 2750SOL     OW19708   2.252   1.175   0.307 -0.8240 -0.2395  1.1826
 2750SOL    HW119709   2.242   1.142   0.396 -0.0998  1.8160  2.0163
 2750SOL    HW219710   2.161   1.165   0.278 -0.7659 -1.2016  1.3111
 2751SOL     OW19711   3.893   3.884  12.667 -0.2704 -0.0469  0.0299
 2751SOL    HW119712   3.820   3.924  12.714 -1.5572 -0.7969 -1.3015
 2751SOL    HW219713   3.950   3.958  12.649 -0.9347  0.1279 -1.3942
 2752SOL     OW19714   1.868   1.550   4.210  0.0174  0.1617 -0.0048
 2752SOL    HW119715   1.950   1.511   4.241 -1.0746 -0.6111  1.9373
 2752SOL    HW219716   1.850   1.623   4.269  2.2402  0.7822 -0.1016
 2753SOL     OW19717   0.479   3.538   1.393 -0.7329 -0.3657 -0.3813
 2753SOL    HW119718   0.478   3.562   1.301  2.1515 -1.0829 -0.5875
 2753SOL    HW219719   0.512   3.448   1.396 -0.3392 -0.1571  1.9667
 2754SOL     OW19720   4.580   1.807  11.985 -0.0568  0.1875 -0.1572
 2754SOL    HW119721   4.667   1.768  11.984  0.4947  1.3521  2.6720
 2754SOL    HW219722   4.603   1.898  12.005  0.7360 -0.0631  0.0519
 2755SOL     OW19723   0.881   0.610   8.355  0.5641  0.0388 -0.2118
 2755SOL    HW119724   0.954   0.667   8.377 -0.5509  0.3673  2.5705
 2755SOL    HW219725   0.890   0.611   8.259 -3.2975  0.5253 -0.5743
 2756SOL     OW19726   3.730   2.147   3.048  0.7996 -0.2403 -0.5968
 2756SOL    HW119727   3.670   2.106   2.986 -1.9816 -1.3323  2.8664
 2756SOL    HW219728   3.674   2.220   3.073 -0.1095 -0.9109 -0.6995
 2757SOL     OW19729   0.759   0.046   0.858  0.6896  0.4954 -0.3828
 2757SOL    HW119730   0.675   0.001   0.846  2.6102 -2.7121 -1.5810
 2757SOL    HW219731   0.804   0.017   0.779 -2.0012  2.2707 -2.6179
 2758SOL     OW19732   4.650   0.157   3.163 -0.0628 -0.5389  0.6682
 2758SOL    HW119733   4.670   0.072   3.203  1.8070  0.9944  2.9999
 2758SOL    HW219734   4.582   0.204   3.211 -0.1793 -2.9493  2.8757
 2759SOL     OW19735   0.390   2.326   8.961  0.0515  0.4615 -0.0270
 2759SOL    HW119736   0.437   2.259   9.011 -1.7230  0.1077  1.1539
 2759SOL    HW219737   0.310   2.274   8.950 -0.4646  1.5576 -1.4364
 2760SOL     OW19738   0.534   2.619   3.683  0.1795  0.2860  0.3382
 2760SOL    HW119739   0.549   2.704   3.642  2.4019  0.3773  1.3356
 2760SOL    HW219740   0.439   2.615   3.675  0.1085  0.9233  0.8165
 2761SOL     OW19741   2.301   3.957   4.566 -0.3643  0.4500 -0.4007
 2761SOL    HW119742   2.257   4.030   4.523 -0.9874  0.1545 -0.2644
 2761SOL    HW219743   2.381   4.004   4.588 -0.1499 -0.6130  1.0614
 2762SOL     OW19744   2.207   0.863  13.931  0.3820 -0.3940 -0.4298
 2762SOL    HW119745   2.278   0.798  13.936 -0.6780 -1.5004  0.1817
 2762SOL    HW219746   2.185   0.878  14.023  1.5059 -1.0875 -0.0408
 2763SOL     OW19747   2.018   2.893   5.131 -0.8312  0.2870 -0.6081
 2763SOL    HW119748   2.111   2.918   5.133 -0.4269 -1.3127  0.1923
 2763SOL    HW219749   2.013   2.838   5.209 -0.2558  1.4562  0.2686
 2764SOL     OW19750   1.614   0.041  14.712  0.2200 -0.2192 -0.1227
 2764SOL    HW119751   1.695   0.003  14.678 -0.9722 -1.0150 -2.0454
 2764SOL    HW219752   1.550   4.693  14.719 -0.8405  0.6737 -0.7524
 2765SOL     OW19753   3.830   2.270   4.507  0.2376  0.1999 -0.1213
 2765SOL    HW119754   3.778   2.226   4.439 -1.5149  2.0056  0.0607
 2765SOL    HW219755   3.901   2.283   4.444 -1.4122  1.0756 -1.8112
 2766SOL     OW19756   1.622   0.513   5.201 -0.5576  0.1432 -0.1864
 2766SOL    HW119757   1.610   0.552   5.288 -1.5055  2.9376 -1.5966
 2766SOL    HW219758   1.647   0.424   5.227 -1.5980  0.0726  0.5995
 2767SOL     OW19759   3.581   4.135   3.876  0.0300 -0.6337 -0.1831
 2767SOL    HW119760   3.609   4.151   3.785  1.5822 -1.0399  0.2201
 2767SOL    HW219761   3.490   4.165   3.884  0.5232  0.9202 -0.2651
 2768SOL     OW19762   4.290   0.905   7.962  0.5300  0.1230 -0.0279
 2768SOL    HW119763   4.339   0.970   7.913 -0.8910  0.3501 -1.1548
 2768SOL    HW219764   4.220   0.955   8.004  0.7553 -0.2358  0.7735
 2769SOL     OW19765   3.101   2.290   6.597  0.1558  0.6024  0.6998
 2769SOL    HW119766   3.126   2.244   6.678  0.8059  0.2345  0.2936
 2769SOL    HW219767   3.045   2.229   6.550  1.5332 -0.3772  0.3004
 2770SOL     OW19768   0.730   1.431  11.432  0.2494 -0.0600 -0.5630
 2770SOL    HW119769   0.823   1.453  11.427  0.0160  1.7281  3.3256
 2770SOL    HW219770   0.720   1.407  11.524  0.1085  0.0459 -0.5498
 2771SOL     OW19771   0.347   3.557   7.371 -0.1596 -0.0009  0.7217
 2771SOL    HW119772   0.321   3.543   7.462  2.7524 -3.5743  0.9901
 2771SOL    HW219773   0.272   3.608   7.340 -0.1060 -0.3237  0.0631
 2772SOL     OW19774   0.702   1.462  15.984  0.0018 -0.4628  0.4576
 2772SOL    HW119775   0.742   1.454  15.897 -0.6064  0.5328  0.0941
 2772SOL    HW219776   0.620   1.416  15.964  0.0235  0.7853 -2.5369
 2773SOL     OW19777   3.681   3.300   3.428  0.0959  0.2271 -0.2113
 2773SOL    HW119778   3.748   3.317   3.495  0.2188  0.6273 -0.4366
 2773SOL    HW219779   3.606   3.281   3.485 -1.0645 -1.1676 -2.1938
 2774SOL     OW19780   0.642   1.027  10.168  0.2483  0.1672  0.1825
 2774SOL    HW119781   0.699   0.965  10.122  1.2425  1.0603  0.1977
 2774SOL    HW219782   0.605   1.079  10.097  0.0149  1.3128  1.1454
 2775SOL     OW19783   4.452   4.023   8.077 -0.3327 -0.7292 -0.1351
 2775SOL    HW119784   4.521   4.078   8.040  0.3237  0.1109  2.3259
 2775SOL    HW219785   4.427   3.978   7.996 -1.1891 -1.9107  0.7848
 2776SOL     OW19786   3.813   3.720   7.308  0.1032  0.1586 -0.7030
 2776SOL    HW119787   3.896   3.746   7.348 -0.2960 -0.2950  0.4207
 2776SOL    HW219788   3.814   3.625   7.305 -2.0748  0.1151 -0.0609
 2777SOL     OW19789   0.105   4.335   8.156  0.3526  0.0819 -0.4593
 2777SOL    HW119790   0.059   4.410   8.192 -3.2919 -2.1196 -0.5946
 2777SOL    HW219791   0.177   4.386   8.118  1.3061  0.5396  1.9755
 2778SOL     OW19792   1.055   3.001   6.320 -0.0578  0.1061  0.3802
 2778SOL    HW119793   1.076   3.045   6.238 -1.4067  1.9093  0.9994
 2778SOL    HW219794   1.008   3.065   6.374 -0.2923  0.8916 -0.7702
 2779SOL     OW19795   2.849   3.747   4.739 -0.0409  0.0465 -0.6294
 2779SOL    HW119796   2.863   3.822   4.681  0.2168  0.8556  0.4688
 2779SOL    HW219797   2.845   3.680   4.671  2.6050 -1.7541  1.0096
 2780SOL     OW19798   2.659   4.231  10.913  0.1283 -0.3383  0.3296
 2780SOL    HW119799   2.571   4.220  10.875  0.1997 -0.0653  0.0889
 2780SOL    HW219800   2.669   4.326  10.902 -0.9533 -0.1834  0.6636
 2781SOL     OW19801   1.312   0.821   5.979 -0.4652  1.1237 -0.5115
 2781SOL    HW119802   1.225   0.843   5.946 -1.1535 -0.8892 -0.0542
 2781SOL    HW219803   1.331   0.887   6.046  0.9757  0.7360 -0.5433
 2782SOL     OW19804   1.204   0.881  15.052 -0.4339 -0.1769 -0.1374
 2782SOL    HW119805   1.252   0.868  14.970  0.2019 -0.8232  0.3420
 2782SOL    HW219806   1.121   0.912  15.015  0.0835  0.2077 -0.9799
 2783SOL     OW19807   0.966   4.676   7.716  0.6395 -0.3417  0.4139
 2783SOL    HW119808   0.924   4.590   7.708  0.9505 -0.4924  0.4094
 2783SOL    HW219809   0.977   4.698   7.624  5.0107  1.2403  1.3288
 2784SOL     OW19810   2.561   2.949   8.010  0.0394  0.2867  0.1431
 2784SOL    HW119811   2.469   2.925   8.021  0.1529  0.1713  0.8380
 2784SOL    HW219812   2.565   2.939   7.915 -1.5727 -0.7454  0.1860
 2785SOL     OW19813   2.634   4.550   8.239  0.1798  0.6317  0.1946
 2785SOL    HW119814   2.561   4.608   8.215 -0.3898 -0.6051 -1.0408
 2785SOL    HW219815   2.586   4.473   8.268 -0.8056  1.6377  1.2479
 2786SOL     OW19816   4.329   1.875   2.923  0.7624  0.1475  0.3688
 2786SOL    HW119817   4.407   1.910   2.880  0.3962 -0.9482 -1.1572
 2786SOL    HW219818   4.257   1.921   2.881  1.9921 -0.3865 -2.3083
 2787SOL     OW19819   3.293   3.716   7.579 -0.2283 -0.1137 -0.5461
 2787SOL    HW119820   3.301   3.809   7.596 -0.0123  0.0391 -1.4690
 2787SOL    HW219821   3.278   3.707   7.485 -1.6230 -0.3322 -0.3078
 2788SOL     OW19822   3.676   0.742   7.043  0.1068 -0.4711  0.2610
 2788SOL    HW119823   3.587   0.734   7.077  0.2353 -1.6460  0.2919
 2788SOL    HW219824   3.700   0.823   7.089  1.5408 -0.5371 -0.3693
 2789SOL     OW19825   1.808   3.330   3.793  0.2340 -0.0971 -0.0939
 2789SOL    HW119826   1.767   3.416   3.784 -0.9019 -0.6668 -0.3158
 2789SOL    HW219827   1.769   3.306   3.876 -0.5917  2.6573  0.3395
 2790SOL     OW19828   2.071   0.573   6.873  0.1779 -0.3167  0.0267
 2790SOL    HW119829   2.056   0.550   6.781 -0.9983 -1.4288  0.4950
 2790SOL    HW219830   2.128   0.649   6.865 -0.5447 -0.0283 -2.2853
 2791SOL     OW19831   1.860   0.679   2.660  0.4067  0.4710  0.1200
 2791SOL    HW119832   1.839   0.713   2.573 -0.1341  0.4703  0.2505
 2791SOL    HW219833   1.827   0.747   2.718  0.1959 -0.3069  0.9088
 2792SOL     OW19834   0.980   4.041   3.944 -0.5394 -0.0238  0.1832
 2792SOL    HW119835   0.975   4.128   3.984  0.5817 -0.5692  1.5343
 2792SOL    HW219836   1.053   4.004   3.994 -0.7656  0.0904  0.5986
 2793SOL     OW19837   1.525   0.596   7.033 -0.2182  0.3806  0.1079
 2793SOL    HW119838   1.526   0.514   7.084  1.0500 -0.9834 -2.1039
 2793SOL    HW219839   1.603   0.583   6.979 -0.1471  1.2044  0.0228
 2794SOL     OW19840   3.695   3.818   4.888 -0.2934  0.2087 -0.0312
 2794SOL    HW119841   3.656   3.900   4.858  0.1714  0.2848 -0.4309
 2794SOL    HW219842   3.658   3.803   4.975 -0.2115  2.9203  0.4487
 2795SOL     OW19843   1.507   0.852  16.523  0.7490  0.4617 -0.3857
 2795SOL    HW119844   1.570   0.809  16.580  2.2242 -1.3211 -3.3880
 2795SOL    HW219845   1.538   0.942  16.529 -1.4480  1.4043 -3.0186
 2796SOL     OW19846   1.936   0.359   7.845 -0.1831  0.6616 -0.1206
 2796SOL    HW119847   1.894   0.391   7.765  1.8150 -1.7502 -2.1391
 2796SOL    HW219848   1.891   0.276   7.860  1.0372 -0.0376 -0.3095
 2797SOL     OW19849   2.805   2.345   5.922 -0.2980 -0.6413  0.0461
 2797SOL    HW119850   2.849   2.364   6.005  0.9188  1.1685 -0.9950
 2797SOL    HW219851   2.868   2.290   5.876  0.7876  0.6153  0.0308
 2798SOL     OW19852   0.852   0.689   3.497  0.0834 -0.0225 -0.0843
 2798SOL    HW119853   0.882   0.698   3.407  0.0144  2.1829  0.1321
 2798SOL    HW219854   0.764   0.725   3.485  0.7285  0.6744 -2.7319
 2799SOL     OW19855   2.883   0.744   8.223  0.3969 -0.5244  0.3073
 2799SOL    HW119856   2.849   0.654   8.230 -0.2325 -0.1326  2.5145
 2799SOL    HW219857   2.832   0.776   8.298  2.6928  2.0007  0.7879
 2800SOL     OW19858   4.613   3.055   4.100 -0.3480  0.0783 -0.1099
 2800SOL    HW119859   4.626   3.147   4.081 -0.7576  0.1821  0.1200
 2800SOL    HW219860   4.699   3.014   4.114 -0.5508 -0.2506  0.1624
 2801SOL     OW19861   4.488   3.732   4.899 -0.2423  0.1639 -0.0917
 2801SOL    HW119862   4.404   3.686   4.899 -0.2968  0.2548  0.8966
 2801SOL    HW219863   4.472   3.791   4.825 -1.7958  0.9142  0.8294
 2802SOL     OW19864   2.977   4.422   8.302  0.2770  0.2395  0.0384
 2802SOL    HW119865   3.051   4.398   8.356 -0.5201 -0.5873  0.7633
 2802SOL    HW219866   2.906   4.401   8.363  0.2705 -1.5209 -0.5794
 2803SOL     OW19867   0.646   0.314  12.941  0.5269 -0.2590  0.0189
 2803SOL    HW119868   0.604   0.374  12.880 -1.4097 -0.6847  0.9154
 2803SOL    HW219869   0.729   0.290  12.900 -0.1885  0.5917 -1.9119
 2804SOL     OW19870   0.740   0.775   6.188  0.0568 -0.2452  0.1456
 2804SOL    HW119871   0.793   0.848   6.222  1.2159 -2.5378  3.2515
 2804SOL    HW219872   0.811   0.715   6.165  0.4992  0.4605 -0.3457
 2805SOL     OW19873   0.496   0.114   0.097  0.4709 -0.2217 -0.0902
 2805SOL    HW119874   0.465   0.123   0.007 -2.0578 -3.3625  0.4692
 2805SOL    HW219875   0.552   0.191   0.110 -0.0754  0.3480 -1.1792
 2806SOL     OW19876   4.304   1.308  15.461  0.2312 -0.6830 -0.0465
 2806SOL    HW119877   4.331   1.216  15.467  2.1708 -0.0427  1.0105
 2806SOL    HW219878   4.379   1.343  15.412  1.3674 -1.2509  1.2657
 2807SOL     OW19879   0.474   2.787   4.091  0.2438  0.0912 -0.0300
 2807SOL    HW119880   0.465   2.710   4.034  1.1482  0.3950 -0.5911
 2807SOL    HW219881   0.511   2.751   4.171  1.8601  1.4457 -0.1661
 2808SOL     OW19882   0.745   1.286  11.147  0.2789 -0.4078 -0.3766
 2808SOL    HW119883   0.840   1.295  11.154  0.4291  0.2449 -3.2248
 2808SOL    HW219884   0.727   1.257  11.237  0.2981 -0.1653 -0.2931
 2809SOL     OW19885   0.314   3.787  13.777 -0.6267  0.4921 -0.0953
 2809SOL    HW119886   0.390   3.818  13.827  0.9127 -0.9799 -1.5111
 2809SOL    HW219887   0.275   3.718  13.830  3.1136 -0.4729  1.4029
 2810SOL     OW19888   1.685   2.345   7.869 -0.4870  0.0501  0.4230
 2810SOL    HW119889   1.701   2.275   7.806  1.6132 -1.0413  2.1659
 2810SOL    HW219890   1.609   2.393   7.837 -0.9156 -0.0469  1.2988
 2811SOL     OW19891   3.732   3.305   4.446  0.1809  0.3254 -0.0357
 2811SOL    HW119892   3.785   3.363   4.392  0.0789  2.2140  1.8780
 2811SOL    HW219893   3.709   3.366   4.516  0.4211  1.3070 -0.8256
 2812SOL     OW19894   1.282   3.564   4.692 -0.2309  0.6268  0.3150
 2812SOL    HW119895   1.260   3.562   4.599 -1.2112 -1.7945  0.5955
 2812SOL    HW219896   1.337   3.487   4.706 -2.2185 -1.0705 -1.1873
 2813SOL     OW19897   0.078   1.279   7.958 -0.0738  0.0522  0.2212
 2813SOL    HW119898   0.019   1.238   8.022  0.9546  1.6941  2.2261
 2813SOL    HW219899   0.152   1.295   8.017  1.3413 -1.9539 -1.0117
 2814SOL     OW19900   3.625   1.283   8.889 -0.4088  0.2888  0.5239
 2814SOL    HW119901   3.712   1.256   8.921  0.0782  0.6431 -0.5256
 2814SOL    HW219902   3.604   1.207   8.836  0.0679 -0.9162  2.0449
 2815SOL     OW19903   2.278   1.458   6.349  0.3812  0.2531  0.2444
 2815SOL    HW119904   2.316   1.536   6.389 -0.2139  0.2217  0.8793
 2815SOL    HW219905   2.295   1.402   6.424 -0.3805 -1.2008 -0.6526
 2816SOL     OW19906   4.161   3.493   5.559  0.5837 -0.2031  0.6563
 2816SOL    HW119907   4.174   3.408   5.518 -0.6247 -0.1319  0.1062
 2816SOL    HW219908   4.241   3.543   5.543 -0.8969  1.2472 -2.2668
 2817SOL     OW19909   3.336   2.354   2.888  0.4193  0.0681  0.2766
 2817SOL    HW119910   3.387   2.291   2.837  0.2641 -0.2021  0.4555
 2817SOL    HW219911   3.355   2.429   2.832  1.3661  1.0119  1.8827
 2818SOL     OW19912   0.515   3.463   2.410  0.1618  0.0167 -0.1768
 2818SOL    HW119913   0.445   3.525   2.392 -1.7497 -1.4411  2.1819
 2818SOL    HW219914   0.546   3.446   2.321 -0.0960 -1.5973  0.0372
 2819SOL     OW19915   4.713   0.727   5.962  0.1968 -0.3092  0.4021
 2819SOL    HW119916   0.047   0.803   5.971  0.1638 -0.2133 -0.2180
 2819SOL    HW219917   0.040   0.658   6.006 -0.1621 -0.1560  1.0471
 2820SOL     OW19918   3.963   2.293   4.260 -0.7002 -0.3834 -1.0183
 2820SOL    HW119919   3.893   2.242   4.220 -1.2242  1.2624 -2.2179
 2820SOL    HW219920   3.962   2.369   4.201  1.0620  1.0228  0.7584
 2821SOL     OW19921   0.153   1.065  12.020  0.2300 -0.2686  0.2416
 2821SOL    HW119922   0.174   1.074  12.113 -1.0354  1.4342  0.3469
 2821SOL    HW219923   0.070   1.112  12.014  0.4388  0.1088  0.3536
 2822SOL     OW19924   3.958   2.214   2.900 -0.2858 -0.0984 -0.2848
 2822SOL    HW119925   3.871   2.176   2.912 -0.5043  1.0648  1.8430
 2822SOL    HW219926   3.981   2.188   2.811  0.2200  0.3581 -0.2887
 2823SOL     OW19927   2.536   1.104  10.594 -0.7908  0.1994  0.4603
 2823SOL    HW119928   2.496   1.073  10.513  0.7843 -1.9983  0.5451
 2823SOL    HW219929   2.454   1.138  10.630 -0.6374  1.1304 -0.0604
 2824SOL     OW19930   3.599   3.447   2.416  0.4013  0.5589  0.1327
 2824SOL    HW119931   3.591   3.355   2.439  1.7053  0.4997  0.3304
 2824SOL    HW219932   3.643   3.435   2.332 -1.5755  0.5404 -0.8964
 2825SOL     OW19933   0.116   0.523   6.100  0.2220  0.1118 -0.1818
 2825SOL    HW119934   0.132   0.437   6.061  2.0792 -0.0919  1.0128
 2825SOL    HW219935   0.194   0.534   6.154  0.0932 -2.8150  0.6229
 2826SOL     OW19936   4.501   2.005  17.536  0.1146 -0.7408 -0.3383
 2826SOL    HW119937   4.407   2.016  17.549 -0.1305 -0.7497 -2.0093
 2826SOL    HW219938   4.531   1.995  17.626 -0.4503 -2.9615 -0.3935
 2827SOL     OW19939   4.232   4.555  12.553 -0.1009 -0.0710 -0.5025
 2827SOL    HW119940   4.223   4.650  12.551  1.4109  0.0519 -1.6203
 2827SOL    HW219941   4.259   4.541  12.462 -0.6435 -1.9647 -0.3804
 2828SOL     OW19942   1.555   4.182  11.511  0.8189 -0.0367 -0.9274
 2828SOL    HW119943   1.632   4.166  11.456  1.5384 -0.4600  0.1925
 2828SOL    HW219944   1.591   4.148  11.593  0.1174  1.1572 -0.1302
 2829SOL     OW19945   4.246   0.767   5.947  0.7508 -0.0404 -0.6624
 2829SOL    HW119946   4.168   0.717   5.969  1.7286 -0.9887  0.6398
 2829SOL    HW219947   4.302   0.737   6.018 -0.1593  1.7920  0.8575
 2830SOL     OW19948   3.122   3.229   1.708 -0.3319  0.1199 -0.4674
 2830SOL    HW119949   3.043   3.190   1.744  0.1254  0.1223  0.5475
 2830SOL    HW219950   3.080   3.292   1.650  1.1057  0.6943 -0.8837
 2831SOL     OW19951   2.031   0.350  13.414 -0.2710  0.2284  0.4502
 2831SOL    HW119952   2.034   0.422  13.352  1.3489  0.1719  0.4578
 2831SOL    HW219953   2.061   0.284  13.351 -0.7766  0.0353  0.4160
 2832SOL     OW19954   2.393   3.091   3.152 -0.3604  0.1109  0.1506
 2832SOL    HW119955   2.374   3.009   3.197  0.9198 -0.1646  0.1767
 2832SOL    HW219956   2.330   3.094   3.081 -1.8135  0.1593  1.4403
 2833SOL     OW19957   1.209   2.712   8.582 -0.1483  0.3286 -0.2329
 2833SOL    HW119958   1.199   2.730   8.489  0.3121  0.3592 -0.2766
 2833SOL    HW219959   1.144   2.643   8.596  1.1119 -1.1988 -1.7620
 2834SOL     OW19960   0.153   0.722   6.848  0.0428  0.4933 -0.1830
 2834SOL    HW119961   0.248   0.722   6.832  0.0242 -0.8881 -0.2364
 2834SOL    HW219962   0.121   0.805   6.813 -0.1305  0.0244 -1.1390
 2835SOL     OW19963   3.965   2.449   7.714  0.2448  0.0059 -0.5118
 2835SOL    HW119964   3.894   2.511   7.731  0.5358  0.3204 -0.4515
 2835SOL    HW219965   3.914   2.375   7.680  2.1488 -2.0952  1.2018
 2836SOL     OW19966   1.163   1.043   9.404 -0.1469 -0.2060  0.3987
 2836SOL    HW119967   1.236   0.981   9.415 -0.3360 -0.6957 -1.0504
 2836SOL    HW219968   1.218   1.116   9.377  0.9511 -1.4041 -0.6641
 2837SOL     OW19969   1.816   3.657  15.506  0.2130  0.3490  0.1777
 2837SOL    HW119970   1.753   3.585  15.515  0.7495 -0.0318  0.9075
 2837SOL    HW219971   1.869   3.650  15.586  1.6324  1.0901 -0.7017
 2838SOL     OW19972   2.356   3.022   4.431 -0.0209  0.0274  0.0798
 2838SOL    HW119973   2.391   3.097   4.479 -0.0219  0.5526 -0.7374
 2838SOL    HW219974   2.270   3.011   4.471  0.2436  0.6184  0.8063
 2839SOL     OW19975   2.794   0.133   3.482 -0.0602 -0.1322 -0.3087
 2839SOL    HW119976   2.710   0.120   3.526 -0.8641 -0.0667 -1.8252
 2839SOL    HW219977   2.854   0.103   3.549  2.0423  0.1743 -2.0477
 2840SOL     OW19978   2.876   0.196   7.577 -0.3515  0.2000  0.4730
 2840SOL    HW119979   2.937   0.265   7.552 -2.1973  2.0785  1.1805
 2840SOL    HW219980   2.834   0.160   7.499  0.7763  0.6442 -0.3427
 2841SOL     OW19981   2.382   0.308  16.207  0.3845  0.8901 -0.1743
 2841SOL    HW119982   2.418   0.272  16.289 -0.7839 -2.9153 -1.3492
 2841SOL    HW219983   2.346   0.391  16.238 -2.1301 -0.5499  0.7157
 2842SOL     OW19984   1.604   1.194   4.611 -0.5458  0.6446  0.0486
 2842SOL    HW119985   1.584   1.266   4.672  1.1754 -0.6881  2.1960
 2842SOL    HW219986   1.643   1.247   4.541 -0.0874 -0.0170 -0.2001
 2843SOL     OW19987   0.680   2.937   9.536  0.4027  0.7409 -0.3816
 2843SOL    HW119988   0.772   2.964   9.543  0.5707 -0.0223  0.4546
 2843SOL    HW219989   0.636   2.993   9.601  0.0785 -1.2880  1.1573
 2844SOL     OW19990   1.009   3.112   4.508  0.4252 -0.7238 -0.3975
 2844SOL    HW119991   1.032   3.195   4.466 -2.3730  1.8119  3.0988
 2844SOL    HW219992   0.922   3.103   4.467 -0.0834  1.4533  0.1949
 2845SOL     OW19993   3.603   3.381   6.763 -0.4551 -0.1157 -0.1371
 2845SOL    HW119994   3.695   3.405   6.758  0.2329 -2.6248  0.9161
 2845SOL    HW219995   3.572   3.364   6.674  0.6287  1.7878 -0.8881
 2846SOL     OW19996   3.057   1.046   5.241 -0.1207  0.4776  0.3508
 2846SOL    HW119997   3.074   1.140   5.244  1.1682  0.2557 -0.0430
 2846SOL    HW219998   3.145   1.011   5.226 -0.4658  0.3992 -1.4470
 2847SOL     OW19999   4.119   3.423   7.279 -0.1720 -0.3794 -0.1302
 2847SOL    HW120000   4.184   3.395   7.215  2.7996  1.7705  1.9117
 2847SOL    HW220001   4.084   3.497   7.228  0.7790  1.0140  1.2154
 2848SOL     OW20002   1.524   2.982   7.356 -0.6095 -0.1718 -0.0242
 2848SOL    HW120003   1.464   3.000   7.284 -0.4055  1.0620  0.1147
 2848SOL    HW220004   1.469   2.972   7.433  1.7150 -1.1046  1.5230
 2849SOL     OW20005   3.294   1.245   9.292 -0.3350  0.2309 -0.5559
 2849SOL    HW120006   3.368   1.261   9.234  1.6305  1.2369  2.2571
 2849SOL    HW220007   3.283   1.150   9.281 -2.3754  0.2702  1.2497
 2850SOL     OW20008   0.306   2.117   5.754 -0.3247  0.2397  0.6278
 2850SOL    HW120009   0.382   2.128   5.697  0.7726  1.0945  2.2823
 2850SOL    HW220010   0.302   2.025   5.782  0.8052 -0.2876 -0.9195
 2851SOL     OW20011   1.178   4.588   3.336  0.0004  0.3344 -0.7208
 2851SOL    HW120012   1.182   4.589   3.432  2.1672 -2.5380 -0.7859
 2851SOL    HW220013   1.245   4.527   3.305 -1.1372 -1.3888  0.1977
 2852SOL     OW20014   4.292   1.602   3.390  0.3212 -0.0451  0.4414
 2852SOL    HW120015   4.353   1.674   3.374  1.8477 -1.5109 -0.4084
 2852SOL    HW220016   4.220   1.648   3.433  1.0950  2.3100 -0.8210
 2853SOL     OW20017   1.920   4.532  14.664 -0.3634 -0.2844 -0.1348
 2853SOL    HW120018   1.924   4.627  14.660  0.3877 -0.3871 -1.9688
 2853SOL    HW220019   1.955   4.517  14.576 -0.9601  0.2723 -0.4700
 2854SOL     OW20020   3.515   1.415   4.313 -0.2761  0.0967 -1.1156
 2854SOL    HW120021   3.541   1.381   4.398 -3.3859  0.1408 -0.1354
 2854SOL    HW220022   3.432   1.458   4.336  0.1958  0.4236 -0.0515
 2855SOL     OW20023   2.866   1.772   3.350  0.0584 -0.2203 -0.0373
 2855SOL    HW120024   2.860   1.735   3.262  0.7430 -0.5671  0.0603
 2855SOL    HW220025   2.921   1.848   3.330 -0.7552  0.4297  0.2162
 2856SOL     OW20026   4.646   3.000  15.597  0.0027 -0.1951 -0.4816
 2856SOL    HW120027   4.599   3.023  15.676 -1.4116 -1.3601 -0.9970
 2856SOL    HW220028   4.590   3.042  15.531  1.4528  1.3299 -0.7577
 2857SOL     OW20029   3.402   0.451   7.351 -0.1468 -0.5151  0.4097
 2857SOL    HW120030   3.378   0.359   7.343 -0.9972 -0.2848  0.3133
 2857SOL    HW220031   3.357   0.482   7.272  0.7425 -0.1831  0.0316
 2858SOL     OW20032   0.252   3.301   7.428  0.0216 -0.0119 -0.6965
 2858SOL    HW120033   0.333   3.254   7.447 -0.0590  0.0325 -0.2341
 2858SOL    HW220034   0.277   3.387   7.394 -2.9032  1.0386 -0.2097
 2859SOL     OW20035   0.320   1.675   9.839 -0.8849  0.0421 -0.4738
 2859SOL    HW120036   0.274   1.596   9.808 -0.3067  0.5599 -2.7014
 2859SOL    HW220037   0.371   1.700   9.762  0.9543 -1.7391  0.1640
 2860SOL     OW20038   0.164   2.827  14.304  0.7425  0.0286 -0.6096
 2860SOL    HW120039   0.249   2.870  14.303  0.4556  0.6017 -0.5336
 2860SOL    HW220040   0.152   2.803  14.396  1.8072 -0.8640 -0.7009
 2861SOL     OW20041   3.183   3.324   7.461  0.2353 -0.2357 -0.1843
 2861SOL    HW120042   3.270   3.325   7.500 -0.7969  3.3797  2.0269
 2861SOL    HW220043   3.135   3.396   7.502 -1.3102 -1.3144 -0.0991
 2862SOL     OW20044   3.057   4.708   4.702 -0.6803 -0.0225  0.2099
 2862SOL    HW120045   3.149   4.711   4.673 -0.8641 -0.1971 -0.3963
 2862SOL    HW220046   3.056   4.623   4.746 -3.7691 -0.9947 -1.7696
 2863SOL     OW20047   3.139   0.546   3.672  0.2776 -0.2568  0.2550
 2863SOL    HW120048   3.184   0.563   3.589 -2.1444 -1.8308 -1.3829
 2863SOL    HW220049   3.206   0.556   3.739  0.4982  1.7424 -0.2453
 2864SOL     OW20050   0.083   4.357  10.293  0.1326  0.1083  0.2224
 2864SOL    HW120051   0.034   4.410  10.356 -1.4403  0.5069 -1.3321
 2864SOL    HW220052   0.023   4.360  10.219 -0.8689 -1.6702  0.9875
 2865SOL     OW20053   3.183   3.532   4.535  0.3042  0.3440  0.0869
 2865SOL    HW120054   3.212   3.617   4.504  1.0151 -0.3639 -1.2046
 2865SOL    HW220055   3.088   3.538   4.534  0.2080 -0.8952  1.7257
 2866SOL     OW20056   1.731   3.005   4.086  0.0918 -0.3387  0.1388
 2866SOL    HW120057   1.770   2.964   4.163  1.0622  0.3442  0.0245
 2866SOL    HW220058   1.676   2.928   4.074  0.2980  0.0190 -3.0951
 2867SOL     OW20059   4.671   3.296  16.902 -0.0664 -0.3272 -0.3547
 2867SOL    HW120060   4.694   3.236  16.831  1.9180  1.5766 -1.3328
 2867SOL    HW220061   0.023   3.356  16.904 -1.5354  1.4838 -0.1780
 2868SOL     OW20062   3.720   4.612  14.363 -0.3303 -0.5099  0.7045
 2868SOL    HW120063   3.759   4.532  14.398  0.7134  0.2678  1.3171
 2868SOL    HW220064   3.723   4.664  14.444  0.6595  1.5050 -0.6159
 2869SOL     OW20065   1.712   3.962  17.439 -0.3618 -0.2203  0.2466
 2869SOL    HW120066   1.701   3.886  17.382 -0.8371  0.2103 -0.2344
 2869SOL    HW220067   1.684   3.926  17.523 -0.7506 -1.1972 -0.3025
 2870SOL     OW20068   1.435   2.871   9.183  0.1473  0.1416 -0.0856
 2870SOL    HW120069   1.403   2.860   9.272  0.3603 -0.7079 -0.1120
 2870SOL    HW220070   1.375   2.818   9.130  0.2742 -1.7167  1.6453
 2871SOL     OW20071   4.255   4.052   7.792 -0.2519 -0.3112 -0.2327
 2871SOL    HW120072   4.251   4.136   7.837 -0.4423 -0.1797 -0.4934
 2871SOL    HW220073   4.164   4.022   7.796 -0.7970  1.6094  1.7477
 2872SOL     OW20074   0.422   0.218   5.521  0.3641  0.2752  0.1376
 2872SOL    HW120075   0.367   0.169   5.460  0.6688  0.8864 -0.6291
 2872SOL    HW220076   0.358   0.280   5.556  0.3118  0.6746 -0.6602
 2873SOL     OW20077   1.604   3.937   8.851  0.6416 -0.3165  0.3255
 2873SOL    HW120078   1.594   4.033   8.849  0.3988 -0.3429  0.2858
 2873SOL    HW220079   1.649   3.928   8.767 -1.2211  1.3267 -0.8549
 2874SOL     OW20080   3.917   3.361   3.153  0.2445  0.1787  0.6305
 2874SOL    HW120081   3.938   3.325   3.240  0.4402  1.5203  1.1303
 2874SOL    HW220082   4.000   3.344   3.109 -0.3905  0.6254 -0.7328
 2875SOL     OW20083   1.406   2.462   4.513  0.2000  0.5520  0.0146
 2875SOL    HW120084   1.362   2.483   4.595  2.8216  0.5459  1.4349
 2875SOL    HW220085   1.333   2.436   4.457  0.4398 -2.0190  0.8739
 2876SOL     OW20086   3.022   4.437  17.198  0.0619 -0.3300 -0.9685
 2876SOL    HW120087   3.035   4.494  17.273 -0.6398 -0.3933 -0.8023
 2876SOL    HW220088   2.964   4.488  17.140  1.1217 -0.4803 -2.1716
 2877SOL     OW20089   1.412   3.060  13.656 -0.2487  0.4465  0.5362
 2877SOL    HW120090   1.505   3.078  13.641 -0.7509  1.0857 -1.7469
 2877SOL    HW220091   1.405   3.110  13.737 -0.1704 -1.4505  1.7077
 2878SOL     OW20092   1.627   2.739   0.944 -0.1645 -0.0467 -0.0364
 2878SOL    HW120093   1.665   2.805   1.003 -1.7300  0.2853  0.5959
 2878SOL    HW220094   1.629   2.661   1.000  0.2102 -0.4206 -0.5729
 2879SOL     OW20095   1.606   3.881  15.503  0.1885  0.7008  0.4745
 2879SOL    HW120096   1.588   3.799  15.457  1.7841  0.5305  0.1402
 2879SOL    HW220097   1.667   3.850  15.570  0.1785  0.2974  0.2972
 2880SOL     OW20098   2.714   1.464  14.709  0.1308 -0.2550  1.0436
 2880SOL    HW120099   2.789   1.499  14.756  1.3852 -0.2963 -0.9104
 2880SOL    HW220100   2.653   1.457  14.782  0.8429  2.9983  1.9707
 2881SOL     OW20101   3.930   1.502   6.273  0.3807  0.3859  0.4300
 2881SOL    HW120102   3.905   1.483   6.364  0.0113 -1.3414 -0.0278
 2881SOL    HW220103   4.026   1.497   6.272  0.4227  1.3297 -0.0840
 2882SOL     OW20104   2.017   3.559   3.649 -0.5096 -0.3204 -0.1071
 2882SOL    HW120105   2.111   3.577   3.655 -0.9454  1.4230  1.2278
 2882SOL    HW220106   1.975   3.593   3.727  0.6100  3.0029 -0.9466
 2883SOL     OW20107   1.331   1.198   4.365  0.1118  0.3259  0.1144
 2883SOL    HW120108   1.406   1.155   4.407 -1.3454  0.1139  2.5225
 2883SOL    HW220109   1.320   1.144   4.287 -2.1880  0.0621  0.5990
 2884SOL     OW20110   1.589   0.351   3.165 -0.3816 -0.5433  0.3231
 2884SOL    HW120111   1.580   0.340   3.260  1.9384  0.6096  0.6570
 2884SOL    HW220112   1.618   0.440   3.147 -1.9088 -0.1483 -0.2053
 2885SOL     OW20113   0.474   2.380   8.049  0.2796 -0.1058 -0.3247
 2885SOL    HW120114   0.390   2.386   8.094  0.2236  1.3057 -0.6319
 2885SOL    HW220115   0.469   2.439   7.974  0.0583 -0.6289 -0.7264
 2886SOL     OW20116   2.258   0.248   2.219  0.0473 -0.0379 -0.0976
 2886SOL    HW120117   2.256   0.247   2.315 -3.8703  1.8641 -0.1468
 2886SOL    HW220118   2.282   0.157   2.203  1.3613 -0.2730  3.0494
 2887SOL     OW20119   2.036   4.029   1.826 -0.9896  0.2802 -0.2332
 2887SOL    HW120120   2.054   3.973   1.750  0.0164  0.8900 -0.4506
 2887SOL    HW220121   1.943   4.009   1.821 -1.6125  2.9941  0.7571
 2888SOL     OW20122   4.159   1.591   8.722 -0.4222  0.4248 -0.3167
 2888SOL    HW120123   4.124   1.594   8.811  1.3483  0.8975  0.3569
 2888SOL    HW220124   4.194   1.503   8.711  1.2759  0.9827  0.6269
 2889SOL     OW20125   1.569   2.833   5.248  0.4958  0.6405  0.0440
 2889SOL    HW120126   1.655   2.809   5.214  0.6713 -0.4053  1.1878
 2889SOL    HW220127   1.594   2.916   5.290  0.5549  0.5355  0.2178
 2890SOL     OW20128   2.866   3.775   3.857  0.0538 -0.3929 -0.6317
 2890SOL    HW120129   2.879   3.782   3.763 -0.7029 -0.8921 -0.7699
 2890SOL    HW220130   2.959   3.785   3.881  0.0376 -0.3606 -0.5826
 2891SOL     OW20131   1.095   0.295   7.518 -0.5671  0.3719  0.3168
 2891SOL    HW120132   1.033   0.318   7.448  1.1647  2.7435 -0.4476
 2891SOL    HW220133   1.040   0.325   7.590  0.6331  0.0731  1.3588
 2892SOL     OW20134   3.745   0.756   8.781 -0.1106  0.2135 -0.6661
 2892SOL    HW120135   3.800   0.691   8.736 -0.0741 -0.3605  0.2162
 2892SOL    HW220136   3.655   0.738   8.752 -0.8430  0.4503  1.4677
 2893SOL     OW20137   1.344   4.566   9.441 -0.3141 -0.0578 -0.6872
 2893SOL    HW120138   1.283   4.492   9.440 -1.2307  0.6598  1.2596
 2893SOL    HW220139   1.356   4.583   9.535 -0.1377 -2.1532 -0.3234
 2894SOL     OW20140   3.639   2.843   2.611  0.0480  0.1469 -0.0915
 2894SOL    HW120141   3.576   2.846   2.683  3.1160 -1.8707  2.6617
 2894SOL    HW220142   3.578   2.788   2.562 -0.2578  0.1036  0.3389
 2895SOL     OW20143   3.604   3.843  14.070 -0.1015 -0.2495  0.5496
 2895SOL    HW120144   3.655   3.917  14.037 -0.1471 -1.3829 -2.0119
 2895SOL    HW220145   3.610   3.855  14.165 -0.6928  1.6747  0.3549
 2896SOL     OW20146   1.229   2.495   4.736 -0.0199 -0.3350  0.0846
 2896SOL    HW120147   1.283   2.471   4.810  0.2158 -3.3580 -1.0923
 2896SOL    HW220148   1.179   2.414   4.730  1.3219 -1.1625  0.2408
 2897SOL     OW20149   1.739   0.249  14.228 -0.0076 -0.4248  0.6906
 2897SOL    HW120150   1.648   0.245  14.255  0.0075 -2.3755  0.3942
 2897SOL    HW220151   1.750   0.163  14.187  0.8932 -0.7576  1.6541
 2898SOL     OW20152   0.278   2.731  14.865 -0.3112 -0.2801  0.3813
 2898SOL    HW120153   0.228   2.810  14.886  0.5204  0.6760 -1.2254
 2898SOL    HW220154   0.339   2.728  14.938  1.1351  2.5350 -0.7247
 2899SOL     OW20155   3.206   1.512  17.095 -0.2872 -0.7927  0.3996
 2899SOL    HW120156   3.185   1.446  17.028 -0.0994 -2.2613  1.8026
 2899SOL    HW220157   3.298   1.524  17.071 -0.6969  1.7749  0.0631
 2900SOL     OW20158   1.339   3.331   0.981 -0.3619  0.1350  0.2022
 2900SOL    HW120159   1.266   3.393   0.988  1.0459  1.9953 -1.9539
 2900SOL    HW220160   1.344   3.325   0.886 -0.5658 -1.4301  0.2791
 2901SOL     OW20161   0.120   1.881  16.753  0.0193  0.3222 -0.2460
 2901SOL    HW120162   0.108   1.935  16.674  2.5894  0.5808 -0.4471
 2901SOL    HW220163   0.039   1.897  16.802  1.2364  1.2741  1.4340
 2902SOL     OW20164   0.131   3.282   7.721 -0.0910 -0.1622  0.0186
 2902SOL    HW120165   0.198   3.316   7.661  1.0038 -1.5771  0.4479
 2902SOL    HW220166   0.181   3.257   7.798  1.7126  0.6657 -0.8729
 2903SOL     OW20167   4.676   2.344  11.118 -0.1852 -0.7868 -0.2836
 2903SOL    HW120168   4.715   2.392  11.045  3.7645 -1.4733  1.3856
 2903SOL    HW220169   4.674   2.252  11.092 -0.8420 -0.7667 -0.3146
 2904SOL     OW20170   4.299   2.778   7.977 -0.4836 -0.2421 -0.3505
 2904SOL    HW120171   4.378   2.740   7.938 -0.5128 -1.5542  0.8745
 2904SOL    HW220172   4.322   2.760   8.068 -0.7940  2.0374  0.1545
 2905SOL     OW20173   0.910   2.203   6.493 -0.3117 -0.6867  0.1151
 2905SOL    HW120174   0.871   2.262   6.429  0.9784  1.7612  1.5806
 2905SOL    HW220175   0.886   2.257   6.568 -1.9046  1.2409 -1.8047
 2906SOL     OW20176   4.257   2.154   5.539  0.3350  0.2833 -0.0640
 2906SOL    HW120177   4.340   2.134   5.496  0.2033 -1.6657  0.5884
 2906SOL    HW220178   4.206   2.188   5.465 -0.8459  0.3532  0.7684
 2907SOL     OW20179   4.671   0.695  13.438 -0.2352 -0.0513 -0.0217
 2907SOL    HW120180   4.585   0.736  13.438 -1.6255 -2.9758 -3.7002
 2907SOL    HW220181   4.649   0.611  13.480  2.6435 -0.1908  1.2527
 2908SOL     OW20182   2.902   4.165  15.341 -0.1794 -0.6261  0.4643
 2908SOL    HW120183   2.832   4.211  15.293  0.0614 -0.1317  0.5945
 2908SOL    HW220184   2.962   4.236  15.363 -0.1402 -0.6838  0.5416
 2909SOL     OW20185   1.126   2.774   7.408 -0.2019  0.1430  0.0244
 2909SOL    HW120186   1.048   2.749   7.457 -0.6230  0.1918 -0.6249
 2909SOL    HW220187   1.193   2.710   7.434  0.8556  1.1241 -0.3209
 2910SOL     OW20188   0.041   2.445  15.095  0.1280 -0.2037 -0.6099
 2910SOL    HW120189   0.111   2.440  15.030  0.6277 -0.3091 -0.0520
 2910SOL    HW220190   0.067   2.523  15.144 -0.6457 -0.2558 -0.1118
 2911SOL     OW20191   1.389   3.957  17.271 -0.0870 -0.2706 -0.6556
 2911SOL    HW120192   1.424   4.024  17.213 -2.0067  0.7135 -0.6673
 2911SOL    HW220193   1.421   3.877  17.230 -1.9443 -0.9198 -0.8534
 2912SOL     OW20194   3.369   0.955   1.427  0.0516 -0.1263 -0.9378
 2912SOL    HW120195   3.453   0.967   1.471  0.0207  0.3131 -0.9918
 2912SOL    HW220196   3.383   0.870   1.387 -2.3706 -2.0332  2.3073
 2913SOL     OW20197   3.898   2.066   8.774  0.0594 -0.2487 -0.5320
 2913SOL    HW120198   3.899   2.113   8.857 -0.6207 -2.8311  0.9325
 2913SOL    HW220199   3.816   2.101   8.738  0.6985  0.1263 -1.6093
 2914SOL     OW20200   2.971   0.706  14.359 -0.7243  0.0905  0.2742
 2914SOL    HW120201   3.021   0.631  14.392  1.1863  1.0242 -0.5046
 2914SOL    HW220202   2.984   0.766  14.431 -0.3032 -0.2908  0.5140
 2915SOL     OW20203   4.391   0.970   7.684 -0.7159 -0.3351  0.1304
 2915SOL    HW120204   4.355   0.882   7.689 -1.1856 -0.2994 -2.7595
 2915SOL    HW220205   4.377   1.002   7.595  1.2461  2.9964  0.9659
 2916SOL     OW20206   3.982   0.399  15.011  0.1939  0.1871 -0.1434
 2916SOL    HW120207   3.931   0.477  15.035  0.7185  0.1213  1.1695
 2916SOL    HW220208   3.944   0.345  15.081  0.4050 -0.5457 -0.6005
 2917SOL     OW20209   1.421   2.592  16.983 -0.1714 -0.2342 -0.1676
 2917SOL    HW120210   1.514   2.614  16.982 -0.2744  0.2357  0.6486
 2917SOL    HW220211   1.418   2.526  17.052 -1.5211  0.9127  0.8737
 2918SOL     OW20212   1.786   0.759   2.416 -0.3375  0.1518 -0.1909
 2918SOL    HW120213   1.786   0.762   2.320  2.1121  0.2872 -0.2107
 2918SOL    HW220214   1.695   0.784   2.431 -1.2520 -1.9883 -2.2531
 2919SOL     OW20215   2.796   1.376   8.830 -0.1816 -0.1342 -0.3951
 2919SOL    HW120216   2.788   1.459   8.877 -0.8843 -0.0737 -0.6227
 2919SOL    HW220217   2.887   1.376   8.800  0.5277 -1.5267  1.7590
 2920SOL     OW20218   3.293   0.078   8.432 -0.0131 -0.1815  0.0824
 2920SOL    HW120219   3.282   0.152   8.372 -1.0746 -1.6387 -1.4991
 2920SOL    HW220220   3.353   0.017   8.387 -0.3456 -0.3807 -0.0909
 2921SOL     OW20221   3.899   1.300   4.891 -0.3486  0.2870  0.0905
 2921SOL    HW120222   3.985   1.328   4.923 -0.3776  0.0239  0.3990
 2921SOL    HW220223   3.857   1.264   4.969 -0.6072 -0.9755 -0.6435
 2922SOL     OW20224   0.647   4.586  15.470  0.1106 -0.0894  0.5392
 2922SOL    HW120225   0.666   4.676  15.497  0.3340 -0.7472  2.5250
 2922SOL    HW220226   0.610   4.541  15.545  0.6067  0.3417  1.0426
 2923SOL     OW20227   1.388   1.103  15.992  0.2512  0.2293  0.3498
 2923SOL    HW120228   1.332   1.172  15.956 -0.5985 -2.2019 -3.0324
 2923SOL    HW220229   1.443   1.155  16.050 -1.1019 -0.1812  2.0052
 2924SOL     OW20230   4.630   3.124   2.693 -0.3445 -0.0658 -0.6258
 2924SOL    HW120231   0.001   3.117   2.709 -0.4039  1.1640  0.3005
 2924SOL    HW220232   4.605   3.033   2.705 -1.1447  0.3986  1.3371
 2925SOL     OW20233   4.477   1.467   5.367  0.4997 -0.0674  0.4569
 2925SOL    HW120234   4.495   1.496   5.278  0.6585  3.2942  1.5719
 2925SOL    HW220235   4.545   1.400   5.371 -0.2726 -0.9025 -0.4434
 2926SOL     OW20236   1.204   2.474   6.478  1.2575  0.5530 -0.2198
 2926SOL    HW120237   1.210   2.561   6.438 -1.1873  0.1197 -1.5761
 2926SOL    HW220238   1.232   2.414   6.409 -3.7915 -1.8033 -0.2290
 2927SOL     OW20239   2.953   1.522   3.434 -0.0315 -0.0855 -0.0971
 2927SOL    HW120240   2.945   1.614   3.409  2.5322 -0.2260 -1.4375
 2927SOL    HW220241   2.870   1.499   3.392 -0.8318  2.1136  0.2762
 2928SOL     OW20242   2.769   4.697   8.017  0.6713 -0.0767 -0.1919
 2928SOL    HW120243   2.688   0.024   8.005 -0.6715 -1.9675  1.0746
 2928SOL    HW220244   2.729   4.617   8.050 -0.1078  1.1891  1.8957
 2929SOL     OW20245   4.678   4.665   1.854  0.8863 -0.0558  0.0265
 2929SOL    HW120246   0.016   4.593   1.834 -0.8484 -0.8739 -2.3585
 2929SOL    HW220247   4.618   4.621   1.914  0.8019 -0.0822 -0.0770
 2930SOL     OW20248   3.339   3.142   6.536  0.5135  0.1301  0.1265
 2930SOL    HW120249   3.433   3.143   6.554  0.2401 -0.5618  1.6260
 2930SOL    HW220250   3.319   3.235   6.543 -1.6145 -0.4875  2.3974
 2931SOL     OW20251   3.710   3.326   2.791 -0.0328 -0.5814  0.0319
 2931SOL    HW120252   3.638   3.305   2.731 -1.4442  0.6348  1.3238
 2931SOL    HW220253   3.689   3.287   2.876 -0.2235  0.2134  0.3512
 2932SOL     OW20254   3.751   3.289  11.390  0.2614 -0.8832  0.8578
 2932SOL    HW120255   3.768   3.383  11.402  1.2110 -0.9543  0.1112
 2932SOL    HW220256   3.826   3.261  11.337 -1.3764 -1.1507 -1.3109
 2933SOL     OW20257   1.966   0.924   7.292  0.9028 -0.0317 -0.6972
 2933SOL    HW120258   1.943   0.831   7.296  0.3075  0.1125 -0.8669
 2933SOL    HW220259   2.020   0.946   7.368 -0.4446  1.3234 -0.1418
 2934SOL     OW20260   3.763   4.311   6.605 -0.0803 -0.3907  0.1290
 2934SOL    HW120261   3.727   4.241   6.549  1.3516 -1.5198  0.6140
 2934SOL    HW220262   3.818   4.269   6.671  1.3535 -0.4330 -1.1007
 2935SOL     OW20263   3.280   1.966   1.877  0.2468 -0.6303 -0.7553
 2935SOL    HW120264   3.196   2.009   1.896  1.3917  1.7498 -1.0716
 2935SOL    HW220265   3.269   1.896   1.941  0.7454  1.4987  1.7083
 2936SOL     OW20266   4.615   0.340   7.596  0.1959  0.5017  0.7507
 2936SOL    HW120267   4.674   0.370   7.526 -0.2853  1.7180  0.8549
 2936SOL    HW220268   4.680   0.282   7.634  1.0819 -0.2401 -1.8707
 2937SOL     OW20269   1.180   1.332   7.865  0.4123 -0.0598 -0.2416
 2937SOL    HW120270   1.165   1.254   7.812 -0.0295 -0.5984  0.6794
 2937SOL    HW220271   1.116   1.390   7.824  0.5603  1.4329  1.6420
 2938SOL     OW20272   1.884   0.011   6.660  0.2833 -0.2040  0.0574
 2938SOL    HW120273   1.887   4.649   6.616 -2.5536 -1.1247  1.6628
 2938SOL    HW220274   1.875   4.702   6.749 -1.0592  1.5439  0.5562
 2939SOL     OW20275   3.517   0.334  13.551  0.0483  0.3143  0.0604
 2939SOL    HW120276   3.463   0.257  13.532 -1.6114  1.4242  0.2936
 2939SOL    HW220277   3.610   0.311  13.559 -0.5140 -2.3487 -0.8309
 2940SOL     OW20278   1.144   1.802   5.300 -0.2873  0.3668 -0.3378
 2940SOL    HW120279   1.214   1.737   5.289  0.1692  0.7240  0.4264
 2940SOL    HW220280   1.197   1.883   5.299  2.7228 -1.5866 -0.7762
 2941SOL     OW20281   2.240   0.870   6.025  0.4776 -0.6639  0.3935
 2941SOL    HW120282   2.209   0.793   6.074  1.1870 -0.0606  1.7705
 2941SOL    HW220283   2.326   0.841   5.996  1.2053 -0.2804  2.1435
 2942SOL     OW20284   1.857   0.067  14.536  0.2948  0.1490 -0.3453
 2942SOL    HW120285   1.838   0.158  14.559  1.2339  0.0119  0.9400
 2942SOL    HW220286   1.789   0.060  14.469  0.4960  0.7509 -0.6177
 2943SOL     OW20287   1.354   2.260   3.188  0.1511 -0.0172 -0.3960
 2943SOL    HW120288   1.401   2.230   3.110  1.2446  0.2144  0.1659
 2943SOL    HW220289   1.433   2.301   3.223 -0.7906  1.1495  0.3531
 2944SOL     OW20290   4.546   2.282  13.094 -0.4446 -0.0575  0.0442
 2944SOL    HW120291   4.458   2.245  13.101 -0.5044 -0.1736 -1.2755
 2944SOL    HW220292   4.525   2.374  13.107 -4.1991 -0.8292 -0.4432
 2945SOL     OW20293   4.457   1.485   8.785 -0.2177  0.2818  0.4190
 2945SOL    HW120294   4.363   1.503   8.796  0.2638  0.6900  3.7140
 2945SOL    HW220295   4.488   1.521   8.868 -0.1935  0.3212  0.3923
 2946SOL     OW20296   4.699   2.447   4.648  0.3771 -0.1510 -0.0806
 2946SOL    HW120297   0.026   2.508   4.594 -1.3227  1.3830  0.0984
 2946SOL    HW220298   4.630   2.501   4.685  0.1661 -1.3286  1.2737
 2947SOL     OW20299   0.229   4.418   8.469  0.3418 -0.0018  0.4028
 2947SOL    HW120300   0.222   4.502   8.424  1.9043  0.0759  0.3200
 2947SOL    HW220301   0.304   4.378   8.425  0.3364  1.3696 -0.8510
 2948SOL     OW20302   1.871   0.492   3.107  0.4487  0.3294  0.1060
 2948SOL    HW120303   1.892   0.530   3.022  1.6147 -0.2950  0.1156
 2948SOL    HW220304   1.893   0.402   3.083  1.7064  0.2723  1.4707
 2949SOL     OW20305   0.242   1.210   7.757  0.1000 -0.5248  1.1453
 2949SOL    HW120306   0.318   1.252   7.796  1.4648 -0.1406 -1.9623
 2949SOL    HW220307   0.167   1.238   7.811  1.1582  1.6554  1.5001
 2950SOL     OW20308   3.442   3.237  10.585 -0.9670 -0.5632  0.1418
 2950SOL    HW120309   3.431   3.281  10.501 -4.1896 -1.3761  0.1528
 2950SOL    HW220310   3.511   3.176  10.557  0.8720  0.6042  2.1288
 2951SOL     OW20311   1.278   0.879   3.150  0.0745 -0.4463  0.3282
 2951SOL    HW120312   1.311   0.811   3.209  2.0004  0.8711  0.7843
 2951SOL    HW220313   1.223   0.821   3.097 -0.2813  0.2919 -0.0982
 2952SOL     OW20314   2.242   1.262   4.370  0.2777  0.6802 -0.0249
 2952SOL    HW120315   2.315   1.242   4.428  2.2014  0.7621 -2.3852
 2952SOL    HW220316   2.220   1.182   4.322  1.8911 -0.5637  1.2883
 2953SOL     OW20317   4.637   2.760   3.326 -0.1315  0.4072  0.4426
 2953SOL    HW120318   4.587   2.724   3.252 -0.2375 -0.6321  1.0260
 2953SOL    HW220319   4.658   2.845   3.287  0.8058  0.2524  0.6093
 2954SOL     OW20320   0.335   3.607   4.620  0.3578 -0.7834  0.0872
 2954SOL    HW120321   0.394   3.644   4.685  1.3029 -2.3899  0.1178
 2954SOL    HW220322   0.374   3.520   4.618 -0.0448 -1.0160  2.8254
 2955SOL     OW20323   1.746   3.602   8.692 -0.1919  0.7170 -0.3823
 2955SOL    HW120324   1.703   3.532   8.643  3.3385 -0.0037 -2.4432
 2955SOL    HW220325   1.699   3.682   8.666 -1.2683  0.0176 -0.6065
 2956SOL     OW20326   0.745   0.070   2.439 -0.0663  0.0829 -0.2501
 2956SOL    HW120327   0.804   0.140   2.413  2.0707 -0.9531  1.7427
 2956SOL    HW220328   0.690   0.063   2.361 -1.0936  0.5197  0.4418
 2957SOL     OW20329   1.424   1.534   3.223 -0.4108 -0.3412  0.2287
 2957SOL    HW120330   1.439   1.516   3.130 -1.6338  0.7788 -0.1865
 2957SOL    HW220331   1.368   1.610   3.208 -1.3693 -1.0348  0.2994
 2958SOL     OW20332   4.285   0.909   9.907 -0.1220 -0.4763  0.5943
 2958SOL    HW120333   4.360   0.967   9.917  1.6714 -2.6933 -0.1080
 2958SOL    HW220334   4.213   0.972   9.896  0.4994  0.3289  1.1042
 2959SOL     OW20335   2.503   1.678   2.133 -0.9356 -0.7147 -0.1619
 2959SOL    HW120336   2.551   1.595   2.130  2.0633  1.0606 -1.4780
 2959SOL    HW220337   2.562   1.737   2.179 -1.4033 -0.3799  0.0008
 2960SOL     OW20338   2.010   3.339   2.121 -0.4869  0.1740  0.2495
 2960SOL    HW120339   2.059   3.421   2.107  1.8772 -1.2508  0.1925
 2960SOL    HW220340   2.055   3.277   2.065 -0.7599  0.2548 -0.0606
 2961SOL     OW20341   3.866   2.725   9.006  0.5632 -0.3311  0.0153
 2961SOL    HW120342   3.899   2.813   8.990 -2.6284  0.8721 -0.0608
 2961SOL    HW220343   3.781   2.737   9.049  0.3676 -2.3973  0.2175
 2962SOL     OW20344   0.780   1.421   4.507 -0.0508  0.0731 -0.1910
 2962SOL    HW120345   0.744   1.332   4.508 -1.9783  0.8493 -0.6262
 2962SOL    HW220346   0.736   1.459   4.432 -2.5363  0.5649  1.5077
 2963SOL     OW20347   3.461   2.366  15.463  0.3446  0.1981 -0.0225
 2963SOL    HW120348   3.410   2.439  15.429  0.5828 -0.7868 -2.4552
 2963SOL    HW220349   3.533   2.422  15.491 -1.3495  1.5386  1.6304
 2964SOL     OW20350   3.273   0.558   6.387  0.6426 -0.4204 -0.5766
 2964SOL    HW120351   3.280   0.497   6.461 -0.9497 -0.5932 -0.5787
 2964SOL    HW220352   3.202   0.617   6.412  1.5126  1.4582 -2.4787
 2965SOL     OW20353   3.527   0.218   3.372 -0.3110 -0.2301 -0.0196
 2965SOL    HW120354   3.557   0.197   3.460 -0.6377 -0.8823 -0.0566
 2965SOL    HW220355   3.436   0.232   3.398 -0.5841  1.3327 -1.8019
 2966SOL     OW20356   1.786   3.075  12.424 -0.3173  0.0559 -0.0107
 2966SOL    HW120357   1.808   2.991  12.383  1.4110  1.4915 -2.0211
 2966SOL    HW220358   1.691   3.085  12.411 -0.1150  2.8530  0.7407
 2967SOL     OW20359   3.734   2.031   2.631 -0.3074 -0.4418  0.1576
 2967SOL    HW120360   3.751   2.110   2.579 -0.1341  0.2667  1.2772
 2967SOL    HW220361   3.691   1.969   2.572 -0.4228  2.1161 -2.4468
 2968SOL     OW20362   0.869   1.336  12.307  0.1499 -0.8383 -0.4122
 2968SOL    HW120363   0.918   1.403  12.354 -1.3107 -1.4145  1.9615
 2968SOL    HW220364   0.783   1.329  12.349 -0.0435 -1.1473 -0.8610
 2969SOL     OW20365   4.551   4.581   7.695  0.3816 -0.1378  0.5560
 2969SOL    HW120366   4.545   4.534   7.612 -0.2000 -0.5304  0.8259
 2969SOL    HW220367   4.574   4.667   7.658 -0.3723 -0.8892 -1.6317
 2970SOL     OW20368   4.712   3.609   1.364  0.1700  0.2758 -0.3446
 2970SOL    HW120369   0.031   3.651   1.440  0.5342  0.0984 -0.4515
 2970SOL    HW220370   0.059   3.569   1.313 -0.3965 -0.2792 -0.6784
 2971SOL     OW20371   1.381   1.049  17.429 -0.2529 -0.0437 -0.2059
 2971SOL    HW120372   1.335   1.056  17.513  1.9933 -0.3938  1.0324
 2971SOL    HW220373   1.457   1.102  17.452 -0.5289  0.3776 -0.2734
 2972SOL     OW20374   4.357   1.071   7.432  0.0119 -0.0202  0.0763
 2972SOL    HW120375   4.295   1.077   7.360  0.7077 -1.0608 -0.6155
 2972SOL    HW220376   4.360   1.162   7.462 -1.7692 -0.6335  2.1719
 2973SOL     OW20377   2.067   3.893   5.084  0.2174  0.0525  0.1170
 2973SOL    HW120378   1.994   3.837   5.054 -2.6530  2.0853  3.3784
 2973SOL    HW220379   2.093   3.929   4.999  0.1484  0.6704  0.3546
 2974SOL     OW20380   2.667   0.683   9.529 -0.6530  0.1878 -0.1427
 2974SOL    HW120381   2.628   0.713   9.446  0.9616 -0.5562 -1.1693
 2974SOL    HW220382   2.652   0.589   9.529 -2.1219  0.4202  0.6869
 2975SOL     OW20383   1.343   1.890   5.055  0.8001  0.6132 -0.1274
 2975SOL    HW120384   1.256   1.926   5.035  0.8559  0.2130 -1.0987
 2975SOL    HW220385   1.366   1.945   5.130  2.3903  1.7336 -1.4244
 2976SOL     OW20386   4.232   4.342   3.034  0.2714 -0.1263  0.2775
 2976SOL    HW120387   4.294   4.284   2.989  0.2978 -0.1034  0.2844
 2976SOL    HW220388   4.152   4.318   2.986  0.5022 -3.0208  1.3460
 2977SOL     OW20389   2.803   3.004  15.670 -0.1483  0.7808 -0.4718
 2977SOL    HW120390   2.878   3.006  15.610  0.9327  0.7281  0.8858
 2977SOL    HW220391   2.822   2.923  15.717  0.3140  1.2736  0.1967
 2978SOL     OW20392   4.022   0.623   9.297 -0.6242 -0.1397  0.1816
 2978SOL    HW120393   3.931   0.634   9.323 -0.5289 -0.6471  0.7432
 2978SOL    HW220394   4.021   0.534   9.262  0.2741  0.9036 -2.4991
 2979SOL     OW20395   4.352   1.712  12.089 -0.4812  0.1922 -0.1985
 2979SOL    HW120396   4.429   1.718  12.032 -1.6869 -1.1496 -1.9971
 2979SOL    HW220397   4.317   1.801  12.085  0.7021  0.7334  1.9967
 2980SOL     OW20398   0.589   2.137   4.547  0.3188 -0.3185 -0.1523
 2980SOL    HW120399   0.637   2.081   4.486 -0.2485 -0.9323 -0.0351
 2980SOL    HW220400   0.498   2.109   4.543  1.1746 -3.1527  0.1533
 2981SOL     OW20401   0.171   1.730  16.040  0.5343  0.1974  0.4634
 2981SOL    HW120402   0.124   1.648  16.054 -1.5916  1.4550  0.6556
 2981SOL    HW220403   0.179   1.729  15.945  0.5915 -1.0115  0.4836
 2982SOL     OW20404   3.171   1.622   3.558  0.0293  0.2401 -0.2725
 2982SOL    HW120405   3.194   1.696   3.502 -0.5451  1.0829  0.6247
 2982SOL    HW220406   3.107   1.575   3.504  0.2943 -1.3379  0.8062
 2983SOL     OW20407   1.090   3.058   7.602 -0.4815 -0.0080 -0.6417
 2983SOL    HW120408   1.052   3.007   7.674 -1.2638  0.5445 -0.6729
 2983SOL    HW220409   1.039   3.021   7.530 -0.8801  1.0501 -0.8982
 2984SOL     OW20410   3.254   0.928   7.010  0.0971 -0.1363  0.2046
 2984SOL    HW120411   3.310   0.995   6.971 -0.4641  1.6234  2.4751
 2984SOL    HW220412   3.287   0.848   6.969 -0.5055  0.2126 -0.9576
 2985SOL     OW20413   3.756   2.601  12.985  0.1022  0.4117  0.2957
 2985SOL    HW120414   3.779   2.508  12.988 -1.4199 -0.0955 -2.8696
 2985SOL    HW220415   3.663   2.604  13.009 -0.1213 -0.7766 -0.3858
 2986SOL     OW20416   2.031   2.355   9.154 -0.2453 -0.5346  0.0960
 2986SOL    HW120417   1.937   2.336   9.153 -0.3270 -0.1701  0.9274
 2986SOL    HW220418   2.050   2.327   9.244  0.2919 -0.5235 -0.0140
 2987SOL     OW20419   0.077   3.115   0.162  0.0376  0.1524 -0.3703
 2987SOL    HW120420   0.088   3.134   0.255 -0.6474  2.6810 -0.8188
 2987SOL    HW220421   0.099   3.022   0.164 -2.1774 -0.3526  0.0543
 2988SOL     OW20422   2.012   2.775   2.810 -0.2482  0.1266  0.7871
 2988SOL    HW120423   2.046   2.687   2.822 -2.2965 -1.0255 -1.7528
 2988SOL    HW220424   1.919   2.755   2.820 -0.3367  1.2262  2.0933
 2989SOL     OW20425   1.014   2.538  15.996  0.0106 -0.3591  0.0530
 2989SOL    HW120426   1.082   2.486  15.953 -1.2563 -2.7770  0.9595
 2989SOL    HW220427   0.942   2.498  15.947 -1.1928  1.1360  0.5952
 2990SOL     OW20428   3.245   3.721   1.889  0.2285 -0.1298 -0.0742
 2990SOL    HW120429   3.288   3.729   1.974  1.7729 -3.7557 -0.5095
 2990SOL    HW220430   3.172   3.782   1.901  1.0633  0.5088  1.7058
 2991SOL     OW20431   3.217   1.765   3.286 -0.5434 -0.2856  0.0224
 2991SOL    HW120432   3.173   1.831   3.233  2.4363  1.7471  0.0750
 2991SOL    HW220433   3.253   1.712   3.215  2.1680 -0.6222  1.6175
 2992SOL     OW20434   4.235   1.316   2.244  0.5336 -0.5441  0.7039
 2992SOL    HW120435   4.313   1.284   2.198  0.4917 -0.1253  0.3400
 2992SOL    HW220436   4.277   1.327   2.329 -1.1252  1.4442  1.2643
 2993SOL     OW20437   4.121   2.241   3.762 -0.2643  0.0355 -0.3421
 2993SOL    HW120438   4.028   2.244   3.785 -0.7352  0.2864 -2.2274
 2993SOL    HW220439   4.152   2.322   3.802 -0.3053  2.0251 -4.2599
 2994SOL     OW20440   3.396   4.606  12.941  0.1229  0.0971 -0.0000
 2994SOL    HW120441   3.319   4.566  12.900  0.5089 -0.1758 -0.4566
 2994SOL    HW220442   3.467   4.570  12.888 -0.5527 -2.1780  0.6429
 2995SOL     OW20443   0.609   2.549   0.196  0.0726  0.4253 -0.1100
 2995SOL    HW120444   0.672   2.608   0.155 -0.3533 -2.1138 -4.4461
 2995SOL    HW220445   0.662   2.473   0.221 -1.4454 -1.0633 -1.3685
 2996SOL     OW20446   1.929   2.446  10.326  0.1032  0.2250  0.0681
 2996SOL    HW120447   1.887   2.388  10.263 -1.6312  1.0492  0.4808
 2996SOL    HW220448   1.862   2.442  10.395 -0.0135 -0.3730 -0.0805
 2997SOL     OW20449   4.370   3.825   7.902 -0.4823  0.0770  0.1282
 2997SOL    HW120450   4.336   3.888   7.838 -0.6749 -0.0648  0.0916
 2997SOL    HW220451   4.414   3.753   7.857 -1.6612 -1.0785  0.8434
 2998SOL     OW20452   2.353   2.716   7.584  0.1246  0.5806  0.1253
 2998SOL    HW120453   2.274   2.753   7.624 -0.6738 -0.7400 -0.2055
 2998SOL    HW220454   2.377   2.664   7.661  2.5271  1.1805 -0.2287
 2999SOL     OW20455   0.002   3.823   0.501  0.0603 -0.5703 -0.0959
 2999SOL    HW120456   0.082   3.832   0.449 -0.1414 -1.7804 -0.6242
 2999SOL    HW220457   4.691   3.912   0.502  1.4695 -0.0609  1.3522
 3000SOL     OW20458   3.136   2.743   3.495 -0.1465  0.7147  0.0275
 3000SOL    HW120459   3.174   2.661   3.463 -1.6915 -0.4732  1.2009
 3000SOL    HW220460   3.079   2.764   3.421  0.3376  1.5398 -0.1109
 3001SOL     OW20461   2.976   1.484   8.087 -0.0949 -0.2978  0.4448
 3001SOL    HW120462   2.883   1.505   8.101 -0.2655 -1.6211  1.2386
 3001SOL    HW220463   2.972   1.404   8.036 -0.2161  1.1443 -1.8120
 3002SOL     OW20464   3.903   4.407   4.823  0.2348 -0.6173  0.4758
 3002SOL    HW120465   3.965   4.466   4.866 -1.1418  1.7129 -0.7658
 3002SOL    HW220466   3.884   4.457   4.744  0.9144  1.0959  1.3878
 3003SOL     OW20467   1.925   0.647  16.577  0.4960  0.7604  0.7654
 3003SOL    HW120468   1.906   0.659  16.484 -1.4419  1.5347  1.2690
 3003SOL    HW220469   1.907   0.555  16.594  0.1934  0.6115 -0.3514
 3004SOL     OW20470   2.205   0.159   8.637  0.0649  0.7115  0.6662
 3004SOL    HW120471   2.269   0.158   8.708 -0.0672 -0.8605  0.7492
 3004SOL    HW220472   2.245   0.087   8.588  0.6613  2.0627 -0.8525
 3005SOL     OW20473   1.615   0.000   0.549  0.4515 -0.1776 -0.1309
 3005SOL    HW120474   1.606   4.640   0.503 -1.9462  0.6006 -1.0802
 3005SOL    HW220475   1.583   0.058   0.480  2.4304  0.8204 -0.2108
 3006SOL     OW20476   3.186   2.938   6.672  0.2864  0.3059 -0.4416
 3006SOL    HW120477   3.235   2.971   6.747  2.5873 -0.7723 -1.4483
 3006SOL    HW220478   3.237   2.976   6.600 -1.5571  0.3434 -1.7321
 3007SOL     OW20479   0.108   1.993  13.616  0.5151  0.4903 -0.0260
 3007SOL    HW120480   0.033   2.011  13.673 -1.1307 -3.9285 -0.7842
 3007SOL    HW220481   0.117   2.076  13.569 -0.1829 -1.4219 -3.5850
 3008SOL     OW20482   1.194   1.319   2.752 -0.2601 -0.0900  0.6740
 3008SOL    HW120483   1.253   1.265   2.804  0.5382 -0.0106 -0.1340
 3008SOL    HW220484   1.111   1.308   2.798 -1.0988 -1.1747 -1.0875
 3009SOL     OW20485   0.705   2.459   7.259 -0.6463 -0.0627 -0.5327
 3009SOL    HW120486   0.728   2.417   7.177  0.5399 -1.9962  0.7937
 3009SOL    HW220487   0.657   2.383   7.290 -0.3727 -0.0349 -0.0312
 3010SOL     OW20488   1.164   4.608   3.798  0.3184 -0.2851  0.0889
 3010SOL    HW120489   1.113   4.572   3.870  1.1823  0.0052  0.8466
 3010SOL    HW220490   1.235   4.653   3.844  0.6612  0.7389 -1.4320
 3011SOL     OW20491   4.426   0.734   6.153  0.4153  0.0247  0.4178
 3011SOL    HW120492   4.519   0.732   6.129  0.8210 -0.8170  2.0808
 3011SOL    HW220493   4.435   0.751   6.246  1.4018  0.5159  0.2274
 3012SOL     OW20494   3.649   2.902   7.448 -0.1506  0.3147  0.2314
 3012SOL    HW120495   3.702   2.843   7.500  0.8015  0.8111 -0.1792
 3012SOL    HW220496   3.596   2.836   7.403  0.4717  0.0686 -0.1390
 3013SOL     OW20497   3.235   2.826  14.567 -0.1988  0.2408  0.1810
 3013SOL    HW120498   3.226   2.906  14.619  0.0114  1.1524 -1.1988
 3013SOL    HW220499   3.312   2.859  14.520  0.5541  1.5671  2.3293
 3014SOL     OW20500   0.656   2.962   2.847 -0.5000  0.3766  0.2928
 3014SOL    HW120501   0.649   2.911   2.927 -2.5168 -1.8142 -1.3180
 3014SOL    HW220502   0.563   2.977   2.831 -0.4584  0.8537  0.4732
 3015SOL     OW20503   3.045   2.777   3.996 -0.4604 -0.1420 -0.7929
 3015SOL    HW120504   3.121   2.831   3.977 -1.0512  0.2744 -1.9899
 3015SOL    HW220505   2.991   2.793   3.919  0.1355  1.1689 -0.9358
 3016SOL     OW20506   3.927   2.718  12.017  0.5632 -0.4461 -0.7623
 3016SOL    HW120507   3.993   2.740  11.951 -1.0664  2.0499 -1.5386
 3016SOL    HW220508   3.905   2.627  11.996 -0.6177 -0.3943  0.2708
 3017SOL     OW20509   0.604   1.657  13.903  0.5049  0.0505  0.0959
 3017SOL    HW120510   0.592   1.650  13.997 -0.4256  0.6641  0.0209
 3017SOL    HW220511   0.698   1.641  13.899  0.2206 -1.0186 -2.1995
 3018SOL     OW20512   3.463   1.118   3.542 -0.1046  0.4595 -0.2697
 3018SOL    HW120513   3.492   1.205   3.514 -1.0654  1.9470  3.3153
 3018SOL    HW220514   3.371   1.121   3.567 -0.1255 -2.7059  0.0110
 3019SOL     OW20515   3.045   3.892   7.044  0.7050 -0.0191  0.2490
 3019SOL    HW120516   3.073   3.830   6.977  0.3463 -0.1081  0.1805
 3019SOL    HW220517   3.043   3.975   6.996 -0.5644  0.2294  0.7260
 3020SOL     OW20518   2.586   1.653  12.719 -0.3112  0.2785 -0.0015
 3020SOL    HW120519   2.561   1.590  12.787  0.2029  0.1732  0.0950
 3020SOL    HW220520   2.524   1.723  12.736 -1.5311 -0.4968 -1.2914
 3021SOL     OW20521   3.419   0.052   7.490 -0.3644 -0.1269  0.2861
 3021SOL    HW120522   3.411   0.129   7.547  2.1922 -0.2938  0.8596
 3021SOL    HW220523   3.340   0.007   7.519  0.2041 -3.1565 -2.9122
 3022SOL     OW20524   3.764   0.573   2.613 -0.0259  0.0653 -0.5434
 3022SOL    HW120525   3.734   0.506   2.552 -1.0353 -0.2090  0.2589
 3022SOL    HW220526   3.859   0.570   2.611 -0.0758 -1.7383  0.1579
 3023SOL     OW20527   4.530   1.812   5.865  0.0078 -0.7146  0.2092
 3023SOL    HW120528   4.625   1.820   5.860  0.0842 -1.0572  1.1363
 3023SOL    HW220529   4.502   1.901   5.841 -0.1093 -0.5408  0.9902
 3024SOL     OW20530   2.401   3.752  12.923 -0.1082 -0.6280  0.0821
 3024SOL    HW120531   2.386   3.675  12.979 -2.2333  0.1311  0.5340
 3024SOL    HW220532   2.488   3.778  12.956  1.3307 -0.3563 -3.9994
 3025SOL     OW20533   4.313   2.829  13.531  0.3214  0.2164 -0.6053
 3025SOL    HW120534   4.322   2.924  13.531  2.4132  0.0028 -0.1378
 3025SOL    HW220535   4.218   2.841  13.537  0.2937 -1.3547  1.9598
 3026SOL     OW20536   0.195   3.705   9.041  0.4424 -0.1004  0.1136
 3026SOL    HW120537   0.184   3.703   8.946 -0.4953  1.2071  0.1943
 3026SOL    HW220538   0.254   3.630   9.052 -1.0768 -1.3895 -0.5993
 3027SOL     OW20539   3.058   2.610   0.062 -0.6223 -0.3659 -0.7269
 3027SOL    HW120540   3.036   2.532   0.012  0.9355 -0.4799 -1.2602
 3027SOL    HW220541   3.008   2.672   0.008 -1.8353  0.2806  1.1589
 3028SOL     OW20542   3.570   2.352   3.104 -0.6248  0.1356  0.4718
 3028SOL    HW120543   3.535   2.409   3.035  1.3005 -0.5194 -1.0539
 3028SOL    HW220544   3.619   2.412   3.160 -2.2192  0.2585  1.7464
 3029SOL     OW20545   2.152   3.099   3.813 -0.3445  0.0029  0.2855
 3029SOL    HW120546   2.081   3.045   3.845 -0.6822  0.0493 -0.3792
 3029SOL    HW220547   2.103   3.157   3.754  0.5101  1.2558  0.8055
 3030SOL     OW20548   3.478   1.092  10.746 -0.4657  0.4413  0.0539
 3030SOL    HW120549   3.501   1.108  10.838 -2.0414 -0.9982  0.6978
 3030SOL    HW220550   3.548   1.149  10.716 -0.2269  0.9288  1.5257
 3031SOL     OW20551   1.914   4.605   3.576  0.0301  0.1274  0.3252
 3031SOL    HW120552   1.958   4.520   3.580  1.2704  0.6910 -1.0163
 3031SOL    HW220553   1.985   4.654   3.533 -1.3752  1.7155 -0.2265
 3032SOL     OW20554   4.454   4.011   2.349 -0.0180 -0.5286 -0.5128
 3032SOL    HW120555   4.452   4.046   2.438 -1.1509 -4.0228  0.8499
 3032SOL    HW220556   4.381   3.949   2.348 -1.3978  1.1116 -1.5770
 3033SOL     OW20557   4.082   3.727   6.507  0.3033  0.2371 -0.0742
 3033SOL    HW120558   4.071   3.675   6.428 -1.3977 -1.0084  0.9871
 3033SOL    HW220559   4.056   3.662   6.572 -0.8153 -0.3965 -1.1626
 3034SOL     OW20560   0.119   3.225  12.082 -0.4111 -0.4836  0.1335
 3034SOL    HW120561   0.068   3.248  12.160  0.9257  0.4463  0.7205
 3034SOL    HW220562   0.155   3.313  12.084  0.0029 -0.6935  1.6893
 3035SOL     OW20563   0.679   0.811   5.073  0.6168  0.4916 -0.2306
 3035SOL    HW120564   0.711   0.885   5.022  1.6213 -0.6715 -1.3202
 3035SOL    HW220565   0.761   0.790   5.117 -0.6761  0.8905  2.3425
 3036SOL     OW20566   3.611   4.175   6.816 -0.5593  0.4154 -0.1395
 3036SOL    HW120567   3.649   4.262   6.818 -1.4627  0.7869  0.6911
 3036SOL    HW220568   3.575   4.172   6.727 -0.7435  0.0392 -0.0560
 3037SOL     OW20569   0.195   3.407   9.566  0.1456  0.3275 -0.0372
 3037SOL    HW120570   0.224   3.363   9.486 -2.2566 -1.4358  0.0435
 3037SOL    HW220571   0.137   3.472   9.528  0.3286 -0.2151 -1.2558
 3038SOL     OW20572   4.592   4.721   0.210 -0.7406  0.0248  0.7661
 3038SOL    HW120573   4.571   0.001   0.303  0.3564  1.6422  0.9555
 3038SOL    HW220574   4.530   0.065   0.184 -0.3114 -0.3429 -1.2467
 3039SOL     OW20575   2.651   0.296   3.934  0.1556  0.8136  0.8732
 3039SOL    HW120576   2.744   0.291   3.916 -0.2024  0.1411 -0.7879
 3039SOL    HW220577   2.629   0.355   3.862 -1.6055  1.1862  1.6949
 3040SOL     OW20578   3.517   0.397   8.910  0.6306 -0.1278 -0.1482
 3040SOL    HW120579   3.423   0.415   8.906  0.6440  0.0893  0.5149
 3040SOL    HW220580   3.528   0.372   9.002 -0.0288 -0.3772 -0.1401
 3041SOL     OW20581   4.050   3.970   6.190 -0.2511 -0.0312  0.2082
 3041SOL    HW120582   4.002   4.019   6.257 -1.7801  1.2582 -1.8501
 3041SOL    HW220583   4.126   4.025   6.174 -0.6167 -0.1513 -1.8644
 3042SOL     OW20584   3.274   4.337   1.719  0.1353 -0.3515  0.5783
 3042SOL    HW120585   3.214   4.264   1.734 -0.6388  0.3292  0.7421
 3042SOL    HW220586   3.292   4.368   1.808  0.0438 -0.3379  0.5917
 3043SOL     OW20587   2.705   0.828   3.891  0.2785 -0.4402 -0.0468
 3043SOL    HW120588   2.677   0.872   3.810  1.6847 -1.7736 -1.2470
 3043SOL    HW220589   2.795   0.863   3.889  0.2368 -0.4277 -2.4133
 3044SOL     OW20590   0.525   2.766   2.188  0.3133 -0.4055  0.7250
 3044SOL    HW120591   0.515   2.739   2.096 -0.1379  0.2175  0.5956
 3044SOL    HW220592   0.620   2.763   2.199  0.4948 -0.3736 -0.7833
 3045SOL     OW20593   4.416   0.817   6.884 -0.2120 -0.6981  0.1361
 3045SOL    HW120594   4.390   0.862   6.964 -0.3528 -1.0168  0.2686
 3045SOL    HW220595   4.453   0.733   6.912 -1.4571 -1.0486  0.7395
 3046SOL     OW20596   1.450   3.449   1.236  0.3611  0.1328 -0.1491
 3046SOL    HW120597   1.430   3.530   1.190  0.2379 -0.0146 -0.3534
 3046SOL    HW220598   1.467   3.398   1.157 -1.2908 -0.1333 -0.3398
 3047SOL     OW20599   2.745   1.943   6.290 -0.2118  0.5881 -0.0051
 3047SOL    HW120600   2.754   1.935   6.195 -0.6602 -2.1150  0.1970
 3047SOL    HW220601   2.681   2.014   6.284  0.4136  1.2347  0.9417
 3048SOL     OW20602   2.429   4.388   8.919  0.1160  0.0759 -0.3622
 3048SOL    HW120603   2.424   4.408   8.825  0.5081 -1.4367 -0.7173
 3048SOL    HW220604   2.337   4.379   8.944  0.0263 -1.9677 -1.3753
 3049SOL     OW20605   1.680   1.541  14.553 -0.4286  0.3733 -0.5679
 3049SOL    HW120606   1.629   1.476  14.505  0.7917 -0.7283 -0.3579
 3049SOL    HW220607   1.761   1.552  14.504 -1.1829  0.6861 -1.7410
 3050SOL     OW20608   4.549   2.214  10.346 -0.2650  0.0039  0.3919
 3050SOL    HW120609   4.507   2.300  10.354  0.4393  0.4918 -1.1839
 3050SOL    HW220610   4.571   2.191  10.437 -1.2971 -1.4222  0.2791
 3051SOL     OW20611   1.594   2.798  16.782  0.4503 -0.3017 -0.1531
 3051SOL    HW120612   1.575   2.812  16.875 -1.7358  0.4868 -0.7330
 3051SOL    HW220613   1.623   2.707  16.791  0.3912 -0.5076 -2.0240
 3052SOL     OW20614   1.693   1.798   7.890  0.3202  0.3022 -0.3733
 3052SOL    HW120615   1.700   1.884   7.932  2.3557 -0.6357  1.1699
 3052SOL    HW220616   1.683   1.820   7.797 -0.6310  0.0505 -0.3318
 3053SOL     OW20617   0.838   0.925  17.143 -0.6229 -0.0404  0.3916
 3053SOL    HW120618   0.804   0.996  17.089  0.1380  0.6128  0.7712
 3053SOL    HW220619   0.778   0.853  17.125  1.0890 -1.1349 -0.8738
 3054SOL     OW20620   0.178   1.761   4.857 -0.0398 -0.0480 -0.4135
 3054SOL    HW120621   0.155   1.853   4.842  0.8113  0.2056 -0.1304
 3054SOL    HW220622   0.272   1.747   4.855 -0.0775 -0.3555 -0.0336
 3055SOL     OW20623   3.218   4.392   6.574 -0.0746  0.3881 -0.3096
 3055SOL    HW120624   3.126   4.365   6.568 -0.4257  1.6180 -0.3958
 3055SOL    HW220625   3.205   4.466   6.633 -0.8662 -0.3880  0.4835
 3056SOL     OW20626   3.571   0.549  10.077 -0.3063 -0.3269  0.1777
 3056SOL    HW120627   3.476   0.539  10.082 -0.5391  1.5413 -0.7901
 3056SOL    HW220628   3.597   0.543  10.169 -0.4113  1.6500  0.3303
 3057SOL     OW20629   2.641   0.343   4.747 -0.3565 -0.1058  0.4646
 3057SOL    HW120630   2.674   0.359   4.659 -1.1798  0.8387  0.3168
 3057SOL    HW220631   2.702   0.276   4.778  3.1165  1.8703 -2.1376
 3058SOL     OW20632   2.822   0.785   7.262 -0.5059  0.0497  0.4252
 3058SOL    HW120633   2.904   0.826   7.236 -1.0600  2.0539  1.8798
 3058SOL    HW220634   2.789   0.853   7.320 -1.5709 -0.5114  0.4877
 3059SOL     OW20635   0.332   2.037   4.520 -0.0030  0.1051 -0.3313
 3059SOL    HW120636   0.360   1.999   4.437 -0.5303 -2.4747  0.6846
 3059SOL    HW220637   0.258   2.091   4.493  0.4605 -0.6445 -3.0890
 3060SOL     OW20638   4.389   2.414  13.839 -0.1469 -0.1691  0.4076
 3060SOL    HW120639   4.449   2.353  13.882 -2.0800 -1.4452  1.3061
 3060SOL    HW220640   4.373   2.378  13.751 -0.9988 -1.4097  1.0731
 3061SOL     OW20641   3.997   2.186  15.078  0.7969 -0.3422 -0.3478
 3061SOL    HW120642   4.063   2.174  15.146  1.5596 -0.7687 -1.1744
 3061SOL    HW220643   3.928   2.129  15.113  0.0157  1.6132  1.2731
 3062SOL     OW20644   3.101   4.568   1.973  0.1411 -0.1598  0.1152
 3062SOL    HW120645   3.030   4.522   1.929 -0.4088 -0.3105  1.1379
 3062SOL    HW220646   3.164   4.497   1.987  0.0246 -0.4643 -0.8979
 3063SOL     OW20647   2.745   3.046  13.567  0.2241  0.4977  0.5698
 3063SOL    HW120648   2.671   3.008  13.614  0.1966 -2.5348 -1.8845
 3063SOL    HW220649   2.806   2.973  13.579 -3.0814 -2.4868 -0.8242
 3064SOL     OW20650   1.081   2.847  11.484  0.7240  0.4794  0.5529
 3064SOL    HW120651   0.998   2.893  11.477 -0.2118 -1.2567  0.2118
 3064SOL    HW220652   1.076   2.810  11.572 -3.0816  1.4703  0.7674
 3065SOL     OW20653   0.587   0.953   9.232 -0.3944 -0.2814  0.7791
 3065SOL    HW120654   0.498   0.981   9.211  0.0041 -0.0881 -0.6144
 3065SOL    HW220655   0.641   1.032   9.223  0.0544 -0.9240 -1.9466
 3066SOL     OW20656   2.598   2.638  12.736 -0.0307  0.3413 -0.0761
 3066SOL    HW120657   2.667   2.699  12.762  3.5207 -2.7418 -2.3163
 3066SOL    HW220658   2.525   2.697  12.755 -1.1989 -1.3541  0.7073
 3067SOL     OW20659   1.805   2.985   7.078 -1.1507  0.2059  0.8474
 3067SOL    HW120660   1.748   2.917   7.041 -0.7670 -1.0988  2.6921
 3067SOL    HW220661   1.850   2.928   7.140  0.9492  1.6584  0.6630
 3068SOL     OW20662   3.394   2.055   5.870  0.1446  0.2631 -0.0747
 3068SOL    HW120663   3.429   2.139   5.841  0.6791 -0.0346 -0.2850
 3068SOL    HW220664   3.470   1.999   5.856  1.2618  2.0326 -1.1596
 3069SOL     OW20665   1.817   1.071  16.850  0.6416  0.1336 -0.3238
 3069SOL    HW120666   1.801   1.013  16.775 -3.0755 -0.2984  0.8052
 3069SOL    HW220667   1.730   1.084  16.889  0.7022 -0.1593 -0.0925
 3070SOL     OW20668   0.803   1.231  15.024 -0.0703  0.4667 -0.2863
 3070SOL    HW120669   0.847   1.220  15.109 -1.6910  5.1625  1.1339
 3070SOL    HW220670   0.738   1.161  15.017  0.2004  0.2400 -0.5281
 3071SOL     OW20671   3.095   3.125   8.790 -0.8609 -0.2433  0.3792
 3071SOL    HW120672   3.188   3.148   8.801 -0.2516 -1.8870 -1.3047
 3071SOL    HW220673   3.106   3.033   8.764  0.8934 -0.0937  0.5857
 3072SOL     OW20674   1.327   0.510   4.419 -0.4561 -0.1668 -0.1766
 3072SOL    HW120675   1.382   0.498   4.496 -1.5239 -0.0251  0.6060
 3072SOL    HW220676   1.257   0.569   4.448  0.7953  1.8135 -1.1701
 3073SOL     OW20677   2.198   0.746   5.440 -0.2657  0.0213  1.1679
 3073SOL    HW120678   2.284   0.787   5.449 -0.2599  0.5649 -1.4007
 3073SOL    HW220679   2.213   0.653   5.421  0.0368 -0.2604  2.8261
 3074SOL     OW20680   0.859   1.871   1.015 -0.1136  0.2470 -0.3676
 3074SOL    HW120681   0.805   1.813   1.069  2.0440  0.0177  1.5705
 3074SOL    HW220682   0.845   1.829   0.931 -0.2053 -0.0705 -0.1930
 3075SOL     OW20683   3.988   0.077   4.361  0.1684 -0.1633  0.3897
 3075SOL    HW120684   4.071   0.074   4.410  0.1862  2.2827  0.5141
 3075SOL    HW220685   3.989   4.719   4.311  2.0160  0.2278 -0.1964
 3076SOL     OW20686   4.271   0.209   2.607 -0.4299  0.0107  0.0441
 3076SOL    HW120687   4.230   0.239   2.525  0.7236 -0.6577 -0.7791
 3076SOL    HW220688   4.205   0.227   2.674 -0.5738 -1.6162  0.3320
 3077SOL     OW20689   2.501   3.229   6.747 -0.5383 -0.1243  0.2083
 3077SOL    HW120690   2.497   3.322   6.768  0.5387  0.0596 -0.3803
 3077SOL    HW220691   2.594   3.209   6.748  0.1680  3.4167  2.7071
 3078SOL     OW20692   0.666   3.712   5.192 -0.4306  0.6226  0.6498
 3078SOL    HW120693   0.733   3.776   5.216 -1.5751  1.7750  0.7177
 3078SOL    HW220694   0.716   3.662   5.127 -2.6684 -0.5206 -0.1817
 3079SOL     OW20695   1.406   3.554   8.783  0.0272 -0.4411  0.0660
 3079SOL    HW120696   1.448   3.566   8.698 -0.0639 -2.9556 -0.3272
 3079SOL    HW220697   1.396   3.649   8.791  3.9704 -0.0017  0.0514
 3080SOL     OW20698   0.181   2.792  13.916 -0.1509 -0.0475  0.6524
 3080SOL    HW120699   0.095   2.752  13.901 -0.2134  0.6892 -0.9806
 3080SOL    HW220700   0.235   2.747  13.851  1.5231  0.0373  1.9994
 3081SOL     OW20701   2.191   0.742   2.875  0.1004 -0.3862  0.5536
 3081SOL    HW120702   2.217   0.797   2.948 -1.3405  1.5137 -0.3620
 3081SOL    HW220703   2.103   0.711   2.897 -0.6567  1.3384  0.0041
 3082SOL     OW20704   0.259   0.322   2.348  0.3280  0.7753 -1.0446
 3082SOL    HW120705   0.285   0.270   2.272  1.5774  0.6286 -0.5224
 3082SOL    HW220706   0.214   0.264   2.410  3.9564  2.3080  3.0907
 3083SOL     OW20707   2.277   2.954   7.041  0.6482 -0.1151  0.7727
 3083SOL    HW120708   2.349   2.902   7.078  1.4019  0.4397  0.0836
 3083SOL    HW220709   2.224   2.902   6.980 -0.0698  1.4494  0.0798
 3084SOL     OW20710   0.646   1.405   5.599 -0.4946 -0.2300 -0.0510
 3084SOL    HW120711   0.652   1.354   5.680  0.1147 -0.5792 -0.3125
 3084SOL    HW220712   0.739   1.413   5.578  0.3254 -2.9092  2.6328
 3085SOL     OW20713   1.425   2.799   5.515 -0.7946 -0.0434 -0.0144
 3085SOL    HW120714   1.486   2.794   5.441 -0.9902 -1.9084 -0.0592
 3085SOL    HW220715   1.484   2.791   5.590 -0.9950  0.3029  0.1770
 3086SOL     OW20716   4.449   4.409   8.110  0.4670 -0.4576  0.3339
 3086SOL    HW120717   4.471   4.497   8.078  2.3374 -0.6091  1.2276
 3086SOL    HW220718   4.395   4.422   8.188 -0.5870  0.5820 -0.5579
 3087SOL     OW20719   2.945   1.583  10.182 -0.2482  0.7398  0.4281
 3087SOL    HW120720   2.921   1.645  10.113  2.5621  0.6424 -0.6404
 3087SOL    HW220721   2.915   1.500  10.145 -2.4651  2.1750 -0.9967
 3088SOL     OW20722   3.848   2.931   3.853  0.3181 -0.0109 -0.1500
 3088SOL    HW120723   3.803   2.853   3.885 -0.8094  0.4029 -0.7207
 3088SOL    HW220724   3.899   2.960   3.929  0.1177  0.4661 -0.1945
 3089SOL     OW20725   0.825   2.600  11.015  0.1624  0.1667  0.5966
 3089SOL    HW120726   0.861   2.678  10.974  0.6691 -0.7925 -0.7915
 3089SOL    HW220727   0.832   2.626  11.107 -0.0666  0.1176  0.6268
 3090SOL     OW20728   2.069   0.873   2.647 -0.0265 -0.3116 -0.1613
 3090SOL    HW120729   2.012   0.797   2.631 -1.0448  1.2109 -3.6592
 3090SOL    HW220730   2.075   0.856   2.741 -1.1720  1.3880  0.2316
 3091SOL     OW20731   2.781   1.159   8.648 -0.0198  0.2262 -0.4228
 3091SOL    HW120732   2.700   1.108   8.654 -1.8017  3.0364 -0.7699
 3091SOL    HW220733   2.779   1.214   8.726 -1.0495  1.2856 -1.1888
 3092SOL     OW20734   4.411   1.525   2.699 -0.1609  0.1865  0.2733
 3092SOL    HW120735   4.433   1.515   2.791  0.5022 -1.3465 -0.0584
 3092SOL    HW220736   4.464   1.602   2.679 -1.2492  1.0522  0.6779
 3093SOL     OW20737   2.567   3.790   6.334  0.2469 -0.0662  0.0803
 3093SOL    HW120738   2.563   3.841   6.254  0.4643  0.8677  0.6632
 3093SOL    HW220739   2.557   3.856   6.402  1.5270  1.8282 -1.5771
 3094SOL     OW20740   2.372   2.809   6.130  0.0665 -0.3984  0.6545
 3094SOL    HW120741   2.460   2.807   6.167  0.9798 -0.8581 -1.5567
 3094SOL    HW220742   2.326   2.873   6.185 -0.6516 -0.5800  0.2709
 3095SOL     OW20743   1.582   4.089  14.435  0.7426 -0.1811 -0.1894
 3095SOL    HW120744   1.632   4.168  14.453 -1.0477  0.9742 -0.2001
 3095SOL    HW220745   1.621   4.052  14.356  0.9243  0.2268 -0.2921
 3096SOL     OW20746   0.407   2.861   9.410 -0.0988 -0.0599 -0.1832
 3096SOL    HW120747   0.432   2.927   9.345  1.4618  1.5441  2.0345
 3096SOL    HW220748   0.485   2.834   9.459  0.0966 -0.9185 -0.9823
 3097SOL     OW20749   1.232   4.593   5.468  0.0403 -0.0992 -0.2804
 3097SOL    HW120750   1.188   4.508   5.461  0.8475 -0.5876  0.6840
 3097SOL    HW220751   1.284   4.574   5.546  0.0584 -2.1800 -0.8003
 3098SOL     OW20752   4.348   3.822   2.046  0.0823  0.0546 -0.3724
 3098SOL    HW120753   4.285   3.892   2.068  0.2604  0.1446 -0.1527
 3098SOL    HW220754   4.305   3.743   2.076 -1.9894  0.8256 -1.2913
 3099SOL     OW20755   4.073   4.321   9.334 -0.3398  0.1948 -0.0263
 3099SOL    HW120756   4.060   4.351   9.244 -2.0271 -0.7079 -0.0795
 3099SOL    HW220757   3.983   4.315   9.367 -1.2034 -1.9118 -2.8383
 3100SOL     OW20758   2.775   2.661   5.605  0.2219 -0.0886 -0.6044
 3100SOL    HW120759   2.844   2.700   5.551  1.1969 -1.3155 -0.2420
 3100SOL    HW220760   2.707   2.727   5.591  0.4510  0.2060 -0.3242
 3101SOL     OW20761   1.530   4.719   1.829  0.4055  0.0284  0.5914
 3101SOL    HW120762   1.611   4.721   1.881  0.9817  0.9282 -0.3565
 3101SOL    HW220763   1.538   4.626   1.810 -1.0462 -0.0598  0.4046
 3102SOL     OW20764   2.573   0.860  12.835 -0.1821  0.6892  0.4286
 3102SOL    HW120765   2.569   0.891  12.744  0.7480  0.2304  0.2286
 3102SOL    HW220766   2.502   0.796  12.824  0.4586  0.1359 -0.4887
 3103SOL     OW20767   2.999   1.809  16.355 -0.1133  0.1569  0.2742
 3103SOL    HW120768   3.092   1.798  16.334  0.0394  2.3689 -0.1863
 3103SOL    HW220769   2.989   1.804  16.450  1.8610  0.7759  0.5129
 3104SOL     OW20770   0.886   2.430  14.845 -0.2755 -0.4323 -0.3633
 3104SOL    HW120771   0.849   2.358  14.793 -1.4608  0.1653 -0.3517
 3104SOL    HW220772   0.975   2.400  14.862 -0.6764 -2.2751 -1.5008
 3105SOL     OW20773   4.346   2.643   3.362  0.2126 -0.1767  0.4096
 3105SOL    HW120774   4.370   2.553   3.339  1.4617  0.4525 -0.7477
 3105SOL    HW220775   4.257   2.616   3.386  0.6366 -1.3140  0.6878
 3106SOL     OW20776   2.598   0.218   5.819 -0.0207 -0.5663 -0.0214
 3106SOL    HW120777   2.587   0.155   5.890 -1.1182  2.1389  2.2362
 3106SOL    HW220778   2.681   0.264   5.830 -0.3184  0.1624 -0.8292
 3107SOL     OW20779   3.173   3.709   2.920  0.1463  0.4566  0.1595
 3107SOL    HW120780   3.139   3.621   2.907 -1.0994  0.9211  0.3006
 3107SOL    HW220781   3.199   3.727   2.829 -0.5691 -1.2842 -0.3802
 3108SOL     OW20782   1.688   2.215   6.919  0.3670 -0.4210  0.5216
 3108SOL    HW120783   1.594   2.231   6.908  0.7502  2.0003  0.7743
 3108SOL    HW220784   1.722   2.301   6.897  0.6031 -1.0828 -1.6604
 3109SOL     OW20785   4.096   2.832  11.339  0.4467 -0.3710 -0.1324
 3109SOL    HW120786   4.165   2.874  11.390  1.3715  0.1465 -1.8134
 3109SOL    HW220787   4.144   2.815  11.259  1.0790 -1.1192  0.4120
 3110SOL     OW20788   4.422   4.171   2.910 -0.5962 -0.1019  0.1538
 3110SOL    HW120789   4.483   4.245   2.914 -1.1463  0.2757  1.7463
 3110SOL    HW220790   4.411   4.156   2.816  2.1404  0.7089 -0.2942
 3111SOL     OW20791   1.983   1.297   6.290 -0.0039 -0.2228 -0.0693
 3111SOL    HW120792   1.995   1.391   6.278 -0.7587 -0.3236 -1.6373
 3111SOL    HW220793   2.070   1.261   6.273 -1.2267 -3.1241 -0.1413
 3112SOL     OW20794   0.867   2.633   7.400 -0.0825 -0.1212 -0.2420
 3112SOL    HW120795   0.820   2.551   7.385 -1.3462  0.4243  0.6818
 3112SOL    HW220796   0.850   2.678   7.317  0.4442  0.3495 -0.0936
 3113SOL     OW20797   2.950   0.643   6.569 -0.1222  0.4885  0.0640
 3113SOL    HW120798   2.975   0.558   6.606  0.2086  0.6118  0.1224
 3113SOL    HW220799   2.860   0.663   6.598  0.8506  1.8677  2.1624
 3114SOL     OW20800   2.327   1.512  14.921 -0.0757  0.0204 -0.3676
 3114SOL    HW120801   2.323   1.512  14.826 -0.4041  1.0068 -0.3572
 3114SOL    HW220802   2.232   1.509  14.934  0.0181  1.8017  0.6930
 3115SOL     OW20803   0.840   3.289   4.867 -0.1145 -0.3717 -0.1793
 3115SOL    HW120804   0.936   3.294   4.858  0.0690 -2.4242  0.7180
 3115SOL    HW220805   0.829   3.197   4.890 -0.9398 -0.9055 -2.7462
 3116SOL     OW20806   0.530   4.292  12.161  0.1247  0.0313 -0.2991
 3116SOL    HW120807   0.523   4.362  12.225  1.0305  1.1782 -1.4369
 3116SOL    HW220808   0.551   4.349  12.086 -1.2110  0.0551 -0.6420
 3117SOL     OW20809   3.510   4.460   6.524  0.2145  0.3882  0.4794
 3117SOL    HW120810   3.459   4.453   6.605  0.0345 -0.7164  0.2712
 3117SOL    HW220811   3.601   4.450   6.553  0.7743 -0.2651 -1.5597
 3118SOL     OW20812   2.556   1.315  11.070 -0.3026 -0.3548 -0.0040
 3118SOL    HW120813   2.650   1.337  11.066 -0.0628 -1.3848 -0.0748
 3118SOL    HW220814   2.524   1.403  11.050 -2.5718 -0.7738  1.8911
 3119SOL     OW20815   4.490   1.678   8.049  0.5190 -0.3055  0.2037
 3119SOL    HW120816   4.490   1.772   8.033 -2.4146 -0.3179  0.1026
 3119SOL    HW220817   4.409   1.672   8.100  1.8142  2.4446  2.5507
 3120SOL     OW20818   0.178   2.699   1.701 -0.7739  0.5017  0.2626
 3120SOL    HW120819   0.252   2.645   1.728 -0.5809  0.3654 -0.5462
 3120SOL    HW220820   0.128   2.707   1.782 -2.2263  0.3507 -0.6105
 3121SOL     OW20821   4.143   1.397   2.729  0.3239 -0.4257 -0.0137
 3121SOL    HW120822   4.138   1.371   2.821 -0.5970 -0.5107 -0.0938
 3121SOL    HW220823   4.156   1.492   2.736  0.6057 -0.3127 -2.1288
 3122SOL     OW20824   0.906   4.238   0.868  0.4679 -0.0610  0.2347
 3122SOL    HW120825   0.814   4.256   0.884 -0.2713 -2.9958 -0.6592
 3122SOL    HW220826   0.929   4.198   0.952  2.0344 -3.1688 -1.6504
 3123SOL     OW20827   0.384   1.320   8.398 -0.4655 -0.1234  0.2211
 3123SOL    HW120828   0.428   1.405   8.401  0.1131 -0.3954 -1.0930
 3123SOL    HW220829   0.314   1.329   8.464 -1.2935 -2.3390 -0.3704
 3124SOL     OW20830   0.921   3.025  16.087  0.4465  0.2584 -0.4315
 3124SOL    HW120831   0.922   3.027  15.992  0.6405 -0.0024 -0.4349
 3124SOL    HW220832   0.895   2.935  16.108 -0.2243  0.7536  0.8800
 3125SOL     OW20833   4.064   3.491  16.906 -0.3121 -0.0168  0.0634
 3125SOL    HW120834   4.098   3.534  16.985 -0.6979  2.9318 -1.3599
 3125SOL    HW220835   3.982   3.540  16.899  0.2939  1.1854  1.2172
 3126SOL     OW20836   0.253   3.687   6.952 -0.3469  0.2396  0.4732
 3126SOL    HW120837   0.298   3.683   7.036 -0.0092  0.5199  0.3069
 3126SOL    HW220838   0.284   3.607   6.910 -0.0450  0.2165  0.7375
 3127SOL     OW20839   3.706   2.241   3.542 -0.1729 -0.2702  0.2908
 3127SOL    HW120840   3.682   2.282   3.625  2.4952  1.1499  0.3625
 3127SOL    HW220841   3.654   2.161   3.535  0.6360 -0.7412 -0.2186
 3128SOL     OW20842   2.537   1.931   8.881 -0.1877 -0.2818 -0.9212
 3128SOL    HW120843   2.591   1.871   8.830  0.5944 -0.3993  0.0331
 3128SOL    HW220844   2.526   1.888   8.966  2.3724 -3.3663 -2.1631
 3129SOL     OW20845   4.456   0.745  12.771 -0.3894 -0.0136  0.1891
 3129SOL    HW120846   4.484   0.713  12.857  0.3175  0.1089  0.0026
 3129SOL    HW220847   4.505   0.826  12.767 -1.2139  0.4828  0.1485
 3130SOL     OW20848   2.889   4.542  16.980 -0.1841 -0.3433  0.3433
 3130SOL    HW120849   2.936   4.625  16.974 -2.1515  1.0385  3.5520
 3130SOL    HW220850   2.807   4.562  16.934  0.4843  0.8297 -0.3132
 3131SOL     OW20851   1.378   3.944  14.379  0.1199 -0.5469  0.0166
 3131SOL    HW120852   1.452   3.995  14.410  0.3565 -0.1056 -1.2844
 3131SOL    HW220853   1.406   3.937  14.287 -1.6655 -1.0795 -0.4982
 3132SOL     OW20854   1.989   3.152   3.046 -0.2770  0.5969 -0.0138
 3132SOL    HW120855   2.057   3.087   3.029  0.1990  0.8298  0.9907
 3132SOL    HW220856   2.006   3.162   3.140 -1.1939  1.6419  0.0446
 3133SOL     OW20857   1.592   0.226  12.098 -0.2695 -0.6118  0.4190
 3133SOL    HW120858   1.638   0.176  12.032 -1.6368 -1.9218  0.4395
 3133SOL    HW220859   1.505   0.214  12.060 -0.1956  2.3893 -0.6929
 3134SOL     OW20860   2.458   0.571  12.648  0.3053 -0.5431 -0.5700
 3134SOL    HW120861   2.497   0.543  12.731  1.6167  1.1899 -0.5919
 3134SOL    HW220862   2.375   0.614  12.668  0.3351 -1.5038  1.5932
 3135SOL     OW20863   4.607   3.601  16.321 -0.6851 -0.2576 -0.0083
 3135SOL    HW120864   4.645   3.641  16.243  1.4798 -2.2384  0.0219
 3135SOL    HW220865   4.681   3.592  16.382 -1.9384 -2.2106  1.2457
 3136SOL     OW20866   2.052   0.641   0.233  0.0179  0.1049 -0.0885
 3136SOL    HW120867   2.068   0.714   0.293  0.0799  0.0652 -0.0571
 3136SOL    HW220868   2.138   0.609   0.208  0.4092  0.7137  0.4675
 3137SOL     OW20869   2.043   1.133  12.541  0.0872 -0.1295 -0.1352
 3137SOL    HW120870   2.018   1.174  12.624 -0.6878 -3.3744  1.2324
 3137SOL    HW220871   1.973   1.067  12.538  0.3473 -0.3944 -0.3797
 3138SOL     OW20872   0.882   2.968   1.566 -0.1010 -0.1751 -0.5181
 3138SOL    HW120873   0.970   2.930   1.555 -0.0535  0.0299 -0.8374
 3138SOL    HW220874   0.857   2.977   1.474  0.7341  3.7835 -0.3561
 3139SOL     OW20875   2.752   3.019   6.803  0.0416  0.2627  0.0766
 3139SOL    HW120876   2.792   3.054   6.882 -0.5810  1.2714 -0.0499
 3139SOL    HW220877   2.689   2.960   6.842  1.5865 -0.7063  1.1172
 3140SOL     OW20878   4.634   4.456   4.034 -0.0815 -0.2666 -0.4536
 3140SOL    HW120879   4.677   4.372   4.015 -3.3174 -1.7403 -1.2508
 3140SOL    HW220880   4.660   4.513   3.962 -0.3860  2.1824  1.3612
 3141SOL     OW20881   4.319   0.921   4.478  0.1669 -0.1454 -0.0268
 3141SOL    HW120882   4.323   0.962   4.391 -0.2168 -0.0373  0.0091
 3141SOL    HW220883   4.410   0.932   4.507  0.6589 -0.3202 -1.4748
 3142SOL     OW20884   1.468   4.382   8.568  0.0144  0.5527 -0.0140
 3142SOL    HW120885   1.419   4.353   8.645 -0.4207  0.2724 -0.3908
 3142SOL    HW220886   1.439   4.319   8.501  3.0364  0.1473 -0.9317
 3143SOL     OW20887   2.160   0.056  15.899  0.3696 -0.0100 -0.1703
 3143SOL    HW120888   2.158   4.692  15.938 -2.7397  0.5922  0.9856
 3143SOL    HW220889   2.175   0.036  15.806  0.3037 -1.6272  0.1718
 3144SOL     OW20890   2.431   1.235   9.991 -0.2678 -0.6456 -0.4412
 3144SOL    HW120891   2.519   1.207  10.017  0.0246 -0.0799 -0.8381
 3144SOL    HW220892   2.394   1.272  10.071  0.3369 -2.0995  0.5346
 3145SOL     OW20893   3.347   1.174   6.503  0.1992 -0.2953  0.2830
 3145SOL    HW120894   3.299   1.189   6.422 -0.5999 -3.7988  0.1227
 3145SOL    HW220895   3.343   1.260   6.545 -1.0341  1.1197 -2.7245
 3146SOL     OW20896   0.306   4.245   9.472  0.1850 -0.6334  0.2228
 3146SOL    HW120897   0.274   4.155   9.474  1.3114 -1.0197  1.3572
 3146SOL    HW220898   0.310   4.248   9.376 -1.4981 -0.4918  0.1682
 3147SOL     OW20899   2.013   4.142   5.503  0.5731 -0.1367 -0.3102
 3147SOL    HW120900   2.096   4.129   5.456 -0.5707  2.9528 -3.1527
 3147SOL    HW220901   1.959   4.171   5.429 -1.3672  1.2573  1.6849
 3148SOL     OW20902   2.700   3.419  10.369 -0.3657  0.3938 -1.1102
 3148SOL    HW120903   2.614   3.428  10.327 -0.4750  1.2023 -0.6919
 3148SOL    HW220904   2.761   3.421  10.296  0.6207  1.5201 -0.2438
 3149SOL     OW20905   0.510   1.866   2.379  0.1674  0.1975 -0.1026
 3149SOL    HW120906   0.450   1.938   2.360 -0.8789 -1.2881 -2.3637
 3149SOL    HW220907   0.455   1.810   2.435  0.9235 -0.4161  0.0289
 3150SOL     OW20908   0.147   1.720   3.905  0.0762  0.5220 -0.4309
 3150SOL    HW120909   0.116   1.723   3.996  0.5286 -1.1403 -0.2209
 3150SOL    HW220910   0.091   1.778   3.853 -0.7679  1.0644  1.0752
 3151SOL     OW20911   2.324   1.805   9.175 -0.2096 -0.1325 -0.2112
 3151SOL    HW120912   2.303   1.798   9.268 -0.9552  1.0027 -0.2930
 3151SOL    HW220913   2.398   1.745   9.165  0.0712  0.0338  0.9233
 3152SOL     OW20914   4.437   4.382   8.548  1.0257 -0.8102 -0.1557
 3152SOL    HW120915   4.531   4.394   8.557  0.7709  0.9196  0.2072
 3152SOL    HW220916   4.409   4.347   8.633 -0.1616 -1.9722 -1.0307
 3153SOL     OW20917   1.025   0.847   6.799  0.2326  0.1522  0.2607
 3153SOL    HW120918   1.031   0.763   6.844  2.0783  0.4563  0.5507
 3153SOL    HW220919   1.021   0.821   6.707  1.6105  1.3623 -0.1389
 3154SOL     OW20920   2.748   3.899  13.759 -0.5254 -0.1524  0.2485
 3154SOL    HW120921   2.715   3.967  13.701 -1.3463  0.1341  1.0512
 3154SOL    HW220922   2.693   3.902  13.838 -0.3054 -2.0740  0.4639
 3155SOL     OW20923   3.484   1.148   7.097 -0.1189  0.1687  0.3285
 3155SOL    HW120924   3.492   1.184   7.008 -0.0317 -2.2622 -0.6521
 3155SOL    HW220925   3.569   1.171   7.133 -0.7106 -0.1908  1.9340
 3156SOL     OW20926   0.247   1.853   5.226  0.0299 -0.2737  0.5898
 3156SOL    HW120927   0.276   1.778   5.175  0.8710 -0.3457  1.1803
 3156SOL    HW220928   0.156   1.827   5.240 -0.7219  2.1853  0.2587
 3157SOL     OW20929   0.883   3.232   5.758  0.2669 -0.0606  0.2257
 3157SOL    HW120930   0.886   3.325   5.736  1.5371 -0.0726  0.3614
 3157SOL    HW220931   0.835   3.204   5.680  0.3323  2.5213 -0.7618
 3158SOL     OW20932   2.366   3.294   2.244 -0.0910 -0.4523  0.1102
 3158SOL    HW120933   2.437   3.276   2.183  0.5288  0.8080  0.4585
 3158SOL    HW220934   2.390   3.386   2.251 -1.8856  0.0651 -0.7225
 3159SOL     OW20935   2.616   4.319   2.963  0.0268  0.1395  0.1301
 3159SOL    HW120936   2.566   4.250   2.919  1.3113 -0.5067 -0.3460
 3159SOL    HW220937   2.705   4.288   2.945 -0.2968  0.3386 -1.8047
 3160SOL     OW20938   1.950   2.881   9.285 -0.1924  0.1651  0.9262
 3160SOL    HW120939   1.859   2.850   9.283 -0.3500  0.6979 -0.4418
 3160SOL    HW220940   1.947   2.916   9.196 -0.7665 -0.0549  0.8597
 3161SOL     OW20941   1.700   2.341   5.017 -0.1179 -0.0433  0.0345
 3161SOL    HW120942   1.720   2.332   4.924 -1.4479 -2.3953 -0.0188
 3161SOL    HW220943   1.654   2.425   5.023  1.2565  0.6036  1.6554
 3162SOL     OW20944   1.974   0.199  12.228  0.5422 -0.1722 -0.1691
 3162SOL    HW120945   1.964   0.222  12.135  0.3129  3.5476  0.7692
 3162SOL    HW220946   1.892   0.243  12.251  0.7071  0.9865 -1.7734
 3163SOL     OW20947   2.548   3.080  15.743 -0.6008 -0.3266  0.0560
 3163SOL    HW120948   2.510   2.992  15.743 -0.8955 -0.2023  1.0584
 3163SOL    HW220949   2.634   3.051  15.712 -1.3602 -2.0620 -0.4294
 3164SOL     OW20950   3.543   2.300   4.082  0.1348 -0.0330 -0.0062
 3164SOL    HW120951   3.559   2.393   4.100  0.3116 -0.0247 -0.2002
 3164SOL    HW220952   3.449   2.316   4.073  0.1464  0.5283  0.8891
 3165SOL     OW20953   2.646   4.631  12.915  0.6051 -0.0666  0.1862
 3165SOL    HW120954   2.687   4.704  12.868  0.0606 -0.6968 -1.2501
 3165SOL    HW220955   2.701   4.623  12.993 -1.2314  3.1115  1.8182
 3166SOL     OW20956   1.073   2.423   3.859 -0.0172 -0.2478 -0.0779
 3166SOL    HW120957   1.083   2.504   3.809  0.3034  0.8322  1.7401
 3166SOL    HW220958   1.009   2.381   3.801  0.2509  0.0699 -0.6067
 3167SOL     OW20959   1.689   3.369   3.440 -0.3706  0.3799 -0.2846
 3167SOL    HW120960   1.745   3.316   3.497 -0.3331  0.4041 -0.2990
 3167SOL    HW220961   1.746   3.443   3.421 -1.1197  0.9515 -0.2952
 3168SOL     OW20962   2.125   0.949  12.822 -0.1588  0.5885 -0.0418
 3168SOL    HW120963   2.046   0.895  12.819 -0.2770  0.4829  5.0724
 3168SOL    HW220964   2.112   1.017  12.888  1.9259 -0.0350  0.9978
 3169SOL     OW20965   4.283   2.904   7.614  0.7964 -0.5691 -0.3890
 3169SOL    HW120966   4.337   2.872   7.542  1.4005  1.0123 -0.6300
 3169SOL    HW220967   4.254   2.824   7.658 -0.4136  0.4787  0.7188
 3170SOL     OW20968   0.044   3.336   5.453 -0.5791  0.0684 -0.6360
 3170SOL    HW120969   0.079   3.412   5.406 -0.6901  0.7126  0.3269
 3170SOL    HW220970   0.039   3.362   5.545  0.6688 -1.3070 -0.1710
 3171SOL     OW20971   1.020   2.237  15.175  0.2863  0.3453  0.3713
 3171SOL    HW120972   1.026   2.174  15.103 -1.0729 -0.4515  0.9604
 3171SOL    HW220973   1.106   2.229  15.216  0.1517  1.8706  0.9368
 3172SOL     OW20974   0.936   2.274   2.930 -0.1474 -0.2136 -0.6036
 3172SOL    HW120975   0.849   2.265   2.892  0.1935 -0.0673 -1.4246
 3172SOL    HW220976   0.988   2.271   2.850  1.2725 -0.6683  0.3254
 3173SOL     OW20977   3.157   3.984   2.346 -0.2484  0.2479 -0.2610
 3173SOL    HW120978   3.173   4.012   2.256 -1.4009 -0.1807 -0.5911
 3173SOL    HW220979   3.183   4.063   2.394 -1.3670  1.7251 -2.1187
 3174SOL     OW20980   0.619   4.223   5.566  0.3104 -0.5456  0.2364
 3174SOL    HW120981   0.691   4.166   5.538  2.5110  2.3202  0.1187
 3174SOL    HW220982   0.552   4.155   5.575 -1.0942  0.9260  0.8400
 3175SOL     OW20983   1.613   2.358   8.597 -0.0204  0.0002  0.3086
 3175SOL    HW120984   1.689   2.400   8.556 -2.0502  1.4222 -2.0417
 3175SOL    HW220985   1.561   2.337   8.519 -2.0156  0.9569  1.3847
 3176SOL     OW20986   0.543   3.366   5.765  0.4719 -0.0024  0.2910
 3176SOL    HW120987   0.475   3.414   5.812  0.4500 -0.0458  0.3040
 3176SOL    HW220988   0.606   3.437   5.756  0.4505 -0.0211  0.0101
 3177SOL     OW20989   1.661   2.361  17.033 -0.3191  0.1810  0.2419
 3177SOL    HW120990   1.568   2.355  17.053  0.2971 -0.8383  2.7186
 3177SOL    HW220991   1.676   2.267  17.027 -1.3912  0.0824 -0.9540
 3178SOL     OW20992   1.659   3.911   4.076  0.4615  0.1678  0.1833
 3178SOL    HW120993   1.640   3.974   4.007  1.9460 -0.8525 -1.1358
 3178SOL    HW220994   1.707   3.966   4.139 -0.3525  1.1917 -0.0923
 3179SOL     OW20995   2.592   2.959   4.290 -0.0463 -0.3662  0.3826
 3179SOL    HW120996   2.543   2.958   4.372 -0.3564  1.2261  0.2150
 3179SOL    HW220997   2.660   3.025   4.306 -0.7681  0.0689  1.7002
 3180SOL     OW20998   0.664   3.465   3.446  0.0910 -0.0391 -0.3275
 3180SOL    HW120999   0.605   3.392   3.463 -1.6902  1.9372  1.9852
 3180SOL    HW221000   0.616   3.529   3.498  0.0146  0.3254 -0.8474
 3181SOL     OW21001   4.005   1.614   5.389 -0.1639  0.2160 -0.1945
 3181SOL    HW121002   4.087   1.662   5.391  0.2978 -0.5844  0.0946
 3181SOL    HW221003   3.928   1.670   5.377 -1.3481 -1.4696 -0.5667
 3182SOL     OW21004   0.604   4.332   6.773  0.1907 -0.5066  0.2162
 3182SOL    HW121005   0.605   4.357   6.865 -0.9990 -0.7251  0.2874
 3182SOL    HW221006   0.619   4.419   6.735 -0.0596  0.7470  3.0198
 3183SOL     OW21007   3.136   3.016   3.415  0.2737  0.2892  0.6826
 3183SOL    HW121008   3.201   2.951   3.441  0.8107  0.1763 -0.9217
 3183SOL    HW221009   3.119   2.978   3.328  1.9636  2.9865 -0.8275
 3184SOL     OW21010   2.105   3.918  14.776  0.3148 -0.5687  0.0471
 3184SOL    HW121011   2.182   3.947  14.825 -0.5608 -0.5013  1.3731
 3184SOL    HW221012   2.040   3.894  14.842  1.1127  0.2082  1.1298
 3185SOL     OW21013   3.790   3.447  10.232  0.0121  0.1750 -0.6111
 3185SOL    HW121014   3.877   3.480  10.209  0.0541 -0.4463 -1.3598
 3185SOL    HW221015   3.744   3.485  10.157 -1.6037 -0.1206  0.2311
 3186SOL     OW21016   1.692   4.562   1.014  0.6967  0.3850 -0.4021
 3186SOL    HW121017   1.674   4.629   0.948 -0.4152 -0.4400 -0.9200
 3186SOL    HW221018   1.784   4.544   0.991  1.1847  1.8893  0.3594
 3187SOL     OW21019   3.974   4.057   3.098  1.3123  0.2064 -0.3414
 3187SOL    HW121020   3.947   4.063   3.190 -0.8659  0.9577 -1.0362
 3187SOL    HW221021   3.952   4.144   3.067  0.0294  0.5945  1.6541
 3188SOL     OW21022   0.178   2.597   5.933 -0.3123  0.3251  0.7566
 3188SOL    HW121023   0.192   2.594   6.027  0.3908 -0.4549  0.6253
 3188SOL    HW221024   0.170   2.510   5.895  0.4650  0.9567 -0.9059
 3189SOL     OW21025   4.300   0.902   2.074  0.4286  0.0840  0.2578
 3189SOL    HW121026   4.272   0.861   2.156  0.8482  0.4686  0.5894
 3189SOL    HW221027   4.216   0.933   2.038  1.2614  1.3142 -0.6150
 3190SOL     OW21028   2.325   4.439   3.979  0.5389  0.6541 -0.1982
 3190SOL    HW121029   2.249   4.434   3.920  1.3300 -1.2130 -1.0537
 3190SOL    HW221030   2.389   4.421   3.911 -0.5274 -0.8180 -0.8294
 3191SOL     OW21031   2.550   1.969   2.759 -0.1602 -0.6285  0.6506
 3191SOL    HW121032   2.642   1.996   2.761  0.0374 -1.1350 -1.4040
 3191SOL    HW221033   2.522   2.026   2.687 -3.3311  0.9757  3.1331
 3192SOL     OW21034   2.089   0.799  16.774  0.4342 -0.2195  0.2560
 3192SOL    HW121035   2.056   0.813  16.685 -0.7752  2.0093  1.0574
 3192SOL    HW221036   2.023   0.739  16.809 -0.3874  0.5965  0.1151
 3193SOL     OW21037   2.281   3.764   9.578  0.1481  0.6015  0.0869
 3193SOL    HW121038   2.299   3.856   9.560  0.2534  0.3093 -1.3055
 3193SOL    HW221039   2.317   3.722   9.501  0.4673 -1.3448  1.3000
 3194SOL     OW21040   4.272   3.548   7.836  0.0342 -0.5110 -0.7487
 3194SOL    HW121041   4.180   3.559   7.860 -0.0324 -0.5171 -1.0020
 3194SOL    HW221042   4.312   3.556   7.922  0.7240  1.8864 -1.2780
 3195SOL     OW21043   2.373   0.843   8.096 -0.0013  0.4416 -0.3884
 3195SOL    HW121044   2.349   0.760   8.136  2.0114  1.4630  2.8716
 3195SOL    HW221045   2.435   0.807   8.033 -1.5136 -1.9249 -0.5208
 3196SOL     OW21046   2.415   0.847   4.627 -0.2225 -0.0778 -0.2689
 3196SOL    HW121047   2.392   0.814   4.714 -2.1182 -0.5912 -0.9637
 3196SOL    HW221048   2.393   0.939   4.639  4.3922  0.7836  1.8413
 3197SOL     OW21049   2.203   0.164   6.720 -0.2726 -0.1298 -0.0404
 3197SOL    HW121050   2.217   0.070   6.733  1.3352  0.1945  0.5337
 3197SOL    HW221051   2.265   0.203   6.782  1.0888 -0.0611 -1.4574
 3198SOL     OW21052   2.688   1.784   4.478 -0.1326 -0.2607 -0.5036
 3198SOL    HW121053   2.603   1.829   4.472  0.0127 -0.2164 -2.1720
 3198SOL    HW221054   2.740   1.852   4.521 -0.3889 -0.1463 -0.3715
 3199SOL     OW21055   3.168   1.300   6.843  0.0469 -0.0259 -0.3135
 3199SOL    HW121056   3.117   1.326   6.767  0.0949  0.1622 -0.2822
 3199SOL    HW221057   3.109   1.252   6.901 -2.8793  2.8595 -0.9284
 3200SOL     OW21058   2.101   1.938   4.544  0.0311  0.1907  0.1055
 3200SOL    HW121059   2.188   1.957   4.509 -0.6025  0.3596 -1.3515
 3200SOL    HW221060   2.053   2.021   4.537 -2.1601 -1.1045 -0.1945
 3201SOL     OW21061   0.359   0.475  10.367  0.0142 -0.2958  0.4955
 3201SOL    HW121062   0.302   0.400  10.385 -3.3276  1.6968 -1.6832
 3201SOL    HW221063   0.380   0.480  10.273  2.4189 -0.9952  0.9854
 3202SOL     OW21064   2.885   4.174   5.090  0.2270  0.0027 -0.0971
 3202SOL    HW121065   2.798   4.198   5.058 -0.8090 -1.9644  1.2107
 3202SOL    HW221066   2.913   4.245   5.146 -1.2062 -0.0412  0.6875
 3203SOL     OW21067   4.161   4.052  10.736 -0.1809  0.5664  0.1189
 3203SOL    HW121068   4.104   4.080  10.664  0.1549  0.8265 -0.0466
 3203SOL    HW221069   4.243   4.072  10.692 -1.0746  1.6467 -1.0618
 3204SOL     OW21070   2.639   3.528   6.332 -0.0643  0.0907 -0.5068
 3204SOL    HW121071   2.602   3.616   6.341  0.2002  0.1516 -0.0042
 3204SOL    HW221072   2.585   3.502   6.257 -0.1616 -0.0445 -0.3913
 3205SOL     OW21073   4.326   2.078   5.977 -0.0234  0.1856  0.1369
 3205SOL    HW121074   4.288   2.021   6.044  0.1522 -2.0122 -1.6373
 3205SOL    HW221075   4.266   2.152   5.985  0.6097  0.5521  1.4744
 3206SOL     OW21076   1.360   4.530  17.427 -0.2367 -0.4925 -0.2802
 3206SOL    HW121077   1.282   4.484  17.397 -0.1734 -1.2031  0.6507
 3206SOL    HW221078   1.404   4.476  17.492  0.1661  3.2703  2.5474
 3207SOL     OW21079   1.844   0.706   2.153  0.4506  0.4054 -0.0139
 3207SOL    HW121080   1.825   0.648   2.079  0.6831 -0.1796  0.3869
 3207SOL    HW221081   1.924   0.665   2.184 -0.8184 -0.5123  2.0668
 3208SOL     OW21082   0.215   1.651   7.048  0.0821 -0.1736  0.0035
 3208SOL    HW121083   0.133   1.660   6.998  1.2791 -0.4675 -2.0307
 3208SOL    HW221084   0.229   1.557   7.042  0.2094 -0.0476 -1.6566
 3209SOL     OW21085   2.705   3.189   5.003  0.7481 -0.5205  0.0377
 3209SOL    HW121086   2.775   3.138   5.044  0.3540 -1.6151 -0.6423
 3209SOL    HW221087   2.634   3.125   4.999  0.3106 -0.0617  0.3954
 3210SOL     OW21088   3.740   2.491  11.020 -0.0484  0.3383  0.4432
 3210SOL    HW121089   3.732   2.532  10.934  0.7926  1.0193  0.6858
 3210SOL    HW221090   3.663   2.436  11.032  1.0747 -1.5596 -1.1232
 3211SOL     OW21091   4.424   0.575   7.827 -0.0854 -0.1670  0.5108
 3211SOL    HW121092   4.453   0.654   7.874  0.3740 -0.4695  0.7338
 3211SOL    HW221093   4.478   0.571   7.748 -0.0876  1.4850  0.4230
 3212SOL     OW21094   1.219   3.610  10.456  0.4051 -0.9649  0.6433
 3212SOL    HW121095   1.293   3.592  10.398 -0.2994 -1.4330 -0.0973
 3212SOL    HW221096   1.211   3.519  10.485  3.2983 -2.0456 -1.9556
 3213SOL     OW21097   3.596   1.914  17.552 -0.0038 -0.2643  0.4137
 3213SOL    HW121098   3.560   1.886  17.468  1.3888  0.7604 -0.5365
 3213SOL    HW221099   3.618   2.004  17.526  0.3546 -0.0253  1.5083
 3214SOL     OW21100   0.367   1.605  11.186  0.2730 -0.5288 -0.5057
 3214SOL    HW121101   0.392   1.533  11.128 -1.7861 -1.4527 -0.2493
 3214SOL    HW221102   0.444   1.627  11.238 -0.8623  2.1461  0.0031
 3215SOL     OW21103   3.896   0.690  10.273 -0.0066  0.0126  0.4991
 3215SOL    HW121104   3.923   0.695  10.182 -0.5577  2.8434  0.4993
 3215SOL    HW221105   3.849   0.773  10.274 -0.1671 -0.0651 -1.3975
 3216SOL     OW21106   0.353   3.535  13.335  0.2188  0.1983 -0.1354
 3216SOL    HW121107   0.333   3.568  13.423 -0.4753  0.5559 -0.4234
 3216SOL    HW221108   0.447   3.523  13.347 -0.1542 -1.0792  1.4456
 3217SOL     OW21109   2.329   3.783   7.422  0.0011 -0.3304  0.1654
 3217SOL    HW121110   2.384   3.848   7.379  0.8493 -0.6035  0.8328
 3217SOL    HW221111   2.261   3.762   7.357  0.0035  0.1246  0.0175
 3218SOL     OW21112   0.457   4.695   2.490 -0.3049 -0.0838  0.0421
 3218SOL    HW121113   0.373   0.014   2.509 -0.3735  0.1624 -0.8096
 3218SOL    HW221114   0.506   0.003   2.566  1.1597 -0.0155 -0.9404
 3219SOL     OW21115   2.507   2.917  10.900  0.4175 -0.2119  0.0130
 3219SOL    HW121116   2.550   2.835  10.875  1.0665  0.3568 -0.7166
 3219SOL    HW221117   2.504   2.905  10.995 -2.1995 -0.2200 -0.0703
 3220SOL     OW21118   1.923   1.627  15.415  0.1309 -0.3745  0.1491
 3220SOL    HW121119   1.927   1.593  15.326 -0.6717  1.6690 -0.6904
 3220SOL    HW221120   1.869   1.704  15.394  0.0896  0.2790  2.5888
 3221SOL     OW21121   3.935   0.572   1.806  0.7288  0.5228 -0.5425
 3221SOL    HW121122   3.985   0.492   1.793  1.4983  1.0383 -0.7583
 3221SOL    HW221123   3.979   0.594   1.888 -1.3796  0.3100  0.6441
 3222SOL     OW21124   2.828   0.302   6.841  0.0209  0.7053 -0.3937
 3222SOL    HW121125   2.732   0.294   6.847  0.1685 -0.8046  0.0547
 3222SOL    HW221126   2.837   0.211   6.813  0.8437  1.0935 -1.4040
 3223SOL     OW21127   2.933   2.056   3.399  0.0521  0.7489 -0.8622
 3223SOL    HW121128   2.996   2.110   3.352  2.2929 -1.1004  0.0365
 3223SOL    HW221129   2.942   2.083   3.490 -2.9135 -1.4300  0.0902
 3224SOL     OW21130   2.459   1.635   6.481  0.1422 -0.4918 -0.0887
 3224SOL    HW121131   2.549   1.619   6.451  0.6181  1.0383  0.5018
 3224SOL    HW221132   2.469   1.722   6.520 -1.8753  0.3357 -1.4264
 3225SOL     OW21133   4.705   4.300   0.267  0.2298  0.4038  0.2540
 3225SOL    HW121134   0.002   4.393   0.261  2.2304 -0.0010  0.7928
 3225SOL    HW221135   0.027   4.285   0.350 -0.8465  1.3584  1.0010
 3226SOL     OW21136   4.272   2.966  13.186  0.1433 -0.1629  0.4308
 3226SOL    HW121137   4.213   2.932  13.119 -1.6452  1.4066  1.1884
 3226SOL    HW221138   4.222   3.035  13.230  2.1463  1.5220  0.0635
 3227SOL     OW21139   3.094   0.182   2.882 -0.1086  0.1731  0.9581
 3227SOL    HW121140   3.153   0.140   2.819  1.7947  1.3200  1.9871
 3227SOL    HW221141   3.064   0.257   2.830 -0.4092 -0.5246  0.1212
 3228SOL     OW21142   2.737   1.258   6.200  0.8353  0.0047 -0.3215
 3228SOL    HW121143   2.817   1.238   6.151  0.6613 -1.4735 -0.0098
 3228SOL    HW221144   2.735   1.181   6.257 -0.7829  1.5635  1.7246
 3229SOL     OW21145   1.574   2.304   5.502  0.1535  0.3374  0.4858
 3229SOL    HW121146   1.592   2.246   5.428 -0.1551 -0.9235  1.4186
 3229SOL    HW221147   1.520   2.363   5.448 -0.6716 -0.9061 -0.0348
 3230SOL     OW21148   3.515   3.635   0.513 -0.5129 -0.2281  0.2617
 3230SOL    HW121149   3.531   3.573   0.443 -0.5279 -1.2598  1.1677
 3230SOL    HW221150   3.601   3.640   0.554 -1.1328 -1.8050  1.7554
 3231SOL     OW21151   1.169   3.573   4.143 -0.3424 -0.2849  0.7623
 3231SOL    HW121152   1.127   3.584   4.057 -2.0695 -1.7039  1.4329
 3231SOL    HW221153   1.225   3.496   4.127  0.0959  0.2221 -0.1493
 3232SOL     OW21154   2.311   2.023   7.552  0.5603 -0.7882  0.1931
 3232SOL    HW121155   2.350   2.106   7.579 -1.7115  1.4091 -3.1898
 3232SOL    HW221156   2.312   2.027   7.457 -0.9383  0.3109  0.2158
 3233SOL     OW21157   0.603   2.370   3.604 -0.2935  0.2713  0.8490
 3233SOL    HW121158   0.596   2.458   3.640  0.0732 -0.8900  3.7954
 3233SOL    HW221159   0.516   2.371   3.564  0.8815  0.7330 -1.6507
 3234SOL     OW21160   3.129   1.813   6.329 -0.2417 -0.3481 -0.3841
 3234SOL    HW121161   3.180   1.866   6.269 -1.1615 -0.7168 -1.4849
 3234SOL    HW221162   3.107   1.739   6.273  1.0370  2.0695 -4.0730
 3235SOL     OW21163   3.453   2.183   8.078  0.2071  0.2931 -0.0189
 3235SOL    HW121164   3.526   2.122   8.072 -0.7477 -0.6455 -1.8425
 3235SOL    HW221165   3.480   2.235   8.154 -0.2331  0.4285  0.0432
 3236SOL     OW21166   2.255   2.605   2.598  0.1242 -0.3490  0.2659
 3236SOL    HW121167   2.163   2.582   2.601  0.5631 -2.1714 -0.8081
 3236SOL    HW221168   2.278   2.557   2.518 -0.8783 -0.2724 -0.0656
 3237SOL     OW21169   2.357   1.499   0.729 -0.0062 -0.1476 -0.2422
 3237SOL    HW121170   2.281   1.503   0.671  0.4340 -1.7099 -0.9254
 3237SOL    HW221171   2.319   1.539   0.807  0.8294  1.0447 -0.4438
 3238SOL     OW21172   3.660   3.431   8.830 -0.4321  0.6023 -0.3616
 3238SOL    HW121173   3.647   3.509   8.884  3.9946  1.0159  0.1227
 3238SOL    HW221174   3.684   3.359   8.888 -0.0695  0.1634 -1.0478
 3239SOL     OW21175   3.702   4.358   1.297  0.2388 -0.3485  0.0696
 3239SOL    HW121176   3.720   4.441   1.341  0.2856  0.6091 -1.7442
 3239SOL    HW221177   3.644   4.321   1.363  2.4937  0.7098  2.6744
 3240SOL     OW21178   0.997   1.860   8.665  0.0341 -0.1045  0.0086
 3240SOL    HW121179   1.047   1.923   8.614 -1.2964 -0.8100 -2.1637
 3240SOL    HW221180   1.043   1.858   8.749  2.8339 -1.1821 -1.5709
 3241SOL     OW21181   0.262   4.691   8.387  0.3295  0.4039  0.0642
 3241SOL    HW121182   0.204   0.044   8.392 -0.6954 -0.3272 -0.5329
 3241SOL    HW221183   0.261   4.680   8.292  2.5023 -0.9601  0.2100
 3242SOL     OW21184   3.498   3.584  14.011  0.5761  0.3937 -0.1716
 3242SOL    HW121185   3.522   3.675  14.028 -0.1839  0.4924  0.3668
 3242SOL    HW221186   3.426   3.575  14.074  0.8507  1.7212  0.3119
 3243SOL     OW21187   2.095   3.629   7.378  0.1802 -0.6883 -0.0671
 3243SOL    HW121188   2.102   3.661   7.468 -1.0116 -0.5606 -0.0175
 3243SOL    HW221189   2.083   3.535   7.391  0.2905 -1.0714 -2.7625
 3244SOL     OW21190   3.716   3.244   6.314  0.2097  0.3864 -0.1378
 3244SOL    HW121191   3.672   3.325   6.287 -0.9540 -0.3190 -0.3601
 3244SOL    HW221192   3.671   3.175   6.265 -1.9306  2.4095 -1.0332
 3245SOL     OW21193   4.332   0.578  13.141 -0.4578  0.1390 -0.0825
 3245SOL    HW121194   4.282   0.652  13.176 -0.8118  0.9079 -2.2037
 3245SOL    HW221195   4.283   0.507  13.183  0.8027 -0.6831 -0.0298
 3246SOL     OW21196   0.634   1.497   2.250 -0.0181  0.1042  0.2379
 3246SOL    HW121197   0.642   1.558   2.177 -0.1535 -1.6565 -1.2685
 3246SOL    HW221198   0.539   1.483   2.251  0.1126 -0.6406  2.1177
 3247SOL     OW21199   2.579   2.389   7.788 -0.4099 -0.0002 -0.7476
 3247SOL    HW121200   2.654   2.444   7.812  0.1299 -1.0345 -0.1021
 3247SOL    HW221201   2.613   2.301   7.803  2.3377  1.5052  2.0024
 3248SOL     OW21202   1.436   3.766   4.068 -0.2842 -0.0017 -1.0081
 3248SOL    HW121203   1.375   3.835   4.040 -1.2150 -0.2390  0.4597
 3248SOL    HW221204   1.516   3.818   4.072  1.2359 -2.3411 -1.4740
 3249SOL     OW21205   1.098   0.280   2.860 -0.0632  0.3971 -0.0558
 3249SOL    HW121206   1.028   0.234   2.815 -0.5334  0.4938  0.5782
 3249SOL    HW221207   1.160   0.206   2.859 -1.6091 -0.9015  0.8922
 3250SOL     OW21208   3.715   1.955   7.426  0.0433 -0.4487  0.4641
 3250SOL    HW121209   3.733   2.033   7.374  0.8547  0.6678  2.4028
 3250SOL    HW221210   3.799   1.949   7.471 -0.2562 -2.7334  0.7184
 3251SOL     OW21211   4.316   4.151   6.755 -0.6489 -0.0324  0.7517
 3251SOL    HW121212   4.336   4.081   6.818  0.5492  0.2247  0.6650
 3251SOL    HW221213   4.327   4.114   6.668  0.1451 -2.1971  1.7696
 3252SOL     OW21214   1.470   2.365   6.582  0.3521 -0.3843 -0.2235
 3252SOL    HW121215   1.399   2.420   6.549  1.6224  0.6018 -1.3110
 3252SOL    HW221216   1.546   2.414   6.549  1.1441 -0.6952  1.1261
 3253SOL     OW21217   2.253   4.465   5.308  0.0860  0.4351  0.4400
 3253SOL    HW121218   2.247   4.408   5.385  0.4592 -0.6713 -0.3407
 3253SOL    HW221219   2.214   4.406   5.243  0.0211 -0.1162  0.9813
 3254SOL     OW21220   4.400   1.061  15.446  0.2388  0.6651 -0.4289
 3254SOL    HW121221   4.354   0.990  15.489  0.6183  1.6161  1.5584
 3254SOL    HW221222   4.437   1.015  15.371 -0.5145  0.1180 -0.4569
 3255SOL     OW21223   1.086   2.018   8.427 -0.3158 -0.3269  0.6584
 3255SOL    HW121224   1.119   2.012   8.338  0.3637 -0.1595  0.9015
 3255SOL    HW221225   0.994   2.029   8.401  0.1797 -0.2735 -1.0518
 3256SOL     OW21226   4.162   3.235  17.084  0.1002 -0.1321 -0.1424
 3256SOL    HW121227   4.143   3.203  17.172  1.0042  0.6703  0.3390
 3256SOL    HW221228   4.113   3.316  17.091  1.1845  0.4386  0.8366
 3257SOL     OW21229   3.716   1.070   5.373  0.1442 -0.5113 -0.3584
 3257SOL    HW121230   3.641   1.082   5.432 -0.4072  0.0598 -1.1790
 3257SOL    HW221231   3.783   1.114   5.426 -0.4477 -0.6066  0.4660
 3258SOL     OW21232   4.583   2.423   3.595  0.1354 -0.0864  0.4855
 3258SOL    HW121233   4.518   2.468   3.649  2.8815  0.8613  3.0393
 3258SOL    HW221234   4.597   2.351   3.656 -0.4211 -1.2784 -0.8188
 3259SOL     OW21235   2.765   3.107   7.909  0.1024 -0.0656 -0.2259
 3259SOL    HW121236   2.736   3.068   7.827  1.7302  0.0447 -0.8494
 3259SOL    HW221237   2.699   3.175   7.929 -0.2206 -1.1200  2.2513
 3260SOL     OW21238   2.865   4.113   6.631  0.1661  0.0983 -0.8404
 3260SOL    HW121239   2.921   4.106   6.554  1.0313  1.3009 -0.3265
 3260SOL    HW221240   2.782   4.075   6.603  1.3712 -2.2566 -1.2339
 3261SOL     OW21241   3.800   2.393  10.194 -0.0019  0.4592 -0.0270
 3261SOL    HW121242   3.893   2.375  10.184 -0.2343 -2.1782  2.4611
 3261SOL    HW221243   3.770   2.445  10.119 -0.0225  0.2934 -0.1353
 3262SOL     OW21244   3.596   1.417  12.859 -0.5380  0.4808 -0.1810
 3262SOL    HW121245   3.511   1.442  12.896 -0.5309 -0.6729  0.6143
 3262SOL    HW221246   3.579   1.331  12.822 -0.3027  1.3347 -2.2562
 3263SOL     OW21247   3.521   0.101   9.005 -0.2308  0.0212 -0.3000
 3263SOL    HW121248   3.530   0.079   8.912  0.5152  0.7370 -0.4010
 3263SOL    HW221249   3.595   0.162   9.010  1.2908 -1.8472 -0.3276
 3264SOL     OW21250   3.263   2.023   4.466 -0.5700 -0.4335  0.4314
 3264SOL    HW121251   3.285   2.062   4.382 -2.4545  0.2196  0.2407
 3264SOL    HW221252   3.259   2.102   4.520 -0.1975  0.6615 -1.1752
 3265SOL     OW21253   3.138   4.422   3.233  1.1688 -0.0236 -0.0413
 3265SOL    HW121254   3.160   4.473   3.155 -0.8494 -0.3777 -0.8146
 3265SOL    HW221255   3.124   4.498   3.289  0.9116 -0.7589  0.8926
 3266SOL     OW21256   3.688   1.057  17.205 -0.0488 -0.1934 -0.5599
 3266SOL    HW121257   3.615   0.995  17.197  0.5157 -0.6768 -2.0259
 3266SOL    HW221258   3.724   1.055  17.116 -1.1129  1.4016 -1.0333
 3267SOL     OW21259   4.195   0.900  15.596  0.0562 -0.8042 -0.0211
 3267SOL    HW121260   4.134   0.952  15.648  1.0814 -0.9520  1.3283
 3267SOL    HW221261   4.251   0.857  15.661  1.0832 -1.2456 -1.2050
 3268SOL     OW21262   3.279   1.839  13.976 -0.3631  0.0948  0.9054
 3268SOL    HW121263   3.278   1.792  14.059  1.8717  0.1977  0.9992
 3268SOL    HW221264   3.329   1.778  13.922  0.4944  2.7433 -1.2907
 3269SOL     OW21265   0.252   3.332  13.189 -0.1758  0.0138 -0.7280
 3269SOL    HW121266   0.283   3.390  13.259 -0.6507  0.3969 -0.8358
 3269SOL    HW221267   0.276   3.390  13.117  0.5106 -0.0394 -0.5353
 3270SOL     OW21268   0.803   3.957  10.852 -0.6464 -0.2619  0.5114
 3270SOL    HW121269   0.801   3.937  10.945  0.9431  2.5768  1.1376
 3270SOL    HW221270   0.898   3.949  10.844 -0.5760  1.4254 -0.5202
 3271SOL     OW21271   4.152   3.461   9.405 -0.0353  0.8199 -0.1014
 3271SOL    HW121272   4.176   3.486   9.316  1.5759 -2.1013 -0.4834
 3271SOL    HW221273   4.226   3.484   9.461  2.0799 -0.1809 -2.4535
 3272SOL     OW21274   3.709   2.528   4.641 -0.0772  0.0897 -0.3247
 3272SOL    HW121275   3.739   2.444   4.605  0.5398  0.7036 -1.2387
 3272SOL    HW221276   3.786   2.583   4.651 -0.2074  0.4130 -1.0705
 3273SOL     OW21277   2.895   3.859   4.105  0.2717  0.1400  0.1068
 3273SOL    HW121278   2.816   3.910   4.121  0.1849  0.7031 -2.1211
 3273SOL    HW221279   2.868   3.822   4.021  0.8840 -0.1623  0.0410
 3274SOL     OW21280   2.358   0.231   5.040  0.1096 -0.8983 -0.2933
 3274SOL    HW121281   2.346   0.310   4.987  4.1263 -1.2912 -1.7699
 3274SOL    HW221282   2.441   0.250   5.084 -1.0472 -0.8172  1.8235
 3275SOL     OW21283   1.742   3.857  14.544  0.1419  0.0462  0.1325
 3275SOL    HW121284   1.700   3.782  14.586 -1.3678  1.3627  0.9674
 3275SOL    HW221285   1.669   3.919  14.538 -0.5820 -0.8611 -0.4525
 3276SOL     OW21286   0.074   4.374   3.676  0.5149  0.0126 -0.2399
 3276SOL    HW121287   0.101   4.298   3.624 -0.5294 -1.1891  1.0048
 3276SOL    HW221288   0.143   4.362   3.742 -0.3013  0.0978  0.6195
 3277SOL     OW21289   4.468   4.035  10.865 -0.2855 -0.0045  0.1791
 3277SOL    HW121290   4.472   4.113  10.811  1.7359 -0.9655 -1.0666
 3277SOL    HW221291   4.561   4.026  10.888 -0.2291 -1.1935 -0.4969
 3278SOL     OW21292   3.379   0.097   2.853  0.3701 -0.3848 -0.0233
 3278SOL    HW121293   3.384   0.039   2.777 -1.8198  1.2377 -1.3938
 3278SOL    HW221294   3.442   0.061   2.916  1.6802 -0.2101 -1.2199
 3279SOL     OW21295   0.717   0.488   9.257  0.5127 -0.4585 -0.6345
 3279SOL    HW121296   0.625   0.512   9.245  0.0005 -1.4017  1.3728
 3279SOL    HW221297   0.732   0.449   9.171 -3.4252  0.0285 -1.5164
 3280SOL     OW21298   3.662   3.912   2.379  0.5872  0.3312 -0.2782
 3280SOL    HW121299   3.720   3.856   2.431 -1.4619 -2.5787 -1.1576
 3280SOL    HW221300   3.687   3.888   2.290 -0.1395  2.7631 -1.1289
 3281SOL     OW21301   1.832   2.758   6.768 -0.3735  0.2175 -0.2917
 3281SOL    HW121302   1.870   2.699   6.703 -0.0195  0.7882 -0.6060
 3281SOL    HW221303   1.799   2.829   6.713 -2.6181  1.0334  2.1110
 3282SOL     OW21304   0.662   1.092  16.964  0.4521  0.3409  0.1431
 3282SOL    HW121305   0.625   1.007  16.940  2.9005 -0.8557  0.5283
 3282SOL    HW221306   0.583   1.141  16.984  1.7981  2.9885 -1.1018
 3283SOL     OW21307   2.403   2.534   4.279 -0.1083  0.1187  0.0671
 3283SOL    HW121308   2.467   2.530   4.351  0.6226  1.4709 -0.5114
 3283SOL    HW221309   2.456   2.587   4.220  0.6072 -0.0083  0.5951
 3284SOL     OW21310   3.164   3.055  11.550  0.3813 -0.0511  0.4943
 3284SOL    HW121311   3.121   2.973  11.528 -1.3541  1.0449 -0.1903
 3284SOL    HW221312   3.242   3.012  11.585  1.0056 -0.0565 -0.8945
 3285SOL     OW21313   0.966   3.870   9.485  0.6693 -0.5184 -0.5724
 3285SOL    HW121314   1.041   3.841   9.537  1.0022  1.9425  0.3382
 3285SOL    HW221315   0.897   3.882   9.550  0.4000  1.1241 -1.1755
 3286SOL     OW21316   2.603   3.404   9.634  0.0031 -0.3124  0.1043
 3286SOL    HW121317   2.518   3.437   9.606  0.6513  1.4032  0.1754
 3286SOL    HW221318   2.623   3.463   9.706 -1.3648  0.9397 -0.5433
 3287SOL     OW21319   1.868   4.513   6.511 -0.6882 -0.5604  0.1725
 3287SOL    HW121320   1.799   4.473   6.564 -0.6339  1.9575  2.1806
 3287SOL    HW221321   1.842   4.479   6.425  1.9061  1.6904 -1.4934
 3288SOL     OW21322   1.516   4.367   2.578  1.0793 -0.3108  0.0389
 3288SOL    HW121323   1.573   4.422   2.524  0.1013 -0.8934 -1.5668
 3288SOL    HW221324   1.581   4.319   2.631  2.2439  0.5964 -0.5646
 3289SOL     OW21325   3.960   3.347   5.982  0.4321  0.2885  0.3688
 3289SOL    HW121326   3.952   3.264   5.935  0.9511  1.7333 -2.3098
 3289SOL    HW221327   3.953   3.314   6.071 -0.0975  0.5649  0.4303
 3290SOL     OW21328   0.049   2.311   6.970  0.1419 -0.5440  0.2491
 3290SOL    HW121329   4.688   2.332   7.012  0.0549 -1.3360  0.4769
 3290SOL    HW221330   0.080   2.399   6.949 -0.0753 -0.4516  0.3113
 3291SOL     OW21331   0.087   3.381   8.079 -0.1802  0.1075 -0.0761
 3291SOL    HW121332   4.717   3.364   8.064 -0.2475 -1.2824  1.9770
 3291SOL    HW221333   0.087   3.477   8.078 -2.1234  0.1240  0.5737
 3292SOL     OW21334   4.708   0.747   1.596  0.6919 -0.5779 -0.7163
 3292SOL    HW121335   0.034   0.803   1.536 -1.0290  1.2160 -0.4516
 3292SOL    HW221336   4.630   0.727   1.545 -0.0239 -3.3636  1.5257
 3293SOL     OW21337   0.724   2.951   4.080  0.1212 -0.0806 -0.5093
 3293SOL    HW121338   0.651   2.924   4.024 -1.9371  1.6838  1.3740
 3293SOL    HW221339   0.796   2.967   4.018  0.9024  0.0604  0.4249
 3294SOL     OW21340   4.300   0.430   9.643 -0.0431  0.2160  0.1577
 3294SOL    HW121341   4.379   0.438   9.698  1.2139  0.9317 -1.7640
 3294SOL    HW221342   4.225   0.471   9.685 -0.0092 -0.1653  0.6049
 3295SOL     OW21343   0.146   3.213  15.748 -0.7785 -0.4651  0.5017
 3295SOL    HW121344   0.070   3.262  15.780 -0.7060  0.9805 -1.5378
 3295SOL    HW221345   0.140   3.232  15.654 -0.7951  0.3375  0.6726
 3296SOL     OW21346   0.133   1.968   8.368  0.0256  0.2056  0.2241
 3296SOL    HW121347   0.116   1.999   8.457  1.7888 -1.3040  1.0712
 3296SOL    HW221348   0.215   2.010   8.341  0.5731 -0.0663  1.4523
 3297SOL     OW21349   3.665   3.370   8.183  0.1234  0.0868 -0.2793
 3297SOL    HW121350   3.612   3.292   8.169 -0.6180  1.1129 -3.1837
 3297SOL    HW221351   3.723   3.344   8.255 -0.1948  0.6950  0.2027
 3298SOL     OW21352   0.536   3.288   7.972 -0.1740 -0.2842  0.2313
 3298SOL    HW121353   0.441   3.297   7.969 -0.0387  0.7861 -0.8502
 3298SOL    HW221354   0.548   3.193   7.965 -0.3192 -0.2956  0.1354
 3299SOL     OW21355   0.694   1.280   5.842  0.4071 -0.6559  0.6822
 3299SOL    HW121356   0.669   1.192   5.814  1.1696 -0.1757 -1.5038
 3299SOL    HW221357   0.622   1.303   5.901  1.2834 -0.1380  1.5446
 3300SOL     OW21358   4.472   1.148   9.746 -0.3014 -0.5315 -0.0615
 3300SOL    HW121359   4.529   1.126   9.820 -1.4934 -1.5135  0.5669
 3300SOL    HW221360   4.532   1.203   9.695  0.2718  0.0279  1.1932
 3301SOL     OW21361   0.780   2.984   6.117 -0.3090 -0.9984 -0.5073
 3301SOL    HW121362   0.715   3.045   6.083  1.7044  2.0880  1.2863
 3301SOL    HW221363   0.796   2.925   6.043 -0.0706 -1.0154 -0.4393
 3302SOL     OW21364   4.532   4.641   2.308  0.2632  0.2984 -0.0352
 3302SOL    HW121365   4.519   4.686   2.392  0.9933  0.3416  0.0593
 3302SOL    HW221366   4.490   4.701   2.247 -0.0551  1.2277  1.0953
 3303SOL     OW21367   0.338   0.085   2.786  0.6002 -0.2189  0.0656
 3303SOL    HW121368   0.279   0.153   2.753  1.0587 -1.0144 -2.4123
 3303SOL    HW221369   0.270   0.039   2.834  0.9935 -0.3887  0.4596
 3304SOL     OW21370   0.322   0.898   7.250 -0.0267 -0.7330  0.5146
 3304SOL    HW121371   0.272   0.916   7.330 -1.9478 -2.8319 -0.2200
 3304SOL    HW221372   0.329   0.988   7.217  0.7754 -0.5851  1.0944
 3305SOL     OW21373   0.940   3.608  15.990  0.2534  0.4529 -0.2395
 3305SOL    HW121374   1.022   3.562  16.009 -0.6846 -1.2085 -0.1852
 3305SOL    HW221375   0.958   3.696  16.023 -0.0489  1.0405 -1.6856
 3306SOL     OW21376   0.803   3.612   4.103  0.3294  0.5108 -0.5363
 3306SOL    HW121377   0.827   3.673   4.173 -2.2972 -1.5668  2.1790
 3306SOL    HW221378   0.728   3.652   4.060  0.0892  0.4534 -0.1669
 3307SOL     OW21379   1.926   1.117  14.066 -0.2006  0.3612  0.1812
 3307SOL    HW121380   1.866   1.094  14.137 -1.3344 -1.1009 -1.2720
 3307SOL    HW221381   1.881   1.189  14.022 -2.8934  0.5637  3.2714
 3308SOL     OW21382   1.218   1.434   1.562 -0.3103  0.1467  0.1560
 3308SOL    HW121383   1.125   1.441   1.541 -0.2938  0.7538  0.2866
 3308SOL    HW221384   1.234   1.341   1.549  1.9238  0.5996 -0.3579
 3309SOL     OW21385   2.378   4.005   9.003 -0.1439  0.3934 -0.2273
 3309SOL    HW121386   2.473   4.004   9.019 -0.4548  0.9880  1.6118
 3309SOL    HW221387   2.347   4.060   9.075  1.3348  0.9212  0.0153
 3310SOL     OW21388   3.775   2.007  15.132 -0.1582 -0.3599  0.5235
 3310SOL    HW121389   3.810   1.918  15.131 -1.8141 -1.0140  0.4243
 3310SOL    HW221390   3.684   1.985  15.114 -0.5562 -0.6614  2.9419
 3311SOL     OW21391   3.126   3.969   3.197  1.0626 -0.2548  0.3558
 3311SOL    HW121392   3.066   4.044   3.200  2.8192  1.1111  1.1064
 3311SOL    HW221393   3.207   4.017   3.212  0.3441  0.6489  1.4197
 3312SOL     OW21394   2.618   1.067   5.309 -0.1105 -0.0683  0.2618
 3312SOL    HW121395   2.681   1.057   5.237  0.9119  4.4247  0.5725
 3312SOL    HW221396   2.571   1.143   5.273 -1.1337  0.0209  1.8098
 3313SOL     OW21397   3.127   1.448   9.123  0.4739 -0.2459 -0.3879
 3313SOL    HW121398   3.144   1.488   9.038  0.5551  0.4024 -0.0630
 3313SOL    HW221399   3.144   1.359   9.093  0.1892  0.0539 -1.4481
 3314SOL     OW21400   1.413   1.063   8.756  0.1675 -0.4566 -0.7654
 3314SOL    HW121401   1.325   1.095   8.775  0.3430  0.4120 -1.4298
 3314SOL    HW221402   1.424   0.994   8.822  0.2481  0.9878  0.7467
 3315SOL     OW21403   2.573   1.560   6.985 -0.7885  0.3092  0.7062
 3315SOL    HW121404   2.565   1.522   6.898 -1.4128 -2.5010  1.9935
 3315SOL    HW221405   2.517   1.638   6.983  0.5429  1.2825  1.3911
 3316SOL     OW21406   0.566   2.571  15.965 -0.1021 -0.0300 -0.0164
 3316SOL    HW121407   0.490   2.522  15.997  0.6880  1.2305  3.8781
 3316SOL    HW221408   0.574   2.544  15.874  2.4716  0.7229 -0.0158
 3317SOL     OW21409   1.805   1.560   3.414 -0.3362  0.3964 -0.4592
 3317SOL    HW121410   1.821   1.468   3.435 -0.5568  0.5988  0.5908
 3317SOL    HW221411   1.841   1.563   3.326 -0.8470 -0.3697 -0.6931
 3318SOL     OW21412   1.663   3.071   7.751 -0.2179  0.0138  0.0690
 3318SOL    HW121413   1.596   3.074   7.819 -0.1595  2.9393 -0.0241
 3318SOL    HW221414   1.685   3.164   7.749 -0.5733  0.1094  0.8709
 3319SOL     OW21415   1.335   0.553   3.657 -0.2094  0.2156 -0.6555
 3319SOL    HW121416   1.283   0.596   3.589  0.7491  1.6907 -0.4348
 3319SOL    HW221417   1.317   0.597   3.740  0.5441  1.2679 -1.0535
 3320SOL     OW21418   0.267   2.594  14.175  0.2957  0.5448 -0.3232
 3320SOL    HW121419   0.203   2.649  14.222 -0.5996 -0.9602  0.2144
 3320SOL    HW221420   0.339   2.654  14.155  0.7685  0.8095  2.1714
 3321SOL     OW21421   0.971   3.756   8.022  0.4077 -0.3205 -0.0423
 3321SOL    HW121422   0.933   3.669   8.009 -2.1230  0.8891 -0.8291
 3321SOL    HW221423   1.004   3.772   7.933 -0.5899 -0.5519 -0.4514
 3322SOL     OW21424   4.403   1.198   6.272  0.3199 -0.6332 -0.1552
 3322SOL    HW121425   4.481   1.239   6.307  1.0770 -2.3678  0.1870
 3322SOL    HW221426   4.410   1.229   6.181  1.4379 -0.9970 -0.1893
 3323SOL     OW21427   0.473   4.431   2.215 -0.3469 -0.0928 -0.5369
 3323SOL    HW121428   0.386   4.405   2.186 -1.1116  1.3875  0.4368
 3323SOL    HW221429   0.472   4.418   2.310 -0.6653  1.2909 -0.3562
 3324SOL     OW21430   2.683   1.812   9.125  0.1188 -0.0825 -0.1414
 3324SOL    HW121431   2.622   1.746   9.157  1.3357 -1.7793 -1.3292
 3324SOL    HW221432   2.771   1.782   9.150 -0.2718 -1.1825 -0.0641
 3325SOL     OW21433   0.251   0.952   3.216 -0.1662 -0.3042 -0.0653
 3325SOL    HW121434   0.164   0.980   3.245 -0.4649 -1.6882  0.3433
 3325SOL    HW221435   0.251   1.003   3.135  1.0297  2.3551  1.5917
 3326SOL     OW21436   1.316   3.518   5.271  0.8932  0.4435 -0.4023
 3326SOL    HW121437   1.289   3.561   5.190 -0.0753 -0.2700 -0.4510
 3326SOL    HW221438   1.376   3.453   5.234  1.1416  1.1979 -1.3424
 3327SOL     OW21439   2.693   4.198  15.131 -0.6662 -0.2794  0.0610
 3327SOL    HW121440   2.679   4.219  15.039  0.9463 -0.9593 -0.3320
 3327SOL    HW221441   2.669   4.288  15.156  0.1135 -0.5690  1.8448
 3328SOL     OW21442   1.568   3.430  10.410  0.0775  0.4231  0.2725
 3328SOL    HW121443   1.623   3.501  10.443  1.2131  0.5583 -1.9145
 3328SOL    HW221444   1.506   3.478  10.356 -0.8347  0.1537  1.0877
 3329SOL     OW21445   4.679   2.348   1.419  0.6729  0.0558 -0.3162
 3329SOL    HW121446   0.003   2.265   1.404 -0.1946 -0.3020 -1.0946
 3329SOL    HW221447   4.678   2.392   1.334 -1.5411  2.0567  0.7788
 3330SOL     OW21448   2.229   0.881  15.091  0.5587 -0.1302  0.1445
 3330SOL    HW121449   2.225   0.785  15.093 -0.5350 -0.0862  0.0327
 3330SOL    HW221450   2.322   0.884  15.066  0.6062 -2.1103  0.1180
 3331SOL     OW21451   3.554   1.845  15.128 -0.5058 -0.0359 -0.1473
 3331SOL    HW121452   3.580   1.854  15.220  2.8912  0.3651 -1.1586
 3331SOL    HW221453   3.584   1.756  15.108 -1.9721 -0.7382  0.7307
 3332SOL     OW21454   3.293   1.673   7.019 -0.4610  0.3044 -0.2215
 3332SOL    HW121455   3.307   1.760   6.981  0.2030 -1.2405 -3.4460
 3332SOL    HW221456   3.209   1.697   7.058 -0.9879 -0.2133 -1.0384
 3333SOL     OW21457   2.479   1.005   4.236 -0.0075  0.1583 -0.0422
 3333SOL    HW121458   2.415   1.066   4.199 -0.2961 -0.7048 -0.9488
 3333SOL    HW221459   2.558   1.058   4.233 -0.7901  1.2440 -1.4570
 3334SOL     OW21460   2.684   3.151   8.832 -0.0372  0.3386  0.2522
 3334SOL    HW121461   2.700   3.066   8.791  0.4988  0.0657  1.0203
 3334SOL    HW221462   2.760   3.171   8.887  0.6307  0.2183 -0.6256
 3335SOL     OW21463   0.029   0.725   3.954 -0.0895  0.3435  0.0804
 3335SOL    HW121464   4.694   0.654   3.985 -0.3669  0.7039  0.3806
 3335SOL    HW221465   4.706   0.750   3.874  0.4401 -0.3649 -0.4496
 3336SOL     OW21466   0.663   3.940   7.176  0.2240  0.2917 -1.1000
 3336SOL    HW121467   0.600   4.000   7.216  1.3973 -0.5955  2.0950
 3336SOL    HW221468   0.709   3.903   7.251 -3.1026 -0.3075  0.6677
 3337SOL     OW21469   2.234   0.287  10.216  0.4333  0.2598  0.2546
 3337SOL    HW121470   2.262   0.207  10.171  1.7740  0.4605  0.7385
 3337SOL    HW221471   2.152   0.306  10.171  0.5022 -0.2137 -0.0812
 3338SOL     OW21472   4.381   0.153   4.817  1.0064  0.1815  0.2397
 3338SOL    HW121473   4.459   0.124   4.865  1.8103  1.2834 -0.4061
 3338SOL    HW221474   4.314   0.127   4.880 -0.0039 -1.7039 -1.5939
 3339SOL     OW21475   4.657   1.811  14.799  0.3890 -0.2040 -0.0824
 3339SOL    HW121476   4.652   1.726  14.841 -0.4997 -0.1835 -0.1548
 3339SOL    HW221477   0.029   1.824  14.808  0.2859  0.6044 -0.1304
 3340SOL     OW21478   2.734   1.575   7.493  0.2618  0.2341 -0.4561
 3340SOL    HW121479   2.713   1.668   7.501 -0.5132 -0.0435  0.6711
 3340SOL    HW221480   2.773   1.572   7.405 -2.2789  1.0057 -1.6046
 3341SOL     OW21481   1.741   4.688   2.034  0.1927  0.0992  0.1405
 3341SOL    HW121482   1.806   4.650   2.093  1.1890  2.8057  0.8115
 3341SOL    HW221483   1.750   0.060   2.035  0.5526  0.0780 -1.4679
 3342SOL     OW21484   3.093   4.324  12.314 -0.1384 -0.7767 -0.7092
 3342SOL    HW121485   3.030   4.303  12.246 -1.4823  0.4601  0.1642
 3342SOL    HW221486   3.065   4.282  12.396  1.6120  1.5583  1.0884
 3343SOL     OW21487   2.586   2.444   4.818  0.6587  0.3601  0.1274
 3343SOL    HW121488   2.527   2.404   4.883  1.3629  0.8981  1.1068
 3343SOL    HW221489   2.663   2.454   4.875 -0.5560 -0.5128  1.9171
 3344SOL     OW21490   3.999   3.072   0.786 -0.5004  0.8094  0.3414
 3344SOL    HW121491   3.926   3.098   0.842 -1.3233  0.3440 -0.5245
 3344SOL    HW221492   4.054   3.148   0.805  2.0270 -0.9501  0.1090
 3345SOL     OW21493   3.554   4.162  16.361  0.0672  0.2722  0.3596
 3345SOL    HW121494   3.627   4.190  16.305 -0.4164 -1.3672 -1.0962
 3345SOL    HW221495   3.486   4.140  16.297 -1.8597 -0.9529  2.8474
 3346SOL     OW21496   1.830   2.712   7.734 -1.3590 -0.2882 -0.2842
 3346SOL    HW121497   1.793   2.752   7.813 -0.4571  0.0927 -0.0541
 3346SOL    HW221498   1.885   2.645   7.775  2.5599  1.6429 -2.3003
 3347SOL     OW21499   1.646   1.377   3.746  0.3913  0.0763  0.2640
 3347SOL    HW121500   1.591   1.337   3.678  0.1771  1.2888 -0.2755
 3347SOL    HW221501   1.727   1.376   3.695 -1.3975 -1.2590 -2.5572
 3348SOL     OW21502   0.065   0.567   2.172 -0.1212  0.0510  0.1654
 3348SOL    HW121503   0.103   0.503   2.112 -0.8170  1.6460 -1.9446
 3348SOL    HW221504   0.095   0.648   2.130 -1.7338  0.1119 -0.8306
 3349SOL     OW21505   2.019   0.340  10.082  0.5352  0.2167 -0.0305
 3349SOL    HW121506   1.953   0.320  10.149 -0.6961 -1.2447 -1.6884
 3349SOL    HW221507   1.968   0.333  10.001 -0.5398 -0.0884  0.6699
 3350SOL     OW21508   0.268   1.922  12.401 -0.2981  0.0331  0.0891
 3350SOL    HW121509   0.240   2.013  12.411 -0.0779  0.4135 -2.6317
 3350SOL    HW221510   0.253   1.887  12.489 -3.2014 -1.6862 -1.0560
 3351SOL     OW21511   1.532   0.317  10.875 -0.2320 -0.1565  0.4113
 3351SOL    HW121512   1.568   0.268  10.949 -1.0383 -0.6452  0.4909
 3351SOL    HW221513   1.472   0.251  10.839 -0.4098 -1.6877  3.5067
 3352SOL     OW21514   3.874   0.042   9.462  0.9258  0.3928 -0.2736
 3352SOL    HW121515   3.846   4.684   9.503  2.1716  0.5866  0.9702
 3352SOL    HW221516   3.851   0.015   9.374 -2.2619 -1.7039  1.2231
 3353SOL     OW21517   3.810   4.051   2.786 -0.2359 -0.3158  0.1866
 3353SOL    HW121518   3.809   3.982   2.852  0.0125 -0.6331 -0.1402
 3353SOL    HW221519   3.729   4.038   2.737 -1.6212  0.2470  2.3349
 3354SOL     OW21520   1.911   2.046  16.094 -0.0684  0.4986  0.2423
 3354SOL    HW121521   1.923   1.990  16.017 -0.0390  2.0304 -0.8516
 3354SOL    HW221522   1.968   2.119  16.070  2.3102 -0.9116  1.5723
 3355SOL     OW21523   2.890   2.197   8.622 -0.7321 -0.4178  0.2820
 3355SOL    HW121524   2.864   2.289   8.610  4.0680  0.9025 -0.2795
 3355SOL    HW221525   2.814   2.169   8.673  2.0132 -0.7344  4.2572
 3356SOL     OW21526   2.261   0.298   5.465 -0.4941  0.5122 -0.1435
 3356SOL    HW121527   2.305   0.273   5.545 -1.8600  1.1049  0.8042
 3356SOL    HW221528   2.170   0.300   5.497 -0.0868 -0.6993  1.0753
 3357SOL     OW21529   3.925   3.101   5.259  0.1677 -0.6430 -0.4103
 3357SOL    HW121530   3.938   3.159   5.334  2.0365 -2.7252  0.8552
 3357SOL    HW221531   3.968   3.152   5.190 -2.3678  2.0716 -0.0066
 3358SOL     OW21532   0.806   1.337   7.725  0.1294 -0.1976 -0.1629
 3358SOL    HW121533   0.849   1.415   7.760  1.7123 -1.1734  0.0870
 3358SOL    HW221534   0.844   1.268   7.779  1.2913  2.4447  2.3742
 3359SOL     OW21535   1.474   2.514  13.278  0.2961  0.0220  0.3866
 3359SOL    HW121536   1.506   2.604  13.265 -0.8097  0.4588  0.6370
 3359SOL    HW221537   1.437   2.512  13.366 -1.0289  2.1627 -0.0938
 3360SOL     OW21538   1.249   3.523   6.800 -0.0856 -0.2219  0.3242
 3360SOL    HW121539   1.305   3.446   6.810  0.5298  0.2765  0.6934
 3360SOL    HW221540   1.168   3.474   6.787 -0.0074 -0.7020  1.6468
 3361SOL     OW21541   0.987   1.233   1.758 -0.0522 -0.1335  0.0207
 3361SOL    HW121542   1.002   1.212   1.851  0.9183  0.0892 -0.0910
 3361SOL    HW221543   1.065   1.193   1.720  0.8097  1.2471  0.3411
 3362SOL     OW21544   1.370   1.512   5.310  0.2812  0.0605 -0.5122
 3362SOL    HW121545   1.353   1.536   5.219 -1.1625 -0.0473 -0.2820
 3362SOL    HW221546   1.441   1.572   5.334  0.0106  0.4392 -0.6461
 3363SOL     OW21547   0.286   2.164  11.366 -0.5955 -0.3451 -0.1931
 3363SOL    HW121548   0.298   2.166  11.271 -1.0850  0.2366 -0.2412
 3363SOL    HW221549   0.191   2.175  11.369 -0.5362  0.5312 -1.2941
 3364SOL     OW21550   1.451   3.466  12.748 -0.1045 -0.0087  0.4250
 3364SOL    HW121551   1.476   3.547  12.793  2.4182  0.7690 -2.3121
 3364SOL    HW221552   1.361   3.482  12.720  0.0452  2.3631  1.2995
 3365SOL     OW21553   3.498   0.115  16.975 -0.0034 -0.1722  0.3425
 3365SOL    HW121554   3.543   0.065  17.043  1.5143  0.5003 -0.1656
 3365SOL    HW221555   3.540   0.200  16.989  0.7023 -0.3644 -0.5707
 3366SOL     OW21556   1.162   0.359   8.581  0.1654  0.1579  0.3738
 3366SOL    HW121557   1.244   0.355   8.630  1.7776  0.8763 -2.3079
 3366SOL    HW221558   1.199   0.374   8.495 -0.5263 -0.1769  0.0188
 3367SOL     OW21559   3.716   4.630   5.386  0.3208 -0.2290  0.4204
 3367SOL    HW121560   3.792   4.632   5.328  0.5862  1.8694  0.8290
 3367SOL    HW221561   3.657   4.583   5.327  1.7071 -1.2283 -0.1417
 3368SOL     OW21562   1.736   4.496   4.545 -0.5783 -0.6547  0.2437
 3368SOL    HW121563   1.831   4.503   4.552 -0.6712 -1.1269  1.8826
 3368SOL    HW221564   1.711   4.573   4.595 -3.6780 -1.7313  0.3654
 3369SOL     OW21565   1.846   2.137   6.642 -0.6387  0.6663  0.0696
 3369SOL    HW121566   1.764   2.118   6.689 -0.0092 -2.3021 -0.0309
 3369SOL    HW221567   1.836   2.087   6.561 -0.3756  0.8795 -0.0935
 3370SOL     OW21568   0.378   3.921   4.587  0.1977  0.0628  0.0241
 3370SOL    HW121569   0.317   3.967   4.645  1.0561 -0.7753  1.6060
 3370SOL    HW221570   0.356   3.959   4.502 -2.5303  1.5800  1.4227
 3371SOL     OW21571   0.279   3.958   0.770  0.4850  0.4630  0.4115
 3371SOL    HW121572   0.187   3.969   0.744  0.0302  1.6039  2.5608
 3371SOL    HW221573   0.339   3.987   0.701  1.7106  1.3054  1.8491
 3372SOL     OW21574   1.360   1.211   7.086  0.0094 -0.1878 -0.1249
 3372SOL    HW121575   1.308   1.155   7.028  0.9260 -1.2844  0.1107
 3372SOL    HW221576   1.387   1.139   7.143 -0.0531  1.0553  1.4591
 3373SOL     OW21577   1.504   2.374   3.476  0.3789  0.4099  0.1029
 3373SOL    HW121578   1.561   2.360   3.400 -0.2962 -1.7715 -0.0213
 3373SOL    HW221579   1.567   2.380   3.548  0.0230 -2.1030  0.6474
 3374SOL     OW21580   3.357   3.451   2.618  0.1230 -0.5668 -0.3346
 3374SOL    HW121581   3.352   3.544   2.597  0.1135 -0.4757  0.0719
 3374SOL    HW221582   3.350   3.416   2.529  2.3846 -0.9009 -0.3974
 3375SOL     OW21583   3.072   2.501   5.444  0.3114 -0.4279  0.3672
 3375SOL    HW121584   3.012   2.478   5.515  2.2327 -1.6660  1.5894
 3375SOL    HW221585   3.089   2.593   5.463  0.1380 -0.5998  1.3384
 3376SOL     OW21586   0.319   0.170   2.136 -0.2599 -0.2971  0.6673
 3376SOL    HW121587   0.372   0.094   2.161  1.6231  0.1196 -1.9975
 3376SOL    HW221588   0.256   0.141   2.070  1.3954  1.4363 -1.6731
 3377SOL     OW21589   3.241   1.714  16.254  0.5618 -0.2612 -0.4424
 3377SOL    HW121590   3.330   1.740  16.231  1.2906 -1.1380  1.3265
 3377SOL    HW221591   3.191   1.733  16.176  1.4501  0.1926 -0.9050
 3378SOL     OW21592   3.719   2.942   5.507 -0.2259  0.1346 -0.0206
 3378SOL    HW121593   3.674   3.015   5.464 -2.4251 -0.9947  0.3740
 3378SOL    HW221594   3.755   2.888   5.437 -1.6115 -1.5403  0.5528
 3379SOL     OW21595   1.597   4.198   8.823  0.2130  0.3057 -0.5531
 3379SOL    HW121596   1.538   4.222   8.752 -0.5293 -1.0600 -0.3993
 3379SOL    HW221597   1.568   4.253   8.896  0.6107  2.0389 -1.7227
 3380SOL     OW21598   4.630   0.401  12.210  0.0193  0.0735 -0.2501
 3380SOL    HW121599   4.651   0.340  12.280 -3.4074 -1.3654 -0.4862
 3380SOL    HW221600   4.541   0.426  12.233  0.6272  0.9571  1.1375
 3381SOL     OW21601   2.182   1.863   0.765 -0.1368 -0.4602  0.1153
 3381SOL    HW121602   2.141   1.832   0.847 -0.9361  3.7353  1.2778
 3381SOL    HW221603   2.163   1.956   0.775  2.5222 -0.0034  0.7277
 3382SOL     OW21604   2.148   4.707   3.889  0.1202  0.0451 -0.0425
 3382SOL    HW121605   2.120   0.051   3.951  0.9761  1.2479 -0.9704
 3382SOL    HW221606   2.241   4.694   3.910  0.2089  0.8232  0.0219
 3383SOL     OW21607   2.291   4.704   2.263  0.1482  0.1211  0.3456
 3383SOL    HW121608   2.384   4.681   2.262 -0.0022 -0.4509 -0.5406
 3383SOL    HW221609   2.260   4.614   2.248  2.2863 -0.7397  1.0702
 3384SOL     OW21610   0.443   3.097   7.202 -0.3858  0.3384  0.2917
 3384SOL    HW121611   0.468   3.077   7.292 -0.1684  1.6051  0.5042
 3384SOL    HW221612   0.486   3.181   7.189 -2.4929  1.5511  1.3051
 3385SOL     OW21613   4.223   1.947   5.710  0.6431  0.1441 -0.0672
 3385SOL    HW121614   4.259   1.991   5.633  0.9449 -1.2962 -0.7520
 3385SOL    HW221615   4.253   2.008   5.778 -1.8062 -0.2831  1.4110
 3386SOL     OW21616   1.231   1.732   1.535  0.1202  0.3634  0.3342
 3386SOL    HW121617   1.226   1.715   1.441  2.1677  2.0650 -0.0739
 3386SOL    HW221618   1.165   1.667   1.561  0.2832 -0.0690 -0.3327
 3387SOL     OW21619   2.854   3.571   3.284  1.1110  0.0144  0.5294
 3387SOL    HW121620   2.906   3.515   3.342  0.2936 -2.3366 -1.0068
 3387SOL    HW221621   2.858   3.652   3.334  1.2310  0.2993  0.0647
 3388SOL     OW21622   0.985   1.234   4.436  0.0178  0.8362 -0.2894
 3388SOL    HW121623   0.912   1.296   4.439  1.6438  2.5749  2.7925
 3388SOL    HW221624   1.056   1.294   4.412  1.2445 -0.7188 -0.5825
 3389SOL     OW21625   0.173   3.113   2.211  0.3171  0.1987  0.1308
 3389SOL    HW121626   0.244   3.109   2.276 -0.4432  0.4436  0.9879
 3389SOL    HW221627   0.121   3.187   2.243 -2.0550 -0.0990 -3.1245
 3390SOL     OW21628   2.565   3.250   2.066 -0.0507 -0.0561 -0.3295
 3390SOL    HW121629   2.599   3.223   1.981  1.1598 -0.0573  0.1670
 3390SOL    HW221630   2.624   3.318   2.098 -0.5645 -0.2308  0.9843
 3391SOL     OW21631   2.999   2.887   5.779  0.0656 -0.2425 -0.9042
 3391SOL    HW121632   3.020   2.941   5.855 -1.6928 -1.7921  0.6744
 3391SOL    HW221633   2.907   2.914   5.774  0.7261  2.2598  0.3648
 3392SOL     OW21634   1.194   3.350  15.957 -0.1087  0.3642 -0.4513
 3392SOL    HW121635   1.147   3.339  16.040  2.1403 -2.3809  0.4488
 3392SOL    HW221636   1.228   3.438  15.974 -0.8750  0.2412  1.7076
 3393SOL     OW21637   3.524   1.564  11.112 -0.3254 -0.1602  0.3138
 3393SOL    HW121638   3.505   1.579  11.020 -1.1966  0.6947  0.6383
 3393SOL    HW221639   3.535   1.657  11.131 -0.9937 -0.4808  2.2054
 3394SOL     OW21640   0.705   1.693   4.220  0.2829 -0.1027 -0.0591
 3394SOL    HW121641   0.744   1.749   4.287  0.9786 -0.4127 -0.1998
 3394SOL    HW221642   0.758   1.614   4.233 -0.0613 -0.0383  1.6191
 3395SOL     OW21643   4.245   4.325   9.851  0.0515  0.4485  0.2885
 3395SOL    HW121644   4.312   4.262   9.823 -0.6529 -0.6771  1.1080
 3395SOL    HW221645   4.179   4.333   9.782 -1.1970  2.3646  1.7181
 3396SOL     OW21646   2.110   4.138   5.764 -0.3736  0.2329 -0.3934
 3396SOL    HW121647   2.031   4.108   5.808  1.2573 -0.7381  1.8621
 3396SOL    HW221648   2.075   4.144   5.675 -1.6346  1.6064  0.2012
 3397SOL     OW21649   3.965   0.222   6.439 -0.0534 -0.7159  0.9743
 3397SOL    HW121650   3.946   0.241   6.531 -1.3702  0.2621  0.4995
 3397SOL    HW221651   3.873   0.211   6.412  0.5556 -0.1005 -1.3390
 3398SOL     OW21652   0.867   3.885   4.956  0.1230  0.2145  0.1533
 3398SOL    HW121653   0.791   3.908   4.903 -1.2474  1.0262  2.4852
 3398SOL    HW221654   0.936   3.937   4.915 -0.1576  0.0106 -0.5806
 3399SOL     OW21655   3.570   3.149   5.843  0.9028  0.2567 -0.3379
 3399SOL    HW121656   3.659   3.168   5.816  0.3066  0.8147 -1.8829
 3399SOL    HW221657   3.539   3.099   5.768  0.4476 -0.1604  0.1291
 3400SOL     OW21658   0.004   3.140   4.709  0.0506 -0.4535  0.2773
 3400SOL    HW121659   0.054   3.148   4.790  0.1856  1.4784  0.0018
 3400SOL    HW221660   4.647   3.181   4.742  0.2622 -1.0960  1.6010
 3401SOL     OW21661   3.895   2.432   9.240  0.1000  0.3884 -0.1391
 3401SOL    HW121662   3.928   2.351   9.280  2.1856  0.2965 -2.0508
 3401SOL    HW221663   3.969   2.477   9.200  2.5434 -3.7915 -0.3145
 3402SOL     OW21664   0.346   0.247  17.257 -0.3217  0.7216 -0.2308
 3402SOL    HW121665   0.367   0.272  17.167  1.2304  0.3391  0.0363
 3402SOL    HW221666   0.288   0.318  17.285 -1.0708  0.2964 -0.7138
 3403SOL     OW21667   1.881   1.269  15.731 -0.1584 -0.3072  0.6289
 3403SOL    HW121668   1.788   1.257  15.751 -0.0390  0.1598  1.4794
 3403SOL    HW221669   1.910   1.181  15.711  1.4768  0.0632  1.3902
 3404SOL     OW21670   0.245   2.449   8.188 -0.7605  0.1266 -0.0605
 3404SOL    HW121671   0.163   2.399   8.181 -0.4539 -0.3539 -0.1833
 3404SOL    HW221672   0.252   2.454   8.283 -0.9154  0.0922 -0.0461
 3405SOL     OW21673   0.461   2.661   1.935 -0.0278 -0.3661 -0.0544
 3405SOL    HW121674   0.431   2.597   1.870 -0.6293 -0.3093  0.1623
 3405SOL    HW221675   0.477   2.728   1.868 -0.3622 -2.4586 -2.2440
 3406SOL     OW21676   0.762   3.191  12.720  0.8254  0.0618  0.1165
 3406SOL    HW121677   0.774   3.096  12.714  1.5866  0.2996 -2.3177
 3406SOL    HW221678   0.800   3.223  12.638 -0.0959 -1.4550 -0.8920
 3407SOL     OW21679   3.684   1.547   2.705 -0.3159 -0.2543 -0.0720
 3407SOL    HW121680   3.727   1.632   2.708  1.1768 -0.9942 -0.2581
 3407SOL    HW221681   3.759   1.489   2.721  0.0034  0.1103 -0.2462
 3408SOL     OW21682   0.229   1.425  15.457  0.0134  0.2287 -0.0646
 3408SOL    HW121683   0.231   1.413  15.362 -2.2776 -0.1420 -0.0677
 3408SOL    HW221684   0.274   1.509  15.458  2.8401 -1.2546 -0.2326
 3409SOL     OW21685   4.240   2.956   7.129  0.0441 -0.7018  0.2907
 3409SOL    HW121686   4.221   3.020   7.060  0.2597 -0.4359  0.4808
 3409SOL    HW221687   4.259   3.020   7.197  0.7122 -0.8542  0.2434
 3410SOL     OW21688   3.189   1.149   3.624  0.1323 -0.2833  0.0809
 3410SOL    HW121689   3.159   1.083   3.686 -1.0583 -0.5002 -0.7280
 3410SOL    HW221690   3.130   1.141   3.549 -2.6241  2.5329  1.9905
 3411SOL     OW21691   0.506   3.562   8.076 -0.1237 -0.4024  0.4389
 3411SOL    HW121692   0.509   3.612   7.995 -2.0752  1.3907  1.4682
 3411SOL    HW221693   0.524   3.473   8.047 -3.8028 -0.0077 -3.0066
 3412SOL     OW21694   0.800   2.531   7.695  0.7913  0.4160 -0.1520
 3412SOL    HW121695   0.826   2.564   7.610  1.0342  2.7563  0.8358
 3412SOL    HW221696   0.721   2.585   7.701 -0.2242 -1.0645 -0.1701
 3413SOL     OW21697   3.779   4.273   2.510 -0.1325 -0.4672  0.2505
 3413SOL    HW121698   3.792   4.183   2.542  0.0794 -0.8475 -0.9058
 3413SOL    HW221699   3.756   4.268   2.417  0.5149  0.2078  0.0607
 3414SOL     OW21700   0.859   3.886   9.751  0.4549 -0.0838  0.2538
 3414SOL    HW121701   0.937   3.847   9.792  0.7544 -0.4603 -0.6784
 3414SOL    HW221702   0.845   3.957   9.814  1.9093 -0.6091  1.1686
 3415SOL     OW21703   1.650   1.421   8.497  0.8272  0.4768 -0.3985
 3415SOL    HW121704   1.554   1.418   8.503  0.8892  1.0032  0.7728
 3415SOL    HW221705   1.674   1.347   8.553 -1.7574 -0.2633 -0.2494
 3416SOL     OW21706   0.466   1.713   9.611  0.0057 -0.1339  0.4231
 3416SOL    HW121707   0.500   1.690   9.524 -0.2342 -0.4203  0.4030
 3416SOL    HW221708   0.507   1.798   9.622  1.2453 -0.5846 -0.7752
 3417SOL     OW21709   1.625   1.699   3.564 -0.2644 -0.0337 -0.2472
 3417SOL    HW121710   1.531   1.679   3.559 -0.1121 -0.8427  0.0862
 3417SOL    HW221711   1.663   1.617   3.533  0.4227  0.8361 -1.6794
 3418SOL     OW21712   4.007   4.052   7.321  0.1700  0.0975 -0.3670
 3418SOL    HW121713   3.951   4.129   7.311  2.2668  1.4033 -2.1696
 3418SOL    HW221714   4.074   4.090   7.376  2.0959 -1.7591 -1.4257
 3419SOL     OW21715   4.674   1.547  14.904  0.0946 -0.6721 -0.1475
 3419SOL    HW121716   0.005   1.479  14.863 -0.4945 -0.5062 -1.2018
 3419SOL    HW221717   4.702   1.544  14.995  2.7040 -0.6056 -0.9626
 3420SOL     OW21718   4.094   4.366   7.157 -0.1326  0.2316 -0.0904
 3420SOL    HW121719   4.132   4.305   7.093 -1.6812 -0.1848 -0.6173
 3420SOL    HW221720   4.025   4.308   7.189 -1.0643  0.4923 -1.6090
 3421SOL     OW21721   4.333   2.307   1.842  0.9546  0.1642  0.0668
 3421SOL    HW121722   4.401   2.242   1.863 -0.4692 -1.1748  0.5657
 3421SOL    HW221723   4.282   2.251   1.782  1.5911 -0.2666 -0.0719
 3422SOL     OW21724   4.652   1.766   9.283  0.3767 -0.4282 -0.2408
 3422SOL    HW121725   4.582   1.814   9.240 -0.2688  0.3693  1.6963
 3422SOL    HW221726   4.602   1.708   9.341 -0.3828  2.3150  1.8345
 3423SOL     OW21727   1.535   4.427   6.910 -0.7057  0.7195 -0.3214
 3423SOL    HW121728   1.510   4.518   6.895 -1.2986  0.6166  0.0360
 3423SOL    HW221729   1.481   4.407   6.987 -0.0585 -0.2848 -0.1160
 3424SOL     OW21730   1.981   0.240   6.956 -0.2548 -0.0202  0.0434
 3424SOL    HW121731   2.052   0.244   6.893  0.4823 -3.1662  0.6738
 3424SOL    HW221732   1.923   0.177   6.913  1.3070 -1.4424  0.0224
 3425SOL     OW21733   1.078   3.322   5.463 -0.1319 -0.3068 -0.2527
 3425SOL    HW121734   1.038   3.278   5.387  0.8380 -1.9111  0.1690
 3425SOL    HW221735   1.005   3.382   5.474  0.2447  0.1623 -0.3185
 3426SOL     OW21736   4.389   2.622   9.670 -0.1224 -0.2061  0.2256
 3426SOL    HW121737   4.439   2.697   9.638  1.2439 -0.6973  1.2362
 3426SOL    HW221738   4.452   2.552   9.656 -1.6130 -0.9952 -2.5601
 3427SOL     OW21739   2.518   0.108   7.024 -0.1968  0.0225 -0.4490
 3427SOL    HW121740   2.466   0.028   7.025  0.7222 -0.5447  1.6883
 3427SOL    HW221741   2.607   0.073   7.026 -0.4559 -0.5234  1.5132
 3428SOL     OW21742   3.505   4.221  17.236 -0.7575 -0.5034  0.0199
 3428SOL    HW121743   3.522   4.133  17.202 -0.6316 -0.2072 -0.6879
 3428SOL    HW221744   3.411   4.223  17.250 -0.7905 -1.6321 -0.0476
 3429SOL     OW21745   4.533   1.393  15.292  0.2127 -0.1398  0.0086
 3429SOL    HW121746   4.560   1.485  15.285  1.7687 -0.5958  0.0324
 3429SOL    HW221747   4.481   1.383  15.213 -0.2899  2.8335 -0.0569
 3430SOL     OW21748   2.076   2.159   4.301  0.6636  0.0933 -0.5578
 3430SOL    HW121749   2.166   2.183   4.277  1.2463 -1.1363  0.4230
 3430SOL    HW221750   2.056   2.084   4.245 -3.0794  0.2276  0.6138
 3431SOL     OW21751   0.462   3.570   1.131 -0.4176  0.1405  0.0076
 3431SOL    HW121752   0.519   3.516   1.076 -0.8960 -0.5802  0.2064
 3431SOL    HW221753   0.431   3.639   1.074  2.9949  2.3650  0.8430
 3432SOL     OW21754   1.784   1.535   6.234 -0.0464 -0.0623 -0.6895
 3432SOL    HW121755   1.716   1.473   6.208  1.3586 -2.4202  1.1873
 3432SOL    HW221756   1.829   1.549   6.150 -0.0946  0.5333 -0.6108
 3433SOL     OW21757   1.293   4.167  11.430  0.6548 -0.0988 -0.0728
 3433SOL    HW121758   1.249   4.220  11.497 -0.7885  5.1359 -5.1014
 3433SOL    HW221759   1.383   4.168  11.464  0.8268 -1.3600 -0.5016
 3434SOL     OW21760   2.274   2.179   3.004 -0.0166 -0.3492  0.1757
 3434SOL    HW121761   2.187   2.147   3.025 -0.2551 -0.0263 -0.3304
 3434SOL    HW221762   2.323   2.151   3.082  0.9950  2.4520  0.5634
 3435SOL     OW21763   1.361   2.449   5.850 -0.4106 -0.2223  0.0534
 3435SOL    HW121764   1.310   2.523   5.818 -0.8044 -0.2215  0.6969
 3435SOL    HW221765   1.449   2.466   5.814 -0.6587 -0.2778 -0.5920
 3436SOL     OW21766   4.587   3.612   3.043  0.9879  0.7273  0.3878
 3436SOL    HW121767   4.679   3.633   3.057  1.4022 -1.3743  0.8290
 3436SOL    HW221768   4.564   3.676   2.976 -2.8803  1.2498  2.1924
 3437SOL     OW21769   2.227   1.354   5.106 -0.7018  0.0175 -0.0452
 3437SOL    HW121770   2.178   1.431   5.078 -0.4011  0.1193 -0.2846
 3437SOL    HW221771   2.282   1.342   5.029  0.9303 -0.9377  1.2607
 3438SOL     OW21772   4.412   1.495   8.389 -0.2813  0.7460  0.8035
 3438SOL    HW121773   4.480   1.474   8.454  1.1407  1.8259 -0.3407
 3438SOL    HW221774   4.345   1.430   8.409 -2.1376  2.0152 -1.3314
 3439SOL     OW21775   0.207   4.128   5.699  0.3058 -0.3078 -0.0028
 3439SOL    HW121776   0.224   4.216   5.663  0.2891 -0.8114 -1.2369
 3439SOL    HW221777   0.293   4.089   5.681  0.6214  0.8015 -0.8883
 3440SOL     OW21778   3.147   3.274   4.017  0.0449  0.7587 -0.4084
 3440SOL    HW121779   3.074   3.333   3.999 -1.6295 -0.4850  2.3594
 3440SOL    HW221780   3.104   3.194   4.045  2.8353 -1.9157 -3.8860
 3441SOL     OW21781   4.615   2.469   8.344 -0.1458  0.6095 -0.0814
 3441SOL    HW121782   4.663   2.397   8.305 -1.1998  0.2761 -0.7580
 3441SOL    HW221783   4.586   2.436   8.429  0.8760 -1.0444 -0.3786
 3442SOL     OW21784   0.377   4.487   0.921 -0.4417  0.1204  0.2203
 3442SOL    HW121785   0.353   4.395   0.934  0.2971 -0.3950 -2.0957
 3442SOL    HW221786   0.353   4.521   1.007  1.1048  2.3747 -0.2526
 3443SOL     OW21787   2.875   4.208   2.890 -0.4385 -0.2562 -0.1357
 3443SOL    HW121788   2.910   4.163   2.967 -0.7873  0.9830  0.7564
 3443SOL    HW221789   2.922   4.163   2.820 -1.4866 -1.1651 -0.2522
 3444SOL     OW21790   3.937   1.674   8.274  0.4423 -0.0924 -0.7958
 3444SOL    HW121791   3.923   1.625   8.355 -1.2351  1.0958 -0.3563
 3444SOL    HW221792   4.025   1.708   8.287  0.0337  1.2938 -1.5863
 3445SOL     OW21793   4.010   1.741   9.028 -0.3985  0.5612 -0.2705
 3445SOL    HW121794   3.931   1.689   9.045  0.1916 -0.6389 -1.2812
 3445SOL    HW221795   3.977   1.825   9.060 -3.1537  0.5567 -3.1663
 3446SOL     OW21796   2.875   0.141  10.285 -0.1958 -0.1032 -0.1150
 3446SOL    HW121797   2.848   0.221  10.241 -2.3575 -0.6746  0.1659
 3446SOL    HW221798   2.952   0.163  10.338 -0.9449 -1.8298  1.6807
 3447SOL     OW21799   0.729   1.347  14.201 -0.1359  0.4293  0.2427
 3447SOL    HW121800   0.802   1.382  14.149 -0.3213  0.3004 -0.1108
 3447SOL    HW221801   0.761   1.265  14.238 -1.0321  0.7187  1.6432
 3448SOL     OW21802   2.082   2.963   5.998 -0.4940 -0.9259  0.0946
 3448SOL    HW121803   2.145   3.014   5.947  0.9733 -2.2392  0.5867
 3448SOL    HW221804   2.135   2.954   6.077  0.3642 -2.5907 -0.6780
 3449SOL     OW21805   1.655   4.526  10.148 -0.3609  0.0008  0.3540
 3449SOL    HW121806   1.589   4.594  10.138  1.8173  1.9673 -0.7766
 3449SOL    HW221807   1.598   4.454  10.174  1.0491 -1.1214  0.3461
 3450SOL     OW21808   3.684   0.275   3.788 -0.0283  0.3317 -0.4959
 3450SOL    HW121809   3.753   0.295   3.852 -1.1834  0.9609  0.5487
 3450SOL    HW221810   3.658   0.359   3.751  1.0354  1.3132  0.9670
 3451SOL     OW21811   3.568   3.107  10.359  0.1147 -0.8193 -0.0116
 3451SOL    HW121812   3.552   3.095  10.266 -0.4451  2.4252 -0.3287
 3451SOL    HW221813   3.575   3.020  10.398  2.5048  0.3022  2.0719
 3452SOL     OW21814   4.703   3.375  12.299 -0.3424 -0.4471  0.1062
 3452SOL    HW121815   4.701   3.416  12.386 -2.7034  0.1991 -0.2487
 3452SOL    HW221816   0.026   3.443  12.251  2.0331 -1.9526  0.2491
 3453SOL     OW21817   0.071   4.541   0.262  0.4532 -0.0182  0.0982
 3453SOL    HW121818   0.150   4.594   0.247 -0.6983  1.4980 -0.6613
 3453SOL    HW221819   4.721   4.597   0.236 -1.1445 -1.3748  1.7477
 3454SOL     OW21820   2.581   3.088   4.744 -0.2168 -0.1231  0.0270
 3454SOL    HW121821   2.648   3.101   4.811 -0.7982 -2.2440  1.0190
 3454SOL    HW221822   2.605   3.159   4.683 -0.9436 -0.3722 -0.5435
 3455SOL     OW21823   4.544   4.080   7.311 -0.3526 -0.2896  0.1869
 3455SOL    HW121824   4.585   4.058   7.395 -1.4189 -1.5663  0.3685
 3455SOL    HW221825   4.466   4.026   7.317 -0.6576  0.0757 -0.5914
 3456SOL     OW21826   0.944   1.779   7.912 -0.2455 -0.8366  0.1417
 3456SOL    HW121827   0.896   1.806   7.991  1.0894  0.1350  0.6229
 3456SOL    HW221828   0.954   1.862   7.865  1.5248 -2.3750 -2.1796
 3457SOL     OW21829   3.889   0.738  16.326  0.5605 -0.8025  0.4775
 3457SOL    HW121830   3.946   0.701  16.394  1.1054 -0.1815  0.3577
 3457SOL    HW221831   3.868   0.828  16.349  1.7047 -0.6671  0.9771
 3458SOL     OW21832   4.325   1.727  14.955 -0.3287 -0.7997 -0.2939
 3458SOL    HW121833   4.301   1.784  15.027  0.7156 -1.8472  0.8776
 3458SOL    HW221834   4.285   1.773  14.881  1.3187  2.5704  0.9473
 3459SOL     OW21835   0.163   3.913  13.251  0.0716 -0.1808  0.1695
 3459SOL    HW121836   0.232   3.977  13.267 -0.3849  0.2841  0.2648
 3459SOL    HW221837   0.204   3.836  13.209 -0.3300 -0.4949  0.3531
 3460SOL     OW21838   4.191   2.305  13.435  0.0789  0.2648 -0.4907
 3460SOL    HW121839   4.163   2.230  13.383 -0.4496 -1.0786  1.7284
 3460SOL    HW221840   4.130   2.375  13.410  0.0159  0.3534 -0.1033
 3461SOL     OW21841   1.649   4.695   9.396  0.4613 -0.1603 -0.6382
 3461SOL    HW121842   1.612   4.620   9.441 -1.8061  0.1056 -2.0797
 3461SOL    HW221843   1.689   0.010   9.474 -0.8881  0.5880 -0.3222
 3462SOL     OW21844   1.844   4.562  12.255  0.1591  0.3125 -0.7949
 3462SOL    HW121845   1.814   4.471  12.262  1.1879 -0.0378 -0.9605
 3462SOL    HW221846   1.784   4.589  12.185  0.4823  0.1872 -1.1196
 3463SOL     OW21847   2.454   3.484   3.897  0.1725 -0.5032  0.0328
 3463SOL    HW121848   2.391   3.413   3.887 -0.3657  0.2872 -2.2729
 3463SOL    HW221849   2.413   3.528   3.971  2.0338 -0.5810  1.1041
 3464SOL     OW21850   4.412   3.855  15.835  0.1303  0.5298  0.2886
 3464SOL    HW121851   4.485   3.915  15.818  1.2053 -0.8180  0.1829
 3464SOL    HW221852   4.407   3.863  15.930 -3.8677 -1.1844  0.2291
 3465SOL     OW21853   4.248   0.466  10.526  0.2391  0.1851  0.1668
 3465SOL    HW121854   4.296   0.544  10.553  0.0682  0.8554 -1.4316
 3465SOL    HW221855   4.158   0.494  10.543 -0.1204 -1.7342  1.4854
 3466SOL     OW21856   3.112   0.302   1.095  0.1972  0.0277 -0.2158
 3466SOL    HW121857   3.093   0.240   1.024  3.3726  0.6667 -1.6338
 3466SOL    HW221858   3.148   0.254   1.169 -0.1396 -0.6981 -0.5254
 3467SOL     OW21859   0.668   0.191   7.414 -0.2038 -0.3594  0.3099
 3467SOL    HW121860   0.602   0.139   7.459  1.1512 -0.9938  1.5765
 3467SOL    HW221861   0.675   0.266   7.473  1.2849 -0.0339 -0.2776
 3468SOL     OW21862   0.757   0.834   8.997  0.1828  0.3844  0.3282
 3468SOL    HW121863   0.698   0.880   9.057 -1.7628 -1.2801 -0.2809
 3468SOL    HW221864   0.722   0.748   8.973 -0.3601  0.4776  0.7779
 3469SOL     OW21865   3.984   2.202   9.012  0.5450 -0.2592  0.1658
 3469SOL    HW121866   4.032   2.282   8.993  0.1604  0.5974  2.7293
 3469SOL    HW221867   4.044   2.158   9.073  1.8290  2.2413  0.7300
 3470SOL     OW21868   4.616   1.003   6.148 -0.4228 -0.1652  0.1749
 3470SOL    HW121869   4.650   0.920   6.180 -1.0959  1.3816  4.8851
 3470SOL    HW221870   4.535   0.977   6.104 -1.5624  1.9380  1.0159
 3471SOL     OW21871   3.834   3.278   3.771  0.8206  0.5818  0.2566
 3471SOL    HW121872   3.887   3.215   3.722 -0.2216 -0.0543 -0.0454
 3471SOL    HW221873   3.764   3.214   3.779  1.8951 -0.5966  0.1545
 3472SOL     OW21874   3.051   1.297   9.461  0.1310  0.4468 -0.4490
 3472SOL    HW121875   3.128   1.282   9.515  0.6935  0.5999 -1.2131
 3472SOL    HW221876   3.093   1.281   9.377  0.3421 -1.9574  0.0861
 3473SOL     OW21877   3.350   4.254   0.899  0.3882  0.2286  0.4601
 3473SOL    HW121878   3.324   4.306   0.823 -0.7495  0.9266  1.3320
 3473SOL    HW221879   3.281   4.284   0.958 -1.9601 -4.1461 -0.0406
 3474SOL     OW21880   1.451   3.582  11.594 -0.0656 -0.1038  0.1204
 3474SOL    HW121881   1.387   3.540  11.652 -1.6373  3.4389  0.9549
 3474SOL    HW221882   1.467   3.665  11.639  2.2624  0.6992 -2.2048
 3475SOL     OW21883   0.328   4.181   6.768 -0.1517  0.6144  0.3108
 3475SOL    HW121884   0.413   4.223   6.777  0.5571 -0.6206 -0.5826
 3475SOL    HW221885   0.309   4.218   6.682  1.3902 -0.1478 -0.3626
 3476SOL     OW21886   0.867   3.478   2.624  0.3671 -0.0145  0.0157
 3476SOL    HW121887   0.798   3.469   2.690  1.0023 -0.5563  0.6030
 3476SOL    HW221888   0.882   3.572   2.616  0.6728 -0.1111 -0.5354
 3477SOL     OW21889   0.773   0.778   2.931 -0.8443  0.0297  1.0484
 3477SOL    HW121890   0.776   0.692   2.888  0.0717  0.3243  0.5196
 3477SOL    HW221891   0.678   0.789   2.937 -1.2296 -1.6169 -1.8482
 3478SOL     OW21892   3.079   4.668   3.328 -0.3062 -0.2077 -0.4521
 3478SOL    HW121893   3.070   4.641   3.419  0.7957 -1.6026 -0.7512
 3478SOL    HW221894   3.041   0.033   3.324 -1.1747 -0.4917  1.7812
 3479SOL     OW21895   4.448   0.095   1.193  0.1429  0.1156  0.1029
 3479SOL    HW121896   4.479   0.074   1.281  2.2745 -0.9975 -0.9228
 3479SOL    HW221897   4.379   0.157   1.217  0.3345 -0.0483  1.0968
 3480SOL     OW21898   4.398   3.821   7.543 -0.0011  0.1498  0.3512
 3480SOL    HW121899   4.315   3.778   7.522 -0.6019  2.9143 -3.0296
 3480SOL    HW221900   4.451   3.761   7.595 -0.7217  3.4902  4.9371
 3481SOL     OW21901   1.965   1.589   5.672 -0.3670 -0.5776  0.9381
 3481SOL    HW121902   1.988   1.498   5.653 -0.9483 -0.1780 -1.7041
 3481SOL    HW221903   1.870   1.581   5.675 -0.3896 -0.7559 -0.2821
 3482SOL     OW21904   2.166   2.131   6.003 -0.0804 -0.0960  0.5103
 3482SOL    HW121905   2.212   2.209   6.036 -2.1527  0.5754  1.8434
 3482SOL    HW221906   2.093   2.129   6.065  0.5376 -2.1287  1.1522
 3483SOL     OW21907   1.408   1.429   2.206  0.3425 -0.0877  0.2078
 3483SOL    HW121908   1.317   1.400   2.202  0.4399 -0.3051 -0.4690
 3483SOL    HW221909   1.445   1.369   2.271 -0.4822 -0.0567  0.6996
 3484SOL     OW21910   0.286   3.637   3.734 -0.3673  0.1157  0.2056
 3484SOL    HW121911   0.198   3.602   3.724 -0.6223  1.0625 -0.8429
 3484SOL    HW221912   0.263   3.730   3.727  0.0633  0.1979 -0.0836
 3485SOL     OW21913   1.009   1.536   7.815 -0.1010  0.2014 -0.4100
 3485SOL    HW121914   0.993   1.536   7.909  0.5780 -1.1576 -0.2853
 3485SOL    HW221915   1.009   1.631   7.804  0.8089  0.3926  1.2273
 3486SOL     OW21916   2.607   0.587   7.719 -0.0721 -0.7258  0.4820
 3486SOL    HW121917   2.573   0.676   7.712  0.7728 -0.4679 -0.2438
 3486SOL    HW221918   2.554   0.560   7.794  0.1591  1.2084  1.3509
 3487SOL     OW21919   3.677   2.900  11.807 -0.1118  0.3584  0.0375
 3487SOL    HW121920   3.695   2.958  11.733 -1.0705  1.5513  0.7351
 3487SOL    HW221921   3.637   2.825  11.764 -0.9166  1.2359 -0.7232
 3488SOL     OW21922   2.202   2.958   3.541  0.5720 -0.3569 -0.0095
 3488SOL    HW121923   2.238   3.023   3.601 -0.3796 -0.2745  0.4633
 3488SOL    HW221924   2.113   2.948   3.574  1.0330  0.8241  1.5982
 3489SOL     OW21925   1.035   0.216   6.630  0.0613  0.0669 -0.4004
 3489SOL    HW121926   1.000   0.232   6.542 -1.0916 -0.1810  0.0108
 3489SOL    HW221927   0.958   0.243   6.680 -0.8296 -0.0441 -1.7063
 3490SOL     OW21928   0.553   0.265  13.545  0.0909  0.3317 -0.1190
 3490SOL    HW121929   0.558   0.341  13.604  0.1402 -1.7466  2.5895
 3490SOL    HW221930   0.489   0.218  13.599  1.6376 -0.6261  0.8842
 3491SOL     OW21931   0.838   1.534   4.738  0.0470  0.1684 -0.0803
 3491SOL    HW121932   0.830   1.494   4.652 -1.5515 -0.9529  0.5946
 3491SOL    HW221933   0.769   1.599   4.725 -1.1633 -1.5137 -1.9811
 3492SOL     OW21934   2.970   0.272  14.547  0.4946 -0.1210  0.1707
 3492SOL    HW121935   2.884   0.303  14.574  1.1642  1.3781  0.5877
 3492SOL    HW221936   2.969   0.179  14.571  0.1151 -0.2195 -0.2487
 3493SOL     OW21937   2.377   2.284   6.509  0.9200  0.2457  0.4343
 3493SOL    HW121938   2.471   2.299   6.496  1.2891 -1.0102  1.5394
 3493SOL    HW221939   2.377   2.215   6.576 -1.1527 -0.6574 -0.4867
 3494SOL     OW21940   2.308   4.539   8.243 -0.4206  0.0131  0.6663
 3494SOL    HW121941   2.227   4.535   8.192  0.1240  1.6637 -0.3384
 3494SOL    HW221942   2.375   4.493   8.191  1.4317  0.9004  2.2602
 3495SOL     OW21943   3.423   1.493   9.879 -0.0713  0.1397  0.1310
 3495SOL    HW121944   3.343   1.545   9.891  0.0231  0.1835  0.5650
 3495SOL    HW221945   3.497   1.551   9.901 -2.6111  3.7835 -0.8154
 3496SOL     OW21946   2.471   4.276  12.728 -0.0590  0.3354 -0.3264
 3496SOL    HW121947   2.543   4.241  12.782 -1.0434 -1.5684 -0.2273
 3496SOL    HW221948   2.396   4.233  12.769  0.1787 -0.0648 -0.3018
 3497SOL     OW21949   4.622   2.539   1.623 -0.8941 -0.5106 -0.1457
 3497SOL    HW121950   4.686   2.529   1.693 -2.2657  0.6257  1.3009
 3497SOL    HW221951   4.631   2.465   1.563  1.2779  1.2246 -1.9393
 3498SOL     OW21952   1.395   4.451   3.238  0.4916  0.1152 -0.3101
 3498SOL    HW121953   1.370   4.398   3.162  0.0032  1.1523 -0.8783
 3498SOL    HW221954   1.460   4.508   3.198  0.1023  2.3517  2.2845
 3499SOL     OW21955   4.484   3.955   9.419 -0.2967  0.2273  0.3611
 3499SOL    HW121956   4.396   3.975   9.388  0.3246  1.2172 -0.8036
 3499SOL    HW221957   4.494   4.018   9.491  2.8103 -0.8095  0.8273
 3500SOL     OW21958   0.581   2.710  15.505  0.6441 -0.2743  0.1307
 3500SOL    HW121959   0.611   2.666  15.426 -0.1650  0.0372 -0.3503
 3500SOL    HW221960   0.648   2.779  15.516 -0.8749  1.1054  0.7591
 3501SOL     OW21961   4.561   4.648   6.787  0.1393  0.4255 -0.0951
 3501SOL    HW121962   4.550   4.674   6.696  1.0568  2.2792  0.3062
 3501SOL    HW221963   4.471   4.648   6.819 -0.4379 -3.2598 -1.8398
 3502SOL     OW21964   4.265   1.911   0.169  0.3883  0.1455  0.0092
 3502SOL    HW121965   4.170   1.915   0.182  0.4383  1.1657  0.0987
 3502SOL    HW221966   4.291   1.990   0.217  0.6260  0.0734 -0.0003
 3503SOL     OW21967   4.688   3.770   3.535  0.3492 -0.3872  0.4166
 3503SOL    HW121968   4.652   3.685   3.562 -0.7657 -0.1359 -0.2711
 3503SOL    HW221969   4.638   3.826   3.593 -1.2462 -0.0021 -1.3389
 3504SOL     OW21970   1.823   2.108  15.750 -0.2978  0.0182 -0.1858
 3504SOL    HW121971   1.784   2.028  15.715  0.2929 -0.5297  0.4165
 3504SOL    HW221972   1.897   2.081  15.805 -0.1069  0.1418 -0.3857
 3505SOL     OW21973   2.653   1.908   6.018 -0.2903  0.0300 -0.1218
 3505SOL    HW121974   2.595   1.978   5.988  1.2131  0.9871 -0.8332
 3505SOL    HW221975   2.682   1.865   5.938 -0.9588  0.9759 -0.8723
 3506SOL     OW21976   1.956   1.784   3.461 -0.1617  0.0681  0.4382
 3506SOL    HW121977   1.926   1.694   3.468  1.8108 -0.6287 -0.1334
 3506SOL    HW221978   2.039   1.774   3.506 -0.6178 -1.3949  0.9505
 3507SOL     OW21979   1.411   2.808   1.853 -0.0712  0.0925  0.0523
 3507SOL    HW121980   1.480   2.740   1.855 -0.8938 -0.7821 -1.2697
 3507SOL    HW221981   1.463   2.882   1.823 -0.1904  0.6769  1.2971
 3508SOL     OW21982   4.665   2.340   2.219  0.2437  0.0986  0.8318
 3508SOL    HW121983   4.579   2.356   2.181  0.6755  0.8510  0.1651
 3508SOL    HW221984   4.686   2.422   2.264 -0.1543  0.6176  0.0553
 3509SOL     OW21985   2.796   2.049   9.036  0.0679 -0.8424 -0.3528
 3509SOL    HW121986   2.872   2.030   9.091  0.6069 -1.7609 -1.4269
 3509SOL    HW221987   2.737   1.975   9.046 -1.6471  0.5884  0.1064
 3510SOL     OW21988   0.715   4.289   7.838 -0.1613  0.1526 -0.2012
 3510SOL    HW121989   0.765   4.330   7.767  0.7797 -0.4061  0.1348
 3510SOL    HW221990   0.771   4.336   7.901  0.9598 -0.0373 -1.0556
 3511SOL     OW21991   3.053   0.469   1.310 -0.1124  0.4416  0.1807
 3511SOL    HW121992   3.144   0.500   1.316 -0.2814  1.3296 -1.6406
 3511SOL    HW221993   3.064   0.411   1.234  0.2510  1.8763 -0.8747
 3512SOL     OW21994   2.160   4.206   4.845  0.3343  0.2305  0.7357
 3512SOL    HW121995   2.098   4.271   4.881  1.2478  1.7573 -0.4329
 3512SOL    HW221996   2.236   4.247   4.886  2.1920 -0.9757 -1.5014
 3513SOL     OW21997   2.244   3.492   6.782 -0.4813  0.2156 -0.5398
 3513SOL    HW121998   2.277   3.577   6.753 -1.9657  0.4918 -1.4078
 3513SOL    HW221999   2.325   3.443   6.779 -1.0621 -0.6427 -2.1089
 3514SOL     OW22000   3.374   2.187  17.367 -0.3602  0.4731  0.2814
 3514SOL    HW122001   3.463   2.184  17.403  0.8999 -1.4101 -2.8766
 3514SOL    HW222002   3.345   2.096  17.376  0.4798  0.0965 -0.6839
 3515SOL     OW22003   4.185   3.649   2.394 -0.2247 -0.0172  0.1673
 3515SOL    HW122004   4.211   3.560   2.418  0.4032 -0.2426 -1.4019
 3515SOL    HW222005   4.183   3.653   2.299 -2.6069  0.3015  0.2202
 3516SOL     OW22006   4.570   0.455  13.552  0.4169 -0.5977 -0.2291
 3516SOL    HW122007   4.543   0.411  13.633  1.8284  1.6060  1.4341
 3516SOL    HW222008   4.533   0.393  13.489 -0.1733 -2.5702  2.0605
 3517SOL     OW22009   1.748   0.714   5.851 -0.0231 -0.4100 -0.3332
 3517SOL    HW122010   1.827   0.725   5.902 -0.8656 -2.5306  1.4233
 3517SOL    HW222011   1.724   0.622   5.862 -1.5522 -0.2165 -1.9506
 3518SOL     OW22012   0.362   1.160   6.802 -0.3746 -0.1065  0.5320
 3518SOL    HW122013   0.284   1.200   6.763 -0.9758 -2.6432 -0.8216
 3518SOL    HW222014   0.390   1.120   6.720  1.3049 -1.8802  1.9635
 3519SOL     OW22015   0.285   0.862   1.272  0.2725 -0.5727 -0.4760
 3519SOL    HW122016   0.214   0.798   1.281  0.5266 -0.6264  1.0624
 3519SOL    HW222017   0.264   0.910   1.192  0.1495  1.3256  0.6813
 3520SOL     OW22018   0.437   4.441   4.795  0.1701  0.2242 -0.1587
 3520SOL    HW122019   0.490   4.416   4.719  0.2221  0.1878 -0.1099
 3520SOL    HW222020   0.478   4.401   4.871  0.6453 -1.3816 -1.2635
 3521SOL     OW22021   0.449   1.995   4.279 -0.0416 -0.5432  0.0025
 3521SOL    HW122022   0.535   2.025   4.251  0.3726  2.3541  4.4644
 3521SOL    HW222023   0.424   1.942   4.203 -0.4878  0.6931 -0.7194
 3522SOL     OW22024   1.197   2.045   6.216  0.3094 -0.5425 -0.6817
 3522SOL    HW122025   1.277   1.996   6.199  1.3004  0.9353 -0.3631
 3522SOL    HW222026   1.208   2.120   6.157  0.3463  0.3443  0.4352
 3523SOL     OW22027   2.298   1.455   8.182 -0.4491  0.8268  0.6218
 3523SOL    HW122028   2.364   1.413   8.126  1.0077  1.1497  2.1219
 3523SOL    HW222029   2.260   1.515   8.117  0.4168  1.9134  1.1232
 3524SOL     OW22030   1.153   4.570   0.352  0.2091  0.1889  0.4660
 3524SOL    HW122031   1.148   4.659   0.316  0.4773  0.2965  0.6931
 3524SOL    HW222032   1.060   4.559   0.373  0.2975 -2.0333 -0.3672
 3525SOL     OW22033   4.234   0.393   5.781  0.0183  0.5819 -0.6157
 3525SOL    HW122034   4.158   0.451   5.785  0.9820  1.8393 -0.2864
 3525SOL    HW222035   4.234   0.371   5.688 -3.3065 -1.2843 -0.1711
 3526SOL     OW22036   4.362   0.553   7.412  0.7708 -0.4441  0.7453
 3526SOL    HW122037   4.341   0.611   7.485  2.2186 -0.5772  1.2729
 3526SOL    HW222038   4.363   0.610   7.335  1.0977  0.2568  1.2722
 3527SOL     OW22039   0.818   1.819  10.767 -0.4418 -0.4336  0.3198
 3527SOL    HW122040   0.845   1.911  10.768 -1.2384 -0.1897 -0.8634
 3527SOL    HW222041   0.762   1.819  10.690  0.2384 -1.2307 -0.1711
 3528SOL     OW22042   3.363   4.243   4.775 -0.7343 -0.9325 -0.2363
 3528SOL    HW122043   3.381   4.222   4.866  0.7931  0.5594 -0.1892
 3528SOL    HW222044   3.277   4.202   4.762 -1.1347  0.8873 -3.4904
 3529SOL     OW22045   3.338   3.245   4.326 -0.2837 -0.7067 -0.6306
 3529SOL    HW122046   3.366   3.218   4.414 -0.2889  0.5077 -0.2509
 3529SOL    HW222047   3.395   3.321   4.319 -1.7334  0.7851  3.4054
 3530SOL     OW22048   2.355   3.296   7.967  0.2728  0.7130  0.0015
 3530SOL    HW122049   2.335   3.344   8.047 -0.5688  0.2416  0.0810
 3530SOL    HW222050   2.326   3.210   7.998  0.6564 -0.1819 -2.0622
 3531SOL     OW22051   4.127   1.422   4.929  0.1334  0.7042 -0.0120
 3531SOL    HW122052   4.189   1.441   4.999  1.8130  0.5605 -1.4615
 3531SOL    HW222053   4.174   1.447   4.850 -0.5702  1.6824 -0.1246
 3532SOL     OW22054   0.111   4.384   7.351  0.1360 -0.3867  0.4536
 3532SOL    HW122055   0.070   4.329   7.283  0.4407  1.7658 -1.4586
 3532SOL    HW222056   0.152   4.316   7.404 -1.5702 -0.2582  1.9363
 3533SOL     OW22057   3.555   3.834  17.421  0.0791 -0.4022 -0.2959
 3533SOL    HW122058   3.486   3.861  17.361 -0.5834 -0.5055  0.4205
 3533SOL    HW222059   3.590   3.916  17.456  0.5125 -0.7218  0.0213
 3534SOL     OW22060   1.906   3.401   7.051 -0.8169  0.5849  0.4159
 3534SOL    HW122061   1.911   3.364   6.963 -1.7575  1.0611  0.1670
 3534SOL    HW222062   1.829   3.355   7.084  0.4365 -0.5760  1.7579
 3535SOL     OW22063   1.522   3.925   3.150 -0.6112  0.2056  0.0111
 3535SOL    HW122064   1.437   3.949   3.111 -1.1469 -1.3005  0.2274
 3535SOL    HW222065   1.525   4.008   3.198 -0.4926 -0.1851  0.6835
 3536SOL     OW22066   0.535   0.274   7.726 -0.1990  0.1393  0.2504
 3536SOL    HW122067   0.555   0.339   7.659 -0.8700  0.5290  0.4257
 3536SOL    HW222068   0.620   0.235   7.745  0.5698  1.7383  0.0575
 3537SOL     OW22069   4.589   2.860   5.336 -0.5388 -0.1363  0.3421
 3537SOL    HW122070   4.606   2.931   5.274  1.0105 -0.0326  0.8812
 3537SOL    HW222071   4.547   2.915   5.403 -3.4527 -0.6866 -1.0467
 3538SOL     OW22072   0.787   2.106  10.451 -0.1805  0.2164 -0.6599
 3538SOL    HW122073   0.882   2.107  10.457 -0.1615  2.6969 -1.5937
 3538SOL    HW222074   0.767   2.024  10.497 -2.8016  0.0311 -2.1237
 3539SOL     OW22075   3.231   4.630   6.746  1.0256 -0.1269 -0.6526
 3539SOL    HW122076   3.271   4.712   6.776  1.2643 -0.4713 -0.0395
 3539SOL    HW222077   3.267   4.573   6.814 -0.7444 -0.2082  0.2014
 3540SOL     OW22078   2.957   0.843  14.627 -0.0839 -0.2496 -0.1838
 3540SOL    HW122079   3.000   0.914  14.579 -0.9713 -0.9877 -2.0511
 3540SOL    HW222080   2.969   0.881  14.714  1.5780  0.4308 -0.7170
 3541SOL     OW22081   2.030   3.122   3.322 -0.1440  0.0427 -0.5963
 3541SOL    HW122082   2.107   3.077   3.358  0.4080  1.0087 -0.5868
 3541SOL    HW222083   2.048   3.215   3.329 -0.0930 -0.0401  0.2917
 3542SOL     OW22084   4.199   4.183   8.840 -0.4961 -0.0140 -0.2133
 3542SOL    HW122085   4.279   4.212   8.796  0.7153  0.9177  2.5993
 3542SOL    HW222086   4.185   4.260   8.895  0.1741  0.5273 -0.8053
 3543SOL     OW22087   0.940   1.081  16.537  0.1017 -0.1629  0.4456
 3543SOL    HW122088   0.870   1.129  16.583 -0.9047  0.7253 -1.9955
 3543SOL    HW222089   0.891   1.026  16.476  0.5677  0.4407 -0.4644
 3544SOL     OW22090   0.851   3.464   5.576  0.8280  0.2119 -0.1383
 3544SOL    HW122091   0.796   3.540   5.596 -0.4322 -1.0217  1.0874
 3544SOL    HW222092   0.794   3.419   5.513  0.6849  0.3365 -0.0982
 3545SOL     OW22093   2.069   1.195  15.001 -0.0114 -0.1282 -0.7445
 3545SOL    HW122094   2.157   1.166  14.979  0.1091  0.0351 -0.4833
 3545SOL    HW222095   2.068   1.173  15.094 -4.1111  0.2124 -0.6721
 3546SOL     OW22096   1.408   0.223   2.712 -0.1654  0.5438  0.6930
 3546SOL    HW122097   1.464   0.178   2.775  1.3052 -0.8225 -1.5906
 3546SOL    HW222098   1.435   0.314   2.728  0.6789  0.2350  1.0138
 3547SOL     OW22099   1.901   2.594   4.823 -0.2421 -0.2777 -0.0132
 3547SOL    HW122100   1.973   2.593   4.761  0.2061  0.6218  0.4926
 3547SOL    HW222101   1.948   2.605   4.906  1.5085  0.1163 -1.0705
 3548SOL     OW22102   2.940   0.594   1.522 -0.5290  0.2097  0.5304
 3548SOL    HW122103   2.970   0.576   1.433  1.0605  1.5885  0.8007
 3548SOL    HW222104   2.996   0.530   1.567  0.6049 -0.1206 -1.3643
 3549SOL     OW22105   1.446   2.464  17.573 -0.3330 -0.2602  0.2555
 3549SOL    HW122106   1.358   2.429  17.586 -1.0054  1.6168  0.6934
 3549SOL    HW222107   1.483   2.436  17.657  1.0792 -2.0529 -0.9496
 3550SOL     OW22108   3.332   1.061  10.498  0.1816 -0.0147 -0.0373
 3550SOL    HW122109   3.380   1.054  10.581 -0.5656 -1.1234  0.2959
 3550SOL    HW222110   3.313   0.968  10.485  2.4984 -0.3929 -0.6685
 3551SOL     OW22111   3.458   2.948   9.923 -1.0950  0.3008  0.6713
 3551SOL    HW122112   3.483   3.025   9.872 -2.4318  1.2679  1.4748
 3551SOL    HW222113   3.363   2.958   9.920 -0.9909  1.1251 -0.2109
 3552SOL     OW22114   3.083   3.298   9.594  0.4220 -0.0370 -0.0778
 3552SOL    HW122115   3.128   3.247   9.527 -2.1235 -1.6944 -0.5452
 3552SOL    HW222116   3.152   3.304   9.660  1.1277  3.7995 -1.1697
 3553SOL     OW22117   3.967   0.326   6.715 -0.1808  0.3361 -0.2813
 3553SOL    HW122118   3.976   0.232   6.726 -1.1038  0.2921  0.0700
 3553SOL    HW222119   3.879   0.332   6.678  0.3421  2.9130 -1.1544
 3554SOL     OW22120   0.198   4.066   0.431 -0.3307  0.6254 -0.0109
 3554SOL    HW122121   0.290   4.043   0.445 -0.0761  2.1037  0.6536
 3554SOL    HW222122   0.183   4.152   0.468  1.3029  0.5280  0.8665
 3555SOL     OW22123   4.274   1.650   8.206 -0.0021 -0.1833 -0.3276
 3555SOL    HW122124   4.231   1.714   8.263 -0.2894 -0.8119  0.1532
 3555SOL    HW222125   4.319   1.596   8.270 -0.2387 -0.4600 -0.3917
 3556SOL     OW22126   2.990   2.056  15.952 -0.0346  0.2507 -0.2378
 3556SOL    HW122127   2.909   2.009  15.973 -0.4360  0.9322 -0.2804
 3556SOL    HW222128   3.054   1.994  15.987  0.4262  0.0936 -1.3706
 3557SOL     OW22129   1.845   1.250   3.606 -0.2886 -0.4500  0.3256
 3557SOL    HW122130   1.929   1.246   3.560 -0.2351  1.5110  0.2879
 3557SOL    HW222131   1.865   1.204   3.688  1.1636  1.4837  1.0609
 3558SOL     OW22132   0.258   2.084  11.078 -0.5035 -0.2670  0.0515
 3558SOL    HW122133   0.301   2.014  11.127 -0.8281  0.6917  1.7329
 3558SOL    HW222134   0.168   2.070  11.107 -0.7471  2.5093  0.6779
 3559SOL     OW22135   2.490   2.003  11.222  0.4793 -0.2110  0.3775
 3559SOL    HW122136   2.515   1.931  11.164 -0.2722 -1.4496  1.5931
 3559SOL    HW222137   2.556   2.067  11.195  0.3557 -0.8181 -1.3804
 3560SOL     OW22138   0.090   4.221   9.824  0.7862 -0.3904 -0.4263
 3560SOL    HW122139   0.167   4.192   9.873  0.2837  0.0876  0.6350
 3560SOL    HW222140   0.119   4.273   9.748  1.4697  2.0499  1.5085
 3561SOL     OW22141   4.595   0.272   3.452 -0.3347 -0.0605 -0.6229
 3561SOL    HW122142   4.576   0.350   3.401 -0.5344 -0.6397 -1.4416
 3561SOL    HW222143   4.545   0.300   3.529  0.0050  1.2999 -0.9044
 3562SOL     OW22144   1.965   0.667   7.783 -0.4056  0.2520 -0.0264
 3562SOL    HW122145   1.913   0.588   7.766  1.9514 -0.9174 -1.7564
 3562SOL    HW222146   1.936   0.689   7.872  1.4927 -3.4569  1.4794
 3563SOL     OW22147   0.393   0.486   6.889 -0.3367 -0.1450 -0.4643
 3563SOL    HW122148   0.471   0.431   6.890 -0.8109 -0.8281 -0.7181
 3563SOL    HW222149   0.416   0.534   6.968 -2.3646 -0.6007  0.4107
 3564SOL     OW22150   3.087   4.397   4.020 -0.1493 -0.7035  0.1175
 3564SOL    HW122151   3.073   4.373   4.111  0.1030 -2.8567 -0.4116
 3564SOL    HW222152   3.120   4.310   3.995  1.1651 -0.1348 -0.1751
 3565SOL     OW22153   3.601   2.368  13.216  0.5442  0.0433  0.4773
 3565SOL    HW122154   3.546   2.296  13.186  0.2578  0.7327 -0.6301
 3565SOL    HW222155   3.549   2.436  13.175 -0.4351 -2.1280 -1.8857
 3566SOL     OW22156   4.185   3.430   8.675 -0.3371  0.4390 -0.2828
 3566SOL    HW122157   4.092   3.407   8.679  0.0163 -0.7035  1.2954
 3566SOL    HW222158   4.228   3.345   8.685 -1.3200 -0.0366 -0.0620
 3567SOL     OW22159   0.974   2.973   8.349  0.5436 -0.0302  0.3827
 3567SOL    HW122160   0.890   2.993   8.309  0.2327 -0.9296  0.5946
 3567SOL    HW222161   1.018   2.916   8.285  1.7593  0.8908  0.3912
 3568SOL     OW22162   3.751   2.886   8.724 -0.1635  0.0494  0.3567
 3568SOL    HW122163   3.806   2.912   8.650 -0.1499  1.1534  0.7452
 3568SOL    HW222164   3.687   2.827   8.683  0.3136 -0.6050  0.5589
 3569SOL     OW22165   4.255   4.140   1.889 -0.2677 -0.1790 -0.3492
 3569SOL    HW122166   4.183   4.172   1.944  0.7067  2.7094 -0.7362
 3569SOL    HW222167   4.314   4.127   1.963 -1.0568  3.9142  0.9815
 3570SOL     OW22168   1.765   2.299   9.165  0.1174 -0.0564 -0.0805
 3570SOL    HW122169   1.743   2.235   9.097 -0.3664 -1.1897  1.1399
 3570SOL    HW222170   1.693   2.272   9.223  1.2557 -1.8769  0.4987
 3571SOL     OW22171   0.380   0.155   4.232  0.5585 -0.0447  0.0218
 3571SOL    HW122172   0.467   0.154   4.193  0.6787  1.4769  0.2564
 3571SOL    HW222173   0.370   0.068   4.272  2.4120 -0.8981 -1.3848
 3572SOL     OW22174   2.693   3.576  17.098  0.0305  0.0643  0.1815
 3572SOL    HW122175   2.646   3.637  17.042 -0.3630  1.4760  2.0514
 3572SOL    HW222176   2.783   3.609  17.094  0.6605 -1.3035  3.2517
 3573SOL     OW22177   3.679   2.151   9.452 -0.1185 -0.0378 -0.4913
 3573SOL    HW122178   3.614   2.115   9.513 -1.0857  2.9466  0.2292
 3573SOL    HW222179   3.679   2.243   9.478  0.1651 -0.0457 -0.4564
 3574SOL     OW22180   3.792   4.166  14.245  0.5471  0.3131 -0.3022
 3574SOL    HW122181   3.766   4.139  14.157 -0.3582 -0.5074  0.2246
 3574SOL    HW222182   3.842   4.246  14.228  1.9188 -0.5860 -0.4871
 3575SOL     OW22183   1.162   0.011   6.942 -0.4602  0.4161 -0.1673
 3575SOL    HW122184   1.235   4.709   6.999  0.9397  2.7050 -0.9561
 3575SOL    HW222185   1.178   4.681   6.864  2.3184 -2.5669  2.4272
 3576SOL     OW22186   4.176   3.257   9.720  0.2706 -0.3262 -0.2602
 3576SOL    HW122187   4.111   3.189   9.739 -0.5406  0.6405  0.4486
 3576SOL    HW222188   4.177   3.305   9.803 -1.1938 -0.8838  0.0859
 3577SOL     OW22189   4.034   0.385   5.557  0.1434 -0.2405 -0.0755
 3577SOL    HW122190   4.116   0.349   5.524 -0.0415  0.6171 -1.4639
 3577SOL    HW222191   3.973   0.326   5.514 -0.3154 -0.6201  1.0869
 3578SOL     OW22192   3.818   1.269  10.018 -0.1935  0.8577 -0.0569
 3578SOL    HW122193   3.848   1.180  10.035  0.6656  0.5332 -3.3375
 3578SOL    HW222194   3.767   1.260   9.937 -0.5206  0.3119  0.2062
 3579SOL     OW22195   4.053   2.880   5.412  0.0294 -0.1180  0.4307
 3579SOL    HW122196   3.962   2.882   5.383  0.4725  2.7369 -0.7494
 3579SOL    HW222197   4.059   2.790   5.444  1.4118  0.0672  0.7125
 3580SOL     OW22198   3.915   4.683   7.434 -0.5217  0.4658  0.5313
 3580SOL    HW122199   3.941   0.049   7.412 -0.0354 -0.0421 -0.9497
 3580SOL    HW222200   3.932   4.643   7.349  0.7517 -0.3316  1.1476
 3581SOL     OW22201   0.176   2.654   3.936 -0.1475  0.8851 -0.1440
 3581SOL    HW122202   0.207   2.697   3.856 -1.3274  1.4315 -0.3099
 3581SOL    HW222203   0.260   2.616   3.963 -0.7519  0.5150  1.2244
 3582SOL     OW22204   0.870   2.783   8.775  0.2349 -0.5440 -0.5491
 3582SOL    HW122205   0.824   2.725   8.836  0.8082 -0.5556 -0.1232
 3582SOL    HW222206   0.825   2.764   8.693 -0.5392 -0.8022 -0.0672
 3583SOL     OW22207   0.358   0.749  10.407 -0.1078 -0.6015  0.5728
 3583SOL    HW122208   0.264   0.735  10.400 -0.2423  0.3164  0.5264
 3583SOL    HW222209   0.387   0.658  10.399  1.8721 -0.0337  1.1477
 3584SOL     OW22210   0.920   4.459   4.846 -0.0264  0.1355  0.0219
 3584SOL    HW122211   0.872   4.379   4.864 -0.0052  0.2882  0.7770
 3584SOL    HW222212   1.011   4.437   4.831  0.3385  1.4284  0.3499
 3585SOL     OW22213   1.814   0.233   0.964 -0.0795 -0.3596  0.2210
 3585SOL    HW122214   1.757   0.258   1.037  2.8329  0.7079  2.1368
 3585SOL    HW222215   1.758   0.256   0.890 -0.7634 -1.6241  0.3515
 3586SOL     OW22216   4.410   0.283   7.824 -0.7652  0.3463 -0.4921
 3586SOL    HW122217   4.461   0.304   7.746 -1.4332 -1.7452 -1.4965
 3586SOL    HW222218   4.408   0.371   7.860  0.7013  0.8971 -1.7605
 3587SOL     OW22219   1.885   3.184   2.643 -0.8348 -0.3391  0.5443
 3587SOL    HW122220   1.811   3.178   2.583 -0.1800 -1.8417 -0.0978
 3587SOL    HW222221   1.936   3.114   2.602  2.5798  2.2589  0.3406
 3588SOL     OW22222   4.295   3.632   8.107  0.5863 -0.1243  0.3667
 3588SOL    HW122223   4.298   3.720   8.069  0.4788  0.4637  1.7157
 3588SOL    HW222224   4.267   3.651   8.197  1.5155  0.2383  0.5865
 3589SOL     OW22225   3.707   2.837  10.019  0.2119 -0.2046  0.0583
 3589SOL    HW122226   3.741   2.889  10.092 -1.5667  0.9071  0.1050
 3589SOL    HW222227   3.654   2.899   9.968 -3.6720 -2.3536  1.4792
 3590SOL     OW22228   1.682   0.437   5.823  0.1522 -0.3901 -0.2055
 3590SOL    HW122229   1.669   0.429   5.729  2.7435  0.7218 -0.6421
 3590SOL    HW222230   1.775   0.418   5.813  0.7675  1.8355  1.4246
 3591SOL     OW22231   0.244   0.781   5.207  0.0456  0.2313 -0.1951
 3591SOL    HW122232   0.223   0.760   5.298 -1.1748  0.7468 -0.3627
 3591SOL    HW222233   0.331   0.741   5.207  0.5470  1.3100  0.5134
 3592SOL     OW22234   2.087   4.164   8.569 -0.1728 -0.2688 -0.4461
 3592SOL    HW122235   2.081   4.072   8.591  0.5025  0.6737  3.5694
 3592SOL    HW222236   2.011   4.197   8.616  2.1532  1.6489  2.0116
 3593SOL     OW22237   0.100   3.121   4.991  0.0106 -0.3963 -0.4336
 3593SOL    HW122238   0.091   3.095   5.083 -3.9997 -0.1017 -0.7722
 3593SOL    HW222239   0.141   3.207   4.988 -1.1563  0.1178 -1.5354
 3594SOL     OW22240   3.303   1.074   4.669  0.2025  0.1197  0.3980
 3594SOL    HW122241   3.304   1.079   4.764  1.8630  0.8169  0.3493
 3594SOL    HW222242   3.307   0.979   4.655 -2.1679 -0.0096  0.7528
 3595SOL     OW22243   2.962   1.815   7.491 -0.1504  0.0110  0.0306
 3595SOL    HW122244   3.045   1.861   7.500 -0.5789  0.3169  2.4691
 3595SOL    HW222245   2.959   1.762   7.571  1.0729 -0.1389 -0.0249
 3596SOL     OW22246   0.475   4.151   7.216 -0.0260 -0.4558 -0.3403
 3596SOL    HW122247   0.509   4.229   7.171 -2.7741  0.8842 -0.1152
 3596SOL    HW222248   0.395   4.132   7.167  0.0617 -0.8619 -0.3234
 3597SOL     OW22249   1.561   3.957   1.687  0.0083 -0.4479 -0.8709
 3597SOL    HW122250   1.651   3.957   1.655  0.2388  0.4860 -0.2216
 3597SOL    HW222251   1.570   3.896   1.760  0.7778 -1.3234 -1.6940
 3598SOL     OW22252   2.408   2.830  12.760 -0.2516  0.3449  0.0010
 3598SOL    HW122253   2.321   2.790  12.755 -0.1404  0.0485  0.4099
 3598SOL    HW222254   2.401   2.917  12.799 -0.7633 -0.2274  1.1819
 3599SOL     OW22255   0.679   4.465   2.442  0.0894  0.8208 -0.3716
 3599SOL    HW122256   0.698   4.469   2.348 -2.2283  0.5102 -0.8522
 3599SOL    HW222257   0.701   4.554   2.468  0.2253 -0.1154  2.6656
 3600SOL     OW22258   3.898   4.543  10.831 -0.3237 -0.3644 -0.1135
 3600SOL    HW122259   3.957   4.467  10.842  1.3355  0.9577  0.1294
 3600SOL    HW222260   3.952   4.583  10.763  1.4481  0.6721  1.8738
 3601SOL     OW22261   1.892   0.973   4.123 -0.1333 -0.9125 -0.0389
 3601SOL    HW122262   1.829   1.029   4.168 -0.9270  0.1707 -2.4832
 3601SOL    HW222263   1.980   1.007   4.144 -0.0317 -1.1601 -0.0683
 3602SOL     OW22264   2.569   3.372   8.175 -0.2654  0.3350  0.3085
 3602SOL    HW122265   2.563   3.331   8.261  1.2581 -0.6023 -0.0397
 3602SOL    HW222266   2.498   3.332   8.125 -1.3986  1.6084  0.8897
 3603SOL     OW22267   3.783   0.334   5.941 -0.9381  0.4550 -0.1646
 3603SOL    HW122268   3.866   0.347   5.987 -1.4842  0.6784  0.7470
 3603SOL    HW222269   3.745   0.260   5.987 -1.7550  0.9901  0.0253
 3604SOL     OW22270   1.408   4.090   4.245  0.8453  0.4355  0.1080
 3604SOL    HW122271   1.367   4.082   4.331  1.6027 -3.5476  0.0897
 3604SOL    HW222272   1.479   4.152   4.264 -0.4361  1.1951  2.3978
 3605SOL     OW22273   4.617   2.868   4.983  0.3199 -0.5688  0.1116
 3605SOL    HW122274   4.584   2.778   4.984 -1.4498  0.0481 -1.1492
 3605SOL    HW222275   4.682   2.872   5.053 -0.5481  0.5792  0.8597
 3606SOL     OW22276   3.938   2.197   0.233 -0.3312  0.1911  0.0901
 3606SOL    HW122277   3.957   2.232   0.321 -2.7243  0.0908  0.6704
 3606SOL    HW222278   4.022   2.205   0.188  1.1841 -1.9116  2.5489
 3607SOL     OW22279   3.010   0.752   1.736 -0.0798  0.2226  0.2258
 3607SOL    HW122280   2.990   0.701   1.658 -1.6647  3.9399 -1.8383
 3607SOL    HW222281   3.089   0.798   1.708 -0.2536 -1.5977 -3.2106
 3608SOL     OW22282   1.615   0.674   3.046  0.2627  0.1323  0.4020
 3608SOL    HW122283   1.576   0.703   3.128  1.3134  1.1927  0.5308
 3608SOL    HW222284   1.680   0.743   3.032  0.3472  0.2015  1.1272
 3609SOL     OW22285   3.506   2.027   2.132 -0.2027  0.4277  0.1118
 3609SOL    HW122286   3.477   1.940   2.159 -0.6295 -0.1353 -2.1737
 3609SOL    HW222287   3.426   2.079   2.138  0.0198  0.7805 -0.0025
 3610SOL     OW22288   1.693   3.771   8.102  0.5190 -0.3069 -0.1903
 3610SOL    HW122289   1.713   3.864   8.088 -2.1233  0.3176  0.0743
 3610SOL    HW222290   1.667   3.740   8.015 -0.0046 -3.4674  1.0909
 3611SOL     OW22291   3.886   0.331  16.933 -0.2549 -0.3081 -0.1104
 3611SOL    HW122292   3.825   0.288  16.993 -1.6319  0.5567 -0.9037
 3611SOL    HW222293   3.947   0.341  17.006  0.0064  0.6822 -0.4650
 3612SOL     OW22294   3.595   3.683   0.932 -0.3751 -0.6627 -0.6546
 3612SOL    HW122295   3.680   3.684   0.889 -0.6840  0.5820 -1.2354
 3612SOL    HW222296   3.543   3.742   0.877  0.0825  1.6855  1.4150
 3613SOL     OW22297   4.303   0.765   7.182  0.4305  0.4044  0.3736
 3613SOL    HW122298   4.248   0.833   7.144 -1.9926  0.7308  4.4480
 3613SOL    HW222299   4.248   0.689   7.168  1.7944 -0.9712  2.4325
 3614SOL     OW22300   1.168   0.451   1.844  0.3633 -0.2952 -0.1593
 3614SOL    HW122301   1.231   0.381   1.829 -0.9764 -1.4213 -0.5663
 3614SOL    HW222302   1.159   0.434   1.938  1.1462 -0.6598 -0.1498
 3615SOL     OW22303   0.698   3.761  14.587  0.5775  0.1193  0.0231
 3615SOL    HW122304   0.774   3.803  14.626  0.7069  1.8706 -2.0949
 3615SOL    HW222305   0.736   3.694  14.529 -0.1759 -2.3818  2.3913
 3616SOL     OW22306   0.130   3.179  15.476 -0.0684  0.3014  0.0071
 3616SOL    HW122307   0.052   3.129  15.454 -0.4802  0.4718  1.0519
 3616SOL    HW222308   0.097   3.262  15.441 -2.0421 -0.7303 -0.5879
 3617SOL     OW22309   4.272   4.121   6.173 -0.8272 -0.2964  0.4612
 3617SOL    HW122310   4.294   4.213   6.156  0.2247 -0.8777 -1.2387
 3617SOL    HW222311   4.238   4.128   6.263  1.9272  0.5960  1.4367
 3618SOL     OW22312   0.985   3.665  13.525 -0.3242  0.1175 -0.4307
 3618SOL    HW122313   0.896   3.654  13.559 -0.2453 -0.4455 -0.4070
 3618SOL    HW222314   0.974   3.637  13.434  3.7080 -1.6765 -0.3630
 3619SOL     OW22315   3.960   4.548  15.226 -0.1349  0.8744 -0.6190
 3619SOL    HW122316   3.897   4.542  15.155  0.2686 -0.3776 -0.8778
 3619SOL    HW222317   4.038   4.511  15.183  0.1527  2.0172 -1.0635
 3620SOL     OW22318   2.240   1.367  12.444 -0.2482 -0.7350  0.1808
 3620SOL    HW122319   2.303   1.382  12.514 -0.7351  2.2388 -0.0358
 3620SOL    HW222320   2.195   1.292  12.485 -0.9282 -0.2024  0.4145
 3621SOL     OW22321   1.337   3.051   6.426 -0.1903  0.0151 -0.2239
 3621SOL    HW122322   1.405   3.025   6.364  1.2651  0.3857  1.2229
 3621SOL    HW222323   1.255   3.022   6.385 -0.9934 -2.1409  2.8692
 3622SOL     OW22324   2.143   1.407   9.291  0.3118  0.0862 -0.3760
 3622SOL    HW122325   2.191   1.372   9.216 -1.4141 -0.3350 -1.2781
 3622SOL    HW222326   2.173   1.350   9.362 -0.2395  3.0415  2.2203
 3623SOL     OW22327   4.281   2.909  12.866  0.0782 -0.3540 -0.5997
 3623SOL    HW122328   4.205   2.940  12.916  2.2292  1.0970  1.7480
 3623SOL    HW222329   4.246   2.898  12.778 -0.3088 -0.2768 -0.4560
 3624SOL     OW22330   2.731   1.318  10.287 -0.6790  0.1812 -0.1367
 3624SOL    HW122331   2.783   1.326  10.208 -1.7475 -0.6755 -0.9421
 3624SOL    HW222332   2.687   1.238  10.256 -1.5105  1.0919 -1.2856
 3625SOL     OW22333   0.862   1.192  15.940  0.1362 -0.3249  0.3792
 3625SOL    HW122334   0.840   1.162  15.852  1.2060 -2.1963  0.7519
 3625SOL    HW222335   0.864   1.108  15.985  0.9418 -0.3917  0.2173
 3626SOL     OW22336   3.579   3.470   5.918 -0.0140 -0.5798 -0.1753
 3626SOL    HW122337   3.492   3.510   5.919  0.5662  0.6980 -0.0599
 3626SOL    HW222338   3.557   3.379   5.900 -2.2063 -0.2291  0.7654
 3627SOL     OW22339   4.658   1.214   8.186  0.0023 -0.6979  0.0335
 3627SOL    HW122340   4.649   1.309   8.197 -1.3413 -1.0254  1.7804
 3627SOL    HW222341   4.577   1.181   8.223 -0.2817 -1.5960 -1.3996
 3628SOL     OW22342   0.139   2.732   8.434  0.4236 -0.0518  0.1719
 3628SOL    HW122343   0.144   2.637   8.434  2.5750  0.0490  2.8019
 3628SOL    HW222344   0.043   2.737   8.433  0.4140 -0.7671 -1.6270
 3629SOL     OW22345   3.166   1.433  10.295  0.4606 -0.1012  0.5279
 3629SOL    HW122346   3.149   1.366  10.229 -3.8884  1.0387  0.4944
 3629SOL    HW222347   3.091   1.492  10.283 -0.6646 -1.1500  2.3227
 3630SOL     OW22348   2.354   1.924   7.790 -0.0993 -0.7971 -0.1131
 3630SOL    HW122349   2.267   1.923   7.830 -0.0317 -1.0952  0.0211
 3630SOL    HW222350   2.323   1.982   7.719  0.6844 -1.7861 -1.2539
 3631SOL     OW22351   4.013   4.075   5.080  0.2895  0.5604 -0.2993
 3631SOL    HW122352   4.103   4.050   5.099  0.6442  1.1201 -1.2265
 3631SOL    HW222353   4.017   4.099   4.987  0.9410 -0.7397 -0.5947
 3632SOL     OW22354   4.184   2.982   6.315 -0.1204 -0.3318 -0.2459
 3632SOL    HW122355   4.250   2.975   6.247  0.0741 -2.6237  0.2033
 3632SOL    HW222356   4.231   2.940   6.387  0.8415  2.0212  0.4932
 3633SOL     OW22357   3.085   4.237  15.070 -0.1442 -0.1234  0.0673
 3633SOL    HW122358   3.148   4.279  15.128 -1.0193 -0.4756  1.2799
 3633SOL    HW222359   3.023   4.308  15.052  0.0412 -0.0417 -0.2534
 3634SOL     OW22360   1.353   3.822   8.790 -0.9527 -0.4379 -0.4393
 3634SOL    HW122361   1.438   3.858   8.815 -1.1875 -1.7231  2.2307
 3634SOL    HW222362   1.307   3.906   8.792  0.7702  0.5307 -2.1871
 3635SOL     OW22363   0.782   3.325   5.344 -0.1377 -0.2930  0.7027
 3635SOL    HW122364   0.863   3.321   5.292 -0.8839  0.9246 -0.5500
 3635SOL    HW222365   0.714   3.323   5.277  1.3525 -1.4572 -0.7686
 3636SOL     OW22366   3.249   0.595  13.085 -0.6236 -0.1377 -0.3862
 3636SOL    HW122367   3.198   0.552  13.153 -1.2448  0.7245 -0.3027
 3636SOL    HW222368   3.312   0.536  13.043  1.4052  0.3149  1.9955
 3637SOL     OW22369   1.656   0.654   3.335 -0.0623 -0.1864 -0.3606
 3637SOL    HW122370   1.659   0.679   3.428  0.9778 -0.7052 -0.2641
 3637SOL    HW222371   1.749   0.640   3.322 -0.0555 -2.1014  1.7037
 3638SOL     OW22372   0.492   3.011  13.218 -0.3112  0.1380  0.3608
 3638SOL    HW122373   0.398   3.028  13.219 -0.2736  0.3104  0.6995
 3638SOL    HW222374   0.496   2.984  13.310 -1.5676 -1.1507  0.0314
 3639SOL     OW22375   2.217   2.589  11.447 -0.3542  0.2860  0.5863
 3639SOL    HW122376   2.129   2.598  11.485 -0.1812 -0.8259  1.2389
 3639SOL    HW222377   2.225   2.494  11.450  2.2925  0.4370 -1.4172
 3640SOL     OW22378   0.012   4.018   0.804 -0.0725 -0.8070  0.3099
 3640SOL    HW122379   4.692   4.092   0.845  0.5628  0.0669 -0.6046
 3640SOL    HW222380   0.042   3.973   0.883 -0.7024 -1.0619  0.4067
 3641SOL     OW22381   0.189   2.437   6.519  0.0678  0.5218  0.0307
 3641SOL    HW122382   0.138   2.377   6.575  0.2400  0.6782  0.3507
 3641SOL    HW222383   0.195   2.518   6.569  0.6528 -0.0062  0.8190
 3642SOL     OW22384   1.642   2.587  10.987 -0.1944 -0.1736  0.2035
 3642SOL    HW122385   1.700   2.620  11.055 -0.1655 -0.8396  0.5038
 3642SOL    HW222386   1.575   2.653  11.004 -1.4981 -2.0244  2.1761
 3643SOL     OW22387   4.709   1.203   5.649  0.0403 -0.4329 -0.0354
 3643SOL    HW122388   4.691   1.128   5.706  1.4889 -0.0914  0.8760
 3643SOL    HW222389   0.074   1.173   5.625 -0.4218 -0.8857 -1.1318
 3644SOL     OW22390   1.618   0.009   5.359 -0.2438 -0.5924  0.4590
 3644SOL    HW122391   1.678   0.022   5.286  0.8786 -0.9795  1.3032
 3644SOL    HW222392   1.661   4.677   5.425 -0.9318 -0.3641  1.0883
 3645SOL     OW22393   1.364   3.928   6.957  0.0488 -0.2659  0.4871
 3645SOL    HW122394   1.306   3.880   6.899  0.2496  3.2188 -2.5722
 3645SOL    HW222395   1.361   4.020   6.930 -2.4019 -0.3171  0.6323
 3646SOL     OW22396   3.437   0.396  11.261  0.3673 -0.5211 -0.2345
 3646SOL    HW122397   3.469   0.319  11.309  3.0061  0.6982 -0.0487
 3646SOL    HW222398   3.341   0.395  11.266  0.3806 -0.5681  0.0377
 3647SOL     OW22399   4.404   4.367   1.736  0.3828 -0.1200 -0.1400
 3647SOL    HW122400   4.331   4.306   1.730  0.5186 -0.2509 -0.4558
 3647SOL    HW222401   4.390   4.406   1.650 -0.5980 -1.8811 -0.7641
 3648SOL     OW22402   2.894   3.034   9.870  0.0056 -0.3454  1.1479
 3648SOL    HW122403   2.908   3.074   9.784  0.4044  2.4113  2.5106
 3648SOL    HW222404   2.799   3.024   9.870  0.0428 -0.7058  0.7890
 3649SOL     OW22405   3.795   3.952   5.901 -0.1378  0.1395  0.1102
 3649SOL    HW122406   3.769   4.040   5.877 -0.0004 -0.2314 -1.3790
 3649SOL    HW222407   3.758   3.896   5.833  1.4453 -0.7872  0.0052
 3650SOL     OW22408   4.125   0.903  17.129 -0.1634  0.9066 -0.6087
 3650SOL    HW122409   4.188   0.883  17.060  2.8073 -2.2960  3.0065
 3650SOL    HW222410   4.042   0.883  17.087 -0.5454  1.7110 -0.2180
 3651SOL     OW22411   3.562   1.108   6.063 -0.6859  0.0952  0.1627
 3651SOL    HW122412   3.482   1.056   6.061 -0.9015  0.4147  0.5655
 3651SOL    HW222413   3.598   1.080   6.147 -2.9257 -0.7839  0.8222
 3652SOL     OW22414   1.835   1.584   7.392 -0.2406 -0.4695  0.0007
 3652SOL    HW122415   1.816   1.672   7.358 -3.3754 -0.6993  1.1203
 3652SOL    HW222416   1.902   1.600   7.459  1.5684 -2.4544 -1.3656
 3653SOL     OW22417   2.149   4.565   2.883  0.1035  0.4370 -0.1469
 3653SOL    HW122418   2.120   4.494   2.826  1.5708  0.6517 -1.1714
 3653SOL    HW222419   2.231   4.530   2.920 -0.4375 -0.3907  0.2652
 3654SOL     OW22420   3.488   3.485   4.301  0.1657 -0.0157  0.2923
 3654SOL    HW122421   3.486   3.578   4.281 -0.7079  0.1826  1.2910
 3654SOL    HW222422   3.573   3.476   4.345  1.9317 -2.1734 -3.5959
 3655SOL     OW22423   0.740   0.242   3.795 -0.0243  0.2233  0.1813
 3655SOL    HW122424   0.705   0.319   3.751  1.0202  0.4506 -0.2560
 3655SOL    HW222425   0.825   0.225   3.755 -0.4127 -0.5714 -0.3106
 3656SOL     OW22426   3.593   0.061   4.955  0.4361  0.0212  0.2942
 3656SOL    HW122427   3.621   4.702   4.914 -0.6194  0.6539 -1.6617
 3656SOL    HW222428   3.632   0.122   4.892 -1.1815  1.4825  0.7224
 3657SOL     OW22429   2.717   3.734   7.850  0.4033 -0.3528  0.5580
 3657SOL    HW122430   2.794   3.680   7.832 -0.6384 -1.0499 -1.7940
 3657SOL    HW222431   2.663   3.670   7.896  0.3386  1.0054  2.3525
 3658SOL     OW22432   2.785   4.655  12.579  0.4092 -0.3026 -0.2222
 3658SOL    HW122433   2.825   4.713  12.515  1.7126  0.5339  1.3303
 3658SOL    HW222434   2.710   4.616  12.534  0.6629 -1.0991  0.0381
 3659SOL     OW22435   3.567   1.319   7.894  0.1769 -0.0104 -0.2430
 3659SOL    HW122436   3.655   1.355   7.891 -0.1458  0.7988  0.2412
 3659SOL    HW222437   3.560   1.330   7.988 -0.7304 -1.4819 -0.1223
 3660SOL     OW22438   2.782   1.377   9.482 -0.1808 -0.3392  0.1770
 3660SOL    HW122439   2.784   1.472   9.474 -1.8935 -0.2043  1.3172
 3660SOL    HW222440   2.868   1.351   9.449 -0.3585 -0.2321 -0.3685
 3661SOL     OW22441   1.102   1.008   7.264 -0.4237  0.0475 -0.3434
 3661SOL    HW122442   1.045   1.037   7.193 -1.2663 -0.0323  0.3032
 3661SOL    HW222443   1.192   1.020   7.233 -1.4052 -2.3839 -4.0170
 3662SOL     OW22444   3.619   3.659   1.428  0.2018 -0.2901 -0.1901
 3662SOL    HW122445   3.566   3.719   1.375  0.0953 -0.2139  0.0028
 3662SOL    HW222446   3.644   3.596   1.361  0.5971  1.5286 -1.7695
 3663SOL     OW22447   4.222   2.445   5.145  0.4798  0.1926 -0.6910
 3663SOL    HW122448   4.274   2.523   5.164  2.2139 -0.8105 -1.2847
 3663SOL    HW222449   4.219   2.473   5.053 -0.3540 -0.7693 -0.9589
 3664SOL     OW22450   1.974   4.402  17.352 -0.0214  0.2036  0.3923
 3664SOL    HW122451   1.884   4.371  17.346  1.2995 -3.1784 -1.4911
 3664SOL    HW222452   1.993   4.451  17.273 -2.1795  1.2293  0.5052
 3665SOL     OW22453   4.527   2.350   2.785 -0.1808 -0.0716 -0.3433
 3665SOL    HW122454   4.479   2.329   2.705  1.1288 -0.9472 -0.8871
 3665SOL    HW222455   4.447   2.386   2.825  1.5150  0.0361  2.9861
 3666SOL     OW22456   4.403   3.382   1.333 -0.5717  0.0772 -0.6739
 3666SOL    HW122457   4.474   3.371   1.269 -0.3820  1.3664 -0.6803
 3666SOL    HW222458   4.337   3.409   1.269 -0.7834  0.0741 -0.4529
 3667SOL     OW22459   1.104   4.448  13.735 -0.3060  0.2736 -0.2506
 3667SOL    HW122460   1.164   4.414  13.802  2.2800  0.4299 -2.5474
 3667SOL    HW222461   1.099   4.541  13.755 -1.3686 -0.0169  0.8611
 3668SOL     OW22462   0.828   4.248   6.201  0.1070 -0.1755  0.1849
 3668SOL    HW122463   0.882   4.262   6.123 -1.9900  1.7476 -0.9345
 3668SOL    HW222464   0.858   4.160   6.222 -2.0084 -0.6894  1.1548
 3669SOL     OW22465   4.682   0.942   6.904 -0.6212 -0.0789 -0.0206
 3669SOL    HW122466   4.599   0.906   6.871 -0.9117  1.1735 -0.6588
 3669SOL    HW222467   4.708   0.882   6.974  0.2207  1.1037  0.6796
 3670SOL     OW22468   1.854   3.898  12.137 -0.3949  0.3533  0.1348
 3670SOL    HW122469   1.788   3.848  12.090  1.6663 -0.2957 -2.0812
 3670SOL    HW222470   1.824   3.903  12.228  0.5348  1.8688  0.3518
 3671SOL     OW22471   3.381   4.580   9.075  0.6282  0.2665  0.3959
 3671SOL    HW122472   3.398   4.558   8.984  0.2013  1.3291  0.0564
 3671SOL    HW222473   3.417   4.669   9.080  0.5273  0.2702  1.1411
 3672SOL     OW22474   1.135   1.843   7.655  0.0576  0.0533  0.2230
 3672SOL    HW122475   1.178   1.888   7.583 -1.1134 -0.6200 -0.9124
 3672SOL    HW222476   1.101   1.917   7.706  1.2629  0.0121  1.0768
 3673SOL     OW22477   4.548   1.492   5.116 -0.0563  0.1394 -0.2524
 3673SOL    HW122478   4.627   1.540   5.088  0.6142 -2.3564 -2.5678
 3673SOL    HW222479   4.519   1.466   5.029  0.4546 -0.7083 -0.1719
 3674SOL     OW22480   3.089   0.667   5.800  0.5213 -0.0075 -0.4517
 3674SOL    HW122481   3.022   0.676   5.868 -1.3629  0.7243 -2.4195
 3674SOL    HW222482   3.154   0.630   5.859  0.8998  1.7058  0.2227
 3675SOL     OW22483   2.833   1.274   3.727  0.5662  0.8551 -0.2896
 3675SOL    HW122484   2.901   1.335   3.754  1.5884 -0.4169  0.0376
 3675SOL    HW222485   2.755   1.327   3.712 -0.2981 -0.3140  0.0300
 3676SOL     OW22486   4.278   4.423   8.323  0.0048 -0.4720 -0.9306
 3676SOL    HW122487   4.259   4.342   8.276 -2.6662 -1.3282  1.6076
 3676SOL    HW222488   4.343   4.391   8.386 -1.6268  0.7152  1.3188
 3677SOL     OW22489   3.791   1.924   9.106  0.4670 -0.0572 -0.2920
 3677SOL    HW122490   3.713   1.883   9.141  0.2961  0.2711 -0.2890
 3677SOL    HW222491   3.761   1.929   9.015  0.9644 -1.7965 -0.5486
 3678SOL     OW22492   0.345   1.515   3.891  0.0473  0.1206  0.1096
 3678SOL    HW122493   0.268   1.572   3.886 -0.2166 -0.2857 -0.4432
 3678SOL    HW222494   0.403   1.571   3.943  0.9567 -0.1347 -0.6459
 3679SOL     OW22495   3.146   3.452   2.854 -0.2817  0.7847  0.1196
 3679SOL    HW122496   3.196   3.449   2.773  0.7054  0.2503  0.7424
 3679SOL    HW222497   3.184   3.380   2.905 -1.0859 -0.8870 -1.6111
 3680SOL     OW22498   3.050   4.089   5.707 -0.0424 -0.2244 -0.0480
 3680SOL    HW122499   3.121   4.078   5.770  0.0352  0.4284 -0.0205
 3680SOL    HW222500   3.094   4.048   5.632 -1.0610 -0.6088 -0.4297
 3681SOL     OW22501   0.466   4.226   9.025  0.0289  0.5692  0.1840
 3681SOL    HW122502   0.436   4.135   9.016  1.1375 -0.0181  2.3262
 3681SOL    HW222503   0.542   4.218   9.083  0.7577 -0.8951 -0.9719
 3682SOL     OW22504   1.279   1.787   3.175 -0.7179  0.2660  0.0924
 3682SOL    HW122505   1.260   1.857   3.237  1.4255  0.2748  0.7303
 3682SOL    HW222506   1.297   1.838   3.096 -2.7452  1.1241  0.1933
 3683SOL     OW22507   3.289   1.868   6.111 -0.2070  0.0555  0.4369
 3683SOL    HW122508   3.373   1.863   6.156  0.6993 -0.8243 -1.3829
 3683SOL    HW222509   3.308   1.937   6.048  2.0045 -1.4813 -0.5721
 3684SOL     OW22510   0.828   3.631  10.342 -0.0961 -0.3786  0.2299
 3684SOL    HW122511   0.790   3.554  10.385 -0.4431 -0.8367 -0.9094
 3684SOL    HW222512   0.850   3.578  10.265 -2.3594 -0.2072 -0.5333
 3685SOL     OW22513   4.311   0.215  10.154  0.2860 -0.2626  0.0028
 3685SOL    HW122514   4.246   0.284  10.166 -0.5433 -1.2673  1.2145
 3685SOL    HW222515   4.341   0.224  10.064 -0.6007  2.5028 -0.0156
 3686SOL     OW22516   1.091   0.527   5.490 -0.2192  0.2550  1.2689
 3686SOL    HW122517   1.114   0.605   5.541  1.4571  0.0418  0.8360
 3686SOL    HW222518   1.136   0.544   5.408 -0.0985  0.4699  1.3764
 3687SOL     OW22519   4.457   0.858   3.220  0.0712  0.3615  0.3209
 3687SOL    HW122520   4.445   0.939   3.170  1.0584  0.1927 -0.1819
 3687SOL    HW222521   4.371   0.820   3.201  1.4113 -2.6988  0.4783
 3688SOL     OW22522   2.109   1.096   4.654  0.0445 -0.1853 -0.1539
 3688SOL    HW122523   2.053   1.020   4.637  1.0541 -1.0891  0.5542
 3688SOL    HW222524   2.047   1.163   4.625  0.2240 -0.6027 -1.5013
 3689SOL     OW22525   1.696   4.358   6.692 -0.3391  0.3483  0.7179
 3689SOL    HW122526   1.635   4.367   6.765  0.0547  1.5713  0.8972
 3689SOL    HW222527   1.700   4.263   6.681  0.5387  0.5933 -1.0895
 3690SOL     OW22528   2.191   2.801   6.836  0.7841 -0.5267 -0.4655
 3690SOL    HW122529   2.245   2.857   6.780  0.3408 -0.2457 -0.6202
 3690SOL    HW222530   2.106   2.804   6.790  1.0694  0.3540 -0.9491
 3691SOL     OW22531   3.895   3.007   9.109 -0.2616 -0.3407 -0.4117
 3691SOL    HW122532   3.808   2.976   9.136 -0.5702  2.5892  1.8983
 3691SOL    HW222533   3.937   2.980   9.190 -1.3498  0.6682  0.4832
 3692SOL     OW22534   0.627   3.141  16.074  0.0514  0.7446  0.0896
 3692SOL    HW122535   0.694   3.113  16.137 -1.2723  0.9429  1.5920
 3692SOL    HW222536   0.686   3.161  16.002  1.5898  1.3588  1.5107
 3693SOL     OW22537   0.413   0.772   4.976 -0.3193 -0.2460 -0.0033
 3693SOL    HW122538   0.356   0.700   5.002 -1.7955  1.2375  0.9077
 3693SOL    HW222539   0.503   0.750   4.999  0.5929  3.1124 -0.3124
 3694SOL     OW22540   4.548   1.179   2.363  1.0772 -0.2060 -0.0115
 3694SOL    HW122541   4.537   1.184   2.268  0.1014 -1.7438  0.0271
 3694SOL    HW222542   4.465   1.216   2.395 -0.6659 -1.9563 -2.4805
 3695SOL     OW22543   2.174   1.583   3.522 -0.3749  0.2601 -0.3317
 3695SOL    HW122544   2.249   1.549   3.571 -0.2538 -1.1383 -1.5162
 3695SOL    HW222545   2.209   1.620   3.441 -0.0260  0.0571 -0.2723
 3696SOL     OW22546   0.061   2.427   3.333  0.5347  0.0142 -0.3825
 3696SOL    HW122547   0.063   2.497   3.399 -1.4278 -1.6391  1.3972
 3696SOL    HW222548   4.695   2.414   3.301  0.6191  0.2679 -0.7194
 3697SOL     OW22549   0.515   1.584   7.861 -0.4522  0.5549  0.6512
 3697SOL    HW122550   0.489   1.673   7.885 -1.3168  0.4630  0.0658
 3697SOL    HW222551   0.607   1.585   7.888  0.1411  0.6640 -1.3659
 3698SOL     OW22552   3.616   4.094   6.457 -0.2232 -0.4584  0.0684
 3698SOL    HW122553   3.521   4.106   6.460  0.0290  1.2957  1.4067
 3698SOL    HW222554   3.620   4.037   6.381 -3.5173 -2.9230  1.7831
 3699SOL     OW22555   0.516   4.631  12.533 -0.6403  0.3897 -0.4679
 3699SOL    HW122556   0.481   4.627  12.621  0.7109  1.6029  0.1222
 3699SOL    HW222557   0.610   4.616  12.547 -0.6632  0.8308  0.1210
 3700SOL     OW22558   3.029   3.534  11.253  0.0549 -0.1280 -0.1615
 3700SOL    HW122559   3.095   3.602  11.238 -1.7347  1.3365 -1.4595
 3700SOL    HW222560   2.955   3.580  11.213  1.7972  1.2476 -1.8912
 3701SOL     OW22561   4.166   2.864  11.854  0.5111 -0.2072 -0.5195
 3701SOL    HW122562   4.082   2.835  11.817 -0.3613  2.8526 -0.9024
 3701SOL    HW222563   4.205   2.901  11.775 -3.2933  0.0738 -2.2694
 3702SOL     OW22564   1.082   2.053   6.702  0.3465  0.1792 -0.0565
 3702SOL    HW122565   1.045   2.109   6.634 -2.7112  0.6970  2.0480
 3702SOL    HW222566   1.168   2.034   6.665 -0.8777 -2.0441 -1.7831
 3703SOL     OW22567   2.241   3.197  15.486 -0.2591 -0.7779  0.0570
 3703SOL    HW122568   2.158   3.151  15.485 -0.4811 -0.3628 -0.8984
 3703SOL    HW222569   2.297   3.122  15.469 -2.3368 -2.1909 -0.5377
 3704SOL     OW22570   0.070   4.544  14.747 -0.3525 -0.1838 -0.4322
 3704SOL    HW122571   0.159   4.525  14.720 -0.3982 -0.3893 -0.4381
 3704SOL    HW222572   0.081   4.595  14.828  1.2505 -2.7381  0.9494
 3705SOL     OW22573   2.862   4.237   5.413  0.0701  0.2391 -0.8986
 3705SOL    HW122574   2.909   4.318   5.396  1.6040  0.1612  2.9576
 3705SOL    HW222575   2.774   4.258   5.382 -0.1968  0.6210  0.0941
 3706SOL     OW22576   2.382   2.946   7.401 -0.5963  0.0322 -0.4834
 3706SOL    HW122577   2.363   2.875   7.339 -1.1408 -0.1997 -0.0391
 3706SOL    HW222578   2.392   2.902   7.485 -0.3054 -0.7567 -0.9320
 3707SOL     OW22579   0.343   4.440   4.494  0.2044 -1.0062 -0.2562
 3707SOL    HW122580   0.425   4.424   4.541  1.0591  0.7966 -1.1248
 3707SOL    HW222581   0.348   4.379   4.420  1.1897 -0.3883 -0.6857
 3708SOL     OW22582   1.829   1.923   8.786 -0.3106  0.1790 -0.2365
 3708SOL    HW122583   1.861   1.978   8.858 -0.8750  0.9587 -0.5785
 3708SOL    HW222584   1.749   1.885   8.821 -0.7128  0.9162 -0.3587
 3709SOL     OW22585   2.677   2.161   8.807  0.1367  0.2068  0.1690
 3709SOL    HW122586   2.725   2.132   8.885  2.5887  0.8101 -1.0951
 3709SOL    HW222587   2.616   2.087   8.806  0.7793 -0.3324 -0.4718
 3710SOL     OW22588   4.350   3.710  15.476  0.1051 -0.2668 -0.0391
 3710SOL    HW122589   4.290   3.783  15.458 -0.3080 -0.2719  1.2645
 3710SOL    HW222590   4.372   3.729  15.568  2.3628  0.1489 -0.6795
 3711SOL     OW22591   4.514   2.505   2.486 -0.6827  0.0770  0.0963
 3711SOL    HW122592   4.460   2.583   2.472 -0.1244  0.1127 -1.8538
 3711SOL    HW222593   4.604   2.532   2.466 -0.3407 -1.6637 -0.7744
 3712SOL     OW22594   2.021   2.458   1.702 -0.3300 -0.2035 -0.1966
 3712SOL    HW122595   2.044   2.412   1.783  0.7417 -0.9208 -0.8960
 3712SOL    HW222596   2.104   2.483   1.661 -0.6096  0.9602 -0.0461
 3713SOL     OW22597   1.486   2.087   6.469  0.4610 -0.0501 -0.2020
 3713SOL    HW122598   1.553   2.100   6.401  0.9225 -0.0416  0.2603
 3713SOL    HW222599   1.486   2.162   6.528  0.3568 -1.0872  1.0900
 3714SOL     OW22600   1.778   3.663   8.322 -1.3209  0.0199 -0.4654
 3714SOL    HW122601   1.827   3.602   8.266  0.1853  2.4927 -1.8296
 3714SOL    HW222602   1.736   3.716   8.254 -0.7962 -0.4021 -1.1272
 3715SOL     OW22603   4.367   4.087   0.416  0.6713 -0.1538 -0.9106
 3715SOL    HW122604   4.455   4.089   0.453 -0.2989 -0.1277  1.3984
 3715SOL    HW222605   4.329   4.170   0.445  0.8191 -0.5384  0.3799
 3716SOL     OW22606   1.854   3.132   0.357 -0.0958 -0.3839  0.2093
 3716SOL    HW122607   1.942   3.169   0.366  0.3375 -1.0265 -1.3117
 3716SOL    HW222608   1.884   3.073   0.288  0.0190 -0.3649  0.2422
 3717SOL     OW22609   4.260   3.234   0.321 -0.4324  0.5960 -0.1935
 3717SOL    HW122610   4.198   3.217   0.392 -0.1024  0.4006  0.0481
 3717SOL    HW222611   4.348   3.222   0.357 -0.2206 -0.5688 -1.1267
 3718SOL     OW22612   2.411   0.185   4.013  0.1326  0.1056 -0.1011
 3718SOL    HW122613   2.501   0.216   4.013  1.4229 -3.6127 -0.1854
 3718SOL    HW222614   2.400   0.203   3.919  1.6715  0.2686 -0.2489
 3719SOL     OW22615   3.546   1.510  11.962  0.5406  0.0573 -0.3754
 3719SOL    HW122616   3.565   1.571  11.890  1.1079  0.1929 -0.1025
 3719SOL    HW222617   3.622   1.453  11.952  0.0246 -0.8632  0.9525
 3720SOL     OW22618   1.970   2.720   4.090  0.2621 -0.3741  0.2967
 3720SOL    HW122619   1.917   2.651   4.050 -0.7537  0.1931  0.6718
 3720SOL    HW222620   1.957   2.699   4.183  3.5991  0.5265  0.9668
 3721SOL     OW22621   0.228   4.115   2.811  0.2226  0.0271 -0.1218
 3721SOL    HW122622   0.306   4.132   2.864  0.5540 -0.5652 -0.4142
 3721SOL    HW222623   0.264   4.042   2.761 -1.3774 -1.1623  0.4569
 3722SOL     OW22624   0.730   2.092   4.285 -0.1778 -0.2582  0.5139
 3722SOL    HW122625   0.751   2.184   4.300 -0.4894  0.4037 -3.0295
 3722SOL    HW222626   0.746   2.086   4.190 -3.3764  1.3131 -0.1331
 3723SOL     OW22627   3.721   1.742   2.062 -0.2377  0.5753 -0.2159
 3723SOL    HW122628   3.770   1.720   2.141 -0.7430 -0.2890 -0.1481
 3723SOL    HW222629   3.782   1.760   1.990  0.7301  1.3935  0.8150
 3724SOL     OW22630   3.441   1.154   8.252  0.3703 -0.5975  0.4412
 3724SOL    HW122631   3.358   1.127   8.213  0.9073 -0.4304 -0.8327
 3724SOL    HW222632   3.503   1.087   8.225 -0.1979 -1.0065  0.1580
 3725SOL     OW22633   4.288   4.683   1.467  0.0617 -0.6046 -0.0262
 3725SOL    HW122634   4.223   4.669   1.536  2.2567 -1.7119  1.8147
 3725SOL    HW222635   4.371   4.684   1.515 -0.5402 -0.7269  1.0308
 3726SOL     OW22636   1.182   2.805   1.637  0.1511  0.2444  0.2527
 3726SOL    HW122637   1.157   2.716   1.612  0.3377  0.6037 -1.2302
 3726SOL    HW222638   1.273   2.797   1.609 -0.2347  1.6276 -1.3971
 3727SOL     OW22639   0.274   3.039   1.939  0.9085  0.5313 -0.4518
 3727SOL    HW122640   0.217   2.974   1.898 -0.0331  0.3571  1.1296
 3727SOL    HW222641   0.234   3.054   2.025  1.3016  0.2794 -0.2245
 3728SOL     OW22642   3.336   3.995   8.327  0.1454  0.0972  1.0027
 3728SOL    HW122643   3.334   3.960   8.238  1.2084  2.2853  0.0994
 3728SOL    HW222644   3.424   4.031   8.335  0.2926  0.2458 -1.1487
 3729SOL     OW22645   3.647   0.809   5.958  0.0010 -0.0079  0.3413
 3729SOL    HW122646   3.594   0.756   6.018 -1.1295 -1.7062 -2.1646
 3729SOL    HW222647   3.699   0.858   6.022 -0.4137  2.7072 -1.3963
 3730SOL     OW22648   2.584   4.307   5.680  0.0610  0.2379 -0.9531
 3730SOL    HW122649   2.611   4.223   5.644 -0.1910  0.5237 -1.7949
 3730SOL    HW222650   2.494   4.313   5.648  0.4678  0.1338 -2.1062
 3731SOL     OW22651   0.841   3.712   6.621 -0.0177  0.2107 -0.0464
 3731SOL    HW122652   0.811   3.636   6.670 -0.6581 -0.1755 -1.0275
 3731SOL    HW222653   0.870   3.659   6.547 -0.4159  2.3226 -1.7267
 3732SOL     OW22654   1.187   1.954   8.181  0.0047  0.0753  0.5555
 3732SOL    HW122655   1.141   1.979   8.101  1.3889  0.7095 -0.0482
 3732SOL    HW222656   1.204   1.860   8.170 -0.5124  0.0591 -0.0980
 3733SOL     OW22657   0.071   0.330  10.448 -0.0595 -0.2739  0.1369
 3733SOL    HW122658   0.064   0.279  10.529  0.0305  0.4930  0.6301
 3733SOL    HW222659   0.017   0.283  10.385  0.1228  2.1221 -1.7876
 3734SOL     OW22660   1.821   3.148   8.038 -0.4058  0.2145  0.7180
 3734SOL    HW122661   1.785   3.160   7.950 -1.4386 -2.2612  0.8017
 3734SOL    HW222662   1.752   3.098   8.081  1.4081 -2.5873  0.3827
 3735SOL     OW22663   0.448   2.682   5.477  0.1030 -0.2516  0.3509
 3735SOL    HW122664   0.451   2.592   5.508  0.0995 -1.0653 -2.0369
 3735SOL    HW222665   0.486   2.672   5.390 -1.0745  0.3460 -0.2310
 3736SOL     OW22666   2.505   4.107   0.714 -0.0749 -0.3148 -0.1173
 3736SOL    HW122667   2.420   4.089   0.753 -0.6540 -1.4730 -1.9145
 3736SOL    HW222668   2.492   4.078   0.624 -1.2855  0.9966 -0.3652
 3737SOL     OW22669   1.525   3.975   6.342  0.1579  0.4324 -0.1035
 3737SOL    HW122670   1.523   3.896   6.397 -0.6073  0.3243 -0.2905
 3737SOL    HW222671   1.527   4.039   6.413 -0.4444  0.9849 -0.5913
 3738SOL     OW22672   0.836   2.066   8.368 -0.2305  0.0139  0.0579
 3738SOL    HW122673   0.756   2.026   8.402  1.9488 -1.2605  3.7367
 3738SOL    HW222674   0.824   2.160   8.383  0.9189  0.4092 -1.5001
 3739SOL     OW22675   0.059   4.487   6.829  0.2868  0.6093 -0.0904
 3739SOL    HW122676   4.703   4.503   6.778 -0.0226 -0.6476 -0.0080
 3739SOL    HW222677   0.120   4.441   6.771  0.2645  0.7325 -0.2114
 3740SOL     OW22678   4.112   1.674   7.886  0.1445 -0.3331  0.0136
 3740SOL    HW122679   4.128   1.767   7.897 -0.2676 -0.3446  0.7206
 3740SOL    HW222680   4.172   1.658   7.813 -1.1938 -0.9763 -0.9513
 3741SOL     OW22681   2.262   2.242   9.073  0.4954 -0.3412 -0.7673
 3741SOL    HW122682   2.175   2.279   9.088  1.0735  0.6585  0.2106
 3741SOL    HW222683   2.261   2.223   8.980 -3.8445  0.7677 -0.9481
 3742SOL     OW22684   4.103   3.254   6.239  1.1736 -0.2248  0.2257
 3742SOL    HW122685   4.117   3.160   6.243 -0.0689 -0.4129  0.0841
 3742SOL    HW222686   4.178   3.273   6.295  0.7994  1.0079  0.3135
 3743SOL     OW22687   2.481   2.841  14.967 -0.2480 -0.0734 -0.1532
 3743SOL    HW122688   2.535   2.839  14.888  2.2635 -0.0361  1.5505
 3743SOL    HW222689   2.389   2.823  14.947 -0.7522  0.7423  1.4459
 3744SOL     OW22690   2.210   3.942  12.587  0.3316 -0.1597 -0.2477
 3744SOL    HW122691   2.190   3.970  12.677  0.4837 -0.6734 -0.0538
 3744SOL    HW222692   2.251   4.023  12.557  0.2119 -0.6297 -1.6366
 3745SOL     OW22693   1.964   3.468   2.443  0.0197 -0.0064 -0.8657
 3745SOL    HW122694   1.999   3.507   2.363 -0.2954  1.1422 -0.4514
 3745SOL    HW222695   1.976   3.374   2.431 -1.7099 -0.2629 -0.6211
 3746SOL     OW22696   2.034   3.498   4.611  0.1360 -0.0662 -0.3293
 3746SOL    HW122697   2.014   3.499   4.705  0.0420  1.6295 -0.3601
 3746SOL    HW222698   2.122   3.536   4.616  0.6546 -1.4265  0.8245
 3747SOL     OW22699   0.131   0.267   3.374  0.1947 -0.5158 -0.2062
 3747SOL    HW122700   0.040   0.244   3.394 -0.4042  1.1081 -1.0656
 3747SOL    HW222701   0.119   0.340   3.313 -0.2297  0.8443  1.5197
 3748SOL     OW22702   0.011   3.364   4.051  0.5141 -0.1419  0.2109
 3748SOL    HW122703   0.056   3.447   4.034 -1.0044  0.4690 -0.8325
 3748SOL    HW222704   4.688   3.337   3.972 -0.0020  1.3657  0.0051
 3749SOL     OW22705   1.279   0.400  11.014  0.7379  0.0580  0.3655
 3749SOL    HW122706   1.278   0.305  11.001 -1.3980  0.1807 -0.3504
 3749SOL    HW222707   1.370   0.424  10.996  0.5530 -0.4028 -1.1978
 3750SOL     OW22708   2.845   3.931   5.884  0.5645 -0.0795  0.1928
 3750SOL    HW122709   2.840   3.879   5.803  0.4981 -1.0144  0.7995
 3750SOL    HW222710   2.790   3.880   5.944 -0.3324  1.0861  0.3548
 3751SOL     OW22711   4.682   1.693   7.824 -0.4479 -0.5811 -0.0494
 3751SOL    HW122712   4.649   1.664   7.909  1.7169  2.7210  1.9126
 3751SOL    HW222713   0.022   1.623   7.810 -1.5247 -1.0285 -2.8046
 3752SOL     OW22714   3.348   2.876  12.232 -0.6405 -0.5735  0.7808
 3752SOL    HW122715   3.301   2.924  12.299  0.9976  2.1043  0.0361
 3752SOL    HW222716   3.393   2.948  12.188 -0.8033 -1.8206 -1.4117
 3753SOL     OW22717   4.499   1.201   1.316  0.4409 -0.4099  0.1261
 3753SOL    HW122718   4.554   1.212   1.239 -0.3152 -0.6356 -0.4437
 3753SOL    HW222719   4.421   1.161   1.278  1.2679 -0.2964 -1.6954
 3754SOL     OW22720   0.802   4.451   5.674 -0.7484  0.3227 -0.1166
 3754SOL    HW122721   0.707   4.444   5.676 -0.6374 -0.9017  0.7032
 3754SOL    HW222722   0.809   4.539   5.710  1.9497 -0.6030  1.6337
 3755SOL     OW22723   2.881   2.539   4.553 -0.0657 -0.7803 -0.3256
 3755SOL    HW122724   2.880   2.602   4.626 -2.3449 -1.0007 -0.1516
 3755SOL    HW222725   2.961   2.568   4.509 -0.2632  0.2742  0.0081
 3756SOL     OW22726   2.683   3.839  13.461  0.3438  0.5959 -0.6540
 3756SOL    HW122727   2.713   3.790  13.538 -1.5174 -2.0011 -1.5733
 3756SOL    HW222728   2.665   3.927  13.494  4.1900  0.6847  1.1829
 3757SOL     OW22729   3.213   1.949   7.537  0.0468  0.2155  0.2380
 3757SOL    HW122730   3.179   1.987   7.618 -1.6338 -0.5815 -0.0868
 3757SOL    HW222731   3.294   2.000   7.528  1.0358 -1.7270 -1.7705
 3758SOL     OW22732   2.594   1.754  17.658  0.7650 -0.4795 -0.8888
 3758SOL    HW122733   2.502   1.731  17.667  0.0760  1.8017 -1.9618
 3758SOL    HW222734   2.613   1.823   0.027  0.5254  0.9631 -2.3751
 3759SOL     OW22735   0.371   4.135  15.054 -0.1128  0.0339 -0.0009
 3759SOL    HW122736   0.460   4.167  15.069 -0.7697  1.8414  0.0740
 3759SOL    HW222737   0.371   4.041  15.038 -2.7979  0.2549 -1.3303
 3760SOL     OW22738   0.401   1.328   6.281  0.1705  0.1584 -0.9078
 3760SOL    HW122739   0.359   1.259   6.332  1.4763  0.8640  1.0950
 3760SOL    HW222740   0.427   1.379   6.357  1.8624  1.0648 -2.0713
 3761SOL     OW22741   0.214   0.095   2.522  0.4710  0.5746  0.4620
 3761SOL    HW122742   0.181   0.165   2.578  0.2075 -0.2483  1.3293
 3761SOL    HW222743   0.142   0.083   2.459 -0.0652 -0.2377  1.2275
 3762SOL     OW22744   0.564   4.575   7.547 -0.0553 -0.3868  0.6650
 3762SOL    HW122745   0.511   4.653   7.532 -0.9434 -0.8407  1.4063
 3762SOL    HW222746   0.587   4.577   7.640 -0.2679  1.9323  0.6594
 3763SOL     OW22747   3.768   0.702   3.693 -0.3210  0.0551  0.8607
 3763SOL    HW122748   3.701   0.767   3.673 -1.7546 -1.8706 -0.6620
 3763SOL    HW222749   3.835   0.767   3.714 -1.0525  1.2261 -0.4623
 3764SOL     OW22750   3.767   0.024  16.799  0.1562 -0.3300  0.2599
 3764SOL    HW122751   3.689   0.079  16.813 -0.2700 -0.9598  0.3564
 3764SOL    HW222752   3.749   4.680  16.865 -0.3630  0.5942  1.0632
 3765SOL     OW22753   2.601   0.466   2.620  0.5817  0.0539  0.2836
 3765SOL    HW122754   2.695   0.464   2.602  0.7904 -2.4111  1.6228
 3765SOL    HW222755   2.567   0.450   2.532  0.1940  1.4130  0.1845
 3766SOL     OW22756   0.898   3.381   7.088 -0.3944  0.0456 -0.0368
 3766SOL    HW122757   0.946   3.338   7.159 -1.5860 -0.2754  0.5722
 3766SOL    HW222758   0.862   3.454   7.138  0.0490 -1.8943  3.0829
 3767SOL     OW22759   0.347   3.463   9.081  0.2384  0.0327 -0.0991
 3767SOL    HW122760   0.399   3.475   9.002 -1.5025  2.3582 -0.8644
 3767SOL    HW222761   0.419   3.442   9.141  0.0139  0.3180  0.2737
 3768SOL     OW22762   3.211   2.399   5.741 -0.3611 -0.8184  0.7131
 3768SOL    HW122763   3.180   2.487   5.762 -2.1732 -1.0249 -1.0991
 3768SOL    HW222764   3.176   2.342   5.810 -0.9824  2.6128  3.2755
 3769SOL     OW22765   3.876   3.869   4.697 -0.2270 -0.3130  0.2641
 3769SOL    HW122766   3.927   3.933   4.747 -0.4759 -0.3924  0.6217
 3769SOL    HW222767   3.809   3.839   4.759  1.9810 -2.5955  1.5843
 3770SOL     OW22768   2.318   2.347  17.020  0.2839  0.2406  0.1235
 3770SOL    HW122769   2.340   2.263  16.980  1.0020  0.4073  0.1647
 3770SOL    HW222770   2.310   2.312  17.109  0.8524  0.5770  0.3095
 3771SOL     OW22771   0.412   2.531   3.983  0.7139 -0.3456  0.2612
 3771SOL    HW122772   0.424   2.474   3.907 -0.7639 -0.8498  0.4013
 3771SOL    HW222773   0.472   2.490   4.045 -0.5418 -0.9411  1.0858
 3772SOL     OW22774   1.408   1.075   6.611 -0.1851  0.4277  0.5160
 3772SOL    HW122775   1.337   1.134   6.587 -1.6636 -0.9364  1.5261
 3772SOL    HW222776   1.418   1.018   6.535 -0.8286 -1.0584  1.5630
 3773SOL     OW22777   3.956   0.947  12.139 -0.1427 -0.4225 -0.1936
 3773SOL    HW122778   3.982   0.944  12.047 -2.1283 -0.6846 -0.7465
 3773SOL    HW222779   3.882   0.887  12.146 -1.2866  0.8023 -1.7950
 3774SOL     OW22780   0.857   4.488   3.263  0.0719  0.1465 -0.4493
 3774SOL    HW122781   0.908   4.568   3.259 -0.7888  0.7328  0.3142
 3774SOL    HW222782   0.771   4.525   3.240  0.0084  0.0104 -0.4310
 3775SOL     OW22783   0.361   0.350  12.064 -0.1040 -0.6116  0.1795
 3775SOL    HW122784   0.299   0.418  12.089  0.4132  0.0716 -0.4008
 3775SOL    HW222785   0.434   0.381  12.117 -1.8512 -0.5674  2.5527
 3776SOL     OW22786   0.866   3.522   9.841 -0.5556  0.0874 -0.0958
 3776SOL    HW122787   0.831   3.611   9.830 -1.3980 -0.3703 -1.1838
 3776SOL    HW222788   0.798   3.460   9.815 -1.7358  0.9702  0.8772
 3777SOL     OW22789   3.140   4.076   4.063  0.4930  0.0648 -0.4470
 3777SOL    HW122790   3.159   4.018   4.137 -2.3887  0.5581  0.6686
 3777SOL    HW222791   3.047   4.054   4.069  0.5019  0.1673  0.1517
 3778SOL     OW22792   3.651   0.569  10.342 -0.6295  0.2901  0.0128
 3778SOL    HW122793   3.633   0.626  10.417  1.1333 -1.3208  1.6687
 3778SOL    HW222794   3.738   0.606  10.334 -0.6298  0.0793 -0.9097
 3779SOL     OW22795   1.028   2.749   5.102 -0.1058  0.1633 -0.5351
 3779SOL    HW122796   1.010   2.697   5.024 -0.1071  0.0444 -0.4560
 3779SOL    HW222797   0.945   2.735   5.148 -0.0884  0.6321 -0.3553
 3780SOL     OW22798   1.538   4.001  17.668  0.1259 -0.1822  0.0073
 3780SOL    HW122799   1.495   4.063   0.031  0.4738  0.0527  0.0136
 3780SOL    HW222800   1.622   3.977   0.012  1.3846 -0.6065 -3.0099
 3781SOL     OW22801   1.380   3.323   7.473 -0.0314 -0.4594  0.5140
 3781SOL    HW122802   1.322   3.345   7.400  0.1721 -0.3945  0.3723
 3781SOL    HW222803   1.451   3.320   7.409 -1.1558 -0.0878 -0.7713
 3782SOL     OW22804   3.606   1.939   5.740  0.3433 -0.9010  0.4200
 3782SOL    HW122805   3.643   1.862   5.698  0.0435 -1.8837  1.9738
 3782SOL    HW222806   3.588   1.997   5.666  3.1334 -0.2639  0.2455
 3783SOL     OW22807   3.695   2.246   4.824  0.0694  0.3418 -0.3998
 3783SOL    HW122808   3.766   2.296   4.863 -0.4731  0.5610  0.3244
 3783SOL    HW222809   3.738   2.167   4.791 -1.4496 -1.0332  0.8686
 3784SOL     OW22810   4.385   4.574   3.159  0.7909  0.0335 -0.3768
 3784SOL    HW122811   4.308   4.517   3.164  1.0772 -0.3505 -0.3306
 3784SOL    HW222812   4.374   4.605   3.069 -1.2110  0.6802  0.1073
 3785SOL     OW22813   1.632   4.098   3.888 -0.3788  0.5799  0.2058
 3785SOL    HW122814   1.724   4.124   3.887 -0.6703  1.5869  0.1411
 3785SOL    HW222815   1.585   4.176   3.859  1.7176  2.4438  1.7975
 3786SOL     OW22816   0.803   2.899  15.485  0.1589  0.7569  0.3321
 3786SOL    HW122817   0.859   2.963  15.441  0.3422 -0.3157 -0.9712
 3786SOL    HW222818   0.857   2.821  15.480  1.5284  1.6729  0.8810
 3787SOL     OW22819   0.949   1.024  16.867 -0.3325  0.2691 -0.6024
 3787SOL    HW122820   0.892   0.948  16.851 -1.2056  0.5295  1.2636
 3787SOL    HW222821   0.877   1.087  16.873 -1.2856 -0.9787  1.1250
 3788SOL     OW22822   1.159   2.387   6.173  0.4195 -0.1759 -0.5668
 3788SOL    HW122823   1.072   2.404   6.137  0.1142  1.8305  1.0872
 3788SOL    HW222824   1.194   2.474   6.157  2.2164 -0.7116  0.4719
 3789SOL     OW22825   0.609   1.519   8.783  0.1987  0.3483  0.6203
 3789SOL    HW122826   0.523   1.550   8.757 -0.7674 -0.8193  2.4956
 3789SOL    HW222827   0.658   1.519   8.700 -1.2289  2.3799 -0.2211
 3790SOL     OW22828   0.973   0.560   6.851  0.1389  0.1962 -0.1088
 3790SOL    HW122829   1.069   0.559   6.854  0.1327 -3.7992 -1.6292
 3790SOL    HW222830   0.949   0.473   6.882  0.3742  0.0466 -0.3461
 3791SOL     OW22831   2.467   3.308   1.012  0.2237  0.0025  0.8447
 3791SOL    HW122832   2.560   3.329   1.004  0.1042 -0.3974 -1.4853
 3791SOL    HW222833   2.482   3.218   1.040 -1.0072  0.0293  1.6142
 3792SOL     OW22834   2.267   4.358   4.237 -0.1350  0.3196 -0.0812
 3792SOL    HW122835   2.239   4.442   4.273 -2.5871 -0.0012 -1.2226
 3792SOL    HW222836   2.303   4.386   4.153  0.2687  1.9298  0.6259
 3793SOL     OW22837   2.685   0.200  17.170 -0.1635  0.4353  0.4425
 3793SOL    HW122838   2.752   0.223  17.234  0.5159  0.3098 -0.2277
 3793SOL    HW222839   2.602   0.236  17.202 -0.7135  0.5692 -1.1336
 3794SOL     OW22840   2.930   2.331   3.783  0.3768  0.2326  0.2947
 3794SOL    HW122841   2.928   2.418   3.744 -0.0504  0.0615 -0.0527
 3794SOL    HW222842   2.889   2.348   3.868  2.3437  1.5202  1.0077
 3795SOL     OW22843   1.249   2.265   3.532 -0.4559 -0.2432  0.5867
 3795SOL    HW122844   1.328   2.298   3.489 -0.5790 -0.1483  0.4344
 3795SOL    HW222845   1.182   2.327   3.503 -0.0413  1.0029  2.2597
 3796SOL     OW22846   2.397   2.448  13.427  0.3438 -0.1943  0.0585
 3796SOL    HW122847   2.391   2.352  13.426  0.5566 -0.2018 -1.2597
 3796SOL    HW222848   2.344   2.477  13.353 -2.4621 -0.8533  1.7983
 3797SOL     OW22849   0.197   3.106   6.302  0.1615  0.0502  0.0569
 3797SOL    HW122850   0.208   3.165   6.376  2.4756 -0.7166  0.2951
 3797SOL    HW222851   0.155   3.166   6.240  1.0871  0.7259  0.0964
 3798SOL     OW22852   2.289   1.081  13.762  0.0741 -0.6010  0.1895
 3798SOL    HW122853   2.250   1.009  13.811 -1.6457 -0.8549 -1.5367
 3798SOL    HW222854   2.219   1.102  13.700  1.2867 -0.1676 -1.0363
 3799SOL     OW22855   0.345   2.107   2.343  0.1501 -0.0967  0.5384
 3799SOL    HW122856   0.288   2.117   2.266 -0.3387  0.5041  0.9829
 3799SOL    HW222857   0.411   2.171   2.321  1.9784 -1.8227  0.9879
 3800SOL     OW22858   2.269   0.877   2.435 -0.1205 -0.4939  0.0704
 3800SOL    HW122859   2.307   0.804   2.483 -0.6263 -0.9886 -0.2889
 3800SOL    HW222860   2.194   0.906   2.488 -1.2774 -0.3386 -1.6552
 3801SOL     OW22861   4.253   0.061  15.158  0.6318  0.1454  0.3492
 3801SOL    HW122862   4.253   0.077  15.252  0.1787  0.3209  0.3176
 3801SOL    HW222863   4.319   4.717  15.144  0.0898 -0.2372 -0.4247
 3802SOL     OW22864   3.904   3.777   8.049 -0.0908  0.4364 -0.1387
 3802SOL    HW122865   3.843   3.846   8.023 -1.0424 -1.4283 -2.8648
 3802SOL    HW222866   3.904   3.713   7.978  3.8208  1.1075 -0.7501
 3803SOL     OW22867   2.859   3.858  10.055  0.1914  0.0810  0.1351
 3803SOL    HW122868   2.807   3.821  10.126 -1.2212  2.8850  0.5800
 3803SOL    HW222869   2.845   3.952  10.069 -1.7566 -0.1585 -0.1092
 3804SOL     OW22870   0.968   1.226  15.626 -0.2731  0.3617  0.0027
 3804SOL    HW122871   1.043   1.178  15.593 -1.1005 -1.6498  1.0443
 3804SOL    HW222872   0.893   1.174  15.597  0.0713  0.2560 -0.6966
 3805SOL     OW22873   2.778   2.488   3.484  0.4137 -0.0004  0.0225
 3805SOL    HW122874   2.715   2.416   3.488  0.0930  0.3071  0.5721
 3805SOL    HW222875   2.790   2.511   3.576  0.6064  0.5403 -0.1394
 3806SOL     OW22876   2.596   0.689  17.628  0.4388  0.0881  0.0846
 3806SOL    HW122877   2.582   0.781  17.609  0.7467 -0.2470 -1.7278
 3806SOL    HW222878   2.503   0.669  17.639  0.3334 -0.9744 -2.8112
 3807SOL     OW22879   4.323   1.740  13.716  0.4567 -0.0969 -0.4910
 3807SOL    HW122880   4.399   1.682  13.710 -0.7974 -1.8603  0.8423
 3807SOL    HW222881   4.344   1.801  13.787  3.8858 -2.4261  0.5278
 3808SOL     OW22882   2.237   4.395  12.294 -0.1834 -0.1157 -0.1869
 3808SOL    HW122883   2.225   4.484  12.327  1.1588  0.1855 -0.4884
 3808SOL    HW222884   2.193   4.392  12.209 -2.1581  0.0145  0.8503
 3809SOL     OW22885   0.688   1.377   6.634  0.1498 -0.2382  0.1217
 3809SOL    HW122886   0.606   1.370   6.584  0.8111  0.4562 -1.0736
 3809SOL    HW222887   0.655   1.415   6.715 -0.0160 -2.2088  0.9677
 3810SOL     OW22888   2.507   2.343   1.653 -0.5352 -0.7543  0.1325
 3810SOL    HW122889   2.542   2.271   1.600  0.6846  1.6567 -2.2871
 3810SOL    HW222890   2.537   2.321   1.741 -0.0230 -0.1133  0.1142
 3811SOL     OW22891   0.195   1.364   1.843 -0.6232  0.6389  0.1619
 3811SOL    HW122892   0.119   1.421   1.830 -2.1429 -1.2788  0.6327
 3811SOL    HW222893   0.160   1.286   1.801 -1.7334  0.7192  0.9157
 3812SOL     OW22894   0.713   1.821   0.492  0.0720  0.1786 -0.7426
 3812SOL    HW122895   0.697   1.909   0.460  0.0230  0.7059  0.7124
 3812SOL    HW222896   0.628   1.777   0.490 -0.4934  1.3810 -2.2263
 3813SOL     OW22897   1.010   0.214   0.526  0.5084  0.0856 -0.5058
 3813SOL    HW122898   0.958   0.136   0.543 -0.0437 -0.0015 -2.6373
 3813SOL    HW222899   1.082   0.196   0.586 -0.2228 -1.1889 -0.0113
 3814SOL     OW22900   2.177   2.879  12.374  0.1990  0.8729 -0.4865
 3814SOL    HW122901   2.146   2.965  12.403 -1.6867  0.4771 -1.3582
 3814SOL    HW222902   2.113   2.858  12.306  0.4767  0.1989 -0.5377
 3815SOL     OW22903   2.475   1.428   4.237  0.2884  0.2075  0.8177
 3815SOL    HW122904   2.512   1.411   4.324  2.7735  0.6812 -0.1296
 3815SOL    HW222905   2.450   1.345   4.198 -2.2420  1.2558  0.1861
 3816SOL     OW22906   1.554   3.881   0.263  0.1761 -0.5167  0.3064
 3816SOL    HW122907   1.460   3.902   0.266  0.8580  2.4191  0.8411
 3816SOL    HW222908   1.595   3.960   0.298  1.0101 -0.5382 -0.6244
 3817SOL     OW22909   2.638   4.638   4.780 -0.7157 -0.3023 -0.2801
 3817SOL    HW122910   2.560   4.612   4.732 -0.5529 -2.1533  0.4408
 3817SOL    HW222911   2.685   4.555   4.785 -1.3370 -0.6019  0.6043
 3818SOL     OW22912   0.423   2.670   0.926  0.2968 -0.5140 -0.0238
 3818SOL    HW122913   0.518   2.686   0.926  0.7969 -3.4231 -1.0740
 3818SOL    HW222914   0.398   2.659   1.018  1.4028  1.4308  0.5141
 3819SOL     OW22915   2.059   1.388   4.573 -0.3193  0.1055 -0.2626
 3819SOL    HW122916   2.121   1.460   4.588 -0.0489 -0.0002 -0.8654
 3819SOL    HW222917   2.104   1.338   4.504  1.0195 -0.5826  1.1237
 3820SOL     OW22918   4.280   3.137   0.656  0.8953  0.5954  0.0487
 3820SOL    HW122919   4.365   3.094   0.650  0.6173 -0.2048  1.7102
 3820SOL    HW222920   4.255   3.125   0.748  0.2402 -1.8913 -0.4661
 3821SOL     OW22921   3.614   1.236   4.823  0.5516 -0.5984  0.0289
 3821SOL    HW122922   3.624   1.143   4.841 -0.2161 -1.2261 -2.8389
 3821SOL    HW222923   3.703   1.265   4.844 -0.2072  0.4996  1.7490
 3822SOL     OW22924   1.065   0.702   2.590 -0.1367  0.6034  0.3034
 3822SOL    HW122925   0.984   0.753   2.581 -1.5725 -1.5888  0.6551
 3822SOL    HW222926   1.028   0.615   2.610 -2.7234  1.3463 -1.1669
 3823SOL     OW22927   0.566   1.266  14.684  0.0922 -0.0394 -0.3277
 3823SOL    HW122928   0.539   1.308  14.603  0.0914  0.1023 -0.2541
 3823SOL    HW222929   0.490   1.272  14.742  1.4647 -2.6629  1.7380
 3824SOL     OW22930   3.494   1.890   7.809  0.0457  0.2844 -0.5143
 3824SOL    HW122931   3.460   1.851   7.889  1.1846 -3.1267 -1.6672
 3824SOL    HW222932   3.440   1.835   7.752 -1.3174  1.0058  0.0962
 3825SOL     OW22933   3.249   2.853   7.368 -0.2242 -0.4259 -0.3153
 3825SOL    HW122934   3.246   2.908   7.446  0.6468  0.6218 -1.0052
 3825SOL    HW222935   3.179   2.905   7.328  0.5710  1.1467  0.3408
 3826SOL     OW22936   1.165   1.305   3.599 -0.2649 -0.0325  0.1657
 3826SOL    HW122937   1.084   1.356   3.603  0.2526  0.7414  0.8547
 3826SOL    HW222938   1.197   1.316   3.510 -0.9737  0.7608  0.0100
 3827SOL     OW22939   3.720   3.227   3.043  0.2009  0.0560 -0.5499
 3827SOL    HW122940   3.786   3.279   3.091 -1.1993  2.2056 -0.9495
 3827SOL    HW222941   3.768   3.146   3.028  0.4813 -0.2700  1.9918
 3828SOL     OW22942   4.518   1.456   6.932  0.0861 -0.0805  0.3322
 3828SOL    HW122943   4.544   1.375   6.889 -0.2668 -0.0974  0.1492
 3828SOL    HW222944   4.560   1.447   7.018  1.1642  2.9147  0.1058
 3829SOL     OW22945   4.070   4.592   4.948 -0.1522  0.0099  0.5490
 3829SOL    HW122946   4.140   4.617   4.888 -0.8786 -1.4348 -0.9019
 3829SOL    HW222947   4.122   4.550   5.016  0.3099  1.1381  0.8863
 3830SOL     OW22948   4.094   4.223  10.053 -0.5183 -0.2038  0.0245
 3830SOL    HW122949   4.164   4.244   9.992 -1.5517  2.0275 -0.4051
 3830SOL    HW222950   4.032   4.296  10.047  0.3230  0.3502 -1.6245
 3831SOL     OW22951   1.459   2.146  15.425 -0.3141  0.1657  0.5324
 3831SOL    HW122952   1.552   2.160  15.440 -0.7409  2.1331  1.2512
 3831SOL    HW222953   1.457   2.050  15.418  0.9606  0.1711  0.0093
 3832SOL     OW22954   0.108   0.214   9.318 -0.0152  0.1600  0.0963
 3832SOL    HW122955   0.090   0.145   9.254  1.7793 -0.0989 -0.1112
 3832SOL    HW222956   0.166   0.168   9.379 -1.4779  1.3011  2.3021
 3833SOL     OW22957   0.704   4.003   4.286 -0.2843 -0.3709  0.6974
 3833SOL    HW122958   0.713   4.098   4.274  1.8569 -0.5338  0.9419
 3833SOL    HW222959   0.652   3.984   4.364 -1.0141 -0.5919  0.1551
 3834SOL     OW22960   1.364   3.302   5.098  0.8732 -0.2926  0.3746
 3834SOL    HW122961   1.272   3.291   5.074  0.4390  3.0281  0.4574
 3834SOL    HW222962   1.396   3.212   5.095  0.9908 -0.2444  0.1701
 3835SOL     OW22963   4.063   2.438   8.438  0.1655 -0.2552 -0.1795
 3835SOL    HW122964   4.124   2.405   8.504 -1.6464 -2.0804  0.5631
 3835SOL    HW222965   4.025   2.358   8.402  0.8390 -0.5734 -0.1977
 3836SOL     OW22966   1.758   1.876   4.272  0.0845  0.5732 -0.3221
 3836SOL    HW122967   1.685   1.839   4.222  1.1236 -2.1325  0.1774
 3836SOL    HW222968   1.720   1.946   4.326 -0.2429 -0.9286  1.3811
 3837SOL     OW22969   0.406   3.930  13.085 -0.4338  0.6179  0.0599
 3837SOL    HW122970   0.368   3.847  13.114  2.3056 -1.4121 -2.1918
 3837SOL    HW222971   0.446   3.912  13.000 -0.0704  2.3307 -0.1400
 3838SOL     OW22972   3.583   0.622   5.060 -0.1189  0.1900  0.1872
 3838SOL    HW122973   3.597   0.527   5.056 -0.5214  0.2002 -1.2978
 3838SOL    HW222974   3.616   0.656   4.977  1.3173 -1.3419  0.1278
 3839SOL     OW22975   3.729   0.680   0.790 -0.5561  0.5107 -0.1357
 3839SOL    HW122976   3.666   0.749   0.770  0.2789  0.7786 -1.9024
 3839SOL    HW222977   3.690   0.623   0.856 -0.1489  1.0678  0.5801
 3840SOL     OW22978   2.306   1.878   4.214  0.7955 -0.1438  0.1616
 3840SOL    HW122979   2.211   1.882   4.204  0.8772  0.4240 -0.4011
 3840SOL    HW222980   2.331   1.898   4.124  2.8679  1.9207  1.2263
 3841SOL     OW22981   1.481   0.867   6.405 -0.5356 -0.1052 -0.5455
 3841SOL    HW122982   1.540   0.832   6.471 -0.4309  2.0728  0.5356
 3841SOL    HW222983   1.509   0.827   6.323  3.3036 -0.4051  0.9358
 3842SOL     OW22984   2.513   3.472   2.992  0.3190  0.0582 -0.7270
 3842SOL    HW122985   2.494   3.420   3.070 -0.5714  1.7224  0.1636
 3842SOL    HW222986   2.552   3.549   3.033  1.0867 -0.3323 -0.7075
 3843SOL     OW22987   2.080   4.290   5.191  0.3362  0.2284 -0.9180
 3843SOL    HW122988   2.034   4.322   5.113 -1.2382  0.0095 -0.0745
 3843SOL    HW222989   2.021   4.217   5.210  0.7054 -0.0384 -0.7827
 3844SOL     OW22990   0.876   2.388   7.037  0.3380 -0.1451 -0.2368
 3844SOL    HW122991   0.918   2.376   6.952  0.1152  0.2513 -0.4041
 3844SOL    HW222992   0.934   2.346   7.099 -2.1533 -1.1390  1.4255
 3845SOL     OW22993   4.109   0.181   9.034  0.0819  0.4448  0.4988
 3845SOL    HW122994   4.166   0.229   9.094  0.8092 -1.8561  1.6675
 3845SOL    HW222995   4.144   0.204   8.948 -1.8967  2.2091  0.1658
 3846SOL     OW22996   2.030   4.072   3.646 -0.7696  0.2201 -0.6059
 3846SOL    HW122997   1.957   4.009   3.649 -0.8250  0.2774 -0.7555
 3846SOL    HW222998   1.989   4.150   3.610  1.3876  1.0068 -1.3606
 3847SOL     OW22999   4.227   0.637   8.259  0.0961 -0.6882 -0.1868
 3847SOL    HW123000   4.154   0.609   8.204 -2.3577  0.3893  2.5355
 3847SOL    HW223001   4.175   0.676   8.330  0.8676  1.2241 -0.6486
 3848SOL     OW23002   3.191   3.659   0.548  0.3151  0.3373 -0.7963
 3848SOL    HW123003   3.196   3.583   0.491  0.0677  0.4927 -1.0241
 3848SOL    HW223004   3.276   3.699   0.534  0.2753  1.1270  1.1725
 3849SOL     OW23005   2.812   0.644  15.461 -0.1967  0.9975  0.1256
 3849SOL    HW123006   2.824   0.557  15.422 -0.2730  1.0563 -0.0286
 3849SOL    HW223007   2.881   0.636  15.526 -1.1000 -1.9808  0.7308
 3850SOL     OW23008   2.131   3.715   9.787 -0.4555  0.5879 -0.0490
 3850SOL    HW123009   2.170   3.732   9.701 -2.0733  0.9156 -0.7280
 3850SOL    HW223010   2.042   3.744   9.769 -0.4875 -0.6995 -2.0835
 3851SOL     OW23011   4.280   2.409   2.957  0.0807 -0.1603  0.5683
 3851SOL    HW123012   4.206   2.390   2.900 -1.2845  1.9557  1.6822
 3851SOL    HW223013   4.238   2.429   3.040 -1.6607  0.1855 -0.4118
 3852SOL     OW23014   3.757   3.702   0.050  0.0227  0.0565  0.4533
 3852SOL    HW123015   3.816   3.677   0.121  1.2801  3.8027  0.7337
 3852SOL    HW223016   3.803   3.780   0.019 -1.0620  0.4708 -0.1218
 3853SOL     OW23017   0.107   1.958  16.492 -0.5931 -0.8282  0.1069
 3853SOL    HW123018   0.072   2.043  16.463  2.0129  0.1133 -0.2496
 3853SOL    HW223019   0.200   1.963  16.469 -0.1907 -1.5085  1.6277
 3854SOL     OW23020   2.651   2.496   4.415 -0.3284  0.9836  0.3848
 3854SOL    HW123021   2.730   2.490   4.468 -0.3111  1.4861  0.4154
 3854SOL    HW223022   2.637   2.403   4.399 -1.7425  1.0521  1.1495
 3855SOL     OW23023   4.103   3.000   7.985 -0.4466 -0.0609  0.0052
 3855SOL    HW123024   4.164   2.927   7.987  1.1532  1.2439 -1.3163
 3855SOL    HW223025   4.149   3.049   7.917 -1.8901 -0.1581 -1.0494
 3856SOL     OW23026   1.767   2.081   7.744 -0.5768 -0.2126  0.0437
 3856SOL    HW123027   1.765   2.064   7.838 -1.2014 -0.1657  0.0386
 3856SOL    HW223028   1.852   2.043   7.724 -1.6214 -2.4390 -0.2159
 3857SOL     OW23029   4.087   4.090   4.800 -0.3752  0.6114 -0.3152
 3857SOL    HW123030   4.041   4.160   4.753  1.2217  0.8621 -1.5179
 3857SOL    HW223031   4.179   4.108   4.780 -0.9320  2.8614 -0.9476
 3858SOL     OW23032   4.356   2.836  11.027 -0.6489  0.1770  0.9474
 3858SOL    HW123033   4.424   2.802  11.086  2.1570 -0.8480 -2.8388
 3858SOL    HW223034   4.294   2.764  11.037 -1.1483  0.5526  0.4682
 3859SOL     OW23035   3.477   0.754   2.279  0.0833  0.7274 -0.0951
 3859SOL    HW123036   3.390   0.729   2.308 -0.4536  2.3267 -0.3139
 3859SOL    HW223037   3.455   0.840   2.242 -0.1861  0.4329 -0.6251
 3860SOL     OW23038   1.929   0.711   5.376  0.1010 -0.5784  0.8027
 3860SOL    HW123039   2.022   0.713   5.399  0.2522 -1.7414  0.2772
 3860SOL    HW223040   1.891   0.785   5.422  1.0449  0.1038  0.4887
 3861SOL     OW23041   4.141   1.856  11.068 -0.4295  0.0284  0.6087
 3861SOL    HW123042   4.058   1.811  11.055 -0.7152  0.2841  1.5517
 3861SOL    HW223043   4.158   1.837  11.161 -2.2858  0.3104  0.9893
 3862SOL     OW23044   2.752   3.372   5.547  0.1840  0.5473 -0.2043
 3862SOL    HW123045   2.685   3.382   5.614 -1.5367 -1.0678 -1.6758
 3862SOL    HW223046   2.748   3.283   5.512 -1.1213  0.5646 -0.0769
 3863SOL     OW23047   1.897   1.548   1.187 -0.7000 -0.0891 -0.4883
 3863SOL    HW123048   1.966   1.505   1.238 -2.0072 -1.0557  0.4410
 3863SOL    HW223049   1.946   1.570   1.108 -0.9441  1.5853 -0.1761
 3864SOL     OW23050   2.501   0.004   7.635  0.0716  0.3251 -0.5431
 3864SOL    HW123051   2.525   0.084   7.681  0.9141  0.8827 -1.9625
 3864SOL    HW223052   2.589   4.699   7.610 -0.1236 -1.6344  0.9763
 3865SOL     OW23053   3.838   3.764   9.394 -0.1524 -0.4720  0.6963
 3865SOL    HW123054   3.773   3.824   9.359  0.0038 -0.4783  0.3895
 3865SOL    HW223055   3.918   3.793   9.350 -1.2964  1.9175  0.2242
 3866SOL     OW23056   3.046   0.446   3.213  0.1605  0.4253  0.0462
 3866SOL    HW123057   3.101   0.399   3.150  1.3175  2.2264 -0.2921
 3866SOL    HW223058   2.958   0.411   3.197  1.1680 -1.8714 -0.3410
 3867SOL     OW23059   3.726   3.034  11.546 -0.8770  0.2738  0.2632
 3867SOL    HW123060   3.747   3.103  11.483  0.4859 -0.1330  0.2728
 3867SOL    HW223061   3.785   2.965  11.515  0.3912  0.9546  1.1684
 3868SOL     OW23062   4.045   3.885   9.266 -0.3477  0.4663 -0.4961
 3868SOL    HW123063   4.074   3.961   9.317 -0.2737  0.2987 -0.2842
 3868SOL    HW223064   4.111   3.878   9.197  1.2073 -0.1772  1.0404
 3869SOL     OW23065   2.638   1.076  10.147 -0.3720 -0.0539  0.0189
 3869SOL    HW123066   2.713   1.049  10.200 -2.2066  1.7723  3.5297
 3869SOL    HW223067   2.661   1.045  10.060  1.3788  1.3330 -0.0106
 3870SOL     OW23068   0.191   3.265   8.320  0.2757  0.0593  0.1177
 3870SOL    HW123069   0.283   3.292   8.324  0.0961  0.7018 -0.0325
 3870SOL    HW223070   0.164   3.304   8.237 -0.6111 -0.8428 -0.0132
 3871SOL     OW23071   2.204   1.508   8.921 -0.1359  0.3778 -0.5646
 3871SOL    HW123072   2.150   1.478   8.848  0.0579  0.1997 -0.6348
 3871SOL    HW223073   2.231   1.431   8.971  1.7171  1.1787 -0.3483
 3872SOL     OW23074   2.252   1.427   0.234 -0.0858  0.3703 -0.2259
 3872SOL    HW123075   2.211   1.394   0.154  0.1162  3.4138 -1.5753
 3872SOL    HW223076   2.261   1.346   0.284  1.8653  1.3040  0.9408
 3873SOL     OW23077   0.463   0.324   8.335 -0.5481  0.3186 -0.1349
 3873SOL    HW123078   0.558   0.333   8.344 -0.5457  1.7837 -1.7355
 3873SOL    HW223079   0.429   0.358   8.418 -1.8020  2.8652 -1.7226
 3874SOL     OW23080   2.507   1.565   4.821 -0.0433  0.2041  0.4928
 3874SOL    HW123081   2.497   1.660   4.829  0.3669  0.3125 -0.2254
 3874SOL    HW223082   2.567   1.563   4.746  0.3452 -2.6457  0.8932
 3875SOL     OW23083   1.216   2.056   3.738  0.3650 -0.4961  0.5804
 3875SOL    HW123084   1.129   2.024   3.764 -0.5494  0.3176 -1.4400
 3875SOL    HW223085   1.193   2.105   3.659  0.6528 -1.8753 -0.3652
 3876SOL     OW23086   4.300   4.044  12.911 -0.3063 -0.1677  0.0947
 3876SOL    HW123087   4.253   4.122  12.883  0.6836 -0.3004 -1.9419
 3876SOL    HW223088   4.384   4.071  12.875  0.1744  1.4267  2.4795
 3877SOL     OW23089   1.274   1.028   5.197  0.0781 -0.0658 -0.1836
 3877SOL    HW123090   1.211   1.051   5.129  0.2017 -0.1808 -0.3356
 3877SOL    HW223091   1.319   1.112   5.200 -0.1142 -0.0392  1.8958
 3878SOL     OW23092   2.510   0.091  16.051 -0.3041 -0.0169 -0.2755
 3878SOL    HW123093   2.513   0.185  16.034 -2.0078 -0.0550 -0.8028
 3878SOL    HW223094   2.583   0.080  16.111 -0.5281  0.5816  0.1055
 3879SOL     OW23095   3.710   3.027   7.826  0.1764 -0.0086 -0.4124
 3879SOL    HW123096   3.749   3.075   7.899  1.6162 -0.6593 -0.7453
 3879SOL    HW223097   3.767   3.045   7.751  0.5791  1.5015  0.2780
 3880SOL     OW23098   2.481   3.581   7.897 -0.0168 -0.2583 -0.1262
 3880SOL    HW123099   2.408   3.538   7.941 -0.4608 -0.6181 -1.2171
 3880SOL    HW223100   2.531   3.509   7.858 -1.3960 -1.2566 -0.0387
 3881SOL     OW23101   0.047   3.468   6.784 -0.1744  0.0959  0.0831
 3881SOL    HW123102   0.026   3.535   6.850  2.1552 -0.6809  1.6157
 3881SOL    HW223103   0.141   3.472   6.773 -0.0220 -2.0115  0.6343
 3882SOL     OW23104   4.009   1.348   6.827 -0.1472  0.2305 -0.5841
 3882SOL    HW123105   4.087   1.316   6.783  0.0133  2.7682 -2.1728
 3882SOL    HW223106   4.039   1.365   6.916 -0.0436 -2.0879 -0.1796
 3883SOL     OW23107   4.716   2.225   4.130  0.0156  0.1002  0.2317
 3883SOL    HW123108   4.720   2.215   4.035 -1.0106 -2.9665  0.5216
 3883SOL    HW223109   4.649   2.294   4.123  1.1380  1.1628  0.0184
 3884SOL     OW23110   2.961   4.186   3.169  0.6029  0.7245  0.0673
 3884SOL    HW123111   2.872   4.198   3.203  0.4497 -1.9781  0.6176
 3884SOL    HW223112   3.008   4.264   3.202  0.2766  1.5544 -1.4362
 3885SOL     OW23113   0.073   4.167  12.367  0.0359  0.0859 -0.0192
 3885SOL    HW123114   0.054   4.076  12.388 -1.2549  0.5340  0.8048
 3885SOL    HW223115   0.168   4.164  12.381 -0.0166 -2.5185 -0.3418
 3886SOL     OW23116   4.627   3.038   3.649  0.1519 -0.1153  0.3300
 3886SOL    HW123117   4.716   3.021   3.620 -0.3458  1.7101 -2.3177
 3886SOL    HW223118   4.607   3.119   3.601 -0.7273 -0.3569  0.2859
 3887SOL     OW23119   1.856   1.077   8.215  0.8033 -0.8895 -0.1302
 3887SOL    HW123120   1.884   1.165   8.186 -1.7175 -0.1147 -0.1542
 3887SOL    HW223121   1.936   1.024   8.213 -0.6783 -3.1285  1.0011
 3888SOL     OW23122   0.917   3.127  16.570  0.3333 -0.2650  0.0522
 3888SOL    HW123123   0.890   3.098  16.483  0.3942  1.2415 -0.4782
 3888SOL    HW223124   0.839   3.171  16.604 -0.1652 -1.4248  0.4047
 3889SOL     OW23125   0.678   3.438   0.579 -0.3492 -0.1831 -0.2322
 3889SOL    HW123126   0.694   3.531   0.565  0.2857 -0.3085 -0.3342
 3889SOL    HW223127   0.617   3.406   0.512  0.5135 -1.9699 -0.1599
 3890SOL     OW23128   1.198   3.353   9.301  0.4431  0.7394 -0.1459
 3890SOL    HW123129   1.220   3.265   9.273  1.0541  0.7902  0.1804
 3890SOL    HW223130   1.280   3.388   9.336  0.6131 -0.3827  0.5948
 3891SOL     OW23131   1.405   1.768   7.356 -0.2826 -0.2534 -0.0612
 3891SOL    HW123132   1.423   1.676   7.335  0.1349 -0.4897  1.3640
 3891SOL    HW223133   1.464   1.810   7.294  1.5194 -0.6764  1.3851
 3892SOL     OW23134   2.524   3.165   9.324  0.1532  0.0627  0.5052
 3892SOL    HW123135   2.591   3.212   9.374  0.4677  1.0398 -0.8189
 3892SOL    HW223136   2.577   3.086   9.312 -1.5292 -1.0458  0.4947
 3893SOL     OW23137   1.702   3.798  17.234  0.5065  0.3408 -0.2252
 3893SOL    HW123138   1.773   3.813  17.172 -2.2831 -0.0014 -3.5510
 3893SOL    HW223139   1.634   3.771  17.171  0.5395  0.3441 -0.2624
 3894SOL     OW23140   0.368   0.763   6.647 -0.1409  0.0905  0.4034
 3894SOL    HW123141   0.402   0.812   6.722  2.8052  0.5192 -1.1873
 3894SOL    HW223142   0.448   0.721   6.616 -0.3049 -0.0663  0.1983
 3895SOL     OW23143   2.368   4.327   6.242  0.0074 -0.7396  0.5765
 3895SOL    HW123144   2.303   4.262   6.266 -1.0742 -0.5220 -1.7067
 3895SOL    HW223145   2.394   4.297   6.155 -0.7820 -0.2181  0.1510
 3896SOL     OW23146   1.710   1.315   6.648 -0.9272  0.2155 -0.3441
 3896SOL    HW123147   1.660   1.397   6.652  0.0398  0.8955 -2.0145
 3896SOL    HW223148   1.693   1.288   6.738  0.9349 -0.3277 -0.1755
 3897SOL     OW23149   0.361   3.171   3.844  0.3598 -0.9039 -0.4666
 3897SOL    HW123150   0.387   3.165   3.936  0.9583 -0.0687 -0.5835
 3897SOL    HW223151   0.434   3.213   3.799 -1.3354  0.7664 -1.6398
 3898SOL     OW23152   3.921   0.929   7.842  0.6552 -0.2310  0.5682
 3898SOL    HW123153   3.830   0.947   7.864  0.4041  1.1139 -1.5240
 3898SOL    HW223154   3.959   0.924   7.929  0.3083 -0.0252  0.7303
 3899SOL     OW23155   1.202   0.407   8.184  0.4602 -0.0585 -0.0462
 3899SOL    HW123156   1.252   0.415   8.266  0.8156 -2.0197 -0.0709
 3899SOL    HW223157   1.140   0.341   8.214  1.1994 -0.4981  0.5252
 3900SOL     OW23158   1.005   4.302   7.883 -0.3898 -0.1391 -0.0115
 3900SOL    HW123159   1.060   4.231   7.916  3.2361  1.4329 -2.6444
 3900SOL    HW223160   0.990   4.264   7.796 -1.1099  0.0308  0.0437
 3901SOL     OW23161   0.678   3.407  14.664 -0.5952  0.0349  0.5189
 3901SOL    HW123162   0.718   3.441  14.744 -1.6857  0.5054  0.8621
 3901SOL    HW223163   0.729   3.453  14.597 -1.3443 -0.1427 -0.1772
 3902SOL     OW23164   3.295   3.305   6.112 -0.0887 -0.7216  0.6300
 3902SOL    HW123165   3.233   3.306   6.185  1.7424 -0.5159  2.2008
 3902SOL    HW223166   3.369   3.251   6.142 -0.1677 -0.9954  0.3412
 3903SOL     OW23167   3.823   3.261  10.406  0.0935  0.0101  0.1403
 3903SOL    HW123168   3.727   3.255  10.411  0.2433 -0.0349  3.0319
 3903SOL    HW223169   3.828   3.329  10.339  1.3057 -2.3241 -2.0981
 3904SOL     OW23170   1.280   2.022   3.323  0.1451  0.3237  0.7833
 3904SOL    HW123171   1.348   2.036   3.388  0.0562  3.0554  0.2925
 3904SOL    HW223172   1.303   2.094   3.265 -0.4630  0.6078  0.8882
 3905SOL     OW23173   1.175   1.537   4.111 -0.5086  0.3185  0.4304
 3905SOL    HW123174   1.213   1.497   4.033  0.3851  3.1110 -0.5653
 3905SOL    HW223175   1.255   1.578   4.144 -0.2018 -1.9581  2.5169
 3906SOL     OW23176   3.520   3.322   7.777  0.2091  0.3850 -0.2414
 3906SOL    HW123177   3.466   3.267   7.721  0.8986 -0.8358  0.3004
 3906SOL    HW223178   3.455   3.388   7.802  1.0621  1.6269 -1.2930
 3907SOL     OW23179   3.465   3.091  11.640 -0.3170  0.6212  0.3590
 3907SOL    HW123180   3.557   3.066  11.632 -0.0112  1.3763  1.4403
 3907SOL    HW223181   3.469   3.136  11.556 -0.4024 -0.0757 -0.0191
 3908SOL     OW23182   3.146   3.123  10.141 -0.1035 -0.1470 -0.0467
 3908SOL    HW123183   3.191   3.180  10.079 -1.6212  1.8911  0.6973
 3908SOL    HW223184   3.203   3.047  10.140 -3.2874 -2.5697  0.7014
 3909SOL     OW23185   3.021   4.006   5.335 -0.3021 -0.1566  0.2129
 3909SOL    HW123186   2.976   4.089   5.350  0.1795  0.4075 -1.4497
 3909SOL    HW223187   3.092   4.029   5.275  0.2846  0.5749  1.1925
 3910SOL     OW23188   0.679   2.126   7.077 -0.3547 -0.0037 -0.6010
 3910SOL    HW123189   0.724   2.047   7.110 -0.1394  0.2380 -0.3183
 3910SOL    HW223190   0.660   2.166   7.162  1.1049  3.3439 -1.8547
 3911SOL     OW23191   3.273   2.190   2.179 -0.4125  0.5059 -0.2828
 3911SOL    HW123192   3.257   2.228   2.092 -0.4058 -0.1653 -0.5750
 3911SOL    HW223193   3.204   2.126   2.197  0.5342 -1.0397 -2.1089
 3912SOL     OW23194   1.993   4.512  14.411 -0.6094  0.3267  0.3532
 3912SOL    HW123195   1.942   4.495  14.332  2.0708 -0.4403 -1.2108
 3912SOL    HW223196   2.079   4.537  14.379 -1.1681  0.7967 -0.7627
 3913SOL     OW23197   3.094   1.184  10.402 -0.5533  0.3927  0.0507
 3913SOL    HW123198   3.115   1.276  10.422  2.9595 -0.3803 -0.0422
 3913SOL    HW223199   3.174   1.132  10.412  0.3992  1.8393  0.0375
 3914SOL     OW23200   1.981   1.337   5.582 -0.0776  0.1817  0.2184
 3914SOL    HW123201   2.057   1.314   5.529 -0.1563  0.5251 -0.0435
 3914SOL    HW223202   1.928   1.267   5.544 -0.1309  0.8981 -1.0397
 3915SOL     OW23203   4.345   1.352   8.066  0.0786 -0.3178  0.0916
 3915SOL    HW123204   4.407   1.357   8.138  0.0221 -0.1586  0.1275
 3915SOL    HW223205   4.383   1.273   8.026 -0.7609 -0.6183 -0.1144
 3916SOL     OW23206   3.561   1.612   6.461 -0.3353  0.3976  0.3067
 3916SOL    HW123207   3.609   1.656   6.531 -0.5489  1.4109 -0.1814
 3916SOL    HW223208   3.547   1.680   6.396 -1.9760 -0.5520 -0.3248
 3917SOL     OW23209   0.071   0.409  15.481  0.4378  0.6976 -0.1897
 3917SOL    HW123210   0.017   0.372  15.552  1.0385 -1.8629 -1.0535
 3917SOL    HW223211   0.057   0.502  15.496 -1.2606  0.6293 -1.4255
 3918SOL     OW23212   2.708   4.709  14.024 -0.2182  0.4921 -0.0342
 3918SOL    HW123213   2.704   4.708  14.119  1.6081  0.5902  0.0474
 3918SOL    HW223214   2.736   4.619  14.006  0.3260  1.2756 -3.1458
 3919SOL     OW23215   0.426   1.657  12.080  0.3636  0.2796  0.3080
 3919SOL    HW123216   0.418   1.676  11.986  2.3991 -1.1817 -0.1600
 3919SOL    HW223217   0.516   1.684  12.099  1.1848 -1.3613 -1.1320
 3920SOL     OW23218   0.805   3.299   2.441 -0.3641 -0.0805 -0.3859
 3920SOL    HW123219   0.833   3.370   2.499 -0.2685 -1.1932  0.9347
 3920SOL    HW223220   0.792   3.228   2.504 -2.5803 -0.4767 -1.2692
 3921SOL     OW23221   1.101   2.749   6.433 -0.0304  0.1593 -0.3207
 3921SOL    HW123222   1.090   2.841   6.409  0.3539  0.2747 -0.0607
 3921SOL    HW223223   1.096   2.714   6.345  1.1263  2.2715 -1.2169
 3922SOL     OW23224   3.325   0.610  10.625 -0.4276 -0.0652 -0.2070
 3922SOL    HW123225   3.295   0.570  10.707 -1.3164 -1.7978 -1.3888
 3922SOL    HW223226   3.357   0.695  10.657 -2.3045 -0.7321  3.4084
 3923SOL     OW23227   0.606   0.050   2.781 -0.2717 -0.3249  0.1841
 3923SOL    HW123228   0.594   4.696   2.837  2.1061 -0.7100  0.1772
 3923SOL    HW223229   0.514   0.071   2.762  0.7934  0.6726 -3.8673
 3924SOL     OW23230   0.977   0.001   1.784  0.3242  0.3899 -0.5205
 3924SOL    HW123231   1.064   0.031   1.810  0.0722  0.5455  0.1410
 3924SOL    HW223232   0.938   4.676   1.856  2.6782 -1.9524 -0.8258
 3925SOL     OW23233   0.959   2.881   3.264  0.2717 -0.5759 -0.1431
 3925SOL    HW123234   0.984   2.914   3.178 -2.2054 -1.5663 -1.2571
 3925SOL    HW223235   0.910   2.956   3.298 -0.7742 -0.8481 -1.0418
 3926SOL     OW23236   0.784   2.486   6.059  0.6973  0.3572 -0.1122
 3926SOL    HW123237   0.727   2.503   6.133  2.8918  0.9186  1.4389
 3926SOL    HW223238   0.763   2.396   6.035  0.1673  0.3727  0.3101
 3927SOL     OW23239   1.753   3.528   9.263 -0.0012  0.0108 -0.3919
 3927SOL    HW123240   1.815   3.577   9.317  1.1293 -0.3409 -1.3534
 3927SOL    HW223241   1.810   3.513   9.187  2.5073  0.1501  1.4706
 3928SOL     OW23242   0.695   3.530   6.769 -0.1783 -0.0990  0.5152
 3928SOL    HW123243   0.627   3.597   6.762 -0.1022  0.0228  0.9933
 3928SOL    HW223244   0.684   3.497   6.858 -0.5938 -2.2670 -0.3580
 3929SOL     OW23245   4.414   2.517  12.824 -0.4199  0.1272  0.1288
 3929SOL    HW123246   4.478   2.552  12.761 -1.5626  1.4562 -0.3013
 3929SOL    HW223247   4.339   2.573  12.806  0.6149  0.7697 -2.2816
 3930SOL     OW23248   2.502   2.844   2.293 -0.0399 -0.0806 -0.5009
 3930SOL    HW123249   2.580   2.874   2.246  0.9475 -0.3518  0.9677
 3930SOL    HW223250   2.521   2.750   2.300 -0.4547  0.0063  1.6339
 3931SOL     OW23251   3.003   0.574   5.231 -0.3306 -0.1476  0.1013
 3931SOL    HW123252   2.995   0.652   5.287 -2.4507  0.5110 -1.0992
 3931SOL    HW223253   3.080   0.589   5.178 -1.6468  0.9316 -1.5055
 3932SOL     OW23254   4.507   2.622   2.001 -0.0873  0.4969 -0.0555
 3932SOL    HW123255   4.490   2.560   2.071  1.0449 -0.1811 -0.3828
 3932SOL    HW223256   4.463   2.700   2.036 -1.2629 -0.1528 -0.0804
 3933SOL     OW23257   0.467   3.216   5.468  0.5397 -0.1653 -0.1079
 3933SOL    HW123258   0.533   3.236   5.535 -0.3926 -1.3024  1.1601
 3933SOL    HW223259   0.408   3.151   5.507 -1.6341  1.0384 -1.3918
 3934SOL     OW23260   3.587   3.985  14.326  0.0628 -0.2143 -0.1290
 3934SOL    HW123261   3.529   4.055  14.299  0.5862  0.0090 -0.6920
 3934SOL    HW223262   3.661   4.044  14.336 -0.6307  0.4250  1.1416
 3935SOL     OW23263   4.135   3.507  17.177  0.1650 -0.3300  0.0919
 3935SOL    HW123264   4.227   3.530  17.186  0.3147  0.1888 -2.7989
 3935SOL    HW223265   4.106   3.499  17.268  1.7148  0.7854  0.6878
 3936SOL     OW23266   2.975   1.850   5.271 -0.4154  0.5538 -0.1643
 3936SOL    HW123267   2.999   1.778   5.214 -0.4620  0.7628 -0.4482
 3936SOL    HW223268   2.977   1.923   5.208 -2.3343  0.2852 -0.5307
 3937SOL     OW23269   0.882   2.452   4.554 -0.4290 -0.6225  0.2839
 3937SOL    HW123270   0.942   2.520   4.525  0.4019 -1.0237  1.0563
 3937SOL    HW223271   0.899   2.446   4.648 -0.1014  0.9951  0.3337
 3938SOL     OW23272   0.219   2.799   7.259  0.1445 -0.2176  0.0978
 3938SOL    HW123273   0.253   2.861   7.324 -0.2393  0.7703 -0.6388
 3938SOL    HW223274   0.193   2.725   7.314 -1.8323  0.4774  0.0662
 3939SOL     OW23275   0.833   4.568  10.117  0.1843  0.1376  0.3354
 3939SOL    HW123276   0.861   4.654  10.085 -1.5719  1.0625  1.2486
 3939SOL    HW223277   0.757   4.547  10.062  0.3192  1.5884 -0.4156
 3940SOL     OW23278   4.102   3.114  10.152 -0.0374  0.5035 -0.2541
 3940SOL    HW123279   4.147   3.151  10.228 -2.3476 -0.0203  1.3855
 3940SOL    HW223280   4.162   3.044  10.125 -0.9002  0.9291 -3.2278
 3941SOL     OW23281   3.252   2.079   3.762 -0.1550 -0.1929 -0.2981
 3941SOL    HW123282   3.243   1.985   3.780 -2.0352  0.2131  0.8889
 3941SOL    HW223283   3.226   2.111   3.849 -1.0463 -0.6203 -0.4125
 3942SOL     OW23284   1.395   3.556   1.860  0.2434 -0.0792 -0.1572
 3942SOL    HW123285   1.369   3.580   1.949 -0.8191 -0.3972 -0.3915
 3942SOL    HW223286   1.318   3.512   1.825  0.0572  0.8120 -0.8526
 3943SOL     OW23287   1.437   3.152   4.334  0.0781 -0.3804 -0.0047
 3943SOL    HW123288   1.474   3.153   4.422  3.8336  2.7267 -1.6158
 3943SOL    HW223289   1.510   3.201   4.295 -0.1959  1.2552  1.5642
 3944SOL     OW23290   2.030   1.358  14.196 -0.2739 -0.2431 -0.2763
 3944SOL    HW123291   2.100   1.412  14.232 -1.5937  0.9065  0.5522
 3944SOL    HW223292   2.086   1.329  14.124  2.2171 -1.9563  2.3270
 3945SOL     OW23293   0.646   0.253  12.280  0.3031  0.1057 -0.6076
 3945SOL    HW123294   0.731   0.249  12.324 -0.6711 -1.9049  1.1029
 3945SOL    HW223295   0.628   0.347  12.286  1.6487  0.3624 -0.6628
 3946SOL     OW23296   2.612   2.018   0.271 -0.0352  0.1402 -0.1412
 3946SOL    HW123297   2.669   1.955   0.226  0.5754  0.4186  0.2469
 3946SOL    HW223298   2.558   1.949   0.309  1.3628  0.7881  3.0358
 3947SOL     OW23299   3.532   1.369   4.592 -0.9500  0.0371 -0.1702
 3947SOL    HW123300   3.468   1.434   4.622  1.0019  1.5277  0.7573
 3947SOL    HW223301   3.559   1.329   4.675  0.4781  1.5563  0.0758
 3948SOL     OW23302   4.336   0.887   2.502 -0.2455 -0.1684  0.5107
 3948SOL    HW123303   4.362   0.797   2.520  0.9914  0.1819  0.5133
 3948SOL    HW223304   4.420   0.925   2.477 -0.5828  0.7111  0.7200
 3949SOL     OW23305   4.460   0.194   2.176  0.3723 -0.2801 -0.1086
 3949SOL    HW123306   4.544   0.211   2.133  1.0137  0.1489  1.3248
 3949SOL    HW223307   4.444   0.280   2.214  0.7920 -0.6371  0.8840
 3950SOL     OW23308   3.656   1.251   8.537 -0.1162 -0.4765 -0.2484
 3950SOL    HW123309   3.708   1.308   8.480 -1.3373  1.0289  0.1436
 3950SOL    HW223310   3.724   1.212   8.593  0.1782 -0.2786 -0.4656
 3951SOL     OW23311   1.201   3.335  12.474  0.0286  0.8144 -0.4833
 3951SOL    HW123312   1.162   3.404  12.528 -1.4184 -2.0126  2.1480
 3951SOL    HW223313   1.292   3.364  12.469  0.2493  0.1286 -0.4230
 3952SOL     OW23314   0.638   3.962   0.865  0.6355  0.2982 -0.0459
 3952SOL    HW123315   0.601   4.050   0.872  2.7368  1.2685 -1.0571
 3952SOL    HW223316   0.706   3.970   0.798 -1.0360 -1.2464 -1.9150
 3953SOL     OW23317   4.563   3.941  11.284 -0.4063 -0.6187  0.1277
 3953SOL    HW123318   4.595   3.859  11.247 -0.8542 -0.5170 -0.4992
 3953SOL    HW223319   4.470   3.922  11.293 -0.7780  1.3738  0.5664
 3954SOL     OW23320   1.297   2.039   9.617  0.2767  0.2234 -0.3674
 3954SOL    HW123321   1.295   1.962   9.561  1.1270 -0.3012  0.3142
 3954SOL    HW223322   1.205   2.046   9.642 -0.1070  0.6377 -1.9434
 3955SOL     OW23323   0.763   1.638   5.112 -0.2744 -0.0362  0.2968
 3955SOL    HW123324   0.762   1.556   5.064  0.0877  0.4905 -0.5992
 3955SOL    HW223325   0.730   1.608   5.197  2.7264 -3.0454  0.3917
 3956SOL     OW23326   0.923   4.092   1.791 -0.3037  0.2634  0.0541
 3956SOL    HW123327   0.980   4.038   1.846 -1.0490 -1.2163 -0.6318
 3956SOL    HW223328   0.920   4.166   1.851 -4.7094  0.8659 -0.8894
 3957SOL     OW23329   3.543   4.190   1.498  0.4828 -0.2043  0.1576
 3957SOL    HW123330   3.552   4.136   1.420  0.5397  0.1443 -0.0777
 3957SOL    HW223331   3.473   4.254   1.485  1.8772  1.5756  1.2966
 3958SOL     OW23332   3.524   1.588  10.845 -0.2232  0.4038  0.2688
 3958SOL    HW123333   3.524   1.530  10.768 -2.6786  0.5314  0.1656
 3958SOL    HW223334   3.498   1.667  10.797 -1.2550 -1.1109 -1.6688
 3959SOL     OW23335   4.473   1.931   7.972 -0.1967 -0.0116 -0.1811
 3959SOL    HW123336   4.416   1.976   8.035  0.8199  1.4511 -0.3130
 3959SOL    HW223337   4.413   1.919   7.898 -0.2137  0.1824 -0.1978
 3960SOL     OW23338   3.504   2.778   3.459  0.2793  0.2907 -0.1603
 3960SOL    HW123339   3.593   2.767   3.425 -1.0733 -0.1720 -3.4940
 3960SOL    HW223340   3.452   2.817   3.390  3.2714  3.2935 -0.7057
 3961SOL     OW23341   0.962   0.553   4.155 -0.1779 -0.2031 -0.3520
 3961SOL    HW123342   1.027   0.487   4.131  0.2740  0.1085  0.0196
 3961SOL    HW223343   1.002   0.631   4.118  1.8685 -1.2645 -0.3809
 3962SOL     OW23344   1.111   2.027   5.063  0.2943  0.1150 -0.3718
 3962SOL    HW123345   1.022   1.994   5.077  0.6521 -0.0796  1.5142
 3962SOL    HW223346   1.092   2.120   5.056  0.8602 -0.0076 -3.5402
 3963SOL     OW23347   4.397   1.744   6.129 -0.0814 -0.0700 -0.5263
 3963SOL    HW123348   4.428   1.751   6.039  0.2420 -2.2086 -0.5830
 3963SOL    HW223349   4.365   1.833   6.146  2.1385  0.5817  0.3365
 3964SOL     OW23350   2.419   4.551  11.312 -0.4867 -0.5289  0.4099
 3964SOL    HW123351   2.509   4.551  11.280 -0.6245  0.5843  0.0210
 3964SOL    HW223352   2.416   4.494  11.389  0.4508 -2.7478 -1.1759
 3965SOL     OW23353   0.443   0.067   7.028  0.3741 -0.0910 -0.2891
 3965SOL    HW123354   0.479   0.008   7.094 -1.0602 -1.4673 -0.7528
 3965SOL    HW223355   0.403   0.009   6.964  0.6074 -1.2771  0.6409
 3966SOL     OW23356   0.378   0.093  15.141  0.4373  0.3377 -0.4011
 3966SOL    HW123357   0.438   0.130  15.205 -1.2052 -0.7649  1.7651
 3966SOL    HW223358   0.294   0.136  15.157  0.1090  0.6191 -2.8913
 3967SOL     OW23359   4.600   2.660  12.684  0.4469  0.0758  0.2857
 3967SOL    HW123360   4.591   2.748  12.649  0.8809 -0.5950 -1.5004
 3967SOL    HW223361   4.629   2.678  12.774  2.2687  2.7714 -0.8537
 3968SOL     OW23362   0.476   0.422   8.946  0.2874 -0.0866 -0.1935
 3968SOL    HW123363   0.491   0.354   9.012 -0.5976  0.9415  1.0680
 3968SOL    HW223364   0.432   0.364   8.884 -0.4473  0.9484 -0.6351
 3969SOL     OW23365   0.976   1.243   6.872  0.1889  0.1212 -0.1461
 3969SOL    HW123366   0.971   1.175   6.805 -0.8684 -0.3312  0.3878
 3969SOL    HW223367   0.941   1.320   6.829  0.6698 -0.1184 -0.9693
 3970SOL     OW23368   1.119   0.670  12.839  0.2822  0.1705  0.1577
 3970SOL    HW123369   1.110   0.655  12.745 -1.4597  2.0954 -0.0053
 3970SOL    HW223370   1.051   0.607  12.863 -1.0591  2.7308  3.1635
 3971SOL     OW23371   2.063   4.399  12.079 -0.6274  0.1781  0.5944
 3971SOL    HW123372   2.009   4.402  12.158 -1.7582  0.9973 -0.2138
 3971SOL    HW223373   2.045   4.485  12.040 -1.7485  0.4377  1.6640
 3972SOL     OW23374   1.360   2.142   4.225 -0.1978 -0.0425  0.2883
 3972SOL    HW123375   1.379   2.077   4.157 -2.3612 -1.0314  0.6311
 3972SOL    HW223376   1.356   2.226   4.178 -0.5043 -0.4088 -0.3326
 3973SOL     OW23377   3.677   4.005   4.108  0.3925  0.2247 -0.0222
 3973SOL    HW123378   3.595   3.960   4.090  1.0822 -2.1036  2.6698
 3973SOL    HW223379   3.661   4.081   4.052 -1.6244 -0.4632 -0.3664
 3974SOL     OW23380   3.899   3.937   6.467  0.3874  0.5961  0.1970
 3974SOL    HW123381   3.931   4.009   6.522 -0.3387  0.8047  0.3414
 3974SOL    HW223382   3.950   3.862   6.497  1.3048  1.3040  0.3998
 3975SOL     OW23383   1.878   2.639   4.374  0.6616 -0.1687  0.0583
 3975SOL    HW123384   1.827   2.573   4.421 -2.0452  2.7206  1.0847
 3975SOL    HW223385   1.961   2.590   4.375  0.1734 -0.9754  1.7081
 3976SOL     OW23386   1.970   0.325   4.820  0.2146  0.7960  0.5576
 3976SOL    HW123387   2.007   0.272   4.891 -2.1897  1.3244  2.1924
 3976SOL    HW223388   1.987   0.410   4.861  0.7948 -0.0030  1.9937
 3977SOL     OW23389   0.127   2.113   8.604 -0.0223  0.1171  0.1038
 3977SOL    HW123390   0.033   2.119   8.621 -0.1507  1.3453 -1.0651
 3977SOL    HW223391   0.154   2.203   8.624 -1.2285  0.5884 -0.3967
 3978SOL     OW23392   0.976   2.857  16.373 -0.2345  0.2534 -0.0514
 3978SOL    HW123393   0.885   2.884  16.363 -0.9991 -2.2146  0.2677
 3978SOL    HW223394   1.006   2.892  16.457 -0.5474  2.3342 -0.8077
 3979SOL     OW23395   4.394   0.998   5.991  0.6214 -0.3622 -0.0780
 3979SOL    HW123396   4.337   0.924   5.966 -0.5880  1.2321 -2.0447
 3979SOL    HW223397   4.330   1.049   6.042  0.7383 -1.8113  1.5291
 3980SOL     OW23398   3.306   1.272   5.920 -0.2524 -0.1806  0.0690
 3980SOL    HW123399   3.320   1.187   5.879  0.8497  1.4909 -2.9575
 3980SOL    HW223400   3.240   1.250   5.986  0.5213  0.2012  0.9758
 3981SOL     OW23401   1.927   4.044   2.571  0.0164  0.2827  0.1838
 3981SOL    HW123402   1.884   4.092   2.641 -1.5237 -2.9877  1.4643
 3981SOL    HW223403   1.936   4.111   2.503 -1.8709 -0.1347 -0.4620
 3982SOL     OW23404   3.310   4.012   7.931  0.1725  0.1198  0.1497
 3982SOL    HW123405   3.363   4.002   7.853 -1.2491 -3.6080 -0.3387
 3982SOL    HW223406   3.339   3.949   7.997 -1.4873 -1.6538 -0.7969
 3983SOL     OW23407   0.401   4.711  16.352  0.0399  0.5550 -0.4484
 3983SOL    HW123408   0.351   0.035  16.419  0.8192  0.7386  0.0033
 3983SOL    HW223409   0.484   0.034  16.364 -0.5536  1.4662  0.1968
 3984SOL     OW23410   0.461   0.385   0.433 -0.4768  0.1560 -0.1718
 3984SOL    HW123411   0.378   0.423   0.463 -0.8645  0.0046 -1.0525
 3984SOL    HW223412   0.425   0.313   0.381  3.1481 -0.1973 -2.1878
 3985SOL     OW23413   3.426   0.361   1.628 -0.1204 -0.8765 -0.3464
 3985SOL    HW123414   3.450   0.273   1.658 -4.0286 -1.5236  0.7734
 3985SOL    HW223415   3.495   0.374   1.563  0.5288 -1.5772  0.1922
 3986SOL     OW23416   0.343   1.363   8.968  0.2408 -0.1850  0.0126
 3986SOL    HW123417   0.259   1.373   9.012  0.2680  0.0244  0.0132
 3986SOL    HW223418   0.337   1.280   8.919  0.9592  0.1107 -0.5879
 3987SOL     OW23419   0.929   0.743   5.162  0.2930 -0.1973 -0.7672
 3987SOL    HW123420   0.981   0.692   5.100 -0.7595 -0.7238 -1.1981
 3987SOL    HW223421   0.910   0.674   5.226 -1.3949  0.6985 -0.3089
 3988SOL     OW23422   4.081   3.955   2.088 -0.1508  0.4918  0.0120
 3988SOL    HW123423   4.020   4.005   2.143  0.9425  0.7183  1.0327
 3988SOL    HW223424   4.047   3.865   2.089 -0.6288  0.6735  0.4108
 3989SOL     OW23425   1.545   2.776   2.718 -1.0190  0.0461 -0.4735
 3989SOL    HW123426   1.452   2.767   2.701 -0.8782 -2.7844  0.2940
 3989SOL    HW223427   1.554   2.747   2.809 -2.6554  0.6426 -0.1267
 3990SOL     OW23428   2.242   2.507   6.676 -0.4001 -0.3806  0.1504
 3990SOL    HW123429   2.286   2.510   6.761  1.2315 -1.9617 -0.6171
 3990SOL    HW223430   2.313   2.473   6.622  0.2977  0.0693  0.7855
 3991SOL     OW23431   0.721   1.390   9.872  0.0011 -0.9798 -0.2565
 3991SOL    HW123432   0.695   1.482   9.881  1.2376 -0.6269 -0.3072
 3991SOL    HW223433   0.640   1.340   9.867 -0.7739 -0.0549  2.6917
 3992SOL     OW23434   1.303   3.361   4.015 -0.4853 -0.5809  0.5525
 3992SOL    HW123435   1.343   3.310   3.944  0.0040 -2.0335  1.8597
 3992SOL    HW223436   1.245   3.423   3.973 -1.7587 -1.5847  0.8375
 3993SOL     OW23437   2.590   3.725  10.191 -0.4417  0.2676 -0.0069
 3993SOL    HW123438   2.496   3.741  10.205 -0.5928  0.4996 -1.3170
 3993SOL    HW223439   2.620   3.767  10.271 -1.0237  1.9826 -0.6871
 3994SOL     OW23440   2.602   2.422   8.878  0.1866  0.0123  0.0092
 3994SOL    HW123441   2.619   2.334   8.846 -0.2157 -0.1092  0.1242
 3994SOL    HW223442   2.694   2.445   8.891  0.5698 -1.9628  0.7431
 3995SOL     OW23443   2.529   3.422   5.732 -0.6858 -0.0754  0.1381
 3995SOL    HW123444   2.458   3.381   5.782  0.3908  0.8168  2.4068
 3995SOL    HW223445   2.484   3.481   5.671  1.6894  2.7554  1.1197
 3996SOL     OW23446   2.809   3.898   8.497 -0.3436  0.5409  0.0696
 3996SOL    HW123447   2.899   3.929   8.500 -0.3390  0.5831 -0.4555
 3996SOL    HW223448   2.772   3.961   8.559  0.6324 -0.6514  1.8436
 3997SOL     OW23449   4.719   2.530   2.700  0.1401 -0.2498  0.6837
 3997SOL    HW123450   4.672   2.455   2.737 -2.2848  0.8635 -0.1847
 3997SOL    HW223451   0.030   2.478   2.627 -0.7389 -1.3460  1.0508
 3998SOL     OW23452   3.480   3.913  13.713  0.0816 -0.3205 -0.3363
 3998SOL    HW123453   3.560   3.964  13.723  0.2900 -0.7060 -0.0320
 3998SOL    HW223454   3.515   3.824  13.717  0.0837 -0.3604 -1.1603
 3999SOL     OW23455   1.564   2.224  10.337 -0.2654  0.4824 -0.2949
 3999SOL    HW123456   1.477   2.264  10.331 -0.1777  0.7459  0.1922
 3999SOL    HW223457   1.594   2.254  10.251 -2.6310  2.2534 -0.5093
 4000SOL     OW23458   0.446   0.300  11.439  0.4040  0.1631 -0.1850
 4000SOL    HW123459   0.468   0.374  11.494  2.3842  0.0883 -0.8688
 4000SOL    HW223460   0.476   0.337  11.356 -1.0707  0.0782 -0.7702
 4001SOL     OW23461   2.105   3.592   2.215  0.4523 -0.0422 -0.0386
 4001SOL    HW123462   2.109   3.685   2.235  0.8432 -0.1920  0.5869
 4001SOL    HW223463   2.188   3.580   2.170  0.9102  0.7608  0.5901
 4002SOL     OW23464   3.647   3.429  16.450  0.1133 -0.1289 -0.4219
 4002SOL    HW123465   3.634   3.523  16.455 -0.7309 -0.2310 -0.5827
 4002SOL    HW223466   3.574   3.393  16.398  1.0316 -3.7655  0.7890
 4003SOL     OW23467   3.329   0.061   4.887  0.4192 -0.3392 -0.2079
 4003SOL    HW123468   3.417   0.060   4.924  0.3193  1.0823  0.0725
 4003SOL    HW223469   3.322   0.013   4.805  0.3242  1.4763 -1.2778
 4004SOL     OW23470   1.473   4.141   6.554  0.3742  0.5803  0.2103
 4004SOL    HW123471   1.447   4.173   6.641 -0.0701 -0.0962  0.3241
 4004SOL    HW223472   1.393   4.107   6.514  0.2673  3.2093 -1.8236
 4005SOL     OW23473   4.440   2.638   2.979 -0.7766 -0.0593  0.1706
 4005SOL    HW123474   4.504   2.585   3.026 -0.7718  0.4471  0.7360
 4005SOL    HW223475   4.380   2.566   2.960 -1.2020  0.1013  0.9133
 4006SOL     OW23476   1.955   1.845   5.789  0.2889  0.4928 -0.8972
 4006SOL    HW123477   1.973   1.760   5.748 -2.0173 -0.6793  0.5695
 4006SOL    HW223478   2.019   1.897   5.740  1.0550  1.3340  0.9984
 4007SOL     OW23479   4.285   3.934   6.514  0.1622  0.5966 -0.5656
 4007SOL    HW123480   4.321   3.899   6.433  2.7284  1.4307  0.1809
 4007SOL    HW223481   4.205   3.883   6.520 -0.1058  1.2667  1.5310
 4008SOL     OW23482   2.919   0.472   9.590 -0.3920  0.7150 -0.3438
 4008SOL    HW123483   2.846   0.450   9.532  1.2546  1.6451 -2.7327
 4008SOL    HW223484   2.971   0.543   9.554 -0.9182  2.0889  1.5631
 4009SOL     OW23485   0.379   2.009  16.405  0.2245  0.0512  0.0570
 4009SOL    HW123486   0.337   1.982  16.323  0.2612  1.0051 -0.2847
 4009SOL    HW223487   0.471   2.011  16.382 -0.0132  2.9026 -0.7388
 4010SOL     OW23488   1.820   1.881   8.217  0.1098  0.2845 -0.2744
 4010SOL    HW123489   1.818   1.857   8.310  2.2589  0.7689 -0.0993
 4010SOL    HW223490   1.771   1.808   8.180 -0.7689  0.1336  1.1920
 4011SOL     OW23491   2.416   0.560   3.355  0.2338 -0.0969  0.2037
 4011SOL    HW123492   2.448   0.650   3.351  0.2580 -0.2272 -2.3711
 4011SOL    HW223493   2.418   0.545   3.260 -1.2600  0.8218  0.0202
 4012SOL     OW23494   2.166   1.043   8.581  0.7816  0.2975 -0.1484
 4012SOL    HW123495   2.198   1.125   8.617 -0.6161  0.9627 -0.4402
 4012SOL    HW223496   2.144   1.077   8.495 -0.6030  1.4292  0.6542
 4013SOL     OW23497   3.319   2.904  12.961  0.1728 -0.1078  0.7377
 4013SOL    HW123498   3.373   2.833  12.925 -1.4891 -0.7730 -0.4183
 4013SOL    HW223499   3.278   2.864  13.037 -1.0533  1.6705  1.0188
 4014SOL     OW23500   1.415   2.671   4.348  0.2292  0.0854 -0.2001
 4014SOL    HW123501   1.363   2.665   4.268  1.3435  1.1235 -1.0185
 4014SOL    HW223502   1.438   2.579   4.359  0.0848  0.1496  0.6289
 4015SOL     OW23503   0.227   3.961  13.588  0.8789 -0.5439 -0.1502
 4015SOL    HW123504   0.245   3.889  13.649  3.6435  0.8750  0.6811
 4015SOL    HW223505   0.132   3.955  13.576  1.1337 -3.5594 -0.6683
 4016SOL     OW23506   3.724   4.630   2.543  0.0906  0.5594  0.1641
 4016SOL    HW123507   3.708   4.711   2.591 -1.1039  1.0330 -1.0464
 4016SOL    HW223508   3.818   4.614   2.549 -0.2285 -0.9184  1.2363
 4017SOL     OW23509   0.601   4.255   0.789 -0.0084 -0.2179  0.0637
 4017SOL    HW123510   0.614   4.307   0.710  2.6286  0.3365  0.8780
 4017SOL    HW223511   0.593   4.317   0.861 -0.3054  0.0918 -0.2388
 4018SOL     OW23512   2.746   0.926   3.627  0.2555 -0.0001  0.3700
 4018SOL    HW123513   2.801   1.003   3.612  1.3933 -0.7619  0.6111
 4018SOL    HW223514   2.796   0.850   3.597 -1.1379 -0.4126 -0.8871
 4019SOL     OW23515   1.628   0.239   6.618  0.1899 -0.1530 -0.2115
 4019SOL    HW123516   1.567   0.209   6.686  0.5187  0.0345  0.1664
 4019SOL    HW223517   1.708   0.209   6.660  1.6197  1.6834 -1.6134
 4020SOL     OW23518   2.136   0.397   0.969  0.5548  0.0923  0.1993
 4020SOL    HW123519   2.115   0.471   0.913  0.6889 -0.9657 -1.2560
 4020SOL    HW223520   2.197   0.435   1.032  0.8330  1.2157 -0.7510
 4021SOL     OW23521   4.442   0.500   4.537 -0.2023  0.5054  0.5429
 4021SOL    HW123522   4.526   0.525   4.577 -0.0127 -0.7596  0.9158
 4021SOL    HW223523   4.399   0.487   4.621 -2.4745  0.0617 -0.6984
 4022SOL     OW23524   1.319   3.714  14.099 -0.2181  0.4014 -0.1585
 4022SOL    HW123525   1.378   3.789  14.097  0.5814 -0.2139  0.0859
 4022SOL    HW223526   1.337   3.685  14.188 -2.1026 -1.3204 -0.3393
 4023SOL     OW23527   0.002   3.660  16.074  0.3435  0.3846 -0.1849
 4023SOL    HW123528   4.664   3.682  16.004 -1.1786  0.9965  1.3162
 4023SOL    HW223529   0.021   3.567  16.062  1.4913  0.6710 -0.6132
 4024SOL     OW23530   2.839   3.375   8.119  0.0930 -0.6741  0.4541
 4024SOL    HW123531   2.856   3.301   8.176  1.1198 -0.5450  0.3213
 4024SOL    HW223532   2.743   3.366   8.120 -0.2144  2.3303 -0.8668
 4025SOL     OW23533   0.035   3.703   9.657  0.7528  0.0054 -0.5173
 4025SOL    HW123534   0.078   3.677   9.576 -0.1657  3.0293 -1.9503
 4025SOL    HW223535   4.667   3.728   9.643  0.9178  0.5836 -0.5418
 4026SOL     OW23536   4.355   1.150  15.840 -0.7064 -0.5157 -0.1695
 4026SOL    HW123537   4.324   1.219  15.781  1.1210 -3.2888 -4.3535
 4026SOL    HW223538   4.443   1.160  15.806 -0.8197 -0.7100 -0.5174
 4027SOL     OW23539   0.903   1.949   5.287  0.0680 -0.4004  0.1346
 4027SOL    HW123540   0.986   1.901   5.280  0.1321 -0.3381  0.4666
 4027SOL    HW223541   0.850   1.876   5.319 -1.4633  0.7809  0.2881
 4028SOL     OW23542   1.542   2.863  11.165 -0.2678 -0.1739  0.8643
 4028SOL    HW123543   1.571   2.952  11.145  0.5258 -0.3661  1.1454
 4028SOL    HW223544   1.514   2.861  11.257 -1.0539  0.5176  0.6414
 4029SOL     OW23545   1.823   0.947  17.117 -0.1626  0.1090  0.0006
 4029SOL    HW123546   1.839   0.872  17.059 -0.3439 -1.0886  1.5155
 4029SOL    HW223547   1.860   1.020  17.067  0.3154  1.5801  2.5494
 4030SOL     OW23548   2.934   3.846   2.594 -0.6287  0.0360 -0.4451
 4030SOL    HW123549   2.844   3.825   2.571 -1.0214  0.6331  0.5230
 4030SOL    HW223550   2.988   3.807   2.525  1.2474  4.9891 -1.8089
 4031SOL     OW23551   0.906   4.525   2.233  0.1805 -0.0803  0.3637
 4031SOL    HW123552   0.928   4.432   2.241  1.3928  0.0262 -1.8473
 4031SOL    HW223553   0.990   4.566   2.214  1.5174 -1.9868  2.0394
 4032SOL     OW23554   0.927   0.802   7.710  0.2267  0.4646 -0.1679
 4032SOL    HW123555   0.987   0.876   7.705 -1.1725  1.5413 -1.3121
 4032SOL    HW223556   0.911   0.806   7.615 -0.6712 -0.2285 -0.0521
 4033SOL     OW23557   3.034   1.959   9.134  0.1047 -0.3831 -0.4147
 4033SOL    HW123558   3.091   2.006   9.195 -0.3855 -1.8566  1.1519
 4033SOL    HW223559   3.098   1.907   9.084 -1.1311 -2.2647 -0.0038
 4034SOL     OW23560   3.730   2.811  15.203  0.2850  0.5192 -0.3145
 4034SOL    HW123561   3.651   2.766  15.174 -1.1544  2.4392  0.6544
 4034SOL    HW223562   3.808   2.759  15.182  0.6460  1.6075 -1.6619
 4035SOL     OW23563   4.266   3.823   4.551 -0.1683  0.0798 -0.0337
 4035SOL    HW123564   4.201   3.889   4.526 -1.3765 -0.7681  0.8553
 4035SOL    HW223565   4.299   3.870   4.628  1.1579 -2.0161  0.6723
 4036SOL     OW23566   4.580   1.003   5.787  0.0732 -0.3714  0.6307
 4036SOL    HW123567   4.509   0.986   5.850 -0.7655 -0.7574 -0.4280
 4036SOL    HW223568   4.650   0.986   5.851  1.3994 -0.5518 -0.8664
 4037SOL     OW23569   2.944   2.123   5.167 -0.9887  0.0524  0.3443
 4037SOL    HW123570   3.028   2.120   5.212 -0.5800  1.3387 -0.3297
 4037SOL    HW223571   2.913   2.213   5.175 -0.0703  0.4827 -0.8279
 4038SOL     OW23572   0.182   2.776   2.130 -0.1502  0.8291  0.1981
 4038SOL    HW123573   0.244   2.827   2.182 -0.8089  0.6916  1.1221
 4038SOL    HW223574   0.204   2.684   2.144 -2.9112  0.2626  0.7555
 4039SOL     OW23575   2.374   0.292   6.883  0.6303  0.3879 -0.5689
 4039SOL    HW123576   2.426   0.227   6.930  0.3628 -0.2744 -1.1915
 4039SOL    HW223577   2.334   0.340   6.956 -1.4826 -3.8514  1.0709
 4040SOL     OW23578   2.649   2.914   8.249  0.3504  0.1161 -0.1035
 4040SOL    HW123579   2.581   2.977   8.271  0.2424  0.3399 -1.0622
 4040SOL    HW223580   2.647   2.921   8.153  1.0877 -2.7260 -0.3086
 4041SOL     OW23581   3.651   3.735   5.169  0.5226  0.6302  0.5659
 4041SOL    HW123582   3.719   3.795   5.198  0.6827  1.3936 -1.3693
 4041SOL    HW223583   3.691   3.651   5.193 -3.4744 -1.0499  1.4172
 4042SOL     OW23584   3.250   1.808   9.031 -0.2931  0.6565  0.1153
 4042SOL    HW123585   3.338   1.824   8.997  0.0805 -1.0726  0.2918
 4042SOL    HW223586   3.229   1.724   8.990  2.3559  1.4500 -2.8675
 4043SOL     OW23587   2.428   0.432   7.878  0.1990 -0.3107  0.1544
 4043SOL    HW123588   2.402   0.346   7.913  0.1041 -0.7598 -1.0161
 4043SOL    HW223589   2.391   0.487   7.947 -3.6892 -3.2597  0.4787
 4044SOL     OW23590   3.040   0.230   8.042 -0.5052 -0.1010 -0.7046
 4044SOL    HW123591   2.985   0.199   7.970 -2.6786 -0.2392  1.0216
 4044SOL    HW223592   3.058   0.320   8.014  0.6587 -0.2008 -0.2762
 4045SOL     OW23593   1.879   3.758   9.076  0.1051 -0.3667 -0.8189
 4045SOL    HW123594   1.945   3.774   9.143 -0.1104 -0.2120 -0.6438
 4045SOL    HW223595   1.886   3.842   9.031 -0.0199  0.2340  0.2968
 4046SOL     OW23596   1.931   2.736   2.370  0.4481  0.0582  0.7158
 4046SOL    HW123597   1.971   2.665   2.419  1.8842  1.0359  0.9595
 4046SOL    HW223598   1.843   2.738   2.406 -0.2817  2.8531 -1.1778
 4047SOL     OW23599   4.095   3.846   8.219  0.3841  0.4445 -0.1097
 4047SOL    HW123600   4.038   3.798   8.159  0.5156 -1.5733  1.3949
 4047SOL    HW223601   4.028   3.897   8.264 -1.4851 -2.0250 -0.0841
 4048SOL     OW23602   0.638   4.372   8.873  0.6297 -0.4904 -0.1393
 4048SOL    HW123603   0.566   4.326   8.918  1.1951  0.4514  1.7543
 4048SOL    HW223604   0.616   4.463   8.894  1.6361 -0.1595 -0.5340
 4049SOL     OW23605   3.872   1.797  17.334 -0.0451  0.4192  0.5332
 4049SOL    HW123606   3.875   1.762  17.245 -0.6706 -1.3153  1.1928
 4049SOL    HW223607   3.966   1.806  17.349 -0.6416  1.6892  3.5737
 4050SOL     OW23608   3.693   0.855   7.515  0.5565  0.0833  0.0557
 4050SOL    HW123609   3.688   0.779   7.572 -1.9438 -0.9929 -1.6307
 4050SOL    HW223610   3.726   0.819   7.432 -1.2923  0.4970 -0.8586
 4051SOL     OW23611   2.388   2.954   8.354 -0.6930  0.3408  0.1376
 4051SOL    HW123612   2.433   2.893   8.413  0.1668 -1.4369 -2.3660
 4051SOL    HW223613   2.412   3.039   8.392  3.4955 -0.2611 -1.1459
 4052SOL     OW23614   4.198   2.237   6.338  0.2461 -0.0275 -0.1683
 4052SOL    HW123615   4.217   2.193   6.420  1.0848 -2.0548 -1.4481
 4052SOL    HW223616   4.131   2.299   6.368  1.0659 -0.9025  3.3966
 4053SOL     OW23617   3.821   2.761  12.505 -0.2795  0.2422 -0.6847
 4053SOL    HW123618   3.872   2.694  12.550  0.3655  0.6705 -0.7645
 4053SOL    HW223619   3.787   2.814  12.577  1.3605 -1.2192  1.1543
 4054SOL     OW23620   2.997   1.870   4.167 -0.3151  0.4172 -0.4025
 4054SOL    HW123621   2.949   1.819   4.232 -0.2486  0.2165 -0.5085
 4054SOL    HW223622   2.974   1.957   4.198 -0.9907 -0.8281  2.5150
 4055SOL     OW23623   1.093   2.626   3.669  0.3715 -0.5252 -0.1938
 4055SOL    HW123624   1.181   2.663   3.657  0.4566 -0.1830  1.4296
 4055SOL    HW223625   1.061   2.619   3.579 -3.0780 -1.2258  1.1064
 4056SOL     OW23626   0.313   3.492   5.873 -0.0357 -0.2791 -0.2073
 4056SOL    HW123627   0.233   3.543   5.857  0.5201  1.1016  1.4063
 4056SOL    HW223628   0.343   3.519   5.960 -0.8185  1.2244 -0.3965
 4057SOL     OW23629   3.380   2.828   3.186 -0.2633  0.1874 -0.6462
 4057SOL    HW123630   3.287   2.849   3.197 -0.2552  0.4167 -0.9883
 4057SOL    HW223631   3.406   2.907   3.137 -2.1296  0.9528 -0.4100
 4058SOL     OW23632   0.608   4.640   6.714  0.0694  0.8203  0.1382
 4058SOL    HW123633   0.606   4.650   6.619 -2.7085  0.4043  0.1732
 4058SOL    HW223634   0.695   4.677   6.732  0.0912  0.8450 -0.0124
 4059SOL     OW23635   0.516   2.564   5.239  0.0577  0.6085  0.2050
 4059SOL    HW123636   0.511   2.589   5.147  2.4309  1.8752  0.4442
 4059SOL    HW223637   0.487   2.472   5.242  0.4940  0.5207  1.5272
 4060SOL     OW23638   4.583   4.687   9.049 -0.0837  0.2215 -0.5617
 4060SOL    HW123639   4.555   0.051   9.022 -1.3193 -0.2846 -0.9552
 4060SOL    HW223640   4.651   4.705   9.113  0.6373  1.1670 -1.5978
 4061SOL     OW23641   3.267   0.843  11.291 -0.8434 -0.8824 -0.5281
 4061SOL    HW123642   3.304   0.810  11.209  0.6239 -0.3884 -0.0677
 4061SOL    HW223643   3.308   0.929  11.294 -0.0110 -1.3193  0.5274
 4062SOL     OW23644   3.291   1.546  16.609  0.3340  0.2699  0.1630
 4062SOL    HW123645   3.201   1.545  16.577  0.1289 -1.3486  0.7622
 4062SOL    HW223646   3.304   1.452  16.617 -0.5594  0.1622  0.4781
 4063SOL     OW23647   1.997   0.205   9.524  0.4748  0.1570 -0.3550
 4063SOL    HW123648   2.018   0.274   9.461  3.2184  0.3370  0.7716
 4063SOL    HW223649   2.063   0.141   9.499  1.5466  0.8778  0.6682
 4064SOL     OW23650   0.348   4.626   4.295 -0.4340 -1.0540 -0.0113
 4064SOL    HW123651   0.291   4.595   4.224 -0.2575 -1.1901 -0.0942
 4064SOL    HW223652   0.321   4.569   4.367  0.9467 -0.2053  1.1637
 4065SOL     OW23653   3.871   3.006   4.177 -0.9236  0.4150  0.2327
 4065SOL    HW123654   3.792   3.059   4.188 -0.8022  0.5519  0.4463
 4065SOL    HW223655   3.899   3.008   4.268  1.0994  1.2250 -0.4209
 4066SOL     OW23656   1.330   1.322   7.499 -0.1891  0.0105 -0.4008
 4066SOL    HW123657   1.352   1.411   7.523  2.7909 -0.6170 -0.8013
 4066SOL    HW223658   1.361   1.336   7.410 -0.0763  0.8681 -0.2248
 4067SOL     OW23659   2.324   1.169  14.870  0.0843  0.4104  0.2632
 4067SOL    HW123660   2.264   1.143  14.801  0.3849 -3.1680  1.3231
 4067SOL    HW223661   2.381   1.223  14.816  0.5284 -0.0714  0.2457
 4068SOL     OW23662   3.113   4.182  13.874  0.5040  0.0210  0.5847
 4068SOL    HW123663   3.196   4.170  13.827 -0.4589 -1.6958 -0.6779
 4068SOL    HW223664   3.051   4.138  13.816 -0.1355  0.0129  1.2738
 4069SOL     OW23665   2.243   2.800   4.039 -0.1771  0.3995 -1.0808
 4069SOL    HW123666   2.224   2.878   4.091  0.3800  0.5783 -1.1554
 4069SOL    HW223667   2.162   2.752   4.059  0.4360  0.2574  1.0300
 4070SOL     OW23668   0.031   3.669   7.973 -0.5588 -0.0951  0.3476
 4070SOL    HW123669   0.060   3.679   8.064  0.9203  0.7654 -0.2295
 4070SOL    HW223670   0.002   3.758   7.957 -0.7971  0.0599  1.6512
 4071SOL     OW23671   0.330   3.586  13.616  0.2029  0.7163  0.5966
 4071SOL    HW123672   0.327   3.677  13.646  0.4783  0.0912  2.4893
 4071SOL    HW223673   0.238   3.567  13.598  0.6429 -0.2931 -0.5482
 4072SOL     OW23674   0.904   0.577   6.118 -0.3713 -0.1702  0.7212
 4072SOL    HW123675   0.851   0.498   6.111 -2.6985  1.4593 -0.3719
 4072SOL    HW223676   0.939   0.600   6.032  1.1080  0.1831  1.4337
 4073SOL     OW23677   0.221   0.529  11.523 -0.5863 -0.3506 -0.1232
 4073SOL    HW123678   0.301   0.578  11.541 -0.8896 -0.1434  0.6640
 4073SOL    HW223679   0.163   0.578  11.581 -0.9949  1.4813 -2.0780
 4074SOL     OW23680   0.644   3.847   4.071 -0.4838  0.0015 -0.1032
 4074SOL    HW123681   0.671   3.905   4.143 -0.7483  0.7806 -0.6435
 4074SOL    HW223682   0.645   3.905   3.995 -1.4152  0.8449  0.5340
 4075SOL     OW23683   1.816   1.791   4.935 -0.5938 -0.1328 -0.4043
 4075SOL    HW123684   1.763   1.712   4.945  1.5182 -1.6030 -0.7564
 4075SOL    HW223685   1.802   1.817   4.844  0.5383 -1.2590 -0.9084
 4076SOL     OW23686   1.518   1.197   3.558  0.5541 -0.1056 -0.7542
 4076SOL    HW123687   1.493   1.252   3.484 -2.2315 -2.5239 -1.6172
 4076SOL    HW223688   1.556   1.127   3.505 -0.7596 -0.6466 -0.9782
 4077SOL     OW23689   1.718   4.350   1.258  0.4178 -0.3831  0.0327
 4077SOL    HW123690   1.678   4.268   1.229  1.3487 -0.9509  0.3825
 4077SOL    HW223691   1.766   4.307   1.329  3.0331  0.4907 -1.2128
 4078SOL     OW23692   1.878   1.801   6.902  0.5214  0.1956  0.0191
 4078SOL    HW123693   1.950   1.829   6.845  2.7474  0.9229  3.1681
 4078SOL    HW223694   1.871   1.711   6.870  1.9862  0.3119 -0.6598
 4079SOL     OW23695   0.984   0.368   7.265 -0.3199  0.1377 -0.3669
 4079SOL    HW123696   0.951   0.369   7.175 -1.0591 -2.9954 -0.1451
 4079SOL    HW223697   1.038   0.292   7.244 -0.3080  0.7648 -2.5695
 4080SOL     OW23698   0.588   4.375   0.538  0.3548 -0.0047  0.2392
 4080SOL    HW123699   0.577   4.338   0.450  0.5950  0.1743  0.1348
 4080SOL    HW223700   0.619   4.464   0.525  2.1900 -0.8997 -1.5506
 4081SOL     OW23701   1.624   2.598   7.600  0.1551  0.0782  0.2264
 4081SOL    HW123702   1.575   2.671   7.637 -0.2755 -0.1116  0.0434
 4081SOL    HW223703   1.709   2.638   7.616  0.4756  0.2983 -2.0518
 4082SOL     OW23704   0.671   4.551   8.557  0.4274  0.2310 -0.0536
 4082SOL    HW123705   0.680   4.619   8.491  3.1918  1.2860  1.4199
 4082SOL    HW223706   0.725   4.576   8.632 -1.4096  0.0949  1.3470
 4083SOL     OW23707   2.744   0.483   7.207  0.9933  0.5141 -0.0548
 4083SOL    HW123708   2.701   0.557   7.164  0.8700  0.3229 -0.2581
 4083SOL    HW223709   2.672   0.420   7.205  0.8152  0.6671  1.6519
 4084SOL     OW23710   2.549   4.010   6.803  0.5724  0.0995 -0.7612
 4084SOL    HW123711   2.627   4.001   6.858 -1.0040  1.3784  1.7172
 4084SOL    HW223712   2.483   3.971   6.861  0.0845  1.3957 -0.4507
 4085SOL     OW23713   0.916   2.183   1.998  0.2783  0.1498 -0.5767
 4085SOL    HW123714   0.986   2.241   1.967  1.6581 -0.9963  0.3479
 4085SOL    HW223715   0.944   2.160   2.086  4.0162  1.9698 -1.2902
 4086SOL     OW23716   3.157   4.244   2.185  0.2102 -0.5505  0.0309
 4086SOL    HW123717   3.090   4.306   2.213  0.1365 -1.2544  1.3846
 4086SOL    HW223718   3.236   4.289   2.217 -0.6429 -0.2683  1.7123
 4087SOL     OW23719   0.013   1.405  12.972  0.2413  0.1945 -0.5808
 4087SOL    HW123720   4.662   1.394  12.913  0.6479  0.7280 -1.1930
 4087SOL    HW223721   0.039   1.313  12.983  0.5871  0.5158  1.2436
 4088SOL     OW23722   2.118   0.576   9.461  0.1129  0.0118 -0.2787
 4088SOL    HW123723   2.208   0.609   9.456 -0.9309  2.7207 -0.8907
 4088SOL    HW223724   2.110   0.512   9.390  1.2708 -0.7686  0.2867
 4089SOL     OW23725   2.122   1.509   4.302 -0.2692 -0.1544  0.1633
 4089SOL    HW123726   2.184   1.436   4.300 -0.3239 -0.1920 -0.2358
 4089SOL    HW223727   2.171   1.578   4.257 -1.5064  1.1052  0.7372
 4090SOL     OW23728   0.959   3.378  17.461  0.1326  0.3378  0.4847
 4090SOL    HW123729   1.055   3.382  17.462  0.1337  0.4491  0.0149
 4090SOL    HW223730   0.941   3.422  17.543  2.0673  0.9393  0.5889
 4091SOL     OW23731   2.382   1.564  11.011  0.0195 -0.0829  0.2478
 4091SOL    HW123732   2.341   1.499  10.953 -0.0169 -0.5233  0.7683
 4091SOL    HW223733   2.309   1.625  11.023 -0.4820 -0.9615  1.7785
 4092SOL     OW23734   3.521   3.476   5.322  0.4751 -0.2160  0.1241
 4092SOL    HW123735   3.510   3.513   5.235  3.2865 -1.4263 -0.7613
 4092SOL    HW223736   3.615   3.486   5.340  0.3209  0.1146  0.7253
 4093SOL     OW23737   2.254   0.729   7.854  0.5709 -0.1297  0.0000
 4093SOL    HW123738   2.284   0.742   7.764  1.1540  2.7380  0.6114
 4093SOL    HW223739   2.168   0.690   7.834 -0.3134  2.1908 -0.7710
 4094SOL     OW23740   1.060   1.216   5.829 -0.1176  0.2185  0.4119
 4094SOL    HW123741   0.993   1.216   5.898  1.0635 -0.0955  1.5737
 4094SOL    HW223742   1.132   1.262   5.873  1.6069 -1.2957 -0.8379
 4095SOL     OW23743   4.158   1.932   4.128 -0.2853  0.6586 -0.8096
 4095SOL    HW123744   4.146   1.959   4.037 -0.4134 -0.4318 -1.1113
 4095SOL    HW223745   4.106   1.852   4.120  1.6785 -0.9055  2.1756
 4096SOL     OW23746   2.031   0.047   4.216  0.4895  0.3651  0.3129
 4096SOL    HW123747   1.937   0.062   4.215  0.5687  0.9099  1.3418
 4096SOL    HW223748   2.069   0.130   4.187 -2.3631  1.7588  0.6593
 4097SOL     OW23749   0.180   0.988   1.048  0.1733 -0.3370 -0.0284
 4097SOL    HW123750   0.214   1.001   0.959 -1.6493 -0.7010 -0.7751
 4097SOL    HW223751   0.139   0.901   1.046  1.3772 -0.9081  0.0638
 4098SOL     OW23752   4.662   4.147   3.731 -0.9544  0.0617  0.0856
 4098SOL    HW123753   4.710   4.165   3.650  0.4235  1.5852  1.2300
 4098SOL    HW223754   4.590   4.210   3.721 -1.9416 -1.4530 -2.2677
 4099SOL     OW23755   1.971   2.738   3.139 -0.0577  0.2481 -0.5346
 4099SOL    HW123756   2.057   2.760   3.103 -1.1459  0.0207 -3.2866
 4099SOL    HW223757   1.989   2.762   3.230  0.6643  1.0383 -0.8791
 4100SOL     OW23758   1.693   2.037   7.120  0.1495 -0.7047  0.3148
 4100SOL    HW123759   1.677   2.099   7.049 -1.1053  0.3118  1.4708
 4100SOL    HW223760   1.630   1.969   7.093 -0.4769 -1.1056  2.7514
 4101SOL     OW23761   4.141   4.435   3.502  0.1941  0.1379  0.1533
 4101SOL    HW123762   4.069   4.478   3.548 -0.2781  2.0808 -2.3822
 4101SOL    HW223763   4.102   4.352   3.474  0.0207  1.1362 -2.5176
 4102SOL     OW23764   3.261   2.326  12.165  0.2207  0.0091  0.4990
 4102SOL    HW123765   3.198   2.291  12.103  0.4205 -1.5894  1.1848
 4102SOL    HW223766   3.334   2.353  12.110  1.1330 -1.2796  1.0655
 4103SOL     OW23767   0.858   2.118  11.420  0.6049  0.2389 -1.0536
 4103SOL    HW123768   0.808   2.116  11.339 -3.0235  0.3219  1.1723
 4103SOL    HW223769   0.920   2.191  11.418  1.7064 -0.6237  0.8417
 4104SOL     OW23770   3.369   3.381   1.869  0.1982  0.8342 -0.4231
 4104SOL    HW123771   3.411   3.298   1.846  0.1170  1.2098 -1.9332
 4104SOL    HW223772   3.284   3.357   1.905 -1.0096  0.2746 -3.6516
 4105SOL     OW23773   4.687   1.161   1.065  0.4929 -0.8553 -0.1320
 4105SOL    HW123774   0.039   1.102   1.052 -0.0287 -1.5393 -0.0261
 4105SOL    HW223775   4.617   1.117   1.017  3.5482 -3.1970 -2.5188
 4106SOL     OW23776   1.663   0.477   8.615  0.5507 -0.1005 -0.1544
 4106SOL    HW123777   1.637   0.564   8.585  0.5018 -0.4997 -1.2814
 4106SOL    HW223778   1.641   0.474   8.708 -0.6752  4.7221 -0.2896
 4107SOL     OW23779   4.211   2.971  11.554 -0.6436  0.2707 -0.8202
 4107SOL    HW123780   4.146   3.039  11.572 -2.2201 -1.2347 -0.8072
 4107SOL    HW223781   4.275   3.025  11.508 -1.5431  0.7383 -1.5269
 4108SOL     OW23782   1.480   1.773  17.295  0.1375 -0.2479 -0.3172
 4108SOL    HW123783   1.406   1.713  17.294 -0.2507  0.1969  1.3645
 4108SOL    HW223784   1.477   1.811  17.383 -1.6802  0.2521 -0.6029
 4109SOL     OW23785   0.408   1.237  15.568  0.2941  0.2122 -0.4385
 4109SOL    HW123786   0.472   1.307  15.582 -0.8802  0.8975  1.4158
 4109SOL    HW223787   0.332   1.291  15.547 -0.3127 -0.5819 -0.3106
 4110SOL     OW23788   4.297   2.767   5.700  0.1991 -0.1781  0.0586
 4110SOL    HW123789   4.225   2.714   5.733 -2.6968  0.9302 -4.3248
 4110SOL    HW223790   4.374   2.710   5.700  0.2893 -0.0495  0.4983
 4111SOL     OW23791   1.942   3.481   9.058  0.0414 -0.6871  0.1119
 4111SOL    HW123792   1.957   3.471   8.964  1.0151  0.6475  0.1303
 4111SOL    HW223793   1.940   3.576   9.058  1.2879 -0.6678  2.0231
 4112SOL     OW23794   2.347   4.397   7.705 -0.2698  0.2106  0.5950
 4112SOL    HW123795   2.353   4.436   7.618  0.0006 -1.6753 -0.2452
 4112SOL    HW223796   2.414   4.332   7.683 -0.5607  0.2241 -0.3278
 4113SOL     OW23797   0.252   0.491   5.002  0.2597  0.2275  0.1984
 4113SOL    HW123798   0.298   0.500   4.919 -1.7139  0.2572 -0.8952
 4113SOL    HW223799   0.161   0.467   4.984  1.2053 -2.8807 -0.5844
 4114SOL     OW23800   4.376   0.702   9.105  0.4485 -0.1764 -0.5259
 4114SOL    HW123801   4.343   0.725   9.191  1.5233 -0.0392 -0.1481
 4114SOL    HW223802   4.413   0.778   9.061  3.7826 -1.4450  0.0343
 4115SOL     OW23803   0.397   4.294   4.239 -0.0891 -0.0090 -0.1971
 4115SOL    HW123804   0.378   4.205   4.270  3.6819 -0.8196 -0.2143
 4115SOL    HW223805   0.317   4.315   4.192 -0.6493  0.7353  1.0812
 4116SOL     OW23806   3.509   2.625   3.043 -0.1000  0.1915  0.3748
 4116SOL    HW123807   3.600   2.631   3.070  0.2051 -2.1962 -0.1826
 4116SOL    HW223808   3.477   2.694   3.102  0.8085  0.5529  0.4494
 4117SOL     OW23809   1.059   2.733   0.490 -0.3618 -0.1932 -0.1640
 4117SOL    HW123810   0.995   2.764   0.554 -1.2051 -0.3395 -0.9387
 4117SOL    HW223811   1.114   2.810   0.471 -1.9267  0.6806 -1.1476
 4118SOL     OW23812   3.833   4.492   4.303  0.2297 -0.1838  0.4014
 4118SOL    HW123813   3.751   4.442   4.305  0.5994 -0.7945 -0.2265
 4118SOL    HW223814   3.849   4.507   4.210 -1.8496 -0.3815  0.0024
 4119SOL     OW23815   1.963   4.507   4.306 -0.7109 -0.1216 -0.1013
 4119SOL    HW123816   1.964   4.537   4.397  0.5619 -0.0854 -0.1341
 4119SOL    HW223817   1.981   4.589   4.259 -1.0407 -0.1293 -0.2449
 4120SOL     OW23818   0.148   3.656   8.774 -0.2384 -0.5076  0.0986
 4120SOL    HW123819   0.085   3.718   8.737  1.5029  1.9236  1.2722
 4120SOL    HW223820   0.199   3.643   8.695 -0.5712 -2.5033  0.1972
 4121SOL     OW23821   1.106   0.840   1.618  0.2357  0.4315 -0.2214
 4121SOL    HW123822   1.077   0.857   1.708  3.4380 -0.9440  1.1011
 4121SOL    HW223823   1.059   0.910   1.573 -2.2132 -2.2000 -1.7492
 4122SOL     OW23824   4.072   2.676   8.584 -0.1078  0.0431 -0.5223
 4122SOL    HW123825   3.998   2.735   8.578  0.0264  0.3532  0.9481
 4122SOL    HW223826   4.074   2.620   8.507  2.2672 -0.3595 -0.1783
 4123SOL     OW23827   2.453   1.959   5.283 -0.1598 -0.4524 -0.1855
 4123SOL    HW123828   2.500   2.040   5.305  1.3408 -1.7432  1.3515
 4123SOL    HW223829   2.518   1.890   5.286  3.3236  2.7796 -0.6454
 4124SOL     OW23830   3.957   0.930  16.799  0.1014  0.4839  0.2184
 4124SOL    HW123831   3.981   1.011  16.754  0.5072 -0.3206 -1.0097
 4124SOL    HW223832   4.021   0.871  16.759  0.2092 -0.0926  1.2449
 4125SOL     OW23833   2.102   0.119   8.129  0.5163 -0.2251 -0.4748
 4125SOL    HW123834   2.013   0.124   8.164  0.6600 -0.4500 -0.0695
 4125SOL    HW223835   2.103   0.026   8.105  3.2162 -0.5949  1.0194
 4126SOL     OW23836   2.867   0.229  13.080  0.6341  0.2370  0.5172
 4126SOL    HW123837   2.804   0.296  13.055  1.2721  1.3212  1.7980
 4126SOL    HW223838   2.860   0.160  13.014 -1.5294 -0.4696  1.4751
 4127SOL     OW23839   1.105   0.739   4.947  0.2103  0.7336  0.3536
 4127SOL    HW123840   1.090   0.830   4.974 -1.1268  0.7887 -0.6046
 4127SOL    HW223841   1.177   0.752   4.886  0.6194  1.2875  0.9402
 4128SOL     OW23842   3.333   0.778  13.307 -0.0074  0.1225 -0.1872
 4128SOL    HW123843   3.323   0.740  13.220 -1.6977  2.5324 -1.0297
 4128SOL    HW223844   3.384   0.857  13.289  2.3008 -1.1109  0.9698
 4129SOL     OW23845   0.517   3.728  12.086 -0.6211 -0.0622  0.4803
 4129SOL    HW123846   0.472   3.730  12.171  1.7046 -0.8852  1.7366
 4129SOL    HW223847   0.570   3.807  12.087 -0.2000 -0.3025 -1.8788
 4130SOL     OW23848   2.084   1.230   5.855 -0.5579 -0.1962  0.4663
 4130SOL    HW123849   2.176   1.208   5.868 -0.8244 -1.3432  0.4278
 4130SOL    HW223850   2.090   1.318   5.818  1.4258  0.3070  1.9591
 4131SOL     OW23851   4.010   1.754  15.871  0.2650  0.1151 -0.1639
 4131SOL    HW123852   3.958   1.808  15.930  0.1633  1.8597 -1.8403
 4131SOL    HW223853   3.951   1.691  15.828 -0.6470  0.2585  0.8890
 4132SOL     OW23854   0.127   2.029   4.735 -0.1773  0.3177 -0.0921
 4132SOL    HW123855   0.121   2.101   4.797  2.6090 -1.9514  2.7541
 4132SOL    HW223856   0.200   2.056   4.679  1.9223 -1.2874  1.8792
 4133SOL     OW23857   1.987   4.319   6.754  0.0006 -0.5846  0.3551
 4133SOL    HW123858   1.915   4.271   6.713 -0.7966  0.6797  0.2677
 4133SOL    HW223859   2.031   4.353   6.676  2.9063 -1.7197  1.4857
 4134SOL     OW23860   0.015   2.781   9.880  0.4147 -0.3787  0.0444
 4134SOL    HW123861   4.721   2.821   9.965  1.6669  1.6349 -0.6372
 4134SOL    HW223862   0.084   2.839   9.848  0.0828  0.5820  1.0977
 4135SOL     OW23863   3.053   2.702   9.401  0.5554 -0.0026 -0.0998
 4135SOL    HW123864   2.967   2.690   9.441  0.0216  2.8564 -0.3588
 4135SOL    HW223865   3.055   2.616   9.359  1.7214  0.1957 -0.4438
 4136SOL     OW23866   1.298   2.039   5.333 -1.0543  0.6334 -0.1283
 4136SOL    HW123867   1.345   2.036   5.416 -0.1331  2.3124 -0.5878
 4136SOL    HW223868   1.210   2.060   5.365 -0.2972 -1.2991  3.2337
 4137SOL     OW23869   1.184   3.930   0.494  0.0326 -0.5117 -0.3255
 4137SOL    HW123870   1.200   3.910   0.401 -2.1487  2.2119 -1.2798
 4137SOL    HW223871   1.242   3.879   0.550 -1.3531 -0.1835  1.4279
 4138SOL     OW23872   2.206   0.338   3.189  0.0922  0.0311  0.3217
 4138SOL    HW123873   2.114   0.314   3.174  0.4616 -1.4102  0.3619
 4138SOL    HW223874   2.223   0.357   3.097 -1.6378 -1.6297 -0.3330
 4139SOL     OW23875   0.163   1.076   4.602 -0.3406 -0.5110 -0.1757
 4139SOL    HW123876   0.138   1.122   4.521  1.4449  1.5125  0.4060
 4139SOL    HW223877   0.237   1.132   4.626 -0.5301 -0.1315 -0.4786
 4140SOL     OW23878   2.818   4.621  16.128 -0.1588  0.1174  0.0624
 4140SOL    HW123879   2.853   4.531  16.126  1.3393  0.7001  0.0560
 4140SOL    HW223880   2.899   4.664  16.155 -0.4086  1.3269 -1.1122
 4141SOL     OW23881   3.911   1.654   5.856 -0.2821 -0.5373 -0.3393
 4141SOL    HW123882   3.923   1.560   5.862  3.8829  0.1166  2.0752
 4141SOL    HW223883   3.960   1.680   5.934  1.1604  2.8623 -2.3766
 4142SOL     OW23884   0.091   1.409   4.053 -0.4062 -0.2199  0.5168
 4142SOL    HW123885   0.113   1.498   4.082 -0.2549  0.0229 -0.3464
 4142SOL    HW223886   4.719   1.412   4.048 -0.2968 -1.1411 -1.8133
 4143SOL     OW23887   2.603   3.311   8.616 -0.2367 -0.4211  0.5735
 4143SOL    HW123888   2.533   3.349   8.670 -0.1510  0.7848 -0.1602
 4143SOL    HW223889   2.645   3.262   8.687  1.1205  0.9651  0.7358
 4144SOL     OW23890   3.153   0.844   9.556  0.1366 -0.1031  0.2124
 4144SOL    HW123891   3.237   0.889   9.557  1.1061 -1.9070 -2.0095
 4144SOL    HW223892   3.134   0.844   9.650  0.3421 -0.4520  0.2504
 4145SOL     OW23893   1.259   2.196  14.419 -0.1973  0.2905 -0.1199
 4145SOL    HW123894   1.337   2.158  14.379 -0.3185 -0.1181  0.0281
 4145SOL    HW223895   1.197   2.163  14.353  0.3533 -0.9566 -0.0228
 4146SOL     OW23896   3.166   1.507   8.520 -0.5563 -0.5491 -0.4547
 4146SOL    HW123897   3.208   1.571   8.462  1.9601 -0.2884  1.6405
 4146SOL    HW223898   3.082   1.494   8.475 -2.2394 -0.4465  2.6471
 4147SOL     OW23899   1.075   0.743   3.975  0.2476  0.3197 -0.2892
 4147SOL    HW123900   1.028   0.734   3.892 -0.6885 -0.7497  0.3631
 4147SOL    HW223901   1.166   0.742   3.946  0.2624  1.1334 -0.2764
 4148SOL     OW23902   4.451   2.543   4.698  0.5601  0.8667  0.0303
 4148SOL    HW123903   4.435   2.506   4.612 -0.3297  0.3472  0.4105
 4148SOL    HW223904   4.379   2.606   4.708  0.2219  0.6479 -1.0663
 4149SOL     OW23905   4.201   1.687   7.335 -0.7496 -0.4919 -0.1113
 4149SOL    HW123906   4.145   1.728   7.269 -1.2791 -2.3573 -0.8163
 4149SOL    HW223907   4.153   1.608   7.360 -3.0934  0.1164 -2.6470
 4150SOL     OW23908   4.221   2.297   8.612  0.8841 -0.2395 -0.2944
 4150SOL    HW123909   4.164   2.329   8.682 -1.6880 -3.6768 -0.8269
 4150SOL    HW223910   4.283   2.245   8.663 -1.0460 -0.8538  1.4202
 4151SOL     OW23911   4.445   2.380   6.392 -0.3825  1.1130  0.4748
 4151SOL    HW123912   4.375   2.321   6.364  1.3194 -1.1459  0.9454
 4151SOL    HW223913   4.394   2.459   6.410 -0.8087  0.7930  0.6614
 4152SOL     OW23914   0.197   3.268   6.509 -0.0894  0.4057  0.6309
 4152SOL    HW123915   0.218   3.214   6.585  3.4726  0.4582 -0.2941
 4152SOL    HW223916   0.110   3.303   6.529 -0.0183  1.8811 -1.6275
 4153SOL     OW23917   1.674   3.743   0.056 -0.4098 -0.5491 -0.3848
 4153SOL    HW123918   1.646   3.784   0.138  2.2523 -0.7934  0.6386
 4153SOL    HW223919   1.587   3.739   0.015 -0.2204  0.1240 -0.8467
 4154SOL     OW23920   2.575   0.793   9.300 -0.1185 -0.7321 -0.2378
 4154SOL    HW123921   2.482   0.810   9.311 -0.3242 -0.9489 -1.7144
 4154SOL    HW223922   2.588   0.818   9.209  2.4923  0.0286  0.3318
 4155SOL     OW23923   3.250   2.990   7.632  0.0034  0.2846  0.6480
 4155SOL    HW123924   3.331   2.963   7.675  0.1172 -1.2020 -0.5089
 4155SOL    HW223925   3.236   3.082   7.656  1.9491  0.4729  1.0275
 4156SOL     OW23926   0.011   1.108   8.522 -0.3040  0.1954 -0.0269
 4156SOL    HW123927   4.700   1.057   8.596 -0.9409  0.0655 -0.4041
 4156SOL    HW223928   0.058   1.038   8.476  2.1680  1.0575  1.2088
 4157SOL     OW23929   0.642   3.380   9.767  0.1221 -0.9353 -0.3422
 4157SOL    HW123930   0.605   3.354   9.851  1.7401 -0.8636  0.3985
 4157SOL    HW223931   0.575   3.440   9.735 -0.3440 -1.3675 -0.1837
 4158SOL     OW23932   2.332   0.063   5.350  0.0823  0.5846 -0.0867
 4158SOL    HW123933   2.253   0.033   5.394 -0.3281  1.4423 -0.2434
 4158SOL    HW223934   2.321   0.159   5.351 -2.6492  0.2563 -0.2873
 4159SOL     OW23935   2.670   4.554  10.118 -0.5716  0.6920  0.1903
 4159SOL    HW123936   2.654   4.622  10.053 -0.3466 -0.9224 -1.5226
 4159SOL    HW223937   2.656   4.611  10.194 -0.0023 -1.0192  1.5701
 4160SOL     OW23938   0.959   2.677   7.965 -0.7060 -0.0934  0.0503
 4160SOL    HW123939   0.963   2.684   8.061  2.2006 -0.7689 -0.0109
 4160SOL    HW223940   1.001   2.591   7.959  1.5820  0.8611  2.3441
 4161SOL     OW23941   3.085   1.572  17.334 -0.3365 -0.6196 -0.7866
 4161SOL    HW123942   3.106   1.537  17.247 -0.4131  2.1616 -1.9387
 4161SOL    HW223943   3.054   1.492  17.377  1.1770 -0.2261  1.0435
 4162SOL     OW23944   1.076   2.800   0.926  0.4053 -0.2097  0.5031
 4162SOL    HW123945   1.086   2.712   0.889 -0.5752 -0.3526  0.5841
 4162SOL    HW223946   1.028   2.846   0.858 -0.1563 -0.4183  0.7600
 4163SOL     OW23947   0.805   3.070  14.593  0.2600 -0.1041 -0.2187
 4163SOL    HW123948   0.723   3.036  14.559 -0.2270 -0.7357  1.6089
 4163SOL    HW223949   0.828   3.002  14.656 -1.2892  0.6192  1.1161
 4164SOL     OW23950   3.164   1.441   7.207 -0.0316  0.0189 -0.4384
 4164SOL    HW123951   3.216   1.495   7.147  1.0793 -1.4741 -0.8078
 4164SOL    HW223952   3.218   1.463   7.283  0.3450 -0.1412 -0.6568
 4165SOL     OW23953   0.940   1.933   6.204 -0.0933  0.2731  0.0944
 4165SOL    HW123954   0.997   1.996   6.248 -0.3857  1.2702 -0.9655
 4165SOL    HW223955   0.986   1.910   6.123 -0.6528 -1.9161  0.3977
 4166SOL     OW23956   3.901   0.949   9.170 -0.5130  0.4355 -0.1271
 4166SOL    HW123957   3.983   0.995   9.155  0.9017 -1.3920  1.9684
 4166SOL    HW223958   3.914   0.883   9.102 -0.0053  0.9137 -0.4949
 4167SOL     OW23959   1.278   3.728   1.338 -0.1693  0.1830  0.5666
 4167SOL    HW123960   1.199   3.781   1.352 -0.2763 -0.5194  2.5268
 4167SOL    HW223961   1.321   3.742   1.422  0.4377 -1.2883  0.5006
 4168SOL     OW23962   2.114   0.118   7.768 -0.7720 -0.0111  0.3269
 4168SOL    HW123963   2.100   0.196   7.715 -0.0111  0.4650  0.8313
 4168SOL    HW223964   2.031   0.104   7.814 -0.8085 -2.2653 -0.3921
 4169SOL     OW23965   4.478   2.891   4.350  0.0652 -0.0193  0.1855
 4169SOL    HW123966   4.510   2.914   4.263 -0.1582 -0.0447  0.0963
 4169SOL    HW223967   4.511   2.963   4.404  1.3625 -2.2132  2.2611
 4170SOL     OW23968   1.843   3.192  12.669  0.4770  0.6223  0.0722
 4170SOL    HW123969   1.787   3.173  12.593  1.2122 -0.0060 -0.3151
 4170SOL    HW223970   1.908   3.239  12.617 -0.5554  2.4330  0.4114
 4171SOL     OW23971   2.789   3.053   0.206 -0.1925  0.0290 -0.0873
 4171SOL    HW123972   2.753   3.131   0.247 -0.1948  0.1429 -0.3089
 4171SOL    HW223973   2.733   2.979   0.230 -1.1663  0.1775 -1.9449
 4172SOL     OW23974   0.124   3.625   3.117  0.6161  0.9542 -0.1272
 4172SOL    HW123975   0.204   3.653   3.073  0.9264  0.3672  0.0635
 4172SOL    HW223976   0.139   3.669   3.201  3.4388  1.1753 -0.7612
 4173SOL     OW23977   1.793   2.013   6.013  0.0348  0.2414  0.1580
 4173SOL    HW123978   1.815   1.988   5.923 -0.4984  1.2676 -0.2561
 4173SOL    HW223979   1.864   1.984   6.070  0.1950  0.5481  0.1172
 4174SOL     OW23980   0.254   2.924   4.932  0.1186 -0.3231  0.3666
 4174SOL    HW123981   0.215   2.900   4.848  0.3760 -1.5391  0.5878
 4174SOL    HW223982   0.194   2.994   4.958  0.9512  2.2704 -4.6522
 4175SOL     OW23983   2.485   1.301   2.640  0.2549 -0.6707  0.2127
 4175SOL    HW123984   2.479   1.285   2.545 -2.3258 -1.9652  0.6152
 4175SOL    HW223985   2.559   1.243   2.659 -0.2102 -0.8862  1.3444
 4176SOL     OW23986   2.137   3.410  12.850  0.4337  0.6366  0.0043
 4176SOL    HW123987   2.119   3.424  12.943  1.3321 -0.2402  0.3152
 4176SOL    HW223988   2.165   3.495  12.817  1.8848  0.8985  1.9093
 4177SOL     OW23989   2.724   3.333   9.404 -0.3363 -0.0187  0.2979
 4177SOL    HW123990   2.694   3.382   9.481  1.3765  0.5217  0.6053
 4177SOL    HW223991   2.770   3.391   9.344 -1.9546  1.2384  0.2648
 4178SOL     OW23992   3.912   1.208   7.163  0.4130 -0.0941 -0.1627
 4178SOL    HW123993   3.838   1.249   7.119  1.7731  0.4514 -1.9202
 4178SOL    HW223994   3.957   1.176   7.085 -0.7022 -2.5359  0.1810
 4179SOL     OW23995   1.209   3.028   3.884 -0.3710 -0.1859  0.2987
 4179SOL    HW123996   1.246   2.990   3.964  1.5098  0.5075 -0.2607
 4179SOL    HW223997   1.266   3.104   3.873  2.0187 -1.6606  2.5582
 4180SOL     OW23998   2.680   4.421   6.462 -0.1530 -0.1793  0.7316
 4180SOL    HW123999   2.607   4.403   6.520 -0.4617  0.9297  0.6999
 4180SOL    HW224000   2.716   4.498   6.507 -0.2784 -0.4894  1.3597
 4181SOL     OW24001   3.030   3.768   2.063  0.0038  0.5804 -0.3820
 4181SOL    HW124002   2.947   3.749   2.019  0.7580 -0.7568 -1.2215
 4181SOL    HW224003   2.999   3.804   2.146 -0.1367  1.8205 -0.9778
 4182SOL     OW24004   3.901   2.981   2.960  0.6759 -0.0483  0.2442
 4182SOL    HW124005   3.929   2.901   2.915 -0.3681 -0.4427  0.2849
 4182SOL    HW224006   3.921   2.952   3.049  0.8702  0.2863  0.3086
 4183SOL     OW24007   3.795   2.538  13.324  0.7208  0.2909 -0.1385
 4183SOL    HW124008   3.720   2.481  13.309 -0.1874  1.8832 -1.5906
 4183SOL    HW224009   3.742   2.618  13.327 -0.2471 -0.3863  1.0917
 4184SOL     OW24010   2.528   4.279  15.765  0.3996 -0.1685  0.2936
 4184SOL    HW124011   2.544   4.207  15.826 -1.5769 -0.7170  0.1717
 4184SOL    HW224012   2.585   4.254  15.692  0.3416 -0.3705  0.3182
 4185SOL     OW24013   0.155   1.325   2.114  0.2175  0.5259 -0.5142
 4185SOL    HW124014   0.191   1.328   2.025  0.9906  1.1552 -0.1873
 4185SOL    HW224015   0.080   1.383   2.102 -0.7144 -1.2585 -3.2142
 4186SOL     OW24016   4.261   0.280  12.227  0.3752 -0.6584 -0.1821
 4186SOL    HW124017   4.289   0.357  12.276  0.1649  0.1732 -1.3635
 4186SOL    HW224018   4.180   0.320  12.194  1.5879  2.0072  0.0189
 4187SOL     OW24019   2.998   4.124   4.713  0.2267  0.2086 -0.7765
 4187SOL    HW124020   3.056   4.130   4.789 -0.3273  0.0986 -0.3465
 4187SOL    HW224021   3.003   4.029   4.702  0.0675  0.1951 -0.7437
 4188SOL     OW24022   2.133   0.109   7.442 -0.3034  0.0408  0.2109
 4188SOL    HW124023   2.093   0.158   7.370  2.8958 -0.8952 -2.1894
 4188SOL    HW224024   2.055   0.087   7.493  0.9043 -1.5073  1.3940
 4189SOL     OW24025   2.301   2.190  13.028  0.1229 -0.1398  0.7524
 4189SOL    HW124026   2.326   2.163  12.939  2.7430  0.2978  1.3587
 4189SOL    HW224027   2.296   2.285  13.019 -0.3476  0.0648  3.3355
 4190SOL     OW24028   2.576   3.997  10.299 -0.6204  0.1003  0.4502
 4190SOL    HW124029   2.572   4.058  10.225 -2.3914  1.0326  1.3140
 4190SOL    HW224030   2.668   4.010  10.320 -0.5571 -0.3669  0.4564
 4191SOL     OW24031   2.541   1.451   6.718 -0.3241  0.2514  0.5444
 4191SOL    HW124032   2.631   1.447   6.686 -0.6694  2.1342 -0.6611
 4191SOL    HW224033   2.512   1.520   6.659  0.1308 -0.9685 -1.0934
 4192SOL     OW24034   0.891   1.216   6.548  0.2847  0.1790 -0.0500
 4192SOL    HW124035   0.832   1.150   6.512  2.0892 -0.9151 -1.0057
 4192SOL    HW224036   0.828   1.282   6.578  1.5018  1.2182  0.2338
 4193SOL     OW24037   1.821   4.295   0.099  0.6483 -0.4754  0.0067
 4193SOL    HW124038   1.853   4.208   0.074  1.0191 -0.2188 -0.4368
 4193SOL    HW224039   1.878   4.334   0.165 -1.7356  3.5649 -0.3135
 4194SOL     OW24040   4.706   4.228   7.162 -0.5291  0.1000  0.1693
 4194SOL    HW124041   4.648   4.170   7.211 -1.3537  0.1742 -0.7300
 4194SOL    HW224042   4.637   4.285   7.127 -0.7210 -0.9655 -1.1628
 4195SOL     OW24043   3.355   1.347   0.704 -1.3474 -0.4088  0.6141
 4195SOL    HW124044   3.271   1.332   0.660 -1.6307 -0.6280  1.2297
 4195SOL    HW224045   3.406   1.388   0.634 -0.6218 -0.2142  1.2641
 4196SOL     OW24046   0.085   3.385   3.348 -0.0714 -0.3159 -0.0439
 4196SOL    HW124047   0.078   3.400   3.254  1.2014  1.2774  0.1082
 4196SOL    HW224048   0.180   3.376   3.354  0.3086  2.7664 -1.3605
 4197SOL     OW24049   1.192   0.756   7.109  0.1316 -0.1664 -0.2698
 4197SOL    HW124050   1.248   0.816   7.060  2.2440 -1.5569  0.4707
 4197SOL    HW224051   1.221   0.671   7.077 -1.4717 -0.7241 -0.2692
 4198SOL     OW24052   1.574   2.110   9.082 -0.0900  0.0652 -0.0777
 4198SOL    HW124053   1.523   2.124   9.003  0.3966  0.7893 -0.2621
 4198SOL    HW224054   1.500   2.105   9.143 -1.2948  1.0475 -1.4755
 4199SOL     OW24055   3.595   0.766  15.829 -0.1160 -0.0653 -0.1129
 4199SOL    HW124056   3.571   0.714  15.905 -0.1064 -0.8831 -0.6706
 4199SOL    HW224057   3.515   0.817  15.817 -0.1287  0.2303  1.1999
 4200SOL     OW24058   0.839   3.534   8.984  0.1264  0.4644  0.8031
 4200SOL    HW124059   0.913   3.481   8.953 -0.8695  0.2312 -1.1770
 4200SOL    HW224060   0.839   3.594   8.910  1.7747  0.5121  0.8462
 4201SOL     OW24061   2.887   3.626   0.459  0.3060  0.0462  0.5363
 4201SOL    HW124062   2.972   3.665   0.440  1.1849 -1.9747  0.3070
 4201SOL    HW224063   2.892   3.540   0.417 -1.2539 -1.0813  2.6598
 4202SOL     OW24064   2.059   3.535  11.159  0.8342 -0.3184  0.2125
 4202SOL    HW124065   1.976   3.493  11.138  0.2269 -0.2072  2.4068
 4202SOL    HW224066   2.069   3.502  11.248  0.5089  1.0335  0.7562
 4203SOL     OW24067   3.029   0.639   1.980  0.1200 -0.2979  0.4646
 4203SOL    HW124068   3.124   0.654   1.981  0.3635 -1.6764 -1.3283
 4203SOL    HW224069   3.012   0.675   1.893 -3.0604  1.4130  1.7933
 4204SOL     OW24070   1.177   4.387   9.619 -0.4960 -0.3956 -0.0595
 4204SOL    HW124071   1.232   4.411   9.693  0.8053 -1.3359 -0.7086
 4204SOL    HW224072   1.088   4.368   9.650 -0.4501 -0.5395 -0.0156
 4205SOL     OW24073   0.220   1.239   5.338 -0.0220  0.1885 -0.5427
 4205SOL    HW124074   0.216   1.287   5.256  3.3065  2.0876  0.4065
 4205SOL    HW224075   0.308   1.202   5.333  0.2598  0.3771  2.7557
 4206SOL     OW24076   2.662   3.411  12.509 -0.2470  0.0678 -0.0784
 4206SOL    HW124077   2.641   3.443  12.597 -0.0269  0.6144 -0.2239
 4206SOL    HW224078   2.583   3.450  12.470  0.6117  1.6440 -0.2557
 4207SOL     OW24079   1.984   3.660  12.976  0.2651  0.0527  1.0838
 4207SOL    HW124080   1.908   3.604  12.993 -1.8457  2.2581 -0.9923
 4207SOL    HW224081   2.042   3.600  13.021 -1.0619  0.0903  2.8433
 4208SOL     OW24082   0.321   1.419   9.698 -0.4919  0.3763  0.0583
 4208SOL    HW124083   0.384   1.434   9.627 -0.4009 -3.0813 -0.5980
 4208SOL    HW224084   0.382   1.383   9.762 -0.5612 -0.1556 -0.1685
 4209SOL     OW24085   1.183   3.113  16.607 -0.2889 -0.4973 -0.7007
 4209SOL    HW124086   1.088   3.107  16.603 -0.2683  0.3918 -2.3886
 4209SOL    HW224087   1.204   3.020  16.594  1.6872 -0.2087  0.3556
 4210SOL     OW24088   3.298   3.661   6.479 -0.4250  0.6551 -0.2433
 4210SOL    HW124089   3.224   3.693   6.428  1.1283 -2.0857 -4.1444
 4210SOL    HW224090   3.369   3.653   6.416  0.3092 -0.6808  0.7324
 4211SOL     OW24091   3.762   2.222   1.282 -0.2655 -0.0034  0.1845
 4211SOL    HW124092   3.763   2.297   1.341 -1.5311  0.3042 -0.1819
 4211SOL    HW224093   3.707   2.159   1.328 -1.4471  1.2043  0.4334
 4212SOL     OW24094   1.772   3.193  15.660  0.0260 -0.2697 -0.1063
 4212SOL    HW124095   1.855   3.241  15.665 -0.7373  0.8747  1.8680
 4212SOL    HW224096   1.787   3.117  15.603  1.1120 -0.6742  0.7003
 4213SOL     OW24097   0.669   4.652   0.497  0.4243  0.0889  0.1935
 4213SOL    HW124098   0.620   4.712   0.553  1.6047 -0.5203  1.8603
 4213SOL    HW224099   0.736   4.704   0.452 -0.2669  1.7251  1.0879
 4214SOL     OW24100   3.886   0.916   4.364  0.2515 -0.0861 -0.5563
 4214SOL    HW124101   3.948   0.897   4.434  0.4319 -1.4799 -1.1038
 4214SOL    HW224102   3.851   0.999   4.398  0.6850 -0.0927 -0.0999
 4215SOL     OW24103   0.264   4.477  14.420 -0.0414  0.0188 -0.2368
 4215SOL    HW124104   0.310   4.404  14.379  0.1726 -0.0479  0.1205
 4215SOL    HW224105   0.254   4.546  14.354 -1.0566  0.4194  0.3331
 4216SOL     OW24106   4.399   0.851  13.895  0.0727 -0.5915 -0.1027
 4216SOL    HW124107   4.460   0.915  13.860 -1.9194  1.7232  0.6790
 4216SOL    HW224108   4.460   0.780  13.877  0.8522  0.5249 -1.8320
 4217SOL     OW24109   3.951   4.374   6.826 -0.4571 -0.1801 -0.3740
 4217SOL    HW124110   4.004   4.337   6.897 -2.7921 -1.8889  0.4461
 4217SOL    HW224111   3.875   4.399   6.878 -0.9300 -0.2520 -1.0399
 4218SOL     OW24112   1.982   2.610  16.908  0.3545 -1.0123  0.3648
 4218SOL    HW124113   1.900   2.624  16.861  0.1732  1.2466  1.3667
 4218SOL    HW224114   2.002   2.702  16.920 -3.1089 -0.2552  0.1883
 4219SOL     OW24115   0.303   4.262   3.371 -0.2143  0.3356 -0.0896
 4219SOL    HW124116   0.325   4.234   3.282  0.8065 -0.6892  0.4891
 4219SOL    HW224117   0.341   4.350   3.377 -0.0747  0.2667  0.0528
 4220SOL     OW24118   3.595   0.535   3.229 -0.1020 -0.0034  0.8889
 4220SOL    HW124119   3.644   0.465   3.272  1.0734 -0.4968 -1.3048
 4220SOL    HW224120   3.548   0.475   3.172 -0.4840  0.2908  0.8915
 4221SOL     OW24121   1.854   3.805   2.509 -0.6443  0.0219 -0.7748
 4221SOL    HW124122   1.881   3.891   2.540 -1.8981  0.1209  0.0089
 4221SOL    HW224123   1.912   3.800   2.433  0.1737  0.6278 -0.1848
 4222SOL     OW24124   3.585   4.384   6.030 -0.4733  0.1966 -0.5790
 4222SOL    HW124125   3.638   4.417   6.103  1.0813 -0.7535 -1.2740
 4222SOL    HW224126   3.562   4.466   5.986  0.5469  0.4952 -0.5729
 4223SOL     OW24127   1.090   0.291   3.754 -0.3170 -0.4791 -0.2716
 4223SOL    HW124128   1.131   0.306   3.840 -1.1058  1.4953 -0.2498
 4223SOL    HW224129   1.028   0.363   3.749 -0.1870 -0.2800  1.0314
 4224SOL     OW24130   4.566   3.578   3.680  0.1242  0.6478  0.5858
 4224SOL    HW124131   4.473   3.600   3.693  0.5773  3.3722 -0.9568
 4224SOL    HW224132   4.595   3.600   3.769  3.2378  2.7259 -0.9614
 4225SOL     OW24133   3.665   2.888   6.972 -0.3939 -0.1451  0.0564
 4225SOL    HW124134   3.738   2.882   7.033  1.4064  1.6302 -1.9464
 4225SOL    HW224135   3.658   2.981   6.951 -3.5662 -0.4512 -0.2961
 4226SOL     OW24136   3.056   2.423  11.607  0.1115  0.1700  0.2757
 4226SOL    HW124137   3.068   2.341  11.657  1.9737 -1.0717 -2.2253
 4226SOL    HW224138   3.002   2.471  11.669 -1.1370  0.5725 -1.1223
 4227SOL     OW24139   0.701   2.304   7.571 -0.1875 -0.1398  0.1308
 4227SOL    HW124140   0.668   2.257   7.648 -0.4493  1.2604  0.8581
 4227SOL    HW224141   0.750   2.373   7.616  0.3408  0.8589 -1.9771
 4228SOL     OW24142   4.086   3.861   2.749  0.1612  0.6029  0.1073
 4228SOL    HW124143   4.034   3.786   2.778 -0.9483  1.5915  0.6472
 4228SOL    HW224144   4.143   3.892   2.819  1.4388 -0.4722 -0.4401
 4229SOL     OW24145   3.386   1.011   4.343  0.5350 -0.0558 -0.1584
 4229SOL    HW124146   3.408   1.076   4.410  0.0040 -0.0301 -0.0108
 4229SOL    HW224147   3.444   0.937   4.359  1.7660  0.3243 -2.8337
 4230SOL     OW24148   1.519   1.755   0.914  0.4348  0.1767 -0.3420
 4230SOL    HW124149   1.548   1.696   0.844  2.4026 -1.3588  1.7767
 4230SOL    HW224150   1.498   1.828   0.856 -2.7625 -1.3879 -1.1844
 4231SOL     OW24151   3.949   2.492   2.463  0.1687 -0.2973  0.1709
 4231SOL    HW124152   3.882   2.533   2.407  0.4097 -2.0276 -1.3683
 4231SOL    HW224153   3.911   2.510   2.549  1.7304  1.5423  0.4705
 4232SOL     OW24154   4.393   4.692   3.833  0.4392 -0.0909 -0.0190
 4232SOL    HW124155   4.467   4.640   3.803  0.0589 -0.2939 -0.5962
 4232SOL    HW224156   4.437   4.723   3.912  0.8206 -0.8792  0.0740
 4233SOL     OW24157   0.900   3.496   6.427  0.0662 -0.3324 -0.0433
 4233SOL    HW124158   0.985   3.463   6.457  1.1614  3.7957  1.4276
 4233SOL    HW224159   0.905   3.471   6.335 -0.6683  2.4438 -0.8309
 4234SOL     OW24160   4.004   0.211   7.305 -0.1548  0.5072  0.3520
 4234SOL    HW124161   4.025   0.288   7.358  1.5908 -0.0630  0.4809
 4234SOL    HW224162   4.018   0.246   7.217  0.2797  1.3752  0.7702
 4235SOL     OW24163   1.808   3.202   7.260  0.2131  0.1960  0.4573
 4235SOL    HW124164   1.789   3.139   7.191  1.3870  1.5552 -1.1135
 4235SOL    HW224165   1.835   3.150   7.335 -2.6399 -0.2791  1.1400
 4236SOL     OW24166   4.458   3.369   8.798  0.2362 -0.2968  0.3824
 4236SOL    HW124167   4.498   3.296   8.845  1.3447  0.1382  0.1098
 4236SOL    HW224168   4.494   3.351   8.711 -2.7072  0.3047 -0.9538
 4237SOL     OW24169   2.603   2.817  16.015 -0.1299 -0.5514  0.1558
 4237SOL    HW124170   2.688   2.803  15.973 -0.8005 -0.8316 -1.1186
 4237SOL    HW224171   2.549   2.759  15.962 -2.4238  1.1558  0.6236
 4238SOL     OW24172   0.119   3.722   2.373 -0.5958  0.3161  0.3715
 4238SOL    HW124173   0.034   3.684   2.396  0.3817 -2.1154  0.0334
 4238SOL    HW224174   0.088   3.805   2.338  0.2285  1.0380  1.3407
 4239SOL     OW24175   0.141   0.162  12.201  0.4148 -0.0367 -0.2006
 4239SOL    HW124176   0.089   0.088  12.171  0.2819  0.8313 -2.1520
 4239SOL    HW224177   0.079   0.232  12.222 -1.6634 -1.4444 -1.5961
 4240SOL     OW24178   2.149   0.112   6.296  0.2287  0.0775 -1.1245
 4240SOL    HW124179   2.178   0.084   6.382  0.4615  0.2269 -1.1530
 4240SOL    HW224180   2.143   0.024   6.258  0.5544 -0.1171 -0.7270
 4241SOL     OW24181   1.030   3.371   6.823  0.1916 -0.6824 -0.4060
 4241SOL    HW124182   0.987   3.415   6.897  2.4787 -1.2762  1.2963
 4241SOL    HW224183   1.024   3.278   6.845 -1.8671 -0.7689 -1.3947
 4242SOL     OW24184   0.930   2.155   9.234  0.0598  0.2918 -0.7024
 4242SOL    HW124185   0.972   2.131   9.151  2.2175 -0.8518  0.7017
 4242SOL    HW224186   0.972   2.240   9.243  1.5532 -0.6650  1.3378
 4243SOL     OW24187   1.752   0.717   4.082 -0.1459 -0.2624  0.0361
 4243SOL    HW124188   1.733   0.690   4.172  0.4404 -0.6936  0.0283
 4243SOL    HW224189   1.785   0.804   4.102 -1.2187 -0.2319  1.7307
 4244SOL     OW24190   2.304   4.659   6.456 -1.1449  0.7167 -0.3082
 4244SOL    HW124191   2.235   4.603   6.423 -2.7023  1.7645  1.1618
 4244SOL    HW224192   2.308   4.619   6.543 -2.9444  2.2317  0.4615
 4245SOL     OW24193   4.680   0.291   3.902 -0.2650  0.4582 -0.0105
 4245SOL    HW124194   0.033   0.235   3.885 -0.2871 -0.1596  1.9518
 4245SOL    HW224195   0.004   0.368   3.935 -0.3167  1.3606 -1.9794
 4246SOL     OW24196   3.440   1.403   4.065  0.2762  0.2314 -0.1832
 4246SOL    HW124197   3.475   1.435   4.148 -1.7520  3.2099 -0.4596
 4246SOL    HW224198   3.402   1.480   4.021  0.0918  0.8175  0.9935
 4247SOL     OW24199   1.247   3.973   4.065  0.2632 -0.4790  0.1267
 4247SOL    HW124200   1.293   4.016   4.138 -0.4757  0.7116 -0.1253
 4247SOL    HW224201   1.300   3.991   3.987 -1.4853  2.0921 -0.4569
 4248SOL     OW24202   1.054   3.754   7.767  0.2293 -0.6207 -0.3669
 4248SOL    HW124203   0.973   3.732   7.721  0.2154  0.0142 -0.6528
 4248SOL    HW224204   1.113   3.768   7.693 -1.3020 -3.0579 -2.0462
 4249SOL     OW24205   2.826   2.586   3.751 -0.3481 -0.1758  0.9601
 4249SOL    HW124206   2.760   2.598   3.819 -0.4024 -0.8228  1.0285
 4249SOL    HW224207   2.871   2.669   3.739  0.7560 -1.1489 -1.5514
 4250SOL     OW24208   1.375   4.025   3.825  0.1898  0.2579 -0.1571
 4250SOL    HW124209   1.458   4.037   3.870  0.8078  2.6930 -1.9386
 4250SOL    HW224210   1.413   4.021   3.738  1.6366 -0.5003  0.5239
 4251SOL     OW24211   2.134   1.783  12.154  0.0417  0.3300  0.3764
 4251SOL    HW124212   2.174   1.730  12.086 -0.7509 -0.7166  0.7262
 4251SOL    HW224213   2.138   1.721  12.227  0.8060 -0.6100 -0.4695
 4252SOL     OW24214   4.325   1.979   2.462 -0.1018  0.0803 -0.1758
 4252SOL    HW124215   4.413   1.941   2.471 -0.1548 -0.1864 -0.7996
 4252SOL    HW224216   4.333   2.072   2.484  2.2255  0.1914 -1.4590
 4253SOL     OW24217   1.263   3.602   6.327  0.5266 -0.4733 -0.0192
 4253SOL    HW124218   1.279   3.626   6.419 -4.1292  0.0201  0.6387
 4253SOL    HW224219   1.315   3.522   6.320  0.3949 -0.8637  3.2164
 4254SOL     OW24220   0.802   2.843   9.819 -0.1832  0.1312 -0.5327
 4254SOL    HW124221   0.717   2.878   9.843  1.0568  2.0802  1.0529
 4254SOL    HW224222   0.785   2.749   9.809  2.4966 -0.2913 -1.3485
 4255SOL     OW24223   0.307   3.535   2.804  0.4698  0.2953  0.1315
 4255SOL    HW124224   0.342   3.603   2.863  1.4811  1.0243 -1.3127
 4255SOL    HW224225   0.239   3.587   2.761  0.9472  2.0466  1.4446
 4256SOL     OW24226   0.773   4.405   0.269  0.3299  0.3825 -0.3300
 4256SOL    HW124227   0.736   4.480   0.222 -0.6118 -0.8937 -1.6079
 4256SOL    HW224228   0.745   4.338   0.207 -2.1122  1.9472 -0.9220
 4257SOL     OW24229   0.548   2.306   3.131  0.2586 -0.1579 -0.1991
 4257SOL    HW124230   0.480   2.272   3.072  0.9259 -3.3466  0.9001
 4257SOL    HW224231   0.593   2.223   3.146  2.1959  0.6840 -1.4132
 4258SOL     OW24232   2.848   1.971  16.225  0.2467  0.0068 -0.4043
 4258SOL    HW124233   2.901   1.912  16.279  0.1868 -0.2686 -0.6438
 4258SOL    HW224234   2.815   1.915  16.154 -0.5365 -0.0554  0.0162
 4259SOL     OW24235   0.968   4.718   5.298 -0.6908 -0.5632  0.5217
 4259SOL    HW124236   0.979   4.693   5.206 -0.7058  0.2060  0.3108
 4259SOL    HW224237   1.048   0.044   5.317 -0.3268 -0.6142 -0.8947
 4260SOL     OW24238   4.059   2.242   1.247  0.0258  0.4115  0.5653
 4260SOL    HW124239   3.965   2.256   1.243 -0.4035 -2.6782  0.3411
 4260SOL    HW224240   4.062   2.199   1.332  0.8769 -0.8648 -0.1028
 4261SOL     OW24241   2.937   0.162   3.274 -0.2611  0.8905  0.2095
 4261SOL    HW124242   2.872   0.150   3.205 -1.3948 -1.3209  1.6725
 4261SOL    HW224243   2.887   0.158   3.355  0.7409  2.6242  0.9299
 4262SOL     OW24244   3.230   0.785   8.813  0.0985  0.0012 -0.0096
 4262SOL    HW124245   3.141   0.818   8.802  0.0989  0.0601  0.1604
 4262SOL    HW224246   3.228   0.749   8.902 -1.9112 -3.0299 -1.2778
 4263SOL     OW24247   3.509   3.243   4.804 -0.1245 -0.1968 -0.1614
 4263SOL    HW124248   3.533   3.284   4.887 -0.1890  1.8705 -1.1666
 4263SOL    HW224249   3.418   3.273   4.804  0.3501  1.2178  0.5333
 4264SOL     OW24250   3.856   0.184   7.690 -0.7682  0.5204  0.2417
 4264SOL    HW124251   3.838   0.246   7.760  0.5792  2.2503 -0.9384
 4264SOL    HW224252   3.950   0.169   7.703 -0.6250  0.3874 -0.9127
 4265SOL     OW24253   4.629   2.688   7.540  0.1718  0.5493 -0.4897
 4265SOL    HW124254   4.615   2.747   7.614  0.7047  2.9056 -2.2752
 4265SOL    HW224255   4.585   2.736   7.470 -0.7291 -0.8281 -0.8589
 4266SOL     OW24256   2.522   0.801   3.464 -0.4033 -0.2393  0.0944
 4266SOL    HW124257   2.570   0.730   3.507 -0.1899 -1.0936 -1.5268
 4266SOL    HW224258   2.563   0.870   3.515 -1.2533  1.2988 -1.3030
 4267SOL     OW24259   1.438   1.674  14.947  0.0617 -0.2919  0.1095
 4267SOL    HW124260   1.506   1.739  14.930  1.3005 -1.3627  0.9121
 4267SOL    HW224261   1.459   1.612  14.877  0.4230 -2.3373  2.0174
 4268SOL     OW24262   4.424   3.531  11.922  0.0656 -0.0417  0.0108
 4268SOL    HW124263   4.405   3.549  11.830  0.1451 -2.8289 -0.5516
 4268SOL    HW224264   4.370   3.454  11.938  2.3115 -1.3175  1.3743
 4269SOL     OW24265   2.303   1.645   1.969 -0.1937  0.5692  0.6557
 4269SOL    HW124266   2.269   1.733   1.982  0.9901  0.8440  1.8558
 4269SOL    HW224267   2.376   1.643   2.031  0.7146  1.4703 -0.3721
 4270SOL     OW24268   1.772   2.516   1.616 -0.1679 -0.5187  0.1125
 4270SOL    HW124269   1.863   2.506   1.643  0.1738  2.1185 -0.0731
 4270SOL    HW224270   1.747   2.457   1.545  1.8651  0.5193 -1.4559
 4271SOL     OW24271   1.158   3.054   2.342  0.3535 -0.5484  0.3349
 4271SOL    HW124272   1.199   3.130   2.384  1.0442 -0.7432  0.0112
 4271SOL    HW224273   1.073   3.090   2.320  1.5281  0.6257 -2.2156
 4272SOL     OW24274   4.411   4.104   1.144 -0.0128  0.4538 -0.5941
 4272SOL    HW124275   4.334   4.130   1.195 -1.8812 -2.1441 -2.0767
 4272SOL    HW224276   4.390   4.011   1.134  3.7878 -0.6103  1.3089
 4273SOL     OW24277   2.352   3.419   6.379  0.0627  0.2172  0.2892
 4273SOL    HW124278   2.326   3.506   6.410  3.0605  0.9121  0.8576
 4273SOL    HW224279   2.365   3.431   6.285 -1.3963  1.0995  0.2022
 4274SOL     OW24280   2.997   0.736  12.473 -0.5762  0.1706 -0.2291
 4274SOL    HW124281   2.995   0.650  12.430 -1.9816  0.4054 -0.6403
 4274SOL    HW224282   2.958   0.717  12.558 -1.4014 -0.2508 -0.6938
 4275SOL     OW24283   1.324   2.670   6.152 -0.0124 -0.3847  0.6842
 4275SOL    HW124284   1.350   2.700   6.065 -0.8704  1.3471  1.0192
 4275SOL    HW224285   1.228   2.672   6.146  0.0502 -0.8954 -0.4368
 4276SOL     OW24286   0.226   2.700   9.546 -0.1981  0.0411 -0.0627
 4276SOL    HW124287   0.297   2.753   9.511 -1.7381  2.6313  0.7748
 4276SOL    HW224288   0.151   2.738   9.501 -0.8914  1.1471  2.0042
 4277SOL     OW24289   1.572   0.240  16.765 -0.2558 -0.1261 -0.2755
 4277SOL    HW124290   1.506   0.270  16.827  2.9637 -0.3565  3.2416
 4277SOL    HW224291   1.506   0.206  16.706 -0.6128 -0.3857  0.2765
 4278SOL     OW24292   2.931   3.819   3.068  0.1363 -0.0606 -0.1714
 4278SOL    HW124293   3.013   3.866   3.082 -0.5424  1.0446  0.0480
 4278SOL    HW224294   2.961   3.759   2.999  0.4745 -0.3860  0.2555
 4279SOL     OW24295   1.257   3.612  12.282  0.1815 -0.1759  0.1871
 4279SOL    HW124296   1.221   3.600  12.195  0.0370 -0.4377  0.2820
 4279SOL    HW224297   1.187   3.600  12.347 -0.7499 -1.0058 -0.9789
 4280SOL     OW24298   1.679   4.480  15.495  0.5291 -0.5392  0.2662
 4280SOL    HW124299   1.654   4.562  15.538 -0.2533 -0.6915  0.0901
 4280SOL    HW224300   1.772   4.502  15.483  0.3338 -0.4270 -0.9425
 4281SOL     OW24301   2.631   0.265   8.461 -0.0795  0.0227  0.7448
 4281SOL    HW124302   2.652   0.196   8.399 -1.2834  0.8993 -0.6321
 4281SOL    HW224303   2.606   0.332   8.397 -3.0036  0.5323  2.4211
 4282SOL     OW24304   4.350   3.416  14.634 -0.0175 -0.0996  0.3771
 4282SOL    HW124305   4.400   3.469  14.572  1.0449 -1.0144  0.4552
 4282SOL    HW224306   4.423   3.400  14.693 -0.9148  0.4281  1.6475
 4283SOL     OW24307   0.132   2.777   3.022 -0.3749 -0.0045 -0.6527
 4283SOL    HW124308   0.137   2.683   3.007  2.5310  0.0009  0.4061
 4283SOL    HW224309   0.084   2.813   2.947 -2.8381  1.5471  1.6480
 4284SOL     OW24310   1.537   3.871   1.055 -0.2578 -0.4289 -0.1482
 4284SOL    HW124311   1.466   3.808   1.069 -0.4196 -0.7943 -2.7837
 4284SOL    HW224312   1.517   3.903   0.968 -0.3216  0.3686  0.1576
 4285SOL     OW24313   1.540   1.359  14.394  0.3777  0.3614  0.6217
 4285SOL    HW124314   1.475   1.347  14.325  0.5815  2.6155  0.0332
 4285SOL    HW224315   1.620   1.330  14.350 -0.4840 -1.0612  0.0039
 4286SOL     OW24316   1.454   2.036   5.600  0.0047  0.0859 -0.8266
 4286SOL    HW124317   1.434   2.130   5.591  1.1347  0.6182  2.2766
 4286SOL    HW224318   1.466   2.027   5.694 -1.1939  3.8727 -0.2942
 4287SOL     OW24319   4.462   1.829   7.228  0.2043  0.0300 -0.2575
 4287SOL    HW124320   4.370   1.821   7.253  0.1919  0.6876 -0.0940
 4287SOL    HW224321   4.489   1.920   7.237  0.2783  0.2443 -2.7808
 4288SOL     OW24322   4.470   1.436   7.822  0.1852 -0.2932  0.5079
 4288SOL    HW124323   4.434   1.500   7.883  2.2783  0.3708  1.0237
 4288SOL    HW224324   4.480   1.489   7.742  3.4107  0.9379  1.7111
 4289SOL     OW24325   0.983   3.235   5.198  0.8444 -0.7962 -0.5199
 4289SOL    HW124326   0.996   3.146   5.232 -0.6541 -0.2957  1.3837
 4289SOL    HW224327   1.033   3.238   5.117 -0.0237  0.7949 -0.9790
 4290SOL     OW24328   1.699   3.085   3.103  0.5513 -0.6090 -0.2982
 4290SOL    HW124329   1.789   3.118   3.098  0.3264 -0.1663 -1.4532
 4290SOL    HW224330   1.707   3.021   3.174 -0.9475 -1.7770 -1.1603
 4291SOL     OW24331   3.000   0.260  13.815 -0.0693  0.1978  0.1302
 4291SOL    HW124332   2.909   0.249  13.842  0.4284 -0.4327  1.5001
 4291SOL    HW224333   2.990   0.285  13.723  1.9376 -3.5305 -1.0863
 4292SOL     OW24334   1.969   3.670   7.128  0.0579 -0.2142 -0.0837
 4292SOL    HW124335   1.973   3.575   7.119 -1.8539 -0.4004  0.9491
 4292SOL    HW224336   1.972   3.670   7.224  0.9825  0.5625 -0.1174
 4293SOL     OW24337   3.882   2.864  12.240  0.1269 -0.4466  0.5175
 4293SOL    HW124338   3.917   2.790  12.190 -0.2457  0.8270 -1.6412
 4293SOL    HW224339   3.868   2.827  12.327  1.6429  0.0492  0.9717
 4294SOL     OW24340   3.351   2.279   9.280 -0.1248  0.3720 -0.3862
 4294SOL    HW124341   3.408   2.213   9.240  1.5448  0.5017  1.7809
 4294SOL    HW224342   3.393   2.267   9.365 -2.2122  0.0334  0.6060
 4295SOL     OW24343   0.292   0.561  12.701 -0.0903 -0.0648 -0.0716
 4295SOL    HW124344   0.303   0.655  12.716  0.2289 -0.2032  0.5501
 4295SOL    HW224345   0.200   0.567  12.726  0.3331  0.4660  1.3674
 4296SOL     OW24346   1.337   2.565   2.293 -0.1359  0.0207 -0.3385
 4296SOL    HW124347   1.316   2.475   2.318  1.2094  0.4828  2.4340
 4296SOL    HW224348   1.418   2.561   2.242  0.8824 -0.4457  1.3034
 4297SOL     OW24349   0.363   2.474   0.503 -0.9051 -0.1950  0.0489
 4297SOL    HW124350   0.437   2.519   0.543 -2.6763  1.7249  1.1512
 4297SOL    HW224351   0.407   2.393   0.479 -0.3606 -0.1354  0.8440
 4298SOL     OW24352   3.781   3.257   7.293  0.0756  0.1369 -0.1226
 4298SOL    HW124353   3.836   3.249   7.371  2.1450 -0.8658 -1.7083
 4298SOL    HW224354   3.841   3.210   7.237  1.9778  1.1601  1.0573
 4299SOL     OW24355   3.003   4.117   2.648  0.2422 -0.4658  0.3539
 4299SOL    HW124356   3.086   4.117   2.600  0.6878 -2.1775  1.1179
 4299SOL    HW224357   2.969   4.028   2.641 -2.2260  0.5101 -0.4009
 4300SOL     OW24358   3.723   3.691   7.739  0.6353 -0.2129  0.2431
 4300SOL    HW124359   3.725   3.622   7.674 -0.8835 -0.4566  0.4631
 4300SOL    HW224360   3.695   3.650   7.821  0.5853  0.3261  0.4977
 4301SOL     OW24361   4.383   0.504  12.333 -0.3900  0.0749  0.1446
 4301SOL    HW124362   4.334   0.586  12.326 -0.9143 -0.2652 -0.2184
 4301SOL    HW224363   4.382   0.477  12.425  1.1477 -0.9955 -0.1567
 4302SOL     OW24364   1.784   4.404  11.543  0.1237  0.2275 -0.0838
 4302SOL    HW124365   1.867   4.443  11.515 -0.4842  2.5534  1.3847
 4302SOL    HW224366   1.774   4.327  11.488 -0.3542  0.5250 -0.4084
 4303SOL     OW24367   1.729   3.364   4.877  0.2964  0.4040 -0.5392
 4303SOL    HW124368   1.758   3.334   4.963  0.1529  0.2581 -0.5404
 4303SOL    HW224369   1.730   3.288   4.819  0.2309  1.1686 -1.5501
 4304SOL     OW24370   1.118   3.272   4.956  0.6611 -0.5759  0.3419
 4304SOL    HW124371   1.134   3.214   4.881 -0.1657  2.5566 -2.2530
 4304SOL    HW224372   1.108   3.361   4.922  0.2313  0.5166  3.3143
 4305SOL     OW24373   4.185   4.613   2.298  0.1940 -0.1276  0.0171
 4305SOL    HW124374   4.185   4.517   2.292  0.2651  0.0112 -2.2887
 4305SOL    HW224375   4.245   4.632   2.226 -0.1553 -0.4656 -0.3694
 4306SOL     OW24376   3.194   3.554   4.173  0.3570 -0.0377 -0.2394
 4306SOL    HW124377   3.208   3.517   4.261 -0.8846  0.2800  0.0783
 4306SOL    HW224378   3.226   3.478   4.125 -0.2140 -1.5403  1.7228
 4307SOL     OW24379   4.184   4.710  11.012  0.6154  0.0492 -0.4264
 4307SOL    HW124380   4.180   4.624  11.052  3.5607  0.1964  0.1603
 4307SOL    HW224381   4.241   4.691  10.938  1.0228  0.0778 -0.1218
 4308SOL     OW24382   2.722   2.247   9.562  0.2363  0.0733 -0.0359
 4308SOL    HW124383   2.647   2.305   9.568 -0.1316 -0.3533 -0.4721
 4308SOL    HW224384   2.693   2.188   9.492 -2.0394 -0.1834  1.1223
 4309SOL     OW24385   0.749   1.170   9.188  0.1314  0.3555 -0.1748
 4309SOL    HW124386   0.735   1.234   9.118 -0.9802 -0.9036 -1.1041
 4309SOL    HW224387   0.732   1.236   9.255 -0.4786  2.3370 -2.2668
 4310SOL     OW24388   0.771   1.819  16.230  0.3013 -0.7069  0.2068
 4310SOL    HW124389   0.743   1.741  16.182 -1.9741  0.2020  0.0501
 4310SOL    HW224390   0.697   1.880  16.223  1.4029  0.6259  0.1320
 4311SOL     OW24391   2.913   0.040   6.082 -0.5058  0.1294 -0.7086
 4311SOL    HW124392   2.971   0.057   6.157  0.3301 -2.2496 -0.8091
 4311SOL    HW224393   2.834   0.086   6.111 -0.7377 -1.0903  0.6117
 4312SOL     OW24394   3.038   4.452   2.315 -0.2132 -0.8147  0.2297
 4312SOL    HW124395   2.971   4.496   2.263 -0.7206 -0.4362  1.2207
 4312SOL    HW224396   3.015   4.467   2.406 -2.6929 -2.7708 -0.1023
 4313SOL     OW24397   3.195   0.990   4.158  0.2620 -0.0963 -0.0389
 4313SOL    HW124398   3.281   0.998   4.199  0.0422  1.1317  0.1916
 4313SOL    HW224399   3.207   1.064   4.099  1.0622 -1.1766 -1.2363
 4314SOL     OW24400   3.501   0.085   5.203 -0.1258 -0.3408 -0.5687
 4314SOL    HW124401   3.551   0.046   5.131  0.0153 -3.2897  1.1150
 4314SOL    HW224402   3.569   0.134   5.249  1.0457 -1.3432 -1.2338
 4315SOL     OW24403   1.450   1.941   3.801  0.0127 -0.7290  0.2690
 4315SOL    HW124404   1.359   1.968   3.793  0.4741  0.4115 -0.9935
 4315SOL    HW224405   1.487   1.950   3.713  0.6428  0.0064  0.6136
 4316SOL     OW24406   2.844   2.090  14.220 -0.4513  0.7223  0.0141
 4316SOL    HW124407   2.884   2.105  14.305 -0.3037  0.8701 -0.0829
 4316SOL    HW224408   2.921   2.096  14.163 -0.8885 -0.6072 -0.7441
 4317SOL     OW24409   3.639   3.822   6.603  0.1862 -0.6342 -1.0920
 4317SOL    HW124410   3.688   3.757   6.554 -0.4764 -1.8249 -0.1630
 4317SOL    HW224411   3.681   3.903   6.573 -2.3272  1.2478  0.3790
 4318SOL     OW24412   1.582   0.238   5.988  0.1764  0.5385  0.1149
 4318SOL    HW124413   1.584   0.183   5.911  1.7124  1.2872 -0.3925
 4318SOL    HW224414   1.620   0.320   5.957  1.0393  0.1639  0.1791
 4319SOL     OW24415   4.593   0.328   8.256  0.6008 -0.4751 -0.8127
 4319SOL    HW124416   4.600   0.407   8.202 -0.2828  0.9020  1.0755
 4319SOL    HW224417   4.522   0.278   8.215 -0.1197 -1.0396  1.0891
 4320SOL     OW24418   0.815   1.959   2.897 -0.0418  0.2465 -0.3614
 4320SOL    HW124419   0.822   1.964   2.801  1.4974  2.0362 -0.1436
 4320SOL    HW224420   0.774   2.044   2.912  0.1687  0.6147 -1.8267
 4321SOL     OW24421   4.042   0.968   2.990 -0.1449 -0.0437 -0.2760
 4321SOL    HW124422   4.068   0.876   2.978 -0.3275  0.0802 -1.5337
 4321SOL    HW224423   4.104   0.989   3.060  1.8838  0.4665 -2.2460
 4322SOL     OW24424   1.164   2.420   4.340 -0.5534 -0.3938 -0.0951
 4322SOL    HW124425   1.107   2.429   4.263 -1.0889 -1.0216  0.2333
 4322SOL    HW224426   1.124   2.492   4.389  0.7611 -0.7884  1.5795
 4323SOL     OW24427   3.944   3.298   6.459  0.5634 -0.4599  0.1315
 4323SOL    HW124428   3.876   3.243   6.422 -1.7728  0.3861  3.1810
 4323SOL    HW224429   4.007   3.289   6.388  1.6584  0.1805  1.0182
 4324SOL     OW24430   3.807   0.223  13.625  0.3110  0.0482  0.6483
 4324SOL    HW124431   3.897   0.198  13.644 -0.1357 -1.1423  1.2077
 4324SOL    HW224432   3.757   0.149  13.660  0.1011  0.3167  0.9198
 4325SOL     OW24433   3.469   1.930   3.143 -0.2289  0.8641  0.1170
 4325SOL    HW124434   3.452   1.911   3.050  0.3793  0.7009  0.0441
 4325SOL    HW224435   3.561   1.905   3.151 -0.6863 -1.6086 -2.2147
 4326SOL     OW24436   3.925   0.015   6.203  0.0180 -0.0747 -0.0243
 4326SOL    HW124437   3.994   0.064   6.159  0.0453  0.4885  0.6401
 4326SOL    HW224438   3.948   4.647   6.184 -0.3956 -0.3320  0.6648
 4327SOL     OW24439   4.132   0.435  10.256  0.4530 -0.0542  0.5376
 4327SOL    HW124440   4.185   0.414  10.332  1.5332 -1.7373 -0.6897
 4327SOL    HW224441   4.115   0.528  10.272  2.8319  0.4639  0.1395
 4328SOL     OW24442   3.739   2.271   2.497 -0.9791  0.3245  0.0608
 4328SOL    HW124443   3.821   2.308   2.464 -0.0148  1.3766  3.7182
 4328SOL    HW224444   3.691   2.285   2.415  2.3420  1.2805 -1.7313
 4329SOL     OW24445   4.092   1.427   8.157 -0.1694 -0.3958 -0.1608
 4329SOL    HW124446   4.123   1.518   8.152  1.0042 -0.5103  4.8455
 4329SOL    HW224447   4.171   1.382   8.127  0.6513  2.0102 -1.6490
 4330SOL     OW24448   3.147   3.278   7.154  0.2504 -0.3027  0.4257
 4330SOL    HW124449   3.147   3.183   7.142 -1.4242 -0.5388  2.3011
 4330SOL    HW224450   3.121   3.287   7.246  1.2920 -1.0091  0.7830
 4331SOL     OW24451   2.857   2.588   8.784 -0.2923  0.1701  0.3591
 4331SOL    HW124452   2.808   2.658   8.827 -1.4475 -0.3364 -0.1633
 4331SOL    HW224453   2.931   2.575   8.844 -0.1652 -2.9797 -0.4696
 4332SOL     OW24454   3.300   3.261   1.432 -0.2056 -1.0333  0.0800
 4332SOL    HW124455   3.219   3.267   1.482 -0.7990  1.2902 -1.1704
 4332SOL    HW224456   3.349   3.198   1.485  0.9498 -2.8384 -3.1082
 4333SOL     OW24457   1.428   0.062  14.228 -0.3596  0.3951 -0.7057
 4333SOL    HW124458   1.502   0.028  14.178 -0.7936 -1.3452 -0.1726
 4333SOL    HW224459   1.364   4.722  14.194  0.0982 -0.4917  0.0825
 4334SOL     OW24460   2.038   1.017   3.713 -0.2944  0.1623 -0.3537
 4334SOL    HW124461   1.968   1.042   3.773  0.6145  0.5662  0.5548
 4334SOL    HW224462   2.078   0.937   3.747  0.9628  1.5111  1.3434
 4335SOL     OW24463   3.674   2.033   4.433 -0.0785  0.3414 -0.1419
 4335SOL    HW124464   3.683   1.949   4.388  1.7096  1.6991 -2.3467
 4335SOL    HW224465   3.708   2.037   4.522 -1.4109  1.2749  0.3251
 4336SOL     OW24466   0.551   2.465   8.441 -0.3800 -0.3302 -0.0328
 4336SOL    HW124467   0.536   2.549   8.399  0.8608 -0.2447 -0.2998
 4336SOL    HW224468   0.489   2.467   8.515  2.9177  0.7437  2.6753
 4337SOL     OW24469   0.625   2.817   5.029 -0.3192 -0.3774 -0.1708
 4337SOL    HW124470   0.621   2.731   4.988  0.4204 -0.6510  0.3285
 4337SOL    HW224471   0.682   2.804   5.105 -0.1773  1.1179 -0.0137
 4338SOL     OW24472   3.977   2.845   7.597  0.2375 -0.0323 -0.0538
 4338SOL    HW124473   3.890   2.806   7.600  0.3083 -0.0140  2.0443
 4338SOL    HW224474   4.034   2.771   7.619 -1.3182 -0.9046  1.0566
 4339SOL     OW24475   1.242   0.051   4.707  0.3544  0.3425  0.1581
 4339SOL    HW124476   1.259   0.091   4.792 -2.7592  2.3501 -0.1715
 4339SOL    HW224477   1.186   0.117   4.666 -3.4345 -2.0597  1.4747
 4340SOL     OW24478   1.243   3.654   7.034  0.7019 -0.3061 -0.1999
 4340SOL    HW124479   1.242   3.592   6.961  0.2354 -0.4350 -0.0849
 4340SOL    HW224480   1.336   3.672   7.025  0.8502  0.1839  2.1342
 4341SOL     OW24481   1.374   2.820   0.312 -0.4525 -0.0649 -0.8436
 4341SOL    HW124482   1.391   2.877   0.387 -2.4328  0.9591 -1.1895
 4341SOL    HW224483   1.460   2.810   0.270 -0.3467 -0.3119 -0.5702
 4342SOL     OW24484   1.573   1.179  17.187  0.2067 -0.4776  0.9689
 4342SOL    HW124485   1.580   1.122  17.264  0.7295  0.5514  1.6832
 4342SOL    HW224486   1.479   1.196  17.178  0.3480 -0.7734 -0.9681
 4343SOL     OW24487   2.038   1.159   2.602  0.0961 -0.2968  0.2900
 4343SOL    HW124488   2.120   1.181   2.557  0.4431  0.0438  1.0930
 4343SOL    HW224489   2.041   1.064   2.596 -1.3354 -0.3839  1.0257
 4344SOL     OW24490   2.831   1.534   6.180 -0.2522  0.2238 -0.3190
 4344SOL    HW124491   2.752   1.579   6.150 -1.6491 -1.2798  1.0591
 4344SOL    HW224492   2.806   1.442   6.190 -0.6475  0.2837 -0.7262
 4345SOL     OW24493   3.384   3.527   1.194 -0.6596 -0.1881 -0.5747
 4345SOL    HW124494   3.314   3.539   1.258  0.1026  2.6634 -0.2765
 4345SOL    HW224495   3.338   3.556   1.115 -0.6330  1.2859 -0.0500
 4346SOL     OW24496   0.812   4.645  14.445  0.0761 -0.1839 -0.0892
 4346SOL    HW124497   0.750   4.622  14.515 -0.5657  0.1595 -0.5536
 4346SOL    HW224498   0.770   4.589  14.380 -1.7049  0.7671  0.2435
 4347SOL     OW24499   1.901   3.062   5.700  0.0117 -0.1436  0.1560
 4347SOL    HW124500   1.872   3.142   5.656 -0.4582 -1.1369 -1.3465
 4347SOL    HW224501   1.854   3.059   5.783 -2.6834 -0.6089 -1.3969
 4348SOL     OW24502   3.503   0.720  11.129 -0.4147 -0.4087 -0.2649
 4348SOL    HW124503   3.520   0.636  11.085  1.2318 -1.3607  2.1536
 4348SOL    HW224504   3.534   0.782  11.063 -1.6148 -1.5374 -1.8961
 4349SOL     OW24505   0.830   0.190   2.817  0.1107 -0.6123  0.2804
 4349SOL    HW124506   0.782   0.273   2.814  0.9767 -0.0859  1.0328
 4349SOL    HW224507   0.761   0.126   2.796 -2.0915  1.1542  2.2126
 4350SOL     OW24508   3.109   0.319   7.410  0.1491  0.5360 -0.1362
 4350SOL    HW124509   3.090   0.243   7.355  1.3345 -2.3098  3.3945
 4350SOL    HW224510   3.054   0.386   7.368  0.3744  0.3372 -0.7434
 4351SOL     OW24511   3.451   3.645   4.787  0.1764  0.3829 -0.1138
 4351SOL    HW124512   3.358   3.667   4.783  0.1972  0.5526  0.3810
 4351SOL    HW224513   3.489   3.731   4.770 -1.3494  0.7226 -1.8694
 4352SOL     OW24514   2.897   4.297   5.855  0.2630 -0.2441 -0.4769
 4352SOL    HW124515   2.963   4.264   5.793 -0.4848 -1.8329 -0.4065
 4352SOL    HW224516   2.932   4.266   5.938 -1.5836 -1.5877 -0.2340
 4353SOL     OW24517   3.616   1.907   2.430 -0.7718 -0.4091  0.1616
 4353SOL    HW124518   3.584   1.825   2.393  0.7044  0.0602 -2.1423
 4353SOL    HW224519   3.610   1.954   2.347  1.0301  0.2645  0.4142
 4354SOL     OW24520   0.569   0.725   2.550  0.0547 -0.3540 -0.6912
 4354SOL    HW124521   0.534   0.658   2.491  0.1424  0.1562 -1.3345
 4354SOL    HW224522   0.517   0.796   2.511  2.7987  0.5063 -2.8196
 4355SOL     OW24523   0.896   1.127   8.949  0.1850 -0.1368 -0.1022
 4355SOL    HW124524   0.849   1.101   9.028 -0.5552 -0.2290 -0.5710
 4355SOL    HW224525   0.886   1.053   8.890 -0.1629  0.4301 -0.7633
 4356SOL     OW24526   2.573   3.666   4.403 -0.2306  0.7207 -0.0147
 4356SOL    HW124527   2.540   3.616   4.478  0.0595  1.2153  0.4466
 4356SOL    HW224528   2.638   3.609   4.362 -1.2384 -1.5148  1.4663
 4357SOL     OW24529   3.444   3.694   2.109 -0.0918  0.3679 -0.3812
 4357SOL    HW124530   3.522   3.745   2.130  1.1062 -0.4977 -2.6666
 4357SOL    HW224531   3.469   3.602   2.102  1.3053  0.8220 -1.2910
 4358SOL     OW24532   1.308   0.049   0.073 -0.0113  0.3605 -0.0336
 4358SOL    HW124533   1.361   0.124   0.100  1.2630 -1.0718  1.4369
 4358SOL    HW224534   1.331   0.030  17.677 -2.0537  2.9389 -1.1111
 4359SOL     OW24535   3.810   1.754   5.609  0.1330 -0.3609  0.3043
 4359SOL    HW124536   3.872   1.819   5.574 -1.8231  1.1901 -0.2429
 4359SOL    HW224537   3.852   1.727   5.691  0.2062  1.8703  0.9934
 4360SOL     OW24538   2.631   3.238  12.991 -0.2066  0.8234 -0.6702
 4360SOL    HW124539   2.621   3.331  13.012  2.4301  0.8072  0.6242
 4360SOL    HW224540   2.575   3.247  12.914  0.8984  3.6388 -1.1393
 4361SOL     OW24541   3.316   2.252   3.158  0.2732  0.2688  0.8931
 4361SOL    HW124542   3.303   2.248   3.063  0.9814 -0.3130  0.8192
 4361SOL    HW224543   3.405   2.289   3.154 -0.3382  1.7842  1.4845
 4362SOL     OW24544   1.837   3.490  15.064  0.4781 -0.1866 -0.1938
 4362SOL    HW124545   1.878   3.434  15.131 -1.2509 -2.3802 -0.9903
 4362SOL    HW224546   1.762   3.536  15.102 -0.8698 -0.4667 -2.5566
 4363SOL     OW24547   3.538   4.505   8.051  0.3416  0.5065 -0.0432
 4363SOL    HW124548   3.456   4.462   8.072  0.3183  0.2627 -0.6254
 4363SOL    HW224549   3.558   4.471   7.964 -0.0023  1.0704 -0.3392
 4364SOL     OW24550   2.157   0.688   8.918  0.1878  0.1537 -0.0832
 4364SOL    HW124551   2.161   0.757   8.851  2.4120 -0.6735 -0.7751
 4364SOL    HW224552   2.165   0.734   9.002  0.5384  0.2181 -0.1541
 4365SOL     OW24553   1.508   4.354   9.872 -0.4947  0.5291  0.0370
 4365SOL    HW124554   1.428   4.407   9.864 -3.0549 -3.2300  0.7817
 4365SOL    HW224555   1.518   4.341   9.967  0.8489  3.2185  0.2893
 4366SOL     OW24556   1.765   3.701   6.115 -0.2760 -0.9837 -0.4544
 4366SOL    HW124557   1.772   3.606   6.125  2.0169 -0.8006 -0.5025
 4366SOL    HW224558   1.824   3.735   6.182  1.4644  0.6340 -2.7939
 4367SOL     OW24559   0.366   0.370  11.732 -0.0007  0.1150  0.1018
 4367SOL    HW124560   0.375   0.404  11.821  0.9384  0.8083 -0.2598
 4367SOL    HW224561   0.421   0.292  11.731  3.4299  2.5386  0.0852
 4368SOL     OW24562   0.817   1.949   7.287 -0.3345  0.3117  0.7181
 4368SOL    HW124563   0.751   1.950   7.356  1.9685 -0.9447  2.9210
 4368SOL    HW224564   0.873   2.022   7.310  0.2170 -0.1670  0.8778
 4369SOL     OW24565   2.474   4.305   8.299 -0.5277  0.1412  0.5385
 4369SOL    HW124566   2.523   4.225   8.316 -0.9875 -0.4860 -1.1397
 4369SOL    HW224567   2.409   4.314   8.369 -0.8167 -0.8552  0.4071
 4370SOL     OW24568   3.525   0.524   5.401 -0.3050 -0.4674 -0.0928
 4370SOL    HW124569   3.597   0.510   5.463  0.1880  2.3504  0.0045
 4370SOL    HW224570   3.446   0.507   5.452 -0.9141 -1.7391 -1.4995
 4371SOL     OW24571   2.952   1.195   4.123  0.0024 -0.2155  0.4040
 4371SOL    HW124572   3.015   1.140   4.170 -1.9986 -3.0386 -0.1917
 4371SOL    HW224573   2.992   1.280   4.139 -0.3536 -0.1071  0.6997
 4372SOL     OW24574   2.384   0.640   1.678 -0.1531 -0.3002  0.1128
 4372SOL    HW124575   2.368   0.648   1.772 -2.5447 -3.1797 -0.0489
 4372SOL    HW224576   2.479   0.641   1.682 -0.0481  1.5229 -2.9586
 4373SOL     OW24577   0.012   0.372  11.660 -0.1923  0.6790 -0.0119
 4373SOL    HW124578   4.651   0.334  11.636  0.5753 -0.4463 -0.9615
 4373SOL    HW224579   4.721   0.366  11.754 -1.0274 -2.0395 -0.3322
 4374SOL     OW24580   1.352   0.305   7.411 -0.3445 -0.0347 -0.3235
 4374SOL    HW124581   1.378   0.395   7.435 -1.4311 -0.5256  2.6855
 4374SOL    HW224582   1.259   0.312   7.429 -0.1371  0.2169  0.6781
 4375SOL     OW24583   2.730   3.007   5.781  0.3796  0.5182  0.2990
 4375SOL    HW124584   2.731   3.061   5.860 -2.3686  0.9772  0.0004
 4375SOL    HW224585   2.666   2.943   5.812 -1.6988  1.1563 -2.7258
 4376SOL     OW24586   4.545   0.948   0.575 -0.6168 -0.3039 -0.2078
 4376SOL    HW124587   4.522   0.946   0.482 -0.6111 -0.5710 -0.2032
 4376SOL    HW224588   4.538   1.042   0.588 -0.2241 -0.1387 -1.1915
 4377SOL     OW24589   1.801   1.347   3.988  0.2352  0.5542 -0.5407
 4377SOL    HW124590   1.780   1.414   4.053  2.2205  0.7640 -0.1092
 4377SOL    HW224591   1.736   1.381   3.926  0.0342  1.1357 -0.0064
 4378SOL     OW24592   3.749   1.842  16.948  0.3176 -0.4218 -0.2271
 4378SOL    HW124593   3.711   1.930  16.950 -1.5458 -1.1942 -3.2341
 4378SOL    HW224594   3.819   1.856  16.885 -2.1684  3.1221 -2.1852
 4379SOL     OW24595   3.299   1.947   5.496 -0.4077  0.2098 -0.3532
 4379SOL    HW124596   3.347   1.892   5.434  1.9038  0.0372  1.6262
 4379SOL    HW224597   3.367   2.008   5.524 -0.0233 -0.8291  0.9581
 4380SOL     OW24598   0.193   0.114  12.893  0.2539 -0.2770  0.6396
 4380SOL    HW124599   0.249   0.038  12.909  0.6343 -0.3142 -0.9649
 4380SOL    HW224600   0.197   0.155  12.980 -1.3867  0.3522  0.4105
 4381SOL     OW24601   0.926   1.391   1.146  0.0644  0.0037 -0.6809
 4381SOL    HW124602   0.839   1.393   1.186 -0.6343  0.5474 -2.2187
 4381SOL    HW224603   0.930   1.458   1.078  1.6354  2.0272  1.3899
 4382SOL     OW24604   3.377   1.136   5.245 -0.4364  0.2686  0.2356
 4382SOL    HW124605   3.381   1.197   5.171  0.4024  0.1376  0.1717
 4382SOL    HW224606   3.355   1.187   5.322  2.1843  1.9487 -0.1412
 4383SOL     OW24607   1.058   3.576  15.308  0.1220  0.2320 -0.1055
 4383SOL    HW124608   1.145   3.592  15.272  0.9868 -1.4396  1.2774
 4383SOL    HW224609   1.083   3.529  15.387  1.7049 -1.5268 -1.6662
 4384SOL     OW24610   1.110   3.316   2.688 -0.2782 -0.9800 -0.1529
 4384SOL    HW124611   1.168   3.272   2.627  0.3446  0.8989 -0.8960
 4384SOL    HW224612   1.084   3.395   2.640  1.7436 -0.2879 -0.1054
 4385SOL     OW24613   1.499   4.445   1.744 -0.4703 -0.3456  0.1021
 4385SOL    HW124614   1.452   4.486   1.671 -0.0235 -0.0064  0.0057
 4385SOL    HW224615   1.544   4.383   1.686  0.4045  1.4626 -1.1509
 4386SOL     OW24616   0.131   2.115   7.490 -0.3881 -0.2206  0.2420
 4386SOL    HW124617   0.096   2.027   7.503  0.8643 -0.8674 -0.7594
 4386SOL    HW224618   0.218   2.104   7.528  0.5470  3.9621 -0.6861
 4387SOL     OW24619   1.787   3.071   8.903 -0.0682 -0.1592  0.1882
 4387SOL    HW124620   1.855   3.030   8.956 -0.4070 -1.7771 -0.6520
 4387SOL    HW224621   1.708   3.067   8.959 -1.0888  0.6278 -1.1930
 4388SOL     OW24622   0.525   3.709   7.834  0.0810 -0.1198  0.4774
 4388SOL    HW124623   0.591   3.772   7.862 -0.8542  0.9606  0.2588
 4388SOL    HW224624   0.438   3.741   7.860  0.4702  2.3334 -1.2940
 4389SOL     OW24625   3.253   3.276   3.752  0.0662  0.1796 -0.1006
 4389SOL    HW124626   3.167   3.266   3.710 -0.9293 -1.9876  2.3976
 4389SOL    HW224627   3.233   3.270   3.845 -1.1723 -2.6344 -0.5582
 4390SOL     OW24628   4.096   4.340  13.436 -0.6860  0.2242 -0.0621
 4390SOL    HW124629   4.067   4.429  13.455  0.3681  0.2861  1.2398
 4390SOL    HW224630   4.185   4.362  13.406  0.0908 -2.4044  0.3222
 4391SOL     OW24631   2.446   4.280   4.495 -0.0532  0.0732  0.6248
 4391SOL    HW124632   2.390   4.232   4.434  0.0127 -1.5334  1.8270
 4391SOL    HW224633   2.453   4.213   4.562 -0.1637 -0.1024  0.4602
 4392SOL     OW24634   4.036   2.979  12.980  0.1372  0.0084 -0.4559
 4392SOL    HW124635   3.972   2.967  13.051 -1.2844 -1.2181 -1.9449
 4392SOL    HW224636   4.018   3.072  12.964 -0.9345  0.3243  2.5900
 4393SOL     OW24637   4.029   3.197  16.754  0.3328 -0.4014 -0.4526
 4393SOL    HW124638   3.988   3.113  16.772  0.3420 -0.3758 -0.3115
 4393SOL    HW224639   3.956   3.242  16.713 -0.6443 -1.8822 -0.3278
 4394SOL     OW24640   4.092   0.503  12.594 -0.6255  0.1612 -0.1112
 4394SOL    HW124641   4.083   0.419  12.548  0.9539 -1.1329  1.9358
 4394SOL    HW224642   4.187   0.517  12.589 -0.4917 -0.3047  1.1060
 4395SOL     OW24643   0.885   4.328   8.663  0.2972  0.0550  0.1820
 4395SOL    HW124644   0.856   4.359   8.748  0.7707  1.7572 -0.2850
 4395SOL    HW224645   0.917   4.239   8.682  0.8155  0.2500  0.2252
 4396SOL     OW24646   4.545   2.612   4.974  0.2512 -0.0099  0.4537
 4396SOL    HW124647   4.500   2.574   4.898 -1.4391  0.1697  1.3629
 4396SOL    HW224648   4.573   2.535   5.024 -0.8467  0.3740  1.6603
 4397SOL     OW24649   2.466   3.519  12.382  0.1107 -0.4919 -0.6559
 4397SOL    HW124650   2.414   3.582  12.434 -0.4426 -2.8224  1.6323
 4397SOL    HW224651   2.403   3.467  12.333 -0.5118  1.3129 -1.7961
 4398SOL     OW24652   3.996   0.891   5.432  0.0260 -0.1869 -0.5505
 4398SOL    HW124653   4.004   0.986   5.437 -2.3793  0.0349 -1.2448
 4398SOL    HW224654   3.968   0.874   5.522  0.2946 -3.4263 -1.0834
 4399SOL     OW24655   0.697   1.920   3.870 -0.3745 -0.2840 -0.4668
 4399SOL    HW124656   0.697   2.014   3.851 -0.4194 -0.1394  0.2360
 4399SOL    HW224657   0.693   1.918   3.966 -2.6896 -2.1920 -0.6196
 4400SOL     OW24658   4.693   4.018   3.291 -0.3359 -0.3205 -0.2497
 4400SOL    HW124659   0.029   3.949   3.321  1.4880  1.2218 -0.3151
 4400SOL    HW224660   4.607   3.976   3.287 -1.0737  1.1590 -0.0367
 4401SOL     OW24661   3.857   3.323  16.570 -0.1730 -0.2727  0.1612
 4401SOL    HW124662   3.780   3.352  16.522  1.0335  2.0198 -0.4074
 4401SOL    HW224663   3.899   3.410  16.571  1.0685 -0.8577 -3.6157
 4402SOL     OW24664   4.100   2.565   9.060 -0.5524 -0.3301  0.1866
 4402SOL    HW124665   4.121   2.639   9.117  0.6871  1.1370 -2.1719
 4402SOL    HW224666   4.021   2.604   9.021 -0.5778  0.0373  0.5986
 4403SOL     OW24667   2.330   0.791   3.136 -0.1108 -0.1100 -0.5696
 4403SOL    HW124668   2.352   0.698   3.126  0.7492  0.0326 -0.0496
 4403SOL    HW224669   2.406   0.834   3.095  0.2353 -1.5183 -1.4184
 4404SOL     OW24670   3.277   1.100  14.973 -0.2769  0.2109  0.1819
 4404SOL    HW124671   3.248   1.009  14.972  1.1380 -0.2399 -0.0985
 4404SOL    HW224672   3.201   1.154  14.952  0.7848  0.9070 -1.9524
 4405SOL     OW24673   4.484   2.070   3.108  0.3253 -0.0437  0.4161
 4405SOL    HW124674   4.477   2.126   3.185 -0.3121  0.9425 -0.3686
 4405SOL    HW224675   4.517   2.133   3.044  1.2209  0.7541  1.6574
 4406SOL     OW24676   1.592   3.071   9.063 -0.0515 -0.7998 -0.4114
 4406SOL    HW124677   1.604   3.119   9.145  2.4282 -2.8224  0.4181
 4406SOL    HW224678   1.514   3.017   9.071 -0.9557  0.6197  0.4846
 4407SOL     OW24679   1.742   0.241   2.063 -0.1853  0.5635 -0.1589
 4407SOL    HW124680   1.785   0.316   2.106 -0.9196  0.2374  1.1515
 4407SOL    HW224681   1.649   0.258   2.072 -0.3414 -0.3726 -0.0187
 4408SOL     OW24682   0.914   4.633   2.864 -0.1555  0.2417 -0.4493
 4408SOL    HW124683   1.009   4.636   2.877 -0.0906  0.6006 -1.0048
 4408SOL    HW224684   0.886   4.701   2.925 -0.5167 -0.2092 -0.1115
 4409SOL     OW24685   0.463   0.704   2.848  0.2415 -0.3291  0.0450
 4409SOL    HW124686   0.504   0.627   2.888  1.6411 -0.1039 -0.9679
 4409SOL    HW224687   0.423   0.663   2.771  0.6961  0.7256 -0.7464
 4410SOL     OW24688   1.178   3.409   1.736 -0.2860 -0.5248  0.0235
 4410SOL    HW124689   1.159   3.457   1.655  1.2532  0.5721  0.3157
 4410SOL    HW224690   1.187   3.325   1.690 -1.3737 -0.8131  0.3318
 4411SOL     OW24691   3.891   1.659   2.279  0.1122 -0.3113 -0.1364
 4411SOL    HW124692   3.951   1.634   2.209  1.0843  0.9837  0.2280
 4411SOL    HW224693   3.950   1.721   2.323 -2.1029  2.4002 -1.0137
 4412SOL     OW24694   4.532   2.644   0.834  0.5986  0.2833 -0.0783
 4412SOL    HW124695   4.457   2.616   0.887  1.2886  2.0554  1.8466
 4412SOL    HW224696   4.499   2.639   0.745  1.2075 -0.1139 -0.2814
 4413SOL     OW24697   1.287   1.418   5.572 -0.2582 -0.2516  0.0291
 4413SOL    HW124698   1.307   1.327   5.549  0.3219  0.7037 -3.2785
 4413SOL    HW224699   1.285   1.460   5.486  1.1721 -0.6029 -0.1785
 4414SOL     OW24700   2.387   1.643  10.639  0.0465 -0.3549 -0.5720
 4414SOL    HW124701   2.449   1.709  10.670  1.9835 -1.1515 -2.8370
 4414SOL    HW224702   2.303   1.688  10.653 -0.0432 -0.4290 -0.8831
 4415SOL     OW24703   0.819   3.248  16.306  0.6277 -0.4386 -0.3495
 4415SOL    HW124704   0.846   3.338  16.287  0.7259  0.1259  2.4673
 4415SOL    HW224705   0.726   3.243  16.284  0.0852  3.8722  0.8934
 4416SOL     OW24706   2.606   2.727   3.119 -0.2463 -0.1948  0.0853
 4416SOL    HW124707   2.577   2.745   3.208  1.4374 -0.5183  0.6886
 4416SOL    HW224708   2.639   2.815   3.102 -0.4982 -0.0124  0.5377
 4417SOL     OW24709   0.926   1.505  16.318 -0.4742 -0.4862 -0.9036
 4417SOL    HW124710   0.905   1.590  16.357  2.7398 -1.4461  2.9292
 4417SOL    HW224711   0.943   1.451  16.395  3.0228 -0.0940 -1.4157
 4418SOL     OW24712   3.085   1.571   9.635 -0.1622 -0.6622  0.6893
 4418SOL    HW124713   3.116   1.572   9.545 -0.7613  2.2684  0.5189
 4418SOL    HW224714   3.004   1.520   9.624 -1.4706  1.0895  2.1867
 4419SOL     OW24715   1.073   3.057   9.000  0.1941 -0.3621  0.4836
 4419SOL    HW124716   1.093   2.985   8.941  0.6090 -0.8928  1.2615
 4419SOL    HW224717   1.099   3.132   8.947 -0.8355 -0.3894 -0.0533
 4420SOL     OW24718   2.275   0.447   4.719 -0.1430  0.1383  0.2181
 4420SOL    HW124719   2.234   0.527   4.687 -1.9062 -1.3036 -1.1228
 4420SOL    HW224720   2.303   0.478   4.805  0.4160  0.5259 -0.1082
 4421SOL     OW24721   2.413   3.123  12.620  0.3329 -0.1405 -0.0369
 4421SOL    HW124722   2.454   3.137  12.534  1.6327 -0.6096  0.5145
 4421SOL    HW224723   2.346   3.058  12.594  1.3804 -1.5009  0.6832
 4422SOL     OW24724   0.318   2.678  15.508  0.1658  0.5061  0.1393
 4422SOL    HW124725   0.403   2.721  15.500 -0.3319  1.1137 -1.8885
 4422SOL    HW224726   0.297   2.699  15.599  1.9549 -0.4534  0.7557
 4423SOL     OW24727   3.453   3.878   3.763  0.0294 -0.3799  0.0579
 4423SOL    HW124728   3.548   3.886   3.767 -0.1489  0.2093  3.1112
 4423SOL    HW224729   3.418   3.862   3.851  2.1612 -1.4991  0.7037
 4424SOL     OW24730   0.054   2.608  13.534 -0.5162 -0.2737  0.4920
 4424SOL    HW124731   4.706   2.561  13.490 -1.5237  0.7063  1.0632
 4424SOL    HW224732   0.041   2.691  13.487 -1.0031 -0.9148 -0.5200
 4425SOL     OW24733   0.349   0.928  17.669 -0.5071 -0.4191 -0.0940
 4425SOL    HW124734   0.432   0.941   0.020 -1.7233  2.2411  1.3677
 4425SOL    HW224735   0.360   0.991  17.598 -3.1191 -1.5141 -1.4446
 4426SOL     OW24736   4.321   3.581   8.920  0.0215 -0.0898 -0.5689
 4426SOL    HW124737   4.336   3.497   8.876 -0.4366 -0.1189 -0.6693
 4426SOL    HW224738   4.402   3.576   8.972  0.6005 -1.2146 -1.5684
 4427SOL     OW24739   2.419   3.658   4.113 -0.1215  0.6661 -0.2762
 4427SOL    HW124740   2.502   3.640   4.158 -1.0798 -1.6011  0.5572
 4427SOL    HW224741   2.385   3.727   4.171 -2.3620  0.0685 -0.9041
 4428SOL     OW24742   2.794   0.125   2.681 -0.3391 -0.0702 -0.0670
 4428SOL    HW124743   2.846   0.062   2.731 -1.0067  0.6456  1.5296
 4428SOL    HW224744   2.739   0.166   2.747 -1.9998  1.2971 -2.3055
 4429SOL     OW24745   1.597   3.147  11.171 -0.3823  0.2514  0.2331
 4429SOL    HW124746   1.521   3.146  11.112 -0.0299 -0.7702 -0.2045
 4429SOL    HW224747   1.592   3.232  11.215 -0.2808 -0.3833  1.4854
 4430SOL     OW24748   2.746   4.286   2.635  0.6360  0.3188 -0.2022
 4430SOL    HW124749   2.737   4.371   2.677  1.5277 -0.0892  0.8532
 4430SOL    HW224750   2.820   4.256   2.688  0.6374 -2.1237 -1.5922
 4431SOL     OW24751   0.549   1.425   4.361  0.2055 -0.5777 -0.3034
 4431SOL    HW124752   0.527   1.333   4.378  0.0203 -0.7537 -1.4929
 4431SOL    HW224753   0.505   1.442   4.278 -1.0386  0.1167  0.4989
 4432SOL     OW24754   0.821   2.372   6.693 -0.1897 -0.6172 -0.1301
 4432SOL    HW124755   0.753   2.436   6.714 -3.5084 -4.2610  0.2046
 4432SOL    HW224756   0.780   2.299   6.740  0.6594 -0.9992  0.0098
 4433SOL     OW24757   4.566   3.665   7.344 -0.1318  0.1146  0.1269
 4433SOL    HW124758   4.562   3.590   7.403  2.7222  0.8231  1.2050
 4433SOL    HW224759   4.492   3.712   7.381 -0.0988  0.0217  0.3080
 4434SOL     OW24760   1.943   2.314   5.171 -0.4825 -0.3372 -0.2121
 4434SOL    HW124761   1.869   2.372   5.158 -0.6521 -0.2136  1.2808
 4434SOL    HW224762   1.941   2.269   5.086 -0.4687 -1.0112  0.1399
 4435SOL     OW24763   2.132   2.673   7.726  0.2035  1.1700  0.4741
 4435SOL    HW124764   2.062   2.627   7.680  1.0318  0.2064  0.1896
 4435SOL    HW224765   2.194   2.603   7.746  0.1748  0.6331 -1.3164
 4436SOL     OW24766   0.696   1.203  16.681 -0.3650  0.6224  1.0055
 4436SOL    HW124767   0.707   1.216  16.775  2.9470  0.2008  0.6732
 4436SOL    HW224768   0.609   1.163  16.682 -0.6475  1.2631  3.3472
 4437SOL     OW24769   2.948   1.773   9.979  0.3287 -0.4930 -0.4319
 4437SOL    HW124770   2.890   1.769   9.903 -0.1997  0.5867 -0.0903
 4437SOL    HW224771   2.938   1.862  10.012 -0.9892 -0.1551 -1.7440
 4438SOL     OW24772   4.099   1.535   2.419 -0.1298  0.3148  0.0451
 4438SOL    HW124773   4.055   1.461   2.460  0.1516  0.0054 -0.2097
 4438SOL    HW224774   4.173   1.492   2.375  0.2119  1.5904 -0.6262
 4439SOL     OW24775   0.284   4.231   8.702  0.3528  0.1143  0.4891
 4439SOL    HW124776   0.377   4.236   8.678 -0.0909  1.1164 -0.9701
 4439SOL    HW224777   0.252   4.296   8.640  4.1151  0.8627 -0.6796
 4440SOL     OW24778   0.531   4.701   1.473 -0.0749  0.6025 -0.0754
 4440SOL    HW124779   0.607   4.688   1.531 -0.3950  2.0677  0.6809
 4440SOL    HW224780   0.528   0.072   1.490  1.2959  0.2591  2.1278
 4441SOL     OW24781   2.874   0.500   2.580  0.7405 -0.0105 -0.3300
 4441SOL    HW124782   2.881   0.567   2.511  1.2559  2.3243  1.9845
 4441SOL    HW224783   2.953   0.452   2.556  0.4529 -0.1816 -0.9248
 4442SOL     OW24784   1.643   1.261   7.680 -0.5562 -0.0504 -0.6078
 4442SOL    HW124785   1.654   1.336   7.738  2.1278  0.0493 -1.2243
 4442SOL    HW224786   1.649   1.299   7.592  0.1073 -0.9990 -0.9777
 4443SOL     OW24787   4.240   3.420   3.504  0.1810 -0.3123  0.1730
 4443SOL    HW124788   4.287   3.405   3.586 -1.4175 -0.3069  1.0911
 4443SOL    HW224789   4.285   3.502   3.484 -3.0091  1.8208  1.6966
 4444SOL     OW24790   2.115   1.721   0.138  0.2029 -0.1208  0.4682
 4444SOL    HW124791   2.142   1.740   0.228 -1.4532 -0.9557  1.1517
 4444SOL    HW224792   2.025   1.689   0.136 -0.1968  0.9797  0.8054
 4445SOL     OW24793   3.296   2.513   3.438 -0.1101 -0.4620 -0.9900
 4445SOL    HW124794   3.377   2.543   3.479 -0.5608  0.2312 -0.6119
 4445SOL    HW224795   3.253   2.478   3.516 -0.3060  0.1108 -0.8388
 4446SOL     OW24796   1.053   3.609  12.446 -0.2986 -0.1911  0.1542
 4446SOL    HW124797   1.001   3.658  12.382 -1.0694 -0.7193  0.3714
 4446SOL    HW224798   0.995   3.612  12.522  0.6818 -0.2871  0.8983
 4447SOL     OW24799   2.185   4.588   6.176  0.7813 -0.1940 -0.1345
 4447SOL    HW124800   2.272   4.611   6.141  1.7917 -0.2060  2.3820
 4447SOL    HW224801   2.198   4.498   6.204 -0.0198 -0.1998  0.2184
 4448SOL     OW24802   0.723   1.854  13.713  0.0515 -0.3644 -0.2168
 4448SOL    HW124803   0.784   1.867  13.785 -0.0518 -0.2834 -0.1430
 4448SOL    HW224804   0.657   1.798  13.754  1.3790  0.5164  3.1173
 4449SOL     OW24805   1.162   1.289   2.202  0.5079  0.0544 -0.0809
 4449SOL    HW124806   1.115   1.227   2.147 -0.3132  1.6459 -1.1612
 4449SOL    HW224807   1.120   1.277   2.287  2.0047 -0.3623  0.6047
 4450SOL     OW24808   4.048   1.736   7.106 -0.8011 -1.0043  0.4979
 4450SOL    HW124809   4.100   1.766   7.032  0.1956 -0.9520  1.2064
 4450SOL    HW224810   3.965   1.784   7.104 -1.1099 -1.5787 -0.2850
 4451SOL     OW24811   2.691   3.084   0.829  0.1646  0.2302 -0.2942
 4451SOL    HW124812   2.602   3.061   0.854 -0.0477 -1.4664 -2.6217
 4451SOL    HW224813   2.675   3.130   0.747  1.6700  0.7876 -0.2742
 4452SOL     OW24814   3.263   2.213   6.295  1.2929  0.6374  0.5409
 4452SOL    HW124815   3.290   2.305   6.291  1.4177  0.5563 -0.4869
 4452SOL    HW224816   3.325   2.167   6.352  1.6490  0.3590 -0.0734
 4453SOL     OW24817   2.646   2.657   3.944 -0.6290 -0.4814 -0.4227
 4453SOL    HW124818   2.720   2.657   4.004 -2.3199 -0.3028  1.6902
 4453SOL    HW224819   2.578   2.670   4.010  0.5936  0.4244  0.6532
 4454SOL     OW24820   0.746   0.164  12.660  0.0451 -0.2865 -0.9874
 4454SOL    HW124821   0.658   0.164  12.622  0.2130  0.6899 -1.3562
 4454SOL    HW224822   0.765   0.079  12.620 -2.3587 -0.7533 -1.1422
 4455SOL     OW24823   0.865   1.055   4.262 -0.0264 -0.7164 -0.2000
 4455SOL    HW124824   0.925   1.103   4.319  0.7373 -0.5940 -1.0939
 4455SOL    HW224825   0.907   1.053   4.176  0.7000  2.0472  0.0905
 4456SOL     OW24826   1.560   4.614   0.106  0.0112  0.0144 -0.0286
 4456SOL    HW124827   1.609   4.676   0.052  1.6904 -1.8096 -0.5565
 4456SOL    HW224828   1.529   4.548   0.044  1.3854 -2.0779  1.5630
 4457SOL     OW24829   4.384   2.209   5.074 -0.3995  0.5846 -0.4211
 4457SOL    HW124830   4.326   2.279   5.044 -0.4465 -0.0825 -1.9146
 4457SOL    HW224831   4.461   2.252   5.110 -1.5114  0.5714  1.9931
 4458SOL     OW24832   2.099   2.228   6.678 -0.4114 -0.2048 -0.5146
 4458SOL    HW124833   2.131   2.286   6.608  0.4495 -0.1217 -0.0532
 4458SOL    HW224834   2.012   2.209   6.644 -0.1344  0.2151 -1.4843
 4459SOL     OW24835   2.446   4.546  12.737  0.0145 -1.0919 -0.8139
 4459SOL    HW124836   2.517   4.582  12.790 -0.8388 -0.5146 -0.0664
 4459SOL    HW224837   2.468   4.453  12.732 -2.2114 -1.6363 -0.2497
 4460SOL     OW24838   4.349   2.653  14.075  0.1179 -0.0254  0.0916
 4460SOL    HW124839   4.317   2.619  14.159 -1.6829 -1.0674 -1.0160
 4460SOL    HW224840   4.428   2.700  14.101  0.1609  1.5017 -2.8678
 4461SOL     OW24841   4.426   4.162  15.993 -0.0619 -0.3958 -0.3841
 4461SOL    HW124842   4.373   4.134  16.068  0.0761 -0.2525 -0.2341
 4461SOL    HW224843   4.434   4.254  16.018 -2.5789  0.1026 -1.4471
 4462SOL     OW24844   0.899   1.148   2.714  0.3258 -0.8538 -0.2689
 4462SOL    HW124845   0.911   1.173   2.806  0.1199 -0.9212 -0.2240
 4462SOL    HW224846   0.805   1.158   2.698  0.1835  1.5102  2.0468
 4463SOL     OW24847   4.552   1.797   6.710  0.7995 -0.5285  0.4234
 4463SOL    HW124848   4.498   1.834   6.641  0.9451 -2.7908 -0.8874
 4463SOL    HW224849   4.634   1.800   6.660  0.2065  0.2164 -0.4947
 4464SOL     OW24850   2.078   3.085  11.409 -0.1552 -0.0298 -0.6720
 4464SOL    HW124851   2.056   3.062  11.318  2.3807 -0.0033 -1.2907
 4464SOL    HW224852   1.988   3.091  11.441 -0.4075 -0.6271 -1.2710
 4465SOL     OW24853   1.588   3.109   5.638 -0.5163 -0.1532  0.2711
 4465SOL    HW124854   1.583   3.038   5.701  0.1676  0.0687  0.5807
 4465SOL    HW224855   1.548   3.185   5.681 -0.7364 -1.1581  1.7938
 4466SOL     OW24856   0.065   3.907   5.322  0.3850 -0.2929  0.1375
 4466SOL    HW124857   0.005   3.920   5.395  0.3825 -0.8705  0.2447
 4466SOL    HW224858   0.049   3.992   5.282  0.4181 -0.0147  0.7183
 4467SOL     OW24859   1.467   4.541   9.207 -0.1265 -0.3337 -0.3400
 4467SOL    HW124860   1.417   4.551   9.288 -1.5456  1.3095 -1.4037
 4467SOL    HW224861   1.545   4.594   9.222 -0.0603 -0.6152  0.3220
 4468SOL     OW24862   4.208   2.148   1.633  0.4487 -0.0048 -0.1891
 4468SOL    HW124863   4.268   2.153   1.558  0.9819 -0.5121  0.2011
 4468SOL    HW224864   4.129   2.194   1.607 -0.2552  0.2336  2.3517
 4469SOL     OW24865   0.802   4.326  14.920  0.0291  0.0076 -0.4568
 4469SOL    HW124866   0.817   4.241  14.960  0.3221  0.9119  1.3784
 4469SOL    HW224867   0.752   4.312  14.840 -0.5250 -0.7507  0.0178
 4470SOL     OW24868   3.933   0.683   5.106 -0.0445 -0.0189  0.0155
 4470SOL    HW124869   3.929   0.652   5.016 -0.9855 -3.0593  1.1077
 4470SOL    HW224870   4.018   0.726   5.111  0.1893 -0.2463 -2.3936
 4471SOL     OW24871   3.775   3.563   5.539 -0.5079  0.1767  0.9337
 4471SOL    HW124872   3.807   3.544   5.627 -1.9871 -0.0489  1.4230
 4471SOL    HW224873   3.683   3.560   5.565 -0.9840  1.6065 -0.5953
 4472SOL     OW24874   4.418   3.745   2.640  0.1931 -0.3551 -0.3491
 4472SOL    HW124875   4.368   3.708   2.713 -1.6873  1.7423 -0.5809
 4472SOL    HW224876   4.351   3.807   2.612 -0.1510 -1.0280 -1.0423
 4473SOL     OW24877   0.002   1.862   7.495 -0.1695 -0.1729  0.0400
 4473SOL    HW124878   0.030   1.778   7.532  1.2840 -0.0385 -0.7212
 4473SOL    HW224879   0.012   1.848   7.401 -0.9559  0.6562 -0.1677
 4474SOL     OW24880   0.146   3.865   1.907  0.1920 -0.0105  0.0708
 4474SOL    HW124881   0.131   3.793   1.968  2.5654  2.1368  3.2260
 4474SOL    HW224882   0.059   3.864   1.866 -0.3812  1.9939  1.2200
 4475SOL     OW24883   2.846   1.763   8.352 -0.4073  0.0183 -0.3509
 4475SOL    HW124884   2.910   1.801   8.291 -0.5345 -0.9528 -1.0966
 4475SOL    HW224885   2.770   1.808   8.318 -0.6251 -0.6363 -0.7381
 4476SOL     OW24886   2.039   2.320  17.025  0.0024  1.0008 -0.4807
 4476SOL    HW124887   2.079   2.260  17.088 -0.7393 -0.6961 -1.6301
 4476SOL    HW224888   1.975   2.358  17.085 -0.4662  1.8962 -1.5259
 4477SOL     OW24889   4.357   4.378   6.098  0.0340 -0.0471  0.1130
 4477SOL    HW124890   4.363   4.329   6.016 -1.0066 -1.3982  0.8396
 4477SOL    HW224891   4.438   4.352   6.142  0.8281 -0.0027 -1.3183
 4478SOL     OW24892   1.258   4.482   3.577  0.6247 -0.6135  0.1909
 4478SOL    HW124893   1.250   4.395   3.615  2.1024 -0.9720 -0.3083
 4478SOL    HW224894   1.216   4.539   3.641  2.3458  0.3795  0.4370
 4479SOL     OW24895   1.848   2.587   6.977 -0.0257 -0.5355 -0.1475
 4479SOL    HW124896   1.878   2.643   6.905  0.5071  1.4032  1.6002
 4479SOL    HW224897   1.760   2.617   7.000 -0.2162 -0.1999 -1.3009
 4480SOL     OW24898   3.080   1.285   5.116 -0.2658 -0.6373 -0.4199
 4480SOL    HW124899   3.138   1.354   5.147 -0.7675 -0.9722  1.2975
 4480SOL    HW224900   2.997   1.328   5.138 -0.3181 -1.4467  0.9745
 4481SOL     OW24901   1.230   0.744   2.790 -0.2148  0.0943 -0.3569
 4481SOL    HW124902   1.320   0.756   2.757  0.8372 -1.0023  2.1386
 4481SOL    HW224903   1.178   0.724   2.712  1.7995 -1.9886 -1.1748
 4482SOL     OW24904   2.200   1.820  14.831  0.3134  0.2770  0.3631
 4482SOL    HW124905   2.111   1.789  14.848  0.5496 -0.7699 -0.2920
 4482SOL    HW224906   2.245   1.797  14.912  1.1758 -0.5726 -0.3498
 4483SOL     OW24907   1.728   1.382   5.134  0.1666  0.4977  0.3169
 4483SOL    HW124908   1.819   1.396   5.160 -0.2081 -0.0908  1.9912
 4483SOL    HW224909   1.719   1.454   5.071  0.3092  0.7836  0.6203
 4484SOL     OW24910   2.707   2.626   8.330 -0.4207  0.2269  0.1492
 4484SOL    HW124911   2.788   2.593   8.291  0.0389 -0.1008  1.4019
 4484SOL    HW224912   2.697   2.718   8.306  0.7613 -0.1109 -1.6612
 4485SOL     OW24913   0.089   0.991   8.173 -0.2204 -0.2918 -0.3590
 4485SOL    HW124914   0.123   0.993   8.262 -3.5698  1.0715  0.8921
 4485SOL    HW224915   0.027   1.064   8.176 -1.7965 -1.6031 -0.7484
 4486SOL     OW24916   3.902   4.384   7.545  0.4286  0.5108  0.2214
 4486SOL    HW124917   3.908   4.478   7.563  1.3402  1.0192 -2.8072
 4486SOL    HW224918   3.937   4.356   7.630 -1.3330 -0.8614  0.4986
 4487SOL     OW24919   2.171   4.325  15.845  0.4239  0.3106 -0.3099
 4487SOL    HW124920   2.078   4.344  15.830 -0.2189 -2.9592 -0.3586
 4487SOL    HW224921   2.177   4.234  15.818 -1.1648  0.4851 -1.2302
 4488SOL     OW24922   3.679   1.876   8.856 -0.1865  0.1592  0.3077
 4488SOL    HW124923   3.732   1.821   8.798  0.3530 -0.3264  1.2485
 4488SOL    HW224924   3.595   1.831   8.851  0.0560  0.0168 -2.4776
 4489SOL     OW24925   0.438   2.883   4.642  0.2424  0.2134  0.0259
 4489SOL    HW124926   0.433   2.925   4.728  3.1158 -0.2145  0.4111
 4489SOL    HW224927   0.532   2.882   4.625 -0.0772 -1.0426 -1.7480
 4490SOL     OW24928   0.143   2.493   5.162 -0.1980 -0.0911 -0.0865
 4490SOL    HW124929   0.207   2.539   5.107  0.0066 -0.8241 -0.4649
 4490SOL    HW224930   0.195   2.469   5.238 -0.2334  0.1388  0.0093
 4491SOL     OW24931   1.239   1.149   5.560 -0.4051 -0.2592 -0.1993
 4491SOL    HW124932   1.313   1.102   5.523 -0.9918 -1.4199  0.0733
 4491SOL    HW224933   1.255   1.129   5.652 -1.6020 -0.3675 -0.0123
 4492SOL     OW24934   0.107   2.506   3.046  0.2328  0.1477 -0.2827
 4492SOL    HW124935   0.017   2.474   3.035  0.5568 -0.1097 -2.1890
 4492SOL    HW224936   0.115   2.510   3.141 -2.1544  0.7248 -0.0869
 4493SOL     OW24937   2.378   3.185   5.427 -0.1770  0.3083 -0.0909
 4493SOL    HW124938   2.448   3.120   5.422  0.2381  0.8975 -1.9751
 4493SOL    HW224939   2.422   3.264   5.395  0.6262 -0.5792 -1.1663
 4494SOL     OW24940   2.667   2.248   6.444 -0.1360  0.1544 -0.3446
 4494SOL    HW124941   2.731   2.181   6.469 -0.8286 -0.5634 -0.5021
 4494SOL    HW224942   2.731   2.318   6.433 -0.3545  0.3795 -0.1719
 4495SOL     OW24943   4.177   4.463  15.097  0.5463 -0.3959  0.0833
 4495SOL    HW124944   4.264   4.470  15.060  1.8236  2.3360  3.5071
 4495SOL    HW224945   4.131   4.422  15.024 -0.6425  0.3769  0.3879
 4496SOL     OW24946   2.188   0.471   3.438 -0.3667 -0.1588 -0.6167
 4496SOL    HW124947   2.277   0.504   3.420 -0.2580 -0.5395 -0.7731
 4496SOL    HW224948   2.178   0.419   3.358 -1.6348  1.6251 -1.6193
 4497SOL     OW24949   0.767   1.809   0.767 -0.5379 -0.0057  0.0330
 4497SOL    HW124950   0.737   1.720   0.779 -2.6013  1.1910  3.5325
 4497SOL    HW224951   0.772   1.808   0.671  0.1891 -2.3516  0.0961
 4498SOL     OW24952   3.039   3.366   0.132 -0.7187  0.4781 -0.5547
 4498SOL    HW124953   2.963   3.417   0.104 -0.5985  1.0297  0.1221
 4498SOL    HW224954   3.014   3.337   0.220 -1.0251 -3.2452 -1.8706
 4499SOL     OW24955   3.428   2.355   6.981 -0.0349  0.3848 -0.2371
 4499SOL    HW124956   3.397   2.264   6.985  1.1824 -0.0195 -0.0596
 4499SOL    HW224957   3.404   2.378   6.891  0.4051 -0.6682 -0.6329
 4500SOL     OW24958   2.184   4.474   2.217 -0.6718 -0.4954 -0.6452
 4500SOL    HW124959   2.181   4.459   2.122 -3.2447 -1.4127 -0.4234
 4500SOL    HW224960   2.170   4.383   2.243  1.8652 -0.7156 -0.0199
 4501SOL     OW24961   3.232   0.122  13.855 -0.2171  0.4209 -0.2515
 4501SOL    HW124962   3.300   0.181  13.890  0.1274  0.8830 -1.7022
 4501SOL    HW224963   3.153   0.177  13.858 -0.7022 -0.2217 -1.5183
 4502SOL     OW24964   0.440   0.301  12.615 -0.0288 -0.2670  0.3812
 4502SOL    HW124965   0.381   0.346  12.676  0.0333  1.0501 -0.5364
 4502SOL    HW224966   0.382   0.240  12.568 -2.1792 -0.2436  2.9960
 4503SOL     OW24967   3.468   4.252  17.637 -0.3722  0.5873  0.3620
 4503SOL    HW124968   3.429   4.337  17.657  1.0833  0.8290  2.1093
 4503SOL    HW224969   3.526   4.243   0.018 -0.4466  1.7082  0.5572
 4504SOL     OW24970   4.054   3.136  16.084 -0.2149  0.4977 -0.1923
 4504SOL    HW124971   3.978   3.142  16.141  0.4533  0.9319  0.6398
 4504SOL    HW224972   4.121   3.108  16.146 -0.2776 -0.0544 -0.3701
 4505SOL     OW24973   0.250   2.887   3.252 -0.0386 -0.4692 -0.1039
 4505SOL    HW124974   0.201   2.842   3.183 -2.0159 -1.4163  1.9189
 4505SOL    HW224975   0.237   2.981   3.239  2.4564 -0.1107  0.0007
 4506SOL     OW24976   1.493   1.139  16.579 -0.2061 -0.4947 -0.0299
 4506SOL    HW124977   1.513   1.131  16.672 -2.0440  0.0101  0.3992
 4506SOL    HW224978   1.500   1.235  16.573 -1.6878 -0.3818  0.0977
 4507SOL     OW24979   0.276   0.127   3.937  0.0515  0.1630 -0.4549
 4507SOL    HW124980   0.369   0.109   3.953  0.3205  1.1819 -0.8412
 4507SOL    HW224981   0.280   0.176   3.855 -1.3677  1.0128 -0.0257
 4508SOL     OW24982   1.889   4.680  13.308 -1.1296  0.4800  0.1578
 4508SOL    HW124983   1.903   0.007  13.228  3.2765 -0.5859  0.2614
 4508SOL    HW224984   1.815   0.001  13.351 -0.1435  1.9021  0.3781
 4509SOL     OW24985   3.912   0.973   7.558  0.1347  0.1073  0.1594
 4509SOL    HW124986   3.930   0.970   7.652  1.1942  0.9132 -0.0161
 4509SOL    HW224987   3.819   0.953   7.545  0.9452 -1.9861 -2.3324
 4510SOL     OW24988   3.796   2.101   5.452  0.0261  0.0627 -0.0250
 4510SOL    HW124989   3.780   2.041   5.379  0.5322 -0.7815  0.5555
 4510SOL    HW224990   3.869   2.055   5.494  0.4610  1.9087  1.2878
 4511SOL     OW24991   3.481   2.714   1.021 -0.1956 -0.4276 -0.0949
 4511SOL    HW124992   3.496   2.620   1.014  0.6376 -0.2578 -0.6341
 4511SOL    HW224993   3.544   2.734   0.951 -1.9147  2.0038 -0.9241
 4512SOL     OW24994   0.919   1.662   5.399 -0.0567  0.5967  0.4148
 4512SOL    HW124995   0.944   1.632   5.487 -3.0161  1.5307  1.5663
 4512SOL    HW224996   0.996   1.711   5.369 -1.1003  1.7506 -0.3526
 4513SOL     OW24997   1.841   2.355  12.615 -0.0703  0.8203 -0.1995
 4513SOL    HW124998   1.836   2.324  12.705  1.2976  2.8706  0.5962
 4513SOL    HW224999   1.847   2.451  12.624  0.0660  0.6282  1.7083
 4514SOL     OW25000   1.816   3.364   4.514 -0.0906  0.1422 -0.1637
 4514SOL    HW125001   1.904   3.402   4.523 -1.8379  4.1832  0.1770
 4514SOL    HW225002   1.761   3.439   4.536 -0.1381  0.9417 -2.9577
 4515SOL     OW25003   4.057   4.566  15.842 -0.3262  0.2465 -0.1218
 4515SOL    HW125004   4.095   4.489  15.883 -0.8475 -0.2956 -0.6433
 4515SOL    HW225005   4.083   4.554  15.751 -0.0563 -0.9356  0.1147
 4516SOL     OW25006   0.549   3.135  16.373  0.4538  0.4274  0.3381
 4516SOL    HW125007   0.473   3.132  16.316  1.5418 -1.5013 -1.0148
 4516SOL    HW225008   0.511   3.185  16.445 -0.2338  0.4485 -0.0367
 4517SOL     OW25009   1.151   3.674  11.851  0.0871  0.1460  0.1490
 4517SOL    HW125010   1.084   3.647  11.788 -1.6853  0.2943  1.9647
 4517SOL    HW225011   1.165   3.764  11.823  2.3274 -0.7403 -1.5885
 4518SOL     OW25012   1.800   0.692   5.146 -0.8649  0.4628 -1.0249
 4518SOL    HW125013   1.740   0.617   5.151 -0.3436  0.0098 -1.6370
 4518SOL    HW225014   1.843   0.690   5.232 -0.6319  0.6654 -1.1382
 4519SOL     OW25015   0.494   2.871  16.246 -0.3697 -0.1483 -0.0952
 4519SOL    HW125016   0.588   2.861  16.236 -0.6653 -1.0156 -2.0847
 4519SOL    HW225017   0.471   2.818  16.322  0.1940  1.5089  1.2175
 4520SOL     OW25018   4.073   1.438   9.031 -0.1150 -0.2106  0.1593
 4520SOL    HW125019   4.066   1.529   9.061  3.5101 -0.6214  2.3168
 4520SOL    HW225020   4.115   1.397   9.107 -0.1107 -0.4176  0.0470
 4521SOL     OW25021   1.483   0.559  16.919 -0.4161 -0.6564  0.0884
 4521SOL    HW125022   1.415   0.492  16.912  0.8636 -1.7163 -2.0566
 4521SOL    HW225023   1.545   0.527  16.985  0.2809 -0.6597 -0.5660
 4522SOL     OW25024   4.090   0.806   6.327  0.0180  0.5301  0.3790
 4522SOL    HW125025   4.076   0.820   6.420 -1.8420 -1.4079  0.4062
 4522SOL    HW225026   4.144   0.882   6.308 -0.1693  1.0280  1.8762
 4523SOL     OW25027   0.593   0.648   4.127  0.2922  0.3121 -0.0857
 4523SOL    HW125028   0.635   0.595   4.059  1.5317  1.6879 -0.3894
 4523SOL    HW225029   0.607   0.733   4.085 -0.6164 -0.2727 -1.5735
 4524SOL     OW25030   2.088   3.153   4.722 -0.3424  0.0429  0.5982
 4524SOL    HW125031   2.152   3.082   4.721 -0.6512 -0.2335  0.0471
 4524SOL    HW225032   2.124   3.208   4.791 -0.5374  0.8494  0.0620
 4525SOL     OW25033   4.443   0.653  10.610 -0.6162 -0.2134 -0.5098
 4525SOL    HW125034   4.512   0.622  10.669 -0.3133  1.0773 -0.1931
 4525SOL    HW225035   4.499   0.702  10.549  0.8626 -0.0023  1.0243
 4526SOL     OW25036   2.915   3.039   9.400  0.0362 -0.1834 -0.2799
 4526SOL    HW125037   2.995   2.996   9.371  0.5940 -1.1254  2.6523
 4526SOL    HW225038   2.953   3.116   9.443  1.0700 -1.2949  0.7884
 4527SOL     OW25039   4.691   2.522   9.914 -0.1673 -0.3918  0.3071
 4527SOL    HW125040   4.698   2.489   9.825 -2.3650  1.0334 -0.3954
 4527SOL    HW225041   4.718   2.613   9.901  3.3569 -1.3840  0.7509
 4528SOL     OW25042   2.469   1.594  12.454  0.3422 -0.0010 -0.5772
 4528SOL    HW125043   2.519   1.514  12.440 -1.3487 -0.9910 -0.8658
 4528SOL    HW225044   2.485   1.613  12.546  2.4572 -0.1169 -0.9138
 4529SOL     OW25045   2.006   3.028   7.790  0.1404  0.0391 -0.1493
 4529SOL    HW125046   1.919   3.005   7.824  0.2146 -0.2015 -0.1180
 4529SOL    HW225047   2.056   2.968   7.845 -1.1547 -2.0389 -1.2043
 4530SOL     OW25048   0.082   3.671   5.783  0.0357 -0.0301 -0.0027
 4530SOL    HW125049   0.048   3.634   5.701  0.5551 -0.5274  0.0087
 4530SOL    HW225050   0.016   3.644   5.847  0.1104  0.8722  0.4418
 4531SOL     OW25051   2.133   3.186   6.403 -0.0255 -0.4483  0.3497
 4531SOL    HW125052   2.075   3.244   6.354  1.1728 -0.7352 -1.4358
 4531SOL    HW225053   2.217   3.231   6.394  0.4171 -1.2870  0.2772
 4532SOL     OW25054   1.026   3.653   0.541 -0.2841 -0.2056  0.2943
 4532SOL    HW125055   0.957   3.677   0.603  1.3491  0.8149  1.7249
 4532SOL    HW225056   0.993   3.563   0.539  0.3462 -0.4804  1.8179
 4533SOL     OW25057   2.735   0.026  13.576 -0.2278  0.0703  0.4018
 4533SOL    HW125058   2.746   4.654  13.581  0.6275  0.0630 -1.4806
 4533SOL    HW225059   2.651   0.042  13.618 -1.2287  1.2278 -2.0326
 4534SOL     OW25060   2.691   4.109   9.806  0.3382 -0.2766 -0.1112
 4534SOL    HW125061   2.671   4.183   9.748 -0.1746 -1.3147 -1.2559
 4534SOL    HW225062   2.752   4.154   9.864 -2.6966  1.9276  1.3885
 4535SOL     OW25063   3.680   1.250   2.317 -0.1122 -0.3388  0.4029
 4535SOL    HW125064   3.676   1.332   2.365  1.7351  0.2972 -0.5188
 4535SOL    HW225065   3.696   1.190   2.390 -1.7835 -0.7972  0.3856
 4536SOL     OW25066   3.001   1.294  17.413  0.4623  0.3234  0.3984
 4536SOL    HW125067   2.953   1.274  17.333  0.6733 -0.0544  0.3647
 4536SOL    HW225068   3.027   1.205  17.440  0.0033 -0.0231 -0.3086
 4537SOL     OW25069   0.513   2.185   9.710 -0.4948  0.4336 -0.3944
 4537SOL    HW125070   0.454   2.204   9.784  0.2129  0.7106  0.1002
 4537SOL    HW225071   0.598   2.182   9.754 -0.3848 -0.9287 -0.6896
 4538SOL     OW25072   2.819   0.570   8.752 -0.1625  0.2532  0.0641
 4538SOL    HW125073   2.896   0.522   8.784 -1.1587 -1.1751  0.2967
 4538SOL    HW225074   2.762   0.575   8.829  0.6210 -1.3918  0.7583
 4539SOL     OW25075   1.639   2.666  14.448  0.8142 -0.0513 -0.9007
 4539SOL    HW125076   1.731   2.693  14.447  1.9213 -3.7974 -0.9226
 4539SOL    HW225077   1.603   2.755  14.454  0.8271 -0.0474 -0.8811
 4540SOL     OW25078   4.660   2.646   4.058 -0.1499 -0.4838 -0.3079
 4540SOL    HW125079   4.681   2.566   4.106 -1.7759 -0.3052  0.7182
 4540SOL    HW225080   0.021   2.659   4.015 -0.1276 -2.0064 -0.7353
 4541SOL     OW25081   2.756   3.126   3.523  0.6712 -0.2784  0.1679
 4541SOL    HW125082   2.743   3.174   3.441  0.7033 -3.1341 -1.5283
 4541SOL    HW225083   2.689   3.170   3.574 -0.1157 -2.3310  0.8914
 4542SOL     OW25084   2.408   1.853  13.683 -0.3918  0.7091 -0.4412
 4542SOL    HW125085   2.410   1.758  13.697  1.0342  0.5493 -1.7327
 4542SOL    HW225086   2.398   1.873  13.776 -1.3160  0.9297 -0.5880
 4543SOL     OW25087   3.831   2.153   6.079 -0.3872  0.5530 -0.0261
 4543SOL    HW125088   3.815   2.067   6.040 -0.0993  0.6262 -0.3099
 4543SOL    HW225089   3.806   2.137   6.170 -1.5169  2.6091  0.0417
 4544SOL     OW25090   2.898   0.463   2.159  0.7444 -0.3751  0.1792
 4544SOL    HW125091   2.955   0.493   2.089  1.9463 -0.1559  1.2572
 4544SOL    HW225092   2.915   0.530   2.225  0.7418 -1.1853  1.0014
 4545SOL     OW25093   2.124   1.646  10.777 -0.1820  0.0990 -0.5094
 4545SOL    HW125094   2.149   1.673  10.865 -1.9142  2.0409 -0.6137
 4545SOL    HW225095   2.031   1.668  10.768 -0.2168  0.2387  0.1749
 4546SOL     OW25096   2.245   0.462   6.528 -0.0349 -0.0544 -0.6337
 4546SOL    HW125097   2.158   0.464   6.567  1.3033 -0.2346  2.3452
 4546SOL    HW225098   2.219   0.424   6.444  0.5341 -0.0112 -0.8337
 4547SOL     OW25099   2.365   2.868   9.677  0.1478 -0.2294  0.4958
 4547SOL    HW125100   2.365   2.856   9.582 -4.1313 -1.0458  0.5796
 4547SOL    HW225101   2.334   2.958   9.688  0.2597 -0.1885  0.4793
 4548SOL     OW25102   2.806   1.766   9.765  0.1587 -0.6470  0.2543
 4548SOL    HW125103   2.814   1.742   9.672  1.6398 -0.9308  0.4480
 4548SOL    HW225104   2.739   1.834   9.759  0.5352 -0.2840  0.1478
 4549SOL     OW25105   3.569   0.603   3.933  0.1048 -0.0427  0.2521
 4549SOL    HW125106   3.624   0.622   3.857  0.5567 -3.1740 -0.2147
 4549SOL    HW225107   3.479   0.625   3.909 -0.5090 -2.1891  0.5886
 4550SOL     OW25108   1.897   3.690  10.200  0.1970  0.3426 -0.2672
 4550SOL    HW125109   1.947   3.723  10.126  0.5816  0.9415  0.2568
 4550SOL    HW225110   1.901   3.596  10.187 -0.0794  0.2363  0.4039
 4551SOL     OW25111   0.050   3.881   0.124  0.2104  0.4400 -0.1938
 4551SOL    HW125112   0.103   3.961   0.122  0.2424  0.4631  2.2181
 4551SOL    HW225113   4.689   3.904   0.086  0.2113  0.3739 -0.2373
 4552SOL     OW25114   1.429   2.299   3.766 -0.6494  0.2794  0.7451
 4552SOL    HW125115   1.502   2.241   3.785 -1.3483 -1.1667 -1.0888
 4552SOL    HW225116   1.375   2.238   3.716  1.8456 -0.6067 -0.8346
 4553SOL     OW25117   3.892   2.644  13.747 -0.3238 -0.0201  0.6016
 4553SOL    HW125118   3.866   2.660  13.656  1.8685 -0.2275 -0.0511
 4553SOL    HW225119   3.809   2.665  13.790 -0.9757 -0.3961 -0.4724
 4554SOL     OW25120   0.327   3.288  15.943  0.2673 -0.0900 -0.0755
 4554SOL    HW125121   0.356   3.198  15.927 -2.8531 -1.5849  2.6304
 4554SOL    HW225122   0.271   3.308  15.868 -0.7833  0.8921  0.9729
 4555SOL     OW25123   0.362   1.438   4.827  0.5582  0.9382 -0.6042
 4555SOL    HW125124   0.351   1.354   4.783 -0.8540  0.3665  0.8689
 4555SOL    HW225125   0.358   1.503   4.756  0.5465  3.1797  1.4581
 4556SOL     OW25126   4.611   2.387   7.284 -0.3413 -0.2132 -0.0188
 4556SOL    HW125127   4.638   2.357   7.371 -0.9402  1.7317  0.8268
 4556SOL    HW225128   4.558   2.464   7.305 -0.8444 -0.6915  0.4911
 4557SOL     OW25129   1.170   2.929  15.511 -0.1884  0.7003  0.1984
 4557SOL    HW125130   1.184   2.844  15.469 -0.5612  1.9925 -2.5601
 4557SOL    HW225131   1.176   2.916  15.606  1.2493  1.0985  0.1715
 4558SOL     OW25132   0.656   3.785   6.965 -0.6564 -0.4065 -0.1901
 4558SOL    HW125133   0.671   3.855   7.029 -0.2871 -1.2404  0.6461
 4558SOL    HW225134   0.744   3.775   6.930 -0.8263  0.3359 -0.8146
 4559SOL     OW25135   2.487   0.342   6.564 -0.0616 -0.3632  0.3496
 4559SOL    HW125136   2.409   0.396   6.555 -0.9047 -1.1236  2.9960
 4559SOL    HW225137   2.476   0.327   6.658  1.0572  2.1279  0.8572
 4560SOL     OW25138   2.063   0.918   8.120 -0.0359  0.4730  0.1876
 4560SOL    HW125139   2.010   0.854   8.072  0.7374 -0.7833  1.0146
 4560SOL    HW225140   2.149   0.880   8.106 -0.3439 -0.1724  0.0753
 4561SOL     OW25141   3.691   0.702   4.459 -0.2170  0.0707 -0.4083
 4561SOL    HW125142   3.622   0.682   4.396  1.4510 -0.4752 -2.0699
 4561SOL    HW225143   3.703   0.795   4.437  0.5098 -0.0022 -0.3301
 4562SOL     OW25144   4.071   0.899   1.759  0.3323 -0.0587 -0.1509
 4562SOL    HW125145   4.030   0.843   1.693  0.8722 -1.3747  0.6183
 4562SOL    HW225146   4.000   0.956   1.789  0.7498  0.5099 -0.2495
 4563SOL     OW25147   3.481   4.120   8.747  0.0658 -0.2621  0.1883
 4563SOL    HW125148   3.507   4.112   8.839 -0.7580 -1.8266  0.2663
 4563SOL    HW225149   3.557   4.160   8.704  0.1950  0.5118  1.1180
 4564SOL     OW25150   3.466   0.859  10.316  0.3191 -0.1458  0.1532
 4564SOL    HW125151   3.528   0.811  10.369 -0.6868 -2.2943 -0.6263
 4564SOL    HW225152   3.523   0.880  10.241  1.3458 -2.8737  0.1662
 4565SOL     OW25153   2.700   1.578   4.624 -0.5453  0.3650 -0.1677
 4565SOL    HW125154   2.680   1.647   4.560  1.3474 -0.3390 -1.5045
 4565SOL    HW225155   2.784   1.607   4.660 -0.0453 -1.6477  0.2730
 4566SOL     OW25156   2.785   3.354  10.032 -0.2044 -0.1481 -0.0630
 4566SOL    HW125157   2.767   3.435   9.984 -1.5062  0.5038  1.5033
 4566SOL    HW225158   2.873   3.330  10.004 -0.5701 -0.7553 -0.6898
 4567SOL     OW25159   3.991   1.952   5.546 -0.2347  0.1921  0.2526
 4567SOL    HW125160   4.042   1.926   5.470  0.4303  1.8573  0.1201
 4567SOL    HW225161   4.063   1.964   5.608 -0.8193  1.5030  0.6799
 4568SOL     OW25162   3.929   0.067  15.349  0.5670  0.3666  0.3766
 4568SOL    HW125163   3.922   4.706  15.304 -0.0625  0.3721  0.4626
 4568SOL    HW225164   4.023   0.083  15.337  0.5810 -0.9525 -1.2131
 4569SOL     OW25165   0.048   0.079  17.102 -0.0785 -0.5419  0.0936
 4569SOL    HW125166   0.045   0.018  17.176  1.3995 -0.7997 -0.0509
 4569SOL    HW225167   0.081   0.026  17.030 -2.2171  0.1166 -1.3672
 4570SOL     OW25168   0.138   2.653   7.718  1.3446 -0.5135  0.1182
 4570SOL    HW125169   0.071   2.664   7.786 -0.2159  1.2835 -1.7333
 4570SOL    HW225170   0.095   2.668   7.634 -0.3325  1.1869  1.2716
 4571SOL     OW25171   3.849   3.287   4.866  0.2890  0.0479  0.2531
 4571SOL    HW125172   3.841   3.380   4.848  2.2403 -0.3616 -2.7667
 4571SOL    HW225173   3.878   3.248   4.783 -2.3012 -1.9801  0.2953
 4572SOL     OW25174   0.113   2.679  15.189 -0.3681  0.1060 -0.4349
 4572SOL    HW125175   0.131   2.730  15.110 -1.2830  0.8166 -0.1829
 4572SOL    HW225176   0.066   2.743  15.242 -0.2032  0.5559 -0.8293
 4573SOL     OW25177   0.227   4.685  14.960 -0.4497 -0.7849 -0.7641
 4573SOL    HW125178   0.311   4.710  14.999 -0.7047  0.3969 -0.9601
 4573SOL    HW225179   0.187   0.048  14.953  0.1210 -0.5362 -1.0318
 4574SOL     OW25180   4.645   2.058   9.192 -0.0254 -0.2172  0.3490
 4574SOL    HW125181   0.004   2.068   9.239  0.0171 -0.4181  0.3193
 4574SOL    HW225182   4.670   1.991   9.128  1.8050  0.4323  0.3799
 4575SOL     OW25183   1.166   2.601   1.207  0.4197  0.5195 -0.3429
 4575SOL    HW125184   1.190   2.675   1.152  0.4838  2.4193  2.2572
 4575SOL    HW225185   1.240   2.542   1.195  0.1202  0.1666 -0.4566
 4576SOL     OW25186   0.530   0.712  13.858 -0.0979 -0.0916 -0.2486
 4576SOL    HW125187   0.498   0.752  13.939  1.4224  1.0933 -0.2420
 4576SOL    HW225188   0.598   0.770  13.825 -0.3238 -0.5853 -1.5824
 4577SOL     OW25189   3.687   1.257  10.878  0.3809 -0.5610  0.2876
 4577SOL    HW125190   3.707   1.322  10.810 -1.4359  1.8189  2.0466
 4577SOL    HW225191   3.705   1.313  10.954 -0.9365 -0.8238  0.7896
 4578SOL     OW25192   0.590   2.205   2.263  0.1732  0.2436  0.7670
 4578SOL    HW125193   0.624   2.214   2.174 -2.2872 -2.6483 -0.4644
 4578SOL    HW225194   0.646   2.143   2.310 -1.0758  1.3777  3.8096
 4579SOL     OW25195   2.166   0.588   7.258  0.0674 -0.0391  0.9514
 4579SOL    HW125196   2.091   0.637   7.289  0.0412  0.2571  0.4178
 4579SOL    HW225197   2.241   0.638   7.292  0.8907 -1.4643  1.2188
 4580SOL     OW25198   3.151   4.706   7.554  0.7014  0.3064 -0.1576
 4580SOL    HW125199   3.085   0.024   7.498 -0.6586  1.7296  2.4714
 4580SOL    HW225200   3.097   4.649   7.609 -0.1316  0.6938 -0.5727
 4581SOL     OW25201   4.114   1.434  16.756 -0.1485 -0.5129  0.6605
 4581SOL    HW125202   4.168   1.392  16.823  0.9339  0.1248  0.1846
 4581SOL    HW225203   4.181   1.494  16.725 -1.3659  0.6620  0.2854
 4582SOL     OW25204   3.600   2.835   1.999  0.1810 -0.2700 -0.0707
 4582SOL    HW125205   3.664   2.770   2.028 -0.8858 -1.6347 -0.7652
 4582SOL    HW225206   3.584   2.809   1.909 -1.1578  0.6298 -0.1030
 4583SOL     OW25207   3.637   0.840   2.536 -0.4091  0.3245  0.2317
 4583SOL    HW125208   3.605   0.822   2.447 -2.3740  0.3562  0.9235
 4583SOL    HW225209   3.694   0.766   2.552  1.1732  1.3548 -0.5649
 4584SOL     OW25210   3.220   1.117  12.834  0.6561  0.4120 -0.2130
 4584SOL    HW125211   3.137   1.162  12.819  1.0444  1.1498 -0.1818
 4584SOL    HW225212   3.217   1.050  12.766  1.1557  1.1647 -0.9761
 4585SOL     OW25213   1.909   3.472  11.908 -0.8610 -0.0319  0.1002
 4585SOL    HW125214   1.875   3.505  11.991  0.1764  0.5689  0.2916
 4585SOL    HW225215   1.991   3.522  11.904 -2.2833  2.2847 -0.4360
 4586SOL     OW25216   0.608   3.675   9.909 -0.4434 -0.6395 -0.5856
 4586SOL    HW125217   0.610   3.730   9.987  3.0681 -0.4578 -0.7850
 4586SOL    HW225218   0.586   3.587   9.940 -3.9144 -0.0180 -1.2493
 4587SOL     OW25219   2.219   4.092   3.035 -0.3680 -0.4718  0.4313
 4587SOL    HW125220   2.217   4.051   2.948 -2.7248  0.1554  0.1916
 4587SOL    HW225221   2.288   4.043   3.080  1.3128  0.8764 -0.6230
 4588SOL     OW25222   2.128   0.462   4.265  0.2618  0.5532 -0.1518
 4588SOL    HW125223   2.124   0.527   4.194  2.4529  2.6727  1.6902
 4588SOL    HW225224   2.139   0.382   4.213  0.5883  0.1087  0.6058
 4589SOL     OW25225   4.410   2.889   9.103  0.4729 -0.1824  0.3151
 4589SOL    HW125226   4.501   2.871   9.078  1.4116  3.2850  1.2635
 4589SOL    HW225227   4.430   2.949   9.174  0.0653  0.4855 -0.1379
 4590SOL     OW25228   3.298   0.612   2.823 -0.1188 -0.4139 -0.7319
 4590SOL    HW125229   3.365   0.545   2.835  2.2303  2.2142  0.8192
 4590SOL    HW225230   3.327   0.682   2.765 -1.5296  0.3712 -0.4865
 4591SOL     OW25231   1.029   4.151  10.197  0.3930 -0.1130 -0.5182
 4591SOL    HW125232   1.094   4.086  10.225 -0.0758  0.1588  1.1590
 4591SOL    HW225233   0.976   4.154  10.276  0.5493 -0.7711 -0.3884
 4592SOL     OW25234   1.401   2.198   8.090 -0.0710 -0.3619  0.8076
 4592SOL    HW125235   1.429   2.156   8.172  0.4891 -0.3353  0.6279
 4592SOL    HW225236   1.305   2.197   8.099 -0.1482  0.3158  0.0529
 4593SOL     OW25237   3.348   1.646   7.695  0.3940  0.1464  0.7066
 4593SOL    HW125238   3.294   1.603   7.762 -0.0165 -0.6477 -0.1279
 4593SOL    HW225239   3.439   1.625   7.714 -0.1696 -1.6545  1.4483
 4594SOL     OW25240   0.399   0.940   5.954 -0.1502  0.1199  0.4469
 4594SOL    HW125241   0.376   0.931   6.046 -1.0213 -1.0418  0.1144
 4594SOL    HW225242   0.379   0.849   5.931  1.1322 -0.1981  0.5693
 4595SOL     OW25243   1.524   0.251   4.013 -0.9287  0.7418  0.6144
 4595SOL    HW125244   1.437   0.214   4.028  0.1557 -1.6889  0.8206
 4595SOL    HW225245   1.535   0.246   3.918 -1.0230 -1.2433  0.6995
 4596SOL     OW25246   4.345   3.616   1.723 -0.3880  0.2153  0.2192
 4596SOL    HW125247   4.404   3.584   1.655 -0.1215 -0.9847  1.0075
 4596SOL    HW225248   4.341   3.709   1.698  1.3672  0.4447  0.7760
 4597SOL     OW25249   3.091   2.316   2.466 -0.4277 -0.0012  0.2349
 4597SOL    HW125250   3.033   2.314   2.542 -0.7872 -0.3885 -0.0435
 4597SOL    HW225251   3.043   2.388   2.427  0.8014 -0.6149 -2.3847
 4598SOL     OW25252   1.438   3.193   3.821 -0.2761 -0.0887  0.2219
 4598SOL    HW125253   1.518   3.216   3.868 -2.1582  0.7552  3.0273
 4598SOL    HW225254   1.445   3.242   3.740  0.2019 -0.6767 -0.0918
 4599SOL     OW25255   1.117   3.397  10.648 -0.0388  0.3846  0.6022
 4599SOL    HW125256   1.099   3.456  10.722 -1.3428 -0.4012  0.9182
 4599SOL    HW225257   1.115   3.313  10.694  1.0257  0.3920  0.6455
 4600SOL     OW25258   0.390   1.311   3.712  0.1606 -0.2021 -0.6934
 4600SOL    HW125259   0.365   1.364   3.637 -0.2529  1.0629  0.3408
 4600SOL    HW225260   0.378   1.369   3.787  0.7400 -1.1355  0.1382
 4601SOL     OW25261   0.027   2.170  16.375  0.1564 -0.5357 -0.1888
 4601SOL    HW125262   4.696   2.183  16.297  0.9936  1.5250 -0.4288
 4601SOL    HW225263   0.024   2.255  16.420 -1.3059 -0.9504  0.4957
 4602SOL     OW25264   3.540   2.229   1.889 -0.2227 -0.2644  0.3232
 4602SOL    HW125265   3.583   2.300   1.937  0.0049  0.4796 -0.9775
 4602SOL    HW225266   3.551   2.160   1.955 -0.8655 -1.4295 -0.7959
 4603SOL     OW25267   4.365   4.366   4.485  0.3724  0.1049  0.3559
 4603SOL    HW125268   4.432   4.405   4.541  0.0626  2.4164 -0.8733
 4603SOL    HW225269   4.411   4.323   4.413  1.6003  4.2012 -1.3423
 4604SOL     OW25270   4.472   2.622   5.322 -0.1881  0.4874  0.7826
 4604SOL    HW125271   4.478   2.581   5.409  0.8068  0.7481  0.8357
 4604SOL    HW225272   4.517   2.706   5.332 -1.2077  1.0887  0.2719
 4605SOL     OW25273   4.468   4.043   9.046 -0.1727  0.3171 -0.4553
 4605SOL    HW125274   4.465   4.124   8.995 -1.5474  1.4815  1.4873
 4605SOL    HW225275   4.553   4.053   9.089  0.0300  0.3572 -0.8614
 4606SOL     OW25276   0.673   4.650   4.482  0.2878  0.7357  0.2876
 4606SOL    HW125277   0.757   4.665   4.438 -0.3151  1.5220 -0.6018
 4606SOL    HW225278   0.612   4.713   4.444 -1.1893 -1.1125 -0.3739
 4607SOL     OW25279   3.482   2.091  15.392  0.2690 -0.2443  0.4494
 4607SOL    HW125280   3.489   2.185  15.382 -1.9463 -0.0040  1.0956
 4607SOL    HW225281   3.386   2.090  15.393  0.2411  1.1722 -1.2645
 4608SOL     OW25282   2.561   1.651   3.226  0.0648  0.5067 -0.1953
 4608SOL    HW125283   2.599   1.692   3.148  2.3750  2.0868  1.7841
 4608SOL    HW225284   2.483   1.607   3.193 -0.6840  0.5526  1.5097
 4609SOL     OW25285   2.147   1.852   2.119  0.4718  0.2626  0.1082
 4609SOL    HW125286   2.137   1.810   2.204 -1.5676  3.9377  1.7177
 4609SOL    HW225287   2.057   1.881   2.101  0.4316 -0.2362 -0.5040
 4610SOL     OW25288   3.056   2.584   4.173  0.0767  0.0914 -0.1387
 4610SOL    HW125289   2.965   2.604   4.197 -0.0764  0.8230 -1.3125
 4610SOL    HW225290   3.069   2.648   4.103  4.1744 -1.4473 -0.7917
 4611SOL     OW25291   1.752   4.489   2.697  0.0388 -0.1118  0.4371
 4611SOL    HW125292   1.793   4.404   2.713  1.1056  0.6292  1.6442
 4611SOL    HW225293   1.808   4.517   2.625 -1.1492  2.2705  0.4185
 4612SOL     OW25294   4.132   2.147   0.738  0.3233 -0.5299 -0.0857
 4612SOL    HW125295   4.224   2.154   0.762  1.0229 -2.7384 -2.1256
 4612SOL    HW225296   4.100   2.231   0.770  3.9670  0.2009  1.6704
 4613SOL     OW25297   0.929   0.677   7.226  0.1615 -0.0629 -0.4060
 4613SOL    HW125298   1.018   0.712   7.220 -0.5746  2.0740  0.9997
 4613SOL    HW225299   0.923   0.623   7.147 -0.2132  0.6419 -0.8563
 4614SOL     OW25300   2.457   3.235   2.859 -0.1696 -0.0752  0.2625
 4614SOL    HW125301   2.487   3.304   2.918 -0.6471  0.1450  0.2435
 4614SOL    HW225302   2.537   3.194   2.826  0.1731  1.2639 -0.5583
 4615SOL     OW25303   1.742   3.874   8.621  0.3653 -0.0546 -0.6168
 4615SOL    HW125304   1.826   3.828   8.621  0.5153  0.2312 -0.1407
 4615SOL    HW225305   1.719   3.914   8.537  1.4550  1.0261 -0.4003
 4616SOL     OW25306   1.492   2.633   9.982 -0.0839  0.4428 -0.0664
 4616SOL    HW125307   1.400   2.607   9.976 -0.0357  0.3786 -0.5489
 4616SOL    HW225308   1.536   2.566   9.929  1.0753  0.0937  1.3440
 4617SOL     OW25309   2.870   1.142   1.931  0.1037  0.3819  0.0278
 4617SOL    HW125310   2.945   1.166   1.986 -0.3305  0.6834  0.4892
 4617SOL    HW225311   2.903   1.158   1.843 -1.4727 -3.1671 -1.1933
 4618SOL     OW25312   2.000   2.759   3.411  0.3166 -0.1559  0.1053
 4618SOL    HW125313   2.014   2.801   3.496  3.3917  1.0602 -1.0439
 4618SOL    HW225314   1.984   2.669   3.440  0.1148  0.7705  2.8929
 4619SOL     OW25315   0.921   0.779   3.150  0.1888  0.0761 -0.1083
 4619SOL    HW125316   1.003   0.745   3.114 -0.3431  0.4062 -1.6301
 4619SOL    HW225317   0.872   0.787   3.069 -0.6581 -3.9211  0.0250
 4620SOL     OW25318   4.630   1.930   2.514  0.2275 -0.4040  0.0628
 4620SOL    HW125319   4.675   2.012   2.494  1.2178 -1.0882 -0.4895
 4620SOL    HW225320   4.692   1.868   2.478 -0.8122 -0.8934 -0.8784
 4621SOL     OW25321   0.343   3.473   6.366  0.3020 -0.0084  0.3678
 4621SOL    HW125322   0.339   3.385   6.402  0.2624 -0.0910  0.1661
 4621SOL    HW225323   0.432   3.495   6.394 -0.3285  2.3312  0.5720
 4622SOL     OW25324   4.380   4.699  10.576 -0.1395 -0.8019 -0.2155
 4622SOL    HW125325   4.292   4.693  10.541 -0.3821 -1.8189  0.5791
 4622SOL    HW225326   4.418   0.052  10.532 -1.2983  1.0369  1.9332
 4623SOL     OW25327   3.158   1.110  13.595  0.0763 -0.0373  0.8040
 4623SOL    HW125328   3.139   1.180  13.533  2.4678 -1.2571 -1.3013
 4623SOL    HW225329   3.249   1.085  13.580  0.7259  3.8953 -1.6555
 4624SOL     OW25330   4.380   1.015   3.974  0.5336 -0.4623 -0.0069
 4624SOL    HW125331   4.331   1.066   3.910 -0.8172 -1.5643  0.1496
 4624SOL    HW225332   4.460   1.067   3.971  1.3548 -1.7587 -0.9662
 4625SOL     OW25333   1.253   2.255  15.299 -0.4713  0.3160  0.2739
 4625SOL    HW125334   1.329   2.226  15.350 -0.6065 -1.1434 -0.3634
 4625SOL    HW225335   1.212   2.312  15.364  1.7455  2.2944 -0.0501
 4626SOL     OW25336   1.966   3.381  15.317  0.0839  0.0386  0.3349
 4626SOL    HW125337   1.938   3.299  15.276 -0.9989  0.6925 -0.2394
 4626SOL    HW225338   1.972   3.351  15.408 -1.0204  0.7677  0.6453
 4627SOL     OW25339   2.079   0.384   8.591 -0.1143  0.2803 -0.2723
 4627SOL    HW125340   2.157   0.434   8.568  0.9332 -1.5123 -0.6856
 4627SOL    HW225341   2.124   0.299   8.598 -1.6823 -0.4804  0.4989
 4628SOL     OW25342   3.341   0.861   8.050 -0.2499 -0.7129 -0.1072
 4628SOL    HW125343   3.347   0.802   7.975  0.1356  2.7076 -2.8116
 4628SOL    HW225344   3.426   0.860   8.093 -1.3035  1.1340  2.0611
 4629SOL     OW25345   2.646   4.099   8.332  0.0388  0.1865 -0.4267
 4629SOL    HW125346   2.658   4.069   8.242 -1.3724 -0.2658 -0.4689
 4629SOL    HW225347   2.673   4.022   8.383  2.3957  1.1883 -0.1559
 4630SOL     OW25348   1.058   0.613   0.878 -0.7583 -0.0548  1.0272
 4630SOL    HW125349   1.116   0.595   0.804 -0.7459  2.2080  0.4818
 4630SOL    HW225350   0.973   0.598   0.837 -1.4207 -0.5756  2.5778
 4631SOL     OW25351   0.096   2.354   5.558 -0.5455 -0.5690  0.0243
 4631SOL    HW125352   0.127   2.346   5.649 -0.9560  0.4709  0.2600
 4631SOL    HW225353   0.178   2.345   5.510 -0.5677 -2.0349  0.2612
 4632SOL     OW25354   0.606   4.121   6.095  0.0854 -0.0454 -0.1600
 4632SOL    HW125355   0.593   4.098   6.187  0.4138  1.1629  0.1996
 4632SOL    HW225356   0.663   4.197   6.109  0.2264 -0.2162  0.1884
 4633SOL     OW25357   2.989   4.693   3.602 -0.0434  0.1777  0.0910
 4633SOL    HW125358   3.039   0.033   3.654  1.1467 -1.2875  0.7239
 4633SOL    HW225359   2.992   4.617   3.660 -0.1778  0.3734  0.3541
 4634SOL     OW25360   3.845   2.606   0.735 -0.0201 -0.2465 -0.3656
 4634SOL    HW125361   3.785   2.573   0.668 -0.1084  1.6852 -1.2532
 4634SOL    HW225362   3.783   2.668   0.775  0.8126  0.5178 -0.2681
 4635SOL     OW25363   0.463   4.526   8.239 -0.3049 -0.6824  0.3825
 4635SOL    HW125364   0.516   4.452   8.270  1.5683  0.4888  0.0020
 4635SOL    HW225365   0.489   4.599   8.295  0.6083  0.0306 -0.9804
 4636SOL     OW25366   1.779   2.689   2.125  0.1191  0.0989 -0.3570
 4636SOL    HW125367   1.843   2.712   2.193 -0.3721 -1.0953  0.5228
 4636SOL    HW225368   1.834   2.701   2.048  0.4282  0.6887 -0.0437
 4637SOL     OW25369   2.082   3.414   3.246  0.1406  0.1598  1.0726
 4637SOL    HW125370   2.019   3.451   3.308  0.3176  1.2693  0.5707
 4637SOL    HW225371   2.138   3.487   3.223 -1.0125  0.4543 -0.8105
 4638SOL     OW25372   1.869   3.160  15.184  0.3791 -0.1815 -0.4008
 4638SOL    HW125373   1.783   3.170  15.143 -0.2178  1.8545  1.3448
 4638SOL    HW225374   1.885   3.075  15.142  0.5439 -0.0386 -0.6268
 4639SOL     OW25375   3.165   1.151   8.673  0.1594 -0.2125  0.4896
 4639SOL    HW125376   3.131   1.079   8.726  0.0541 -0.1823  0.4619
 4639SOL    HW225377   3.235   1.107   8.625  0.8807  2.2485 -0.7167
 4640SOL     OW25378   4.490   3.554   1.512 -0.7439 -0.2403 -0.2534
 4640SOL    HW125379   4.577   3.548   1.471 -0.5627 -0.0423  0.0978
 4640SOL    HW225380   4.443   3.503   1.446 -0.7582  0.6922 -0.9612
 4641SOL     OW25381   2.452   1.644   5.697 -0.3058 -0.6042  0.6907
 4641SOL    HW125382   2.413   1.562   5.669  0.4575 -0.9610  0.6726
 4641SOL    HW225383   2.489   1.626   5.784 -0.3132 -1.3960  0.5261
 4642SOL     OW25384   1.543   0.287   8.369  0.0070 -0.5903  0.0152
 4642SOL    HW125385   1.513   0.203   8.405 -0.9922 -0.5879 -0.8194
 4642SOL    HW225386   1.630   0.300   8.406  0.5986 -0.5123 -1.4120
 4643SOL     OW25387   2.228   4.232  13.133 -0.3082 -0.3937 -0.0636
 4643SOL    HW125388   2.259   4.145  13.158 -1.9063 -0.3690  2.0019
 4643SOL    HW225389   2.311   4.279  13.128 -0.3904 -0.3052 -0.5929
 4644SOL     OW25390   1.541   1.681   4.628  0.0270 -0.6767  0.6297
 4644SOL    HW125391   1.481   1.742   4.671  1.1296  0.0385  1.1517
 4644SOL    HW225392   1.623   1.729   4.613 -0.5991  0.6249  1.3064
 4645SOL     OW25393   0.169   0.494  12.160 -0.4348  0.0656  0.0861
 4645SOL    HW125394   0.203   0.491  12.250  0.1339 -0.0346 -0.1323
 4645SOL    HW225395   0.081   0.473  12.191 -1.7003  4.4415 -0.5021
 4646SOL     OW25396   1.351   3.434   2.756 -0.3771  0.2757 -0.2313
 4646SOL    HW125397   1.257   3.413   2.749  0.2512 -2.4415 -0.5900
 4646SOL    HW225398   1.363   3.391   2.840 -2.1483  0.0142 -0.1158
 4647SOL     OW25399   2.643   1.541   9.758  0.3902 -0.0952  0.5309
 4647SOL    HW125400   2.724   1.490   9.767 -0.8435 -2.2261 -0.5765
 4647SOL    HW225401   2.671   1.633   9.762 -0.8548  0.3179 -0.1419
 4648SOL     OW25402   0.867   4.049  14.960  0.7095 -0.7262 -0.1255
 4648SOL    HW125403   0.942   4.106  14.944  0.8742 -0.6862  0.8293
 4648SOL    HW225404   0.894   3.983  15.023 -0.9994 -0.9630  0.3712
 4649SOL     OW25405   1.411   1.964   7.878 -0.1933  0.1509  0.5219
 4649SOL    HW125406   1.366   1.997   7.800 -0.1183 -2.6839 -0.7268
 4649SOL    HW225407   1.422   2.040   7.935 -1.1077  0.3044  0.4914
 4650SOL     OW25408   0.914   2.403   4.819 -0.0283  0.4599  0.1670
 4650SOL    HW125409   0.925   2.356   4.901  0.5462 -2.1926 -1.4073
 4650SOL    HW225410   0.872   2.331   4.771  2.1678  0.5380 -1.9027
 4651SOL     OW25411   1.153   3.502   3.861 -0.2121  0.1754 -0.1367
 4651SOL    HW125412   1.062   3.473   3.857 -0.6928  1.6377 -0.0796
 4651SOL    HW225413   1.171   3.542   3.775  3.9730  0.9417  1.1205
 4652SOL     OW25414   0.190   0.379   9.124  0.3459  0.2779  0.1859
 4652SOL    HW125415   0.152   0.325   9.193  0.6909  1.1167  1.0362
 4652SOL    HW225416   0.278   0.340   9.126 -0.6898 -2.0926 -0.2009
 4653SOL     OW25417   2.313   0.786   5.683 -0.5915 -0.1139  0.2673
 4653SOL    HW125418   2.237   0.798   5.627 -1.7121 -0.2102  1.7592
 4653SOL    HW225419   2.333   0.694   5.665 -2.1207 -0.5929  1.0025
 4654SOL     OW25420   0.195   1.748   9.178 -0.5225 -0.1816  0.3527
 4654SOL    HW125421   0.110   1.774   9.212 -0.2526 -0.2209  1.0574
 4654SOL    HW225422   0.172   1.660   9.150  0.4696  0.1072 -1.3787
 4655SOL     OW25423   0.053   0.310   7.975 -0.3699 -0.2607 -0.3918
 4655SOL    HW125424   0.001   0.377   8.020 -2.0824 -2.3135  0.6335
 4655SOL    HW225425   0.141   0.345   7.986 -0.3472 -0.7403  0.9073
 4656SOL     OW25426   2.886   0.856   0.608  0.9162  0.4528  0.3673
 4656SOL    HW125427   2.849   0.812   0.684  2.0075 -2.5224 -0.8283
 4656SOL    HW225428   2.813   0.843   0.547  0.9237  1.8607  0.0513
 4657SOL     OW25429   4.432   3.967   4.759 -0.1207  0.3290 -0.8147
 4657SOL    HW125430   4.478   3.997   4.680  1.0958 -0.7683 -0.5434
 4657SOL    HW225431   4.403   4.057   4.771  0.7391  0.6534 -1.1280
 4658SOL     OW25432   1.786   2.749   5.083  0.0258  0.0185  0.2049
 4658SOL    HW125433   1.779   2.779   4.993 -0.6069 -0.7699 -0.0092
 4658SOL    HW225434   1.869   2.790   5.107  0.3021 -0.7609  0.5872
 4659SOL     OW25435   1.083   4.188  14.876 -0.2826  0.5784 -0.2474
 4659SOL    HW125436   1.078   4.181  14.780 -1.0829  4.2091 -0.4919
 4659SOL    HW225437   1.139   4.266  14.880 -0.0344  0.3083  1.6353
 4660SOL     OW25438   3.203   1.875  14.926 -0.2283  0.6097  0.4443
 4660SOL    HW125439   3.140   1.937  14.964 -0.5324  0.2104  0.5936
 4660SOL    HW225440   3.168   1.787  14.943  2.5869 -0.5003  0.5425
 4661SOL     OW25441   3.316   0.054   6.139  0.0613 -0.3322 -0.0236
 4661SOL    HW125442   3.358   4.706   6.188  3.0881  1.1856 -0.3855
 4661SOL    HW225443   3.237   0.074   6.187 -1.0487 -3.4113 -0.5530
 4662SOL     OW25444   4.149   3.228   5.780  0.0565 -0.1043  0.1240
 4662SOL    HW125445   4.165   3.155   5.720 -0.6505  1.2265 -1.6915
 4662SOL    HW225446   4.057   3.239   5.756  0.0947  0.4962  0.2554
 4663SOL     OW25447   0.562   4.623   7.198 -0.0770 -0.3382 -0.2306
 4663SOL    HW125448   0.530   4.598   7.284  1.4806  0.0562  0.4631
 4663SOL    HW225449   0.647   4.662   7.217  0.0805 -0.0692 -1.4497
 4664SOL     OW25450   0.835   2.133  12.991 -0.3092 -0.7111 -0.4900
 4664SOL    HW125451   0.845   2.061  13.053 -3.7828 -0.8109 -0.0825
 4664SOL    HW225452   0.902   2.192  13.026 -0.8620 -1.3637  1.6755
 4665SOL     OW25453   4.675   0.272   6.928  0.6583 -0.3312  0.0930
 4665SOL    HW125454   0.019   0.219   6.884  1.8516  0.6983  0.7020
 4665SOL    HW225455   4.717   0.356   6.943 -2.6611  1.2781  0.2823
 4666SOL     OW25456   0.212   1.102  15.855  0.4586  0.0036  0.1566
 4666SOL    HW125457   0.301   1.115  15.890  0.3378 -3.4164  1.8001
 4666SOL    HW225458   0.151   1.151  15.909 -0.4199  1.0922 -1.8346
 4667SOL     OW25459   1.215   2.572  13.736 -0.0183 -0.1714 -0.5568
 4667SOL    HW125460   1.223   2.667  13.734  3.0343 -0.4154  0.9114
 4667SOL    HW225461   1.146   2.566  13.670 -2.6454  1.4836  2.0003
 4668SOL     OW25462   0.804   3.978   1.572  0.2207 -0.2132 -0.2947
 4668SOL    HW125463   0.834   4.025   1.650 -0.4997  0.2363 -0.2894
 4668SOL    HW225464   0.808   3.886   1.598  1.2935  0.1796  0.9220
 4669SOL     OW25465   2.502   0.525   3.091 -0.0461 -0.3728 -0.6165
 4669SOL    HW125466   2.578   0.559   3.043 -1.0836  2.5609 -0.1742
 4669SOL    HW225467   2.472   0.472   3.017  0.0302 -2.0753  0.5921
 4670SOL     OW25468   0.908   2.972   7.450 -0.4837  0.4044 -0.3250
 4670SOL    HW125469   0.875   2.908   7.387 -0.1431 -3.1457  3.0939
 4670SOL    HW225470   0.905   3.045   7.389  2.1886  0.3897 -0.4890
 4671SOL     OW25471   0.457   3.082   8.252 -0.2122 -0.0427 -1.2082
 4671SOL    HW125472   0.379   3.091   8.196 -2.1008  0.1975  1.4340
 4671SOL    HW225473   0.407   3.038   8.321  3.2221 -0.6951  0.8366
 4672SOL     OW25474   3.773   4.618   0.576 -0.3614  0.5574  0.0994
 4672SOL    HW125475   3.855   4.645   0.617 -0.9548  0.4685  1.3518
 4672SOL    HW225476   3.732   4.581   0.655  1.6157 -3.8966 -0.9517
 4673SOL     OW25477   2.013   2.055   3.095 -0.0291  0.5238  0.1456
 4673SOL    HW125478   2.034   2.079   3.185  0.0906 -1.0131  0.5242
 4673SOL    HW225479   1.921   2.029   3.106 -0.2859  0.8417 -1.2147
 4674SOL     OW25480   3.142   1.985   2.750 -0.2351 -0.4229 -0.0095
 4674SOL    HW125481   3.237   1.972   2.746 -0.1871  0.1076 -0.5843
 4674SOL    HW225482   3.119   2.001   2.658 -1.3861 -2.3346 -0.0477
 4675SOL     OW25483   2.485   3.238  13.918  0.9169  0.4028  0.3437
 4675SOL    HW125484   2.403   3.220  13.965  0.7826 -2.3326 -0.9600
 4675SOL    HW225485   2.458   3.300  13.850 -0.9164 -0.4195  0.3492
 4676SOL     OW25486   2.898   1.279   7.916  0.4493 -0.1240  0.5125
 4676SOL    HW125487   2.843   1.340   7.866  1.2369 -1.2062 -1.6794
 4676SOL    HW225488   2.839   1.204   7.912 -0.2173  0.5374 -1.8592
 4677SOL     OW25489   1.640   4.214   1.601  0.0475 -0.4915  0.7619
 4677SOL    HW125490   1.597   4.203   1.516  1.5531  1.9556 -0.3328
 4677SOL    HW225491   1.599   4.144   1.651 -1.2604  1.7748  2.8231
 4678SOL     OW25492   3.240   2.956   4.738  0.1534  0.0730 -0.5339
 4678SOL    HW125493   3.229   3.051   4.745  0.8501  0.1882 -0.9892
 4678SOL    HW225494   3.258   2.944   4.831  2.8385  1.5785 -0.8686
 4679SOL     OW25495   3.345   0.285   4.497 -0.0588 -0.2485 -0.1355
 4679SOL    HW125496   3.268   0.333   4.467  0.1975 -0.2555 -0.7890
 4679SOL    HW225497   3.418   0.343   4.476  0.9159 -1.2147  0.5813
 4680SOL     OW25498   4.127   1.493   4.438  0.4449  0.4010  0.8007
 4680SOL    HW125499   4.124   1.454   4.351 -0.3102 -1.5316  1.6774
 4680SOL    HW225500   4.195   1.559   4.427 -0.3748  1.2740  0.9706
 4681SOL     OW25501   1.727   3.588   3.756  0.3452 -0.5994  0.8509
 4681SOL    HW125502   1.728   3.651   3.684  1.5617 -0.6544  0.8044
 4681SOL    HW225503   1.637   3.593   3.788  0.6153 -1.0829  1.6901
 4682SOL     OW25504   0.589   0.474   3.668 -0.0022  0.4024  0.0063
 4682SOL    HW125505   0.522   0.459   3.601  1.7381 -0.7788 -1.4554
 4682SOL    HW225506   0.670   0.449   3.624 -1.4627 -4.4305  0.1237
 4683SOL     OW25507   3.963   0.202  16.701  0.4491 -0.3729  0.5854
 4683SOL    HW125508   3.934   0.261  16.770  1.2447  0.4326  0.2164
 4683SOL    HW225509   3.894   0.135  16.708 -1.0356  0.8092 -2.7950
 4684SOL     OW25510   0.443   2.288   6.998 -0.0391 -0.1466 -0.1811
 4684SOL    HW125511   0.529   2.266   7.033 -0.1335  0.9071  0.7351
 4684SOL    HW225512   0.399   2.333   7.070 -0.5239 -0.3747 -0.3331
 4685SOL     OW25513   2.185   2.475   9.446  0.6372  0.2856 -0.0495
 4685SOL    HW125514   2.171   2.551   9.390  0.2810  0.5664  0.4224
 4685SOL    HW225515   2.202   2.513   9.533  1.4872  2.4244 -1.1442
 4686SOL     OW25516   1.529   3.837   5.199 -0.0135 -0.2815  0.1766
 4686SOL    HW125517   1.456   3.835   5.137 -0.9322  0.3963  1.2291
 4686SOL    HW225518   1.601   3.885   5.158  0.1263 -1.1117 -0.5495
 4687SOL     OW25519   4.219   1.505   5.166 -0.4286  0.3646 -0.0093
 4687SOL    HW125520   4.220   1.599   5.184  2.4801  0.0915  1.2509
 4687SOL    HW225521   4.294   1.486   5.223 -1.7107  1.0007  1.8780
 4688SOL     OW25522   3.743   3.579   2.877  0.5053 -0.0367 -0.3355
 4688SOL    HW125523   3.664   3.620   2.841  0.2043 -0.9333 -0.6949
 4688SOL    HW225524   3.731   3.489   2.846 -1.1795  0.5464 -1.3402
 4689SOL     OW25525   4.466   2.474   7.698  0.1571 -0.7013  0.1322
 4689SOL    HW125526   4.547   2.506   7.660  0.3448  0.5550  1.6143
 4689SOL    HW225527   4.504   2.445   7.781  1.2115 -2.5864 -1.0005
 4690SOL     OW25528   3.021   2.732  16.274 -0.4845 -0.3253 -0.1653
 4690SOL    HW125529   2.954   2.664  16.271  0.8645 -1.5563 -2.1089
 4690SOL    HW225530   3.006   2.777  16.191  1.3107 -0.9940 -0.8327
 4691SOL     OW25531   2.738   2.872   1.858 -0.0786 -0.4400 -0.2516
 4691SOL    HW125532   2.739   2.798   1.798  0.1473 -0.3308 -0.3821
 4691SOL    HW225533   2.650   2.907   1.846 -0.0352 -0.1989  0.1106
 4692SOL     OW25534   4.519   2.535  13.127  0.1210 -0.0042  0.1903
 4692SOL    HW125535   4.512   2.574  13.040 -1.7048 -0.4199  0.1442
 4692SOL    HW225536   4.439   2.569  13.168 -0.5620 -0.9062 -0.4009
 4693SOL     OW25537   1.130   0.881   5.368 -0.0198  0.1165  0.2732
 4693SOL    HW125538   1.172   0.932   5.299  0.2800  1.3024  1.3404
 4693SOL    HW225539   1.080   0.822   5.312  1.2932 -1.4143  0.7177
 4694SOL     OW25540   4.721   1.732   9.935 -0.0132 -0.0831 -0.3991
 4694SOL    HW125541   4.643   1.687   9.903  0.5927 -0.5418 -1.2327
 4694SOL    HW225542   4.701   1.744  10.028  1.0348  0.3859 -0.2292
 4695SOL     OW25543   3.758   2.588   3.119  0.6067  0.2101  0.9701
 4695SOL    HW125544   3.802   2.580   3.203  0.2313  0.6000  1.2094
 4695SOL    HW225545   3.833   2.553   3.072  1.5851  3.4409  0.1195
 4696SOL     OW25546   3.537   2.290   2.679  0.1378 -0.0564  0.1660
 4696SOL    HW125547   3.479   2.248   2.615  0.5711 -1.2952  0.5973
 4696SOL    HW225548   3.623   2.280   2.639 -0.1236  0.1461 -0.4508
 4697SOL     OW25549   4.701   4.396   8.533 -0.4737 -0.5475  0.7454
 4697SOL    HW125550   4.709   4.309   8.573 -1.0437 -0.7104  0.5085
 4697SOL    HW225551   0.064   4.402   8.493 -0.7902  1.5127  0.3435
 4698SOL     OW25552   4.194   1.716   2.650  0.2761  0.1374 -0.2352
 4698SOL    HW125553   4.133   1.662   2.600 -0.2480  1.0733 -0.6144
 4698SOL    HW225554   4.265   1.656   2.674 -1.1271 -0.7759  1.6538
 4699SOL     OW25555   3.424   3.764   8.113 -0.3764  0.3843  0.1745
 4699SOL    HW125556   3.435   3.706   8.188  2.3066 -0.1677 -0.6701
 4699SOL    HW225557   3.343   3.733   8.072  0.3060 -0.0893 -0.8209
 4700SOL     OW25558   2.208   3.713   1.896  0.4735  0.2073 -0.0746
 4700SOL    HW125559   2.239   3.675   1.813  3.0145  0.9918  0.5199
 4700SOL    HW225560   2.257   3.662   1.961 -0.3464 -2.8809 -1.8444
 4701SOL     OW25561   0.557   4.691   7.960 -0.5581 -0.8036 -0.3734
 4701SOL    HW125562   0.636   4.661   8.006 -0.3935 -0.2029 -0.2660
 4701SOL    HW225563   0.504   0.001   8.032  0.7816  0.8427 -0.1468
 4702SOL     OW25564   2.298   1.392   3.193  0.2824  0.6178  0.5573
 4702SOL    HW125565   2.364   1.325   3.214  0.1683  1.1315  2.6034
 4702SOL    HW225566   2.248   1.354   3.121 -2.4320  1.8535  1.7856
 4703SOL     OW25567   2.479   1.190   8.690  0.0900  0.7096 -0.1006
 4703SOL    HW125568   2.479   1.216   8.598 -2.9144 -0.1864 -0.3651
 4703SOL    HW225569   2.401   1.234   8.725 -2.1117 -1.9098 -1.6552
 4704SOL     OW25570   2.545   4.645   2.635 -0.2377  0.7561 -0.0892
 4704SOL    HW125571   2.460   4.621   2.597  1.2711 -4.7013 -0.1208
 4704SOL    HW225572   2.536   0.017   2.637 -1.4125  0.6383  0.1920
 4705SOL     OW25573   3.751   4.144   0.129 -0.3319  0.0952 -0.6518
 4705SOL    HW125574   3.697   4.220   0.148 -0.0493  1.1519 -3.9561
 4705SOL    HW225575   3.826   4.180   0.176 -0.8710 -0.1847  0.4260
 4706SOL     OW25576   4.197   1.037   6.407 -0.6806  0.0647 -0.0008
 4706SOL    HW125577   4.238   1.094   6.342 -2.4197  0.9031 -0.3645
 4706SOL    HW225578   4.267   0.973   6.417 -1.8944 -1.2302  0.3243
 4707SOL     OW25579   3.936   0.047   6.673  0.3245  0.7431  0.4373
 4707SOL    HW125580   4.031   0.058   6.673  0.5987 -1.6906  1.1156
 4707SOL    HW225581   3.938   4.700   6.738  0.3479  1.2217  0.9470
 4708SOL     OW25582   1.898   4.669  15.768 -0.3986 -0.6338 -0.1624
 4708SOL    HW125583   1.910   4.616  15.689 -1.8163 -0.6870 -0.3382
 4708SOL    HW225584   1.836   0.015  15.744 -1.7591 -1.3667  1.2758
 4709SOL     OW25585   1.868   3.625   4.988 -0.4533  0.2324 -0.2292
 4709SOL    HW125586   1.829   3.603   5.072 -2.5676  0.5354 -1.1171
 4709SOL    HW225587   1.795   3.673   4.948 -1.5489 -1.1840  0.0708
 4710SOL     OW25588   3.451   2.981   8.279 -0.4574  0.0514  0.1397
 4710SOL    HW125589   3.464   3.017   8.191  0.8835  0.7112  0.6168
 4710SOL    HW225590   3.541   2.956   8.299 -0.5978 -1.7576 -1.4686
 4711SOL     OW25591   3.677   0.533   2.877  0.0850 -0.0625 -0.8408
 4711SOL    HW125592   3.595   0.493   2.846  1.9594 -2.6619 -2.4702
 4711SOL    HW225593   3.724   0.552   2.796 -0.7595  1.8471 -0.8671
 4712SOL     OW25594   2.549   0.150   3.554 -0.2785 -0.3904 -0.1628
 4712SOL    HW125595   2.492   0.163   3.479 -0.8008 -0.1014  0.2894
 4712SOL    HW225596   2.489   0.152   3.628 -0.7746  0.5061 -0.5954
 4713SOL     OW25597   2.739   3.291   3.228 -0.5421  0.0463 -0.3020
 4713SOL    HW125598   2.791   3.344   3.167 -0.6204 -0.1175 -0.5119
 4713SOL    HW225599   2.656   3.337   3.230 -0.5215  0.1046 -0.6884
 4714SOL     OW25600   0.774   4.629   8.114 -0.1302  0.2916 -0.1758
 4714SOL    HW125601   0.770   4.660   8.204 -0.0060  0.5087 -0.2458
 4714SOL    HW225602   0.862   4.663   8.094 -0.0765  0.0691 -0.3224
 4715SOL     OW25603   1.620   0.900   7.383  0.4780  0.2023  0.2179
 4715SOL    HW125604   1.630   0.813   7.422  0.2556  0.1103  0.0692
 4715SOL    HW225605   1.669   0.956   7.443  0.3343 -1.4146  1.8432
 4716SOL     OW25606   1.929   4.498   3.147 -0.2457  0.3030  0.3007
 4716SOL    HW125607   1.865   4.437   3.110 -0.2944 -0.0840  1.0336
 4716SOL    HW225608   1.991   4.434   3.181  2.0947  1.3570 -2.0111
 4717SOL     OW25609   1.816   2.621   5.722  0.0005  0.1393 -0.7881
 4717SOL    HW125610   1.906   2.651   5.738  0.1860  0.2706 -2.0480
 4717SOL    HW225611   1.822   2.582   5.635 -0.1513 -0.5845 -0.4673
 4718SOL     OW25612   4.183   1.977   2.056  0.0072 -0.2035 -0.4686
 4718SOL    HW125613   4.168   1.955   1.964 -0.2723 -1.2963 -0.1702
 4718SOL    HW225614   4.095   1.958   2.089 -0.1255 -0.2888 -0.8744
 4719SOL     OW25615   1.979   2.685  10.195  0.1561  0.0298 -0.0049
 4719SOL    HW125616   1.895   2.701  10.151  0.9128  1.8639 -0.7734
 4719SOL    HW225617   1.951   2.601  10.230 -0.4525 -0.4542 -1.6810
 4720SOL     OW25618   0.658   2.576   4.923  0.1856  0.1145 -0.8490
 4720SOL    HW125619   0.651   2.602   4.831  2.1735  0.3519 -0.9335
 4720SOL    HW225620   0.656   2.480   4.928  1.5937  0.3139  3.2535
 4721SOL     OW25621   2.757   4.592   1.883 -0.0135 -0.3963  0.2218
 4721SOL    HW125622   2.776   4.678   1.921  2.2753 -1.6046  1.8034
 4721SOL    HW225623   2.675   4.608   1.836  0.0971  3.2822  1.2241
 4722SOL     OW25624   3.826   3.787   4.193  0.0158  0.2793 -0.3158
 4722SOL    HW125625   3.799   3.850   4.260 -0.2414 -0.2959  0.1344
 4722SOL    HW225626   3.888   3.832   4.137  1.2828  1.7725  2.3127
 4723SOL     OW25627   1.609   2.791  17.054  0.7066  0.3416  0.1988
 4723SOL    HW125628   1.616   2.885  17.069 -2.5897  0.4633  0.9300
 4723SOL    HW225629   1.593   2.755  17.141 -2.7067  3.0668  0.6926
 4724SOL     OW25630   0.209   3.891   3.958  0.8051  0.7067 -0.2918
 4724SOL    HW125631   0.211   3.881   3.863 -0.8834  0.7841 -0.3332
 4724SOL    HW225632   0.193   3.985   3.952  3.2726  1.1136 -0.4952
 4725SOL     OW25633   0.970   3.977   2.148 -0.0413  0.0129  0.0977
 4725SOL    HW125634   0.979   3.888   2.183 -0.9232  0.0198  0.3288
 4725SOL    HW225635   1.031   3.983   2.074  0.3180 -2.6498  0.1734
 4726SOL     OW25636   4.593   4.047   4.532 -0.0615 -0.3697 -0.2103
 4726SOL    HW125637   4.634   4.132   4.517 -2.1787  0.4559 -1.2189
 4726SOL    HW225638   4.585   4.004   4.447 -0.2527 -0.5849 -0.0825
 4727SOL     OW25639   4.167   0.589  16.276 -0.0202  0.4973  0.5873
 4727SOL    HW125640   4.194   0.673  16.240  1.3589 -0.8948 -1.6242
 4727SOL    HW225641   4.076   0.595  16.246  1.1498 -2.7235 -3.5754
 4728SOL     OW25642   1.961   4.574  15.530  0.1079 -0.6387  0.2315
 4728SOL    HW125643   2.041   4.531  15.501  1.4398  0.6375  1.9891
 4728SOL    HW225644   1.978   4.662  15.496  2.2153 -1.7634 -1.5660
 4729SOL     OW25645   3.930   1.813   1.889 -0.2580 -0.0135  0.2587
 4729SOL    HW125646   4.018   1.827   1.854 -0.8427 -2.2332 -2.1083
 4729SOL    HW225647   3.887   1.898   1.875 -2.4855 -1.3601 -1.2030
 4730SOL     OW25648   2.281   4.164  13.688  0.3915  0.5590 -0.1279
 4730SOL    HW125649   2.252   4.163  13.779  3.5516 -0.0770  0.8458
 4730SOL    HW225650   2.195   4.180  13.649 -0.7436  2.6560  3.2614
 4731SOL     OW25651   3.424   1.791  16.632 -0.4422  0.2696  0.2467
 4731SOL    HW125652   3.359   1.843  16.680 -0.5446 -0.2344  0.6508
 4731SOL    HW225653   3.371   1.721  16.594  0.4774  0.9274 -2.2312
 4732SOL     OW25654   4.021   4.338   7.805 -0.5393 -0.1162  0.1689
 4732SOL    HW125655   4.116   4.350   7.797 -0.5619  1.0697  1.6941
 4732SOL    HW225656   4.012   4.245   7.826  2.0192 -0.3556  0.2828
 4733SOL     OW25657   4.512   0.590   7.016  0.1014  0.0890  0.6365
 4733SOL    HW125658   4.444   0.524   7.030  0.6381 -0.2353  1.7007
 4733SOL    HW225659   4.592   0.539   7.003 -0.6502 -1.0687  0.4899
 4734SOL     OW25660   3.957   2.513   4.057  0.2622 -0.0193 -0.0265
 4734SOL    HW125661   3.890   2.566   4.013  0.8906  0.5909 -0.2606
 4734SOL    HW225662   4.001   2.580   4.109  1.8949  0.4792 -2.0332
 4735SOL     OW25663   4.373   3.629   9.893 -0.1569  0.2337  0.2741
 4735SOL    HW125664   4.399   3.606   9.804 -0.6949 -0.3798  0.2757
 4735SOL    HW225665   4.359   3.539   9.924 -1.0880  0.5608  0.7730
 4736SOL     OW25666   3.319   3.264   1.147 -0.1022 -0.9382 -0.6204
 4736SOL    HW125667   3.300   3.263   1.241  0.7298  0.4130 -0.4298
 4736SOL    HW225668   3.353   3.351   1.125  1.4126 -1.1672  0.7770
 4737SOL     OW25669   3.493   3.401   2.100 -0.5369 -0.8139 -0.0533
 4737SOL    HW125670   3.444   3.415   2.019  1.6318  0.3266 -1.1837
 4737SOL    HW225671   3.529   3.313   2.086  0.7176 -0.0364 -1.7080
 4738SOL     OW25672   0.290   1.898   2.954 -0.4515 -0.3158 -0.0325
 4738SOL    HW125673   0.287   1.805   2.977  0.6044 -0.4523 -0.4806
 4738SOL    HW225674   0.219   1.935   3.007 -0.3777 -0.6274  0.2914
 4739SOL     OW25675   0.748   2.850   7.219  0.0437  0.1117 -0.1509
 4739SOL    HW125676   0.778   2.924   7.166 -2.3452  0.5663 -0.8347
 4739SOL    HW225677   0.745   2.776   7.159  0.6908  1.1637 -1.4865
 4740SOL     OW25678   1.280   3.764   2.897 -0.2747 -0.1476  0.2880
 4740SOL    HW125679   1.290   3.734   2.807  0.5616  0.4413  0.1832
 4740SOL    HW225680   1.354   3.716   2.936 -1.4952 -0.5517  2.1206
 4741SOL     OW25681   3.966   1.719   3.056  0.0829 -0.2826 -0.4054
 4741SOL    HW125682   3.973   1.770   2.975 -2.1943 -1.8433 -1.6000
 4741SOL    HW225683   4.057   1.710   3.082 -0.3209 -2.9236  0.1093
 4742SOL     OW25684   1.322   2.218   5.985 -0.0588 -0.6394  0.4054
 4742SOL    HW125685   1.273   2.282   6.038  2.9032  0.4522  1.7899
 4742SOL    HW225686   1.369   2.277   5.926 -0.1160 -1.8865 -0.8914
 4743SOL     OW25687   2.946   1.652   4.722  0.0225 -0.7011  0.0352
 4743SOL    HW125688   2.984   1.727   4.678 -0.5282  0.6504  1.8804
 4743SOL    HW225689   2.989   1.663   4.807  1.7961  0.7728 -1.0649
 4744SOL     OW25690   2.335   2.598   8.499  0.2818 -0.5850  0.0274
 4744SOL    HW125691   2.271   2.533   8.527  0.8972 -0.9916  0.4793
 4744SOL    HW225692   2.369   2.625   8.584 -2.9331 -1.4034  1.5799
 4745SOL     OW25693   1.135   4.312   6.436 -0.3611 -0.1801  0.6551
 4745SOL    HW125694   1.178   4.231   6.406  0.9233  0.9126 -0.4935
 4745SOL    HW225695   1.208   4.374   6.426 -0.9156  0.7020  2.1712
 4746SOL     OW25696   2.682   1.814   5.314  0.7885  0.5403  0.5535
 4746SOL    HW125697   2.746   1.856   5.257  1.6051 -0.8983  0.3971
 4746SOL    HW225698   2.734   1.830   5.392  0.5299  1.0152  0.6219
 4747SOL     OW25699   2.192   3.805  15.047  0.1798 -0.0480  0.6171
 4747SOL    HW125700   2.281   3.779  15.068 -0.0070  0.0632  1.5252
 4747SOL    HW225701   2.219   3.896  15.032 -0.4608  0.1785  0.8008
 4748SOL     OW25702   3.859   2.070  10.204 -0.2593  0.0756 -0.1134
 4748SOL    HW125703   3.784   2.120  10.171 -1.5249 -0.8038  1.4015
 4748SOL    HW225704   3.862   2.013  10.127 -1.7077  1.1380 -0.9637
 4749SOL     OW25705   3.494   0.299   8.595 -0.4198 -0.2818 -0.7124
 4749SOL    HW125706   3.475   0.336   8.681 -0.3819  1.1062 -1.3047
 4749SOL    HW225707   3.435   0.353   8.543 -1.1926  1.1580  1.6678
 4750SOL     OW25708   3.869   1.642  17.073  0.4666 -0.1349 -0.2561
 4750SOL    HW125709   3.818   1.693  17.009  1.0930 -0.6702 -1.1813
 4750SOL    HW225710   3.881   1.557  17.031  2.2004 -0.5197  1.0270
 4751SOL     OW25711   2.353   2.531   7.782 -0.0513 -0.1449  0.6760
 4751SOL    HW125712   2.423   2.469   7.766 -1.3643 -1.2540 -0.7841
 4751SOL    HW225713   2.342   2.519   7.877 -1.4652 -0.2692  0.4944
 4752SOL     OW25714   2.068   1.459  14.976  0.0715  0.3442  0.1248
 4752SOL    HW125715   2.069   1.364  14.985 -2.9657  0.5096  2.1220
 4752SOL    HW225716   2.013   1.487  15.049 -2.2540 -2.8928 -0.4178
 4753SOL     OW25717   1.835   3.471  14.413 -0.3953  0.2636  0.0326
 4753SOL    HW125718   1.890   3.543  14.382  1.4235 -0.7504  0.9193
 4753SOL    HW225719   1.761   3.526  14.440  0.5149  1.8892 -0.7607
 4754SOL     OW25720   0.758   0.637  14.075 -0.1589  0.0741 -0.6952
 4754SOL    HW125721   0.786   0.648  14.166 -1.1088 -0.5916 -0.3233
 4754SOL    HW225722   0.765   0.728  14.046 -0.8273  0.3539  0.0346
 4755SOL     OW25723   1.411   1.879   4.782 -0.3464 -0.1192 -0.1690
 4755SOL    HW125724   1.386   1.885   4.874  1.0263  0.0714  0.1863
 4755SOL    HW225725   1.493   1.926   4.794  0.2274 -1.1121 -0.2148
 4756SOL     OW25726   0.549   4.307   8.628  0.0119  0.0308  0.0382
 4756SOL    HW125727   0.587   4.313   8.716  2.7279 -0.5854 -1.0714
 4756SOL    HW225728   0.593   4.382   8.588  1.3679 -0.3875  0.7512
 4757SOL     OW25729   1.982   0.916   5.892 -0.0137  0.1147 -0.1823
 4757SOL    HW125730   1.963   0.958   5.976 -0.1993 -0.3091 -0.0120
 4757SOL    HW225731   2.075   0.907   5.911  0.1195  0.5674 -0.6368
 4758SOL     OW25732   0.187   4.661   7.369 -0.0167  0.3385 -0.0344
 4758SOL    HW125733   0.196   4.675   7.274  1.2786 -1.0165 -0.1028
 4758SOL    HW225734   0.159   4.570   7.377  0.3878  0.4484  2.5297
 4759SOL     OW25735   3.474   0.545  13.393 -0.1169  0.5220  0.3850
 4759SOL    HW125736   3.466   0.493  13.473 -0.1815 -0.6715 -0.4144
 4759SOL    HW225737   3.389   0.589  13.387 -0.0323  0.4693 -1.1686
 4760SOL     OW25738   2.294   2.512   1.646 -0.1377 -0.0860  0.3655
 4760SOL    HW125739   2.300   2.597   1.602 -1.4190  1.8786  3.9553
 4760SOL    HW225740   2.388   2.498   1.657 -0.3280  0.5274  2.6473
 4761SOL     OW25741   3.935   2.520  14.258  0.4039  0.2053  0.3147
 4761SOL    HW125742   4.012   2.572  14.277  1.5358 -1.2931 -0.1756
 4761SOL    HW225743   3.951   2.450  14.321  2.5412 -0.4824 -1.0041
 4762SOL     OW25744   0.843   2.772  16.040 -0.0000 -0.6653 -0.1482
 4762SOL    HW125745   0.911   2.707  16.024 -0.2848 -0.5856 -1.6583
 4762SOL    HW225746   0.783   2.720  16.094 -0.2865  1.0013  1.1281
 4763SOL     OW25747   2.928   2.595   2.615 -0.1355 -0.1629 -0.1035
 4763SOL    HW125748   2.976   2.677   2.607  0.8900 -0.7432  0.0040
 4763SOL    HW225749   2.929   2.564   2.524  0.4368 -0.8050  0.1177
 4764SOL     OW25750   3.562   3.970  17.141  0.1446  0.3344  0.0409
 4764SOL    HW125751   3.633   3.906  17.150  0.4898  0.4989 -1.5438
 4764SOL    HW225752   3.551   3.982  17.047 -2.2737  0.7442  0.3956
 4765SOL     OW25753   2.355   3.440  15.379  0.1289  0.3713  0.4114
 4765SOL    HW125754   2.294   3.503  15.416 -0.4494 -0.0823  0.2349
 4765SOL    HW225755   2.327   3.359  15.423 -0.5026  0.1607 -0.3903
 4766SOL     OW25756   4.250   3.487  15.820 -0.0684  0.8333 -1.1030
 4766SOL    HW125757   4.251   3.457  15.730 -0.8229  0.7604 -1.0875
 4766SOL    HW225758   4.293   3.411  15.860  2.7623  2.1054 -1.7775
 4767SOL     OW25759   4.709   4.384   0.754  0.3969 -0.1931 -0.2785
 4767SOL    HW125760   4.671   4.336   0.828  2.3476  0.5854  1.2313
 4767SOL    HW225761   4.656   4.463   0.757  0.9462  0.1984 -0.8192
 4768SOL     OW25762   2.433   4.481   7.969 -0.0714 -0.1108  0.2058
 4768SOL    HW125763   2.349   4.434   7.961  0.3545 -0.8336 -0.0242
 4768SOL    HW225764   2.428   4.533   7.889  0.2731 -3.5490 -2.0497
 4769SOL     OW25765   2.794   2.667   4.253 -0.2274 -0.0910  0.5247
 4769SOL    HW125766   2.763   2.756   4.271 -1.4309 -0.3487 -0.3258
 4769SOL    HW225767   2.740   2.615   4.312  0.4326 -0.6982  0.5926
 4770SOL     OW25768   0.717   3.331   3.178  0.0759 -0.0945  0.5059
 4770SOL    HW125769   0.664   3.369   3.248  0.0724 -0.6907  0.8323
 4770SOL    HW225770   0.706   3.395   3.108  1.5940 -0.7870 -0.3654
 4771SOL     OW25771   2.650   1.987   6.773 -0.3315  0.6879  0.3562
 4771SOL    HW125772   2.699   1.999   6.854 -0.8506  3.7084  0.2260
 4771SOL    HW225773   2.720   1.997   6.708  0.8365 -0.1669  1.4882
 4772SOL     OW25774   1.728   2.579   2.659 -0.9969 -0.0218  0.1837
 4772SOL    HW125775   1.700   2.514   2.594  1.9627 -0.4253 -0.6955
 4772SOL    HW225776   1.647   2.630   2.655 -1.2627 -0.4324  0.3138
 4773SOL     OW25777   1.183   4.518   2.120 -0.1629 -0.0933 -0.1381
 4773SOL    HW125778   1.224   4.468   2.049  1.3952 -0.5711  1.1029
 4773SOL    HW225779   1.177   4.456   2.192 -0.1053 -0.8867 -0.8117
 4774SOL     OW25780   2.914   1.781   6.765  0.0151 -0.4445 -0.7085
 4774SOL    HW125781   2.885   1.779   6.856  0.0849 -0.0437 -0.6783
 4774SOL    HW225782   2.978   1.850   6.779  0.4040 -0.6890 -1.2899
 4775SOL     OW25783   4.079   4.003   4.422  0.0560 -0.2291 -0.6252
 4775SOL    HW125784   4.116   4.050   4.347  0.3887 -1.9093 -1.5150
 4775SOL    HW225785   3.987   4.007   4.395  0.0275 -2.2939 -0.8118
 4776SOL     OW25786   0.617   4.633   8.941 -0.1225 -0.3198 -0.5774
 4776SOL    HW125787   0.688   4.644   8.877  1.5141  1.8219  1.6015
 4776SOL    HW225788   0.587   0.000   8.950 -0.1134 -0.2483 -1.2440
 4777SOL     OW25789   1.394   2.018   8.853 -0.2393 -0.0454  0.1715
 4777SOL    HW125790   1.343   2.091   8.818 -2.1659 -1.5583 -0.1901
 4777SOL    HW225791   1.469   2.049   8.802 -1.2665  2.8417  0.4342
 4778SOL     OW25792   1.487   0.429   4.615 -0.1996  0.0964  0.1238
 4778SOL    HW125793   1.576   0.397   4.599 -0.2418  1.3055 -2.4945
 4778SOL    HW225794   1.503   0.448   4.708 -4.2048  2.3329  0.3722
 4779SOL     OW25795   4.054   3.103  16.448 -0.3892 -0.5094  0.4575
 4779SOL    HW125796   3.979   3.146  16.490  0.8199  1.3167  0.7637
 4779SOL    HW225797   4.063   3.165  16.376 -0.3483 -1.8355 -0.6543
 4780SOL     OW25798   4.380   2.856   2.084  0.0067  0.7306 -0.6374
 4780SOL    HW125799   4.379   2.945   2.048  3.0430  0.0803 -2.3848
 4780SOL    HW225800   4.354   2.879   2.173  1.7383  1.1587 -0.2303
 4781SOL     OW25801   3.450   1.031   9.482  0.2930 -0.4302 -0.1725
 4781SOL    HW125802   3.500   0.951   9.501 -0.1597 -0.3077  1.5275
 4781SOL    HW225803   3.516   1.093   9.449  0.8587 -0.0282  1.6919
 4782SOL     OW25804   1.732   2.381   7.477 -0.5281  0.2031 -0.1417
 4782SOL    HW125805   1.788   2.429   7.415 -0.1437 -0.3429 -0.2121
 4782SOL    HW225806   1.687   2.453   7.521 -0.4247  0.7274 -0.8861
 4783SOL     OW25807   3.287   1.532  12.042 -0.3188  0.3560 -1.0011
 4783SOL    HW125808   3.380   1.548  12.027 -0.6858 -0.0411 -3.6381
 4783SOL    HW225809   3.291   1.438  12.057  0.0107  0.7446  1.3409
 4784SOL     OW25810   3.198   0.241  13.498  0.0788 -0.6159 -0.0987
 4784SOL    HW125811   3.130   0.176  13.479  0.8752 -0.9488 -1.8531
 4784SOL    HW225812   3.242   0.204  13.574 -0.8650 -0.6360  0.4372
 4785SOL     OW25813   1.272   0.554   6.892  0.1967  0.1229  0.3909
 4785SOL    HW125814   1.361   0.560   6.926  1.5383 -1.6165 -2.8741
 4785SOL    HW225815   1.294   0.530   6.803  0.1276  1.5203 -0.0012
 4786SOL     OW25816   4.482   2.991  13.903 -0.4327  0.0321  0.4275
 4786SOL    HW125817   4.416   2.949  13.958 -1.3145 -1.1652 -1.5140
 4786SOL    HW225818   4.558   2.969  13.957 -0.3413 -1.4303 -0.2666
 4787SOL     OW25819   2.719   3.268  16.965  0.5332 -0.0098  0.0569
 4787SOL    HW125820   2.695   3.360  16.960 -1.5272 -0.6224 -1.2771
 4787SOL    HW225821   2.681   3.232  17.045 -1.7993  0.8026 -0.6880
 4788SOL     OW25822   4.073   4.070  12.080 -0.4850  0.5950  0.0957
 4788SOL    HW125823   4.129   4.005  12.037 -1.9324 -1.9480  2.0777
 4788SOL    HW225824   4.035   4.116  12.005 -1.5929  2.1186  1.5915
 4789SOL     OW25825   2.002   4.534   4.589  0.0116  0.0900 -0.5674
 4789SOL    HW125826   2.009   4.617   4.637 -1.5016  0.1775 -0.5103
 4789SOL    HW225827   2.066   4.485   4.641  0.1270  0.0117 -0.7806
 4790SOL     OW25828   4.686   4.627   3.256 -0.5531 -0.3254  0.0592
 4790SOL    HW125829   4.592   4.608   3.250 -0.3125 -1.7127  0.8637
 4790SOL    HW225830   4.703   4.607   3.348  0.1923  0.3185  0.0572
 4791SOL     OW25831   1.633   3.433  11.769 -0.5101 -0.8263  0.0360
 4791SOL    HW125832   1.595   3.444  11.682 -2.0920  2.1627  1.0957
 4791SOL    HW225833   1.575   3.475  11.833  0.5473 -0.2400  0.6224
 4792SOL     OW25834   3.398   1.918   0.535 -0.0633 -0.1973 -0.1432
 4792SOL    HW125835   3.334   1.959   0.477 -3.2088 -1.3707  2.5338
 4792SOL    HW225836   3.344   1.864   0.592  2.6744 -1.5847  1.1613
 4793SOL     OW25837   2.945   3.064   6.576  0.3862 -0.7211 -0.4978
 4793SOL    HW125838   3.017   3.041   6.635  1.0509 -3.0499 -2.2223
 4793SOL    HW225839   2.870   3.073   6.635  0.0054 -0.1230 -1.0767
 4794SOL     OW25840   0.403   1.190   4.669  0.6111  0.1628 -0.2924
 4794SOL    HW125841   0.474   1.225   4.616  0.7103  1.2658  0.5819
 4794SOL    HW225842   0.425   1.097   4.674  2.5877  0.5441 -1.8827
 4795SOL     OW25843   3.327   0.608   4.440  0.1683 -0.2107  0.3059
 4795SOL    HW125844   3.399   0.628   4.381 -0.3681 -1.8677 -0.9249
 4795SOL    HW225845   3.341   0.663   4.517  1.7308 -1.5038  0.9446
 4796SOL     OW25846   2.391   4.285  16.614 -0.9085 -0.4649  0.1405
 4796SOL    HW125847   2.304   4.300  16.649 -1.2765 -0.4988 -0.7517
 4796SOL    HW225848   2.421   4.375  16.599  1.6941 -1.5065 -0.9049
 4797SOL     OW25849   4.646   0.789   7.145 -0.2074  0.4809  0.2610
 4797SOL    HW125850   4.582   0.719   7.132  1.4966 -0.8230 -1.2031
 4797SOL    HW225851   0.003   0.744   7.172 -1.3099 -0.9096  1.2051
 4798SOL     OW25852   0.863   0.618  16.112 -0.3475  0.5108 -0.6736
 4798SOL    HW125853   0.948   0.637  16.152  0.7048 -3.2622 -1.1238
 4798SOL    HW225854   0.806   0.618  16.188 -0.4438  0.1208 -0.7459
 4799SOL     OW25855   2.805   0.780  12.299  0.9916  0.1422  0.2480
 4799SOL    HW125856   2.879   0.803  12.355  1.5951 -1.1061 -0.0356
 4799SOL    HW225857   2.732   0.769  12.360  1.3526 -1.6186  0.3833
 4800SOL     OW25858   0.447   1.760  13.717  0.3593  0.0848 -0.0683
 4800SOL    HW125859   0.502   1.713  13.780 -1.3508  1.5080  2.4702
 4800SOL    HW225860   0.370   1.704  13.707 -0.5233  0.9955  1.6198
 4801SOL     OW25861   4.604   3.302   6.956 -0.0174  0.5247 -0.1110
 4801SOL    HW125862   4.636   3.323   6.868  1.3017  0.6875  0.3965
 4801SOL    HW225863   4.672   3.342   7.011 -0.2672  0.4381  0.2581
 4802SOL     OW25864   0.111   0.186   8.323  0.2982  0.5844 -0.4722
 4802SOL    HW125865   0.128   0.258   8.383 -0.7396  0.0927  0.4179
 4802SOL    HW225866   0.034   0.225   8.281  0.2460  1.4809  0.4535
 4803SOL     OW25867   1.993   1.499   2.680  0.5628  0.3384  0.0043
 4803SOL    HW125868   1.950   1.531   2.601  1.0391 -1.4946 -0.9958
 4803SOL    HW225869   2.069   1.459   2.637  0.9465 -0.5067  1.4525
 4804SOL     OW25870   3.880   1.341   8.342  0.2377  0.2470 -0.1106
 4804SOL    HW125871   3.909   1.402   8.410 -0.1331 -0.5093  0.7280
 4804SOL    HW225872   3.938   1.357   8.268  0.5696  1.1058  0.3424
 4805SOL     OW25873   3.197   0.815  10.345  0.1645  0.4970  0.0769
 4805SOL    HW125874   3.190   0.742  10.407  1.2740  1.2487  1.0711
 4805SOL    HW225875   3.290   0.814  10.322  0.1403 -0.9548  0.0207
 4806SOL     OW25876   3.575   1.581   9.271  0.3371 -0.3291  0.2130
 4806SOL    HW125877   3.500   1.549   9.321 -0.4769  2.2452  0.6514
 4806SOL    HW225878   3.605   1.652   9.328  0.0393  0.2235 -0.3079
 4807SOL     OW25879   0.889   1.912  14.019  0.1176  0.4051 -0.4336
 4807SOL    HW125880   0.933   1.845  13.966 -0.9777  0.3837 -1.3341
 4807SOL    HW225881   0.856   1.863  14.094 -1.3530  1.2391 -0.5537
 4808SOL     OW25882   3.478   1.517   8.971 -0.1191  0.4733  0.3529
 4808SOL    HW125883   3.488   1.526   9.066  0.3289  1.8440  0.1828
 4808SOL    HW225884   3.505   1.428   8.949 -0.0280  0.0839  2.0059
 4809SOL     OW25885   3.630   1.320   8.158  0.5811 -0.5365 -0.3868
 4809SOL    HW125886   3.555   1.266   8.184 -0.3030  0.5852 -0.6071
 4809SOL    HW225887   3.678   1.325   8.241 -0.9722  2.9718  0.3115
 4810SOL     OW25888   2.255   1.441   2.633  0.2088  0.1953 -0.0592
 4810SOL    HW125889   2.337   1.391   2.642  1.2704  2.0707  0.6435
 4810SOL    HW225890   2.234   1.430   2.540 -1.5280  2.4904  0.0915
 4811SOL     OW25891   2.291   0.575   0.388  0.6079  0.1921  0.1272
 4811SOL    HW125892   2.224   0.555   0.454  0.0833 -1.2642 -0.8573
 4811SOL    HW225893   2.334   0.657   0.410  0.8691  0.0313  0.2255
 4812SOL     OW25894   3.063   0.632   5.548  0.9263 -0.1570 -0.5453
 4812SOL    HW125895   3.080   0.663   5.637 -1.1441 -1.8239  0.4255
 4812SOL    HW225896   3.070   0.717   5.504  0.4902  0.0188 -0.2721
 4813SOL     OW25897   2.288   0.326  12.192 -0.2323 -0.2564  0.2664
 4813SOL    HW125898   2.256   0.292  12.109 -2.6397 -0.6663  1.3612
 4813SOL    HW225899   2.335   0.403  12.160  2.3091 -1.2134  1.7306
 4814SOL     OW25900   3.519   0.054  12.133  0.4002 -0.1490 -0.0295
 4814SOL    HW125901   3.570   0.134  12.144 -2.3248  2.1283 -3.6639
 4814SOL    HW225902   3.524   0.002  12.213  2.3786  0.2469  0.1084
 4815SOL     OW25903   0.672   1.786   7.033  0.9248 -1.4039  0.3087
 4815SOL    HW125904   0.668   1.692   7.050 -0.0560 -1.3701  0.2633
 4815SOL    HW225905   0.741   1.813   7.094  0.9439 -0.8098  0.0207
 4816SOL     OW25906   3.454   0.797  10.767 -0.4999 -0.0267  0.0079
 4816SOL    HW125907   3.385   0.819  10.829  0.1895 -0.1522  0.8332
 4816SOL    HW225908   3.521   0.858  10.800 -0.7203  0.7283 -0.9609
 4817SOL     OW25909   4.269   3.618   2.825 -0.0237  0.4960  0.2954
 4817SOL    HW125910   4.188   3.568   2.820  0.1680  0.2535 -0.3068
 4817SOL    HW225911   4.244   3.672   2.900 -0.1659  1.5905 -0.5417
 4818SOL     OW25912   2.365   2.566   5.100 -0.0898 -0.0794 -0.0955
 4818SOL    HW125913   2.382   2.482   5.057  0.5192  1.3653 -2.6700
 4818SOL    HW225914   2.351   2.543   5.192  0.8811  1.9885  0.5537
 4819SOL     OW25915   2.376   3.184   7.730  0.5020 -0.3308  0.0547
 4819SOL    HW125916   2.365   3.248   7.801 -0.5369  0.7819 -1.0874
 4819SOL    HW225917   2.434   3.122   7.773  1.4705 -1.0520 -2.3088
 4820SOL     OW25918   4.366   2.504   9.220 -0.5841  0.1603  0.6756
 4820SOL    HW125919   4.313   2.567   9.173  1.2622  1.4510  0.3125
 4820SOL    HW225920   4.313   2.425   9.214 -0.8838  0.4529 -0.4260
 4821SOL     OW25921   3.656   3.047   3.318  0.5224 -0.3361  0.0499
 4821SOL    HW125922   3.702   2.974   3.359  0.8711  0.4954  1.1360
 4821SOL    HW225923   3.705   3.125   3.342 -0.6827  0.1134  1.0985
 4822SOL     OW25924   2.025   3.354   0.042  0.2029  0.2349 -0.0528
 4822SOL    HW125925   1.993   3.264   0.039  0.6987  0.0237  1.3543
 4822SOL    HW225926   1.946   3.401   0.068 -1.7187 -3.3879  0.6000
 4823SOL     OW25927   0.488   3.474  10.663  0.0194  0.4009 -0.7610
 4823SOL    HW125928   0.519   3.395  10.707 -0.6339  1.4232  1.5464
 4823SOL    HW225929   0.504   3.446  10.573  1.2035 -1.2956 -0.0048
 4824SOL     OW25930   2.535   3.042  10.594 -0.0571  0.3749 -0.6362
 4824SOL    HW125931   2.624   3.062  10.567  0.0716 -0.1741 -0.6153
 4824SOL    HW225932   2.496   3.028  10.507  0.4798  1.3041 -1.0260
 4825SOL     OW25933   2.101   4.624   6.960 -0.4240  0.0304 -0.1226
 4825SOL    HW125934   2.037   4.556   6.980 -1.2938  1.4391  1.9480
 4825SOL    HW225935   2.076   4.688   7.028 -2.9071  0.5989 -1.5414
 4826SOL     OW25936   1.871   3.570   3.391 -0.3469  0.4295  0.0491
 4826SOL    HW125937   1.830   3.656   3.382  2.9777  1.8968 -1.0794
 4826SOL    HW225938   1.928   3.577   3.468  0.8417 -1.3589 -0.6763
 4827SOL     OW25939   2.113   1.402  15.807  0.3726  0.3024 -0.2848
 4827SOL    HW125940   2.042   1.350  15.769 -2.2714  0.8949  3.7592
 4827SOL    HW225941   2.068   1.486  15.807 -1.1482 -0.5052  0.4707
 4828SOL     OW25942   3.798   4.026   5.485  0.2776  0.1306  0.3005
 4828SOL    HW125943   3.790   4.110   5.529 -1.2606  0.1408 -0.0045
 4828SOL    HW225944   3.714   3.987   5.507  0.5277  0.3136  1.5922
 4829SOL     OW25945   4.504   4.049   5.760 -0.6491  0.0800 -0.3994
 4829SOL    HW125946   4.589   4.043   5.804 -0.2788 -2.5415 -1.4712
 4829SOL    HW225947   4.445   4.012   5.826 -0.7719  0.1525 -0.4684
 4830SOL     OW25948   3.491   2.398  10.989  0.8705 -0.6097  0.0468
 4830SOL    HW125949   3.443   2.323  11.024 -0.4220  0.3880  0.3844
 4830SOL    HW225950   3.440   2.414  10.910  1.9635 -1.9847 -0.9283
 4831SOL     OW25951   4.102   0.592   6.151  0.2764 -0.6764  0.5279
 4831SOL    HW125952   4.122   0.650   6.224  1.2442 -2.2461  1.4866
 4831SOL    HW225953   4.021   0.557   6.186  0.6357 -0.6386  1.3977
 4832SOL     OW25954   4.255   2.457   4.469  0.1950  0.2589  0.1724
 4832SOL    HW125955   4.186   2.523   4.480  1.9136  1.8627  1.5532
 4832SOL    HW225956   4.320   2.512   4.425  0.1177  0.3246  0.1413
 4833SOL     OW25957   1.311   0.530   0.179  0.3790 -1.0318 -0.0218
 4833SOL    HW125958   1.353   0.500   0.098  1.3883 -0.5706  0.3329
 4833SOL    HW225959   1.230   0.573   0.151  0.7916 -0.4920 -0.3943
 4834SOL     OW25960   3.850   3.006  10.214  0.1427  0.1537 -0.3181
 4834SOL    HW125961   3.816   3.019  10.302  0.6659  2.6414 -0.4697
 4834SOL    HW225962   3.937   3.047  10.213  0.1590  0.1250  0.4756
 4835SOL     OW25963   0.066   4.193   3.483  0.1292 -0.0666 -0.0614
 4835SOL    HW125964   0.029   4.144   3.409  0.2402 -0.0324 -0.1410
 4835SOL    HW225965   0.134   4.232   3.428 -1.5663  1.5901 -0.9738
 4836SOL     OW25966   4.115   1.613   9.485  0.2759  0.0608  0.2750
 4836SOL    HW125967   4.147   1.701   9.470  1.9350 -0.8848 -1.7068
 4836SOL    HW225968   4.201   1.579   9.461  0.7590  0.5102  1.4043
 4837SOL     OW25969   2.475   4.371  13.610  0.0982 -0.8341 -0.2328
 4837SOL    HW125970   2.438   4.458  13.598  1.6764 -0.1287  0.0130
 4837SOL    HW225971   2.405   4.313  13.641 -0.0121 -0.3256  0.4776
 4838SOL     OW25972   0.177   0.726   5.467  0.3203  0.5962  0.6107
 4838SOL    HW125973   0.238   0.790   5.503  0.3330  0.7097  0.3871
 4838SOL    HW225974   0.128   0.714   5.548 -1.2245 -0.6830 -0.5310
 4839SOL     OW25975   1.663   1.313  10.623  0.0021 -0.1131 -0.1827
 4839SOL    HW125976   1.639   1.406  10.625  1.1261  0.1289  1.8286
 4839SOL    HW225977   1.579   1.268  10.633 -0.7939  0.7121 -3.1657
 4840SOL     OW25978   1.378   4.341   5.693 -0.5500 -0.0516 -0.3218
 4840SOL    HW125979   1.408   4.431   5.686  1.5096 -0.6258  1.1729
 4840SOL    HW225980   1.328   4.337   5.775 -1.3063  1.4579 -0.7243
 4841SOL     OW25981   2.974   4.441   7.642 -0.0463  0.1593 -0.2403
 4841SOL    HW125982   3.019   4.448   7.727 -1.1719 -1.6980  0.5180
 4841SOL    HW225983   3.028   4.383   7.588  0.2188 -0.0725  0.2664
 4842SOL     OW25984   0.825   1.128   2.238  0.1317  0.0448 -0.2073
 4842SOL    HW125985   0.886   1.160   2.304 -0.1575 -2.2698  1.1784
 4842SOL    HW225986   0.791   1.042   2.264 -1.2537  0.1508 -1.6662
 4843SOL     OW25987   1.141   3.477   3.011 -0.2777 -0.1667 -0.0715
 4843SOL    HW125988   1.229   3.463   3.046 -0.7035 -1.7653  0.3913
 4843SOL    HW225989   1.103   3.389   3.013  1.0602 -0.7011  1.7670
 4844SOL     OW25990   3.602   0.615   6.211  0.3632 -1.0308  0.0815
 4844SOL    HW125991   3.562   0.531   6.230 -0.9462 -0.6760 -1.1206
 4844SOL    HW225992   3.613   0.639   6.303 -0.9154  0.8540 -0.2736
 4845SOL     OW25993   0.891   2.854   0.694 -0.2090 -0.2506 -0.0859
 4845SOL    HW125994   0.903   2.921   0.762  2.2989 -2.5710  1.7398
 4845SOL    HW225995   0.881   2.913   0.619 -1.8968  1.5290  1.5053
 4846SOL     OW25996   2.672   2.442  16.426 -0.2280 -0.7998 -0.1337
 4846SOL    HW125997   2.688   2.514  16.365 -0.6511 -1.8733 -1.5254
 4846SOL    HW225998   2.751   2.393  16.406  0.8741  0.9936 -0.1856
 4847SOL     OW25999   0.194   0.162   5.823 -0.5163  0.0185 -0.2654
 4847SOL    HW126000   0.227   0.074   5.805 -1.7570 -0.4490 -0.2682
 4847SOL    HW226001   0.123   0.139   5.883 -0.8660 -0.5021 -0.8733
 4848SOL     OW26002   2.744   3.261  12.303 -0.0596  0.4315  0.3486
 4848SOL    HW126003   2.747   3.316  12.381 -1.6392  0.3074  0.5071
 4848SOL    HW226004   2.653   3.231  12.315  0.4924 -1.1230  0.6208
 4849SOL     OW26005   0.897   3.488  16.225 -0.8238 -0.0899  0.1131
 4849SOL    HW126006   0.887   3.551  16.153 -2.9587  1.1244  1.4696
 4849SOL    HW226007   0.893   3.549  16.298  0.2820 -0.6022  0.6013
 4850SOL     OW26008   3.159   2.099   9.919  0.3055  0.1112 -0.5095
 4850SOL    HW126009   3.240   2.053   9.942 -2.0701 -3.8010 -0.0085
 4850SOL    HW226010   3.194   2.163   9.857  0.6237  0.9504  0.5341
 4851SOL     OW26011   1.263   0.063  14.623  0.3245 -0.4757 -0.3561
 4851SOL    HW126012   1.353   0.030  14.624  1.4511  2.5974 -0.0303
 4851SOL    HW226013   1.266   0.127  14.694  1.6829  1.2386 -1.9529
 4852SOL     OW26014   2.674   1.786   8.662 -0.6156  0.6733  0.2633
 4852SOL    HW126015   2.639   1.847   8.596  0.2346  1.3154  0.4001
 4852SOL    HW226016   2.619   1.709   8.647 -1.2408  1.6828 -2.7408
 4853SOL     OW26017   3.459   1.734   3.431 -0.0280  0.2148  0.7565
 4853SOL    HW126018   3.425   1.763   3.516  1.2572  1.4250  0.8649
 4853SOL    HW226019   3.388   1.766   3.376  0.8479 -1.2517 -1.2361
 4854SOL     OW26020   0.772   3.552   7.937 -0.2435  0.0627 -0.3144
 4854SOL    HW126021   0.784   3.457   7.933 -1.3101 -0.1469  1.3202
 4854SOL    HW226022   0.780   3.573   8.030 -0.7502  1.8231 -0.6805
 4855SOL     OW26023   3.388   3.402  10.373  0.0425  0.2495 -0.2424
 4855SOL    HW126024   3.355   3.379  10.286  1.1006  0.0615 -0.6031
 4855SOL    HW226025   3.414   3.494  10.367  0.1476  0.2223 -0.2118
 4856SOL     OW26026   3.494   2.039   7.547  0.6211  0.7835 -0.3749
 4856SOL    HW126027   3.550   2.040   7.625  2.1047 -1.8855 -1.4037
 4856SOL    HW226028   3.557   2.014   7.478  2.6224 -0.8367  2.0279
 4857SOL     OW26029   1.083   0.110   7.200  0.0899  0.5541  0.1732
 4857SOL    HW126030   1.174   0.081   7.207 -0.9874 -3.0206 -0.5761
 4857SOL    HW226031   1.079   0.116   7.104  2.8751 -3.2325 -0.2085
 4858SOL     OW26032   0.124   4.369   1.349  0.3471 -0.1010 -0.1657
 4858SOL    HW126033   0.211   4.395   1.381 -0.0392  0.8417  0.1131
 4858SOL    HW226034   0.112   4.422   1.270  0.9636 -0.4243 -0.4849
 4859SOL     OW26035   3.000   2.666  14.546  0.9770 -0.7036  0.1852
 4859SOL    HW126036   2.972   2.680  14.636 -0.8870 -0.8518 -0.3786
 4859SOL    HW226037   3.076   2.608  14.556  3.0300  2.2312  1.4707
 4860SOL     OW26038   3.133   3.848   3.841  0.2297  0.3946 -0.4205
 4860SOL    HW126039   3.135   3.943   3.826 -0.1503  0.3398 -0.8079
 4860SOL    HW226040   3.201   3.840   3.908  0.9872 -2.2811 -1.5383
 4861SOL     OW26041   1.759   4.058   6.124 -0.4526  0.4193  0.0960
 4861SOL    HW126042   1.693   4.117   6.161 -1.5463 -0.0638 -1.1067
 4861SOL    HW226043   1.773   3.985   6.184  0.8821 -0.8116 -1.7067
 4862SOL     OW26044   3.196   2.543  14.358 -0.2853 -0.1811 -0.0671
 4862SOL    HW126045   3.189   2.450  14.339  0.1801 -0.4893  1.2983
 4862SOL    HW226046   3.254   2.564  14.284 -1.5826 -1.4802 -1.4619
 4863SOL     OW26047   0.634   3.856   2.863  0.5800  0.7680  0.2002
 4863SOL    HW126048   0.614   3.777   2.812 -0.8247  0.5090  1.1663
 4863SOL    HW226049   0.631   3.914   2.786 -1.6820  1.0949  0.5328
 4864SOL     OW26050   2.617   0.624   5.380  0.2158  0.3064 -0.6465
 4864SOL    HW126051   2.538   0.594   5.425 -0.6179  1.2082 -1.5028
 4864SOL    HW226052   2.679   0.605   5.450 -2.5296 -4.1678  0.5862
 4865SOL     OW26053   2.765   2.910   7.587 -0.4088 -0.2832  0.7002
 4865SOL    HW126054   2.733   2.970   7.520  1.1991 -1.9178 -1.5134
 4865SOL    HW226055   2.809   2.840   7.539 -1.6605 -0.8484  0.3678
 4866SOL     OW26056   3.272   0.783   1.628  0.2821 -0.2804 -0.5093
 4866SOL    HW126057   3.343   0.756   1.687  1.2396 -2.2740 -2.6105
 4866SOL    HW226058   3.321   0.853   1.585 -1.1716 -0.1229 -1.9167
 4867SOL     OW26059   3.772   1.816  13.364 -0.9377 -0.4396  0.1714
 4867SOL    HW126060   3.761   1.736  13.313  0.4672  0.5212 -1.6372
 4867SOL    HW226061   3.867   1.822  13.361 -0.9524 -0.2649  0.0648
 4868SOL     OW26062   0.417   0.113   8.163  0.0445  0.5418 -0.7003
 4868SOL    HW126063   0.428   0.184   8.226 -0.8979 -0.0653  0.1327
 4868SOL    HW226064   0.372   0.166   8.098  0.0013  1.6364  0.2210
 4869SOL     OW26065   4.691   3.650   6.306  0.1963  0.2020 -0.2551
 4869SOL    HW126066   0.032   3.672   6.374 -0.6885  0.7786  0.4008
 4869SOL    HW226067   4.607   3.675   6.345  0.2796 -0.0460  0.0774
 4870SOL     OW26068   1.625   0.243   3.538 -0.0814  0.3636  0.3157
 4870SOL    HW126069   1.571   0.222   3.462  1.8855  0.5205 -1.1162
 4870SOL    HW226070   1.599   0.178   3.604  0.8130 -2.0980 -1.7702
 4871SOL     OW26071   1.534   4.168   1.357 -0.0545 -0.4258 -0.7039
 4871SOL    HW126072   1.462   4.206   1.308  0.7495 -0.8156 -2.1874
 4871SOL    HW226073   1.546   4.098   1.294  0.1700 -0.9801 -0.0438
 4872SOL     OW26074   0.211   1.730   8.701 -0.0600 -0.0968  0.1242
 4872SOL    HW126075   0.245   1.681   8.776 -0.9989 -2.0533 -0.7143
 4872SOL    HW226076   0.125   1.688   8.696 -0.5993  1.1829 -1.3325
 4873SOL     OW26077   3.931   4.057   2.269 -0.1438 -0.5696 -0.2359
 4873SOL    HW126078   3.936   4.045   2.363 -2.1812  0.5531  0.0146
 4873SOL    HW226079   3.861   4.118   2.250  0.0777 -0.0875  0.5091
 4874SOL     OW26080   3.352   1.557   5.639 -0.1951  0.3517 -0.4790
 4874SOL    HW126081   3.264   1.592   5.634 -0.4942 -0.7062 -2.6320
 4874SOL    HW226082   3.399   1.605   5.707  2.8116 -1.4876 -1.2382
 4875SOL     OW26083   0.640   3.922   4.536 -0.0926  0.5594  0.5380
 4875SOL    HW126084   0.548   3.897   4.544 -0.0737  0.5579  0.7530
 4875SOL    HW226085   0.677   3.834   4.546 -1.6898  0.0153  1.6301
 4876SOL     OW26086   1.725   2.515  17.439  0.3848  0.1694  0.3435
 4876SOL    HW126087   1.751   2.592  17.490  1.7110  0.1115 -0.2204
 4876SOL    HW226088   1.657   2.476  17.492  0.1295  0.7554  0.4489
 4877SOL     OW26089   0.393   4.679   6.374 -0.2504  0.0346 -0.0838
 4877SOL    HW126090   0.313   4.674   6.427 -0.4664  2.5620 -0.1552
 4877SOL    HW226091   0.376   4.628   6.295 -0.3672 -0.0119 -0.0291
 4878SOL     OW26092   1.174   1.955  15.085  0.0007  0.0991 -0.2864
 4878SOL    HW126093   1.233   2.007  15.031 -0.5297  0.3328 -0.6393
 4878SOL    HW226094   1.089   1.961  15.042 -0.1201 -1.7552 -0.2849
 4879SOL     OW26095   4.163   1.256  14.796 -0.5467  0.0138 -0.0245
 4879SOL    HW126096   4.112   1.175  14.788  1.2842 -1.1950  0.4977
 4879SOL    HW226097   4.167   1.275  14.702  0.9463  1.8469  0.4215
 4880SOL     OW26098   1.850   3.555   4.045  0.2758 -0.4409  0.3912
 4880SOL    HW126099   1.811   3.542   3.959  0.6490 -0.0742  0.1658
 4880SOL    HW226100   1.830   3.473   4.089  1.2300 -0.2004  1.2854
 4881SOL     OW26101   3.747   2.936   5.141  0.0453 -0.8337  0.5775
 4881SOL    HW126102   3.777   3.016   5.185 -1.7219  0.1175  0.0295
 4881SOL    HW226103   3.781   2.872   5.205 -1.2257 -1.0988  0.9829
 4882SOL     OW26104   1.156   2.568   1.474 -0.3094  0.0429 -0.1988
 4882SOL    HW126105   1.226   2.504   1.486 -0.0944  0.5401  1.1945
 4882SOL    HW226106   1.167   2.586   1.381  0.2456  0.0976 -0.1260
 4883SOL     OW26107   4.700   3.954  10.988  0.4051 -0.3542  0.9920
 4883SOL    HW126108   4.691   4.007  11.068 -1.0987  1.4297 -0.3637
 4883SOL    HW226109   0.072   3.947  10.982  0.2054 -0.2340 -2.3866
 4884SOL     OW26110   1.007   4.441   5.372  0.0064 -0.3440 -0.4067
 4884SOL    HW126111   0.923   4.407   5.340  0.0224  0.0343 -0.8486
 4884SOL    HW226112   1.002   4.534   5.351  0.9759 -0.1556  0.2173
 4885SOL     OW26113   4.648   0.194   4.267 -0.2399 -0.1648 -0.4083
 4885SOL    HW126114   4.575   0.173   4.324  0.7902 -0.4707  0.7956
 4885SOL    HW226115   4.684   0.107   4.248  0.9612  0.2345  0.0288
 4886SOL     OW26116   1.686   0.050   5.064  0.4436  0.2649 -0.1195
 4886SOL    HW126117   1.770   0.015   5.035  1.5693  3.7940 -1.1396
 4886SOL    HW226118   1.653   0.092   4.985  0.0435  1.3463  0.6207
 4887SOL     OW26119   1.643   1.672   2.446  0.2001 -0.3035  0.5204
 4887SOL    HW126120   1.665   1.611   2.517  0.5307 -0.5980  0.1707
 4887SOL    HW226121   1.551   1.697   2.457  0.0279  0.7388 -3.2583
 4888SOL     OW26122   4.218   1.780   3.140 -0.0862  0.1128 -0.2903
 4888SOL    HW126123   4.254   1.807   3.056  1.0101  1.8374  0.7337
 4888SOL    HW226124   4.220   1.868   3.177 -0.5256 -0.1075  0.2603
 4889SOL     OW26125   0.527   2.741   8.370 -0.3744  0.1125  0.2257
 4889SOL    HW126126   0.457   2.803   8.391 -1.0669 -1.2519  1.8718
 4889SOL    HW226127   0.526   2.748   8.274  2.4707  3.7269  0.4418
 4890SOL     OW26128   4.257   2.607  13.161 -0.1734  0.3708  0.5339
 4890SOL    HW126129   4.220   2.531  13.117  1.8066 -0.3767  0.1975
 4890SOL    HW226130   4.190   2.673  13.142  1.1256  1.6996  0.5039
 4891SOL     OW26131   0.058   2.811   2.758  0.5895  0.3521 -0.1934
 4891SOL    HW126132   0.069   2.716   2.752 -1.1278  0.3156 -2.5253
 4891SOL    HW226133   4.708   2.828   2.699 -0.0323 -1.1854  0.1333
 4892SOL     OW26134   1.630   3.650   7.359 -0.2913 -0.0359  0.5917
 4892SOL    HW126135   1.642   3.557   7.340 -0.3926  0.4824 -1.9359
 4892SOL    HW226136   1.570   3.641   7.433  0.7374  2.6574  1.7395
 4893SOL     OW26137   1.864   3.205  11.686 -0.1129 -0.4223 -0.9765
 4893SOL    HW126138   1.829   3.127  11.645  0.3158 -0.5754 -1.0515
 4893SOL    HW226139   1.919   3.159  11.749 -3.5925 -1.5701  1.1849
 4894SOL     OW26140   0.374   2.804  16.016  0.8725 -0.5381 -0.2684
 4894SOL    HW126141   0.436   2.746  15.972  2.7108  0.8276  0.5472
 4894SOL    HW226142   0.406   2.808  16.106  0.4196 -0.1565 -0.1285
 4895SOL     OW26143   3.882   4.117  14.502 -0.2016 -0.1881 -0.3364
 4895SOL    HW126144   3.845   4.140  14.417 -0.5270  2.0385  0.4367
 4895SOL    HW226145   3.855   4.026  14.515 -1.4232  0.4277  1.3344
 4896SOL     OW26146   2.892   1.578   3.950 -0.0937 -0.2038 -0.1541
 4896SOL    HW126147   2.947   1.531   3.888  0.4496  0.1522  0.0548
 4896SOL    HW226148   2.893   1.526   4.031  1.9145  2.1088  1.3369
 4897SOL     OW26149   3.956   4.163   8.148 -0.3160  0.1498  0.3539
 4897SOL    HW126150   3.921   4.099   8.210  0.7345 -1.1426 -0.3945
 4897SOL    HW226151   3.895   4.236   8.155 -2.2847 -1.6934  2.4350
 4898SOL     OW26152   2.469   4.491   5.130 -0.7319  0.1685  0.1179
 4898SOL    HW126153   2.382   4.501   5.169 -1.0859 -1.2815 -0.2888
 4898SOL    HW226154   2.506   4.579   5.125 -0.2850  0.0551  1.4001
 4899SOL     OW26155   1.166   3.156   5.681  0.3406  0.3802  0.3454
 4899SOL    HW126156   1.138   3.214   5.610 -0.0381 -0.4498 -0.1949
 4899SOL    HW226157   1.077   3.136   5.712  0.2151  0.3874 -0.0096
 4900SOL     OW26158   3.129   1.569   9.900  0.3914  0.0160  0.0974
 4900SOL    HW126159   3.135   1.561   9.805 -1.9104 -1.0724  0.0461
 4900SOL    HW226160   3.075   1.647   9.915 -0.1829 -0.6604  1.5341
 4901SOL     OW26161   1.438   0.031   2.184  0.7157 -0.1488 -0.2977
 4901SOL    HW126162   1.432   0.001   2.093  2.6700 -2.4417  0.3586
 4901SOL    HW226163   1.480   0.116   2.168  0.6351 -0.2441 -1.0178
 4902SOL     OW26164   1.418   1.932   2.099 -0.0347 -0.0295 -0.2728
 4902SOL    HW126165   1.437   1.858   2.157  0.9398 -0.8275 -1.5872
 4902SOL    HW226166   1.323   1.925   2.100 -0.0946  0.9115  0.9942
 4903SOL     OW26167   2.016   0.868   7.579  0.2386  0.2325  0.4657
 4903SOL    HW126168   1.926   0.887   7.605  0.7430  5.5979 -1.5993
 4903SOL    HW226169   2.033   0.788   7.629  1.8846 -0.5644 -1.3742
 4904SOL     OW26170   0.642   3.839   7.494 -0.5890  0.2319 -0.5112
 4904SOL    HW126171   0.693   3.893   7.554 -1.5546 -0.5932  1.0561
 4904SOL    HW226172   0.568   3.899   7.485  0.2715  1.2308 -0.8680
 4905SOL     OW26173   1.733   2.966   1.562  0.2623 -0.1568  0.3863
 4905SOL    HW126174   1.644   2.961   1.596  0.2837 -0.4011  0.4098
 4905SOL    HW226175   1.762   2.874   1.564  1.4508  0.1541 -2.6242
 4906SOL     OW26176   2.301   4.682   4.266 -0.2951  0.1032 -0.0388
 4906SOL    HW126177   2.304   4.703   4.360  1.9779 -2.5134  0.4815
 4906SOL    HW226178   2.210   4.698   4.241 -0.8355  0.4772  2.1327
 4907SOL     OW26179   4.627   1.849   3.120  0.6370 -0.5631 -0.6580
 4907SOL    HW126180   4.691   1.910   3.159 -0.2597  0.4182 -0.7182
 4907SOL    HW226181   4.563   1.920   3.110  2.4836  1.5011  2.0825
 4908SOL     OW26182   0.813   3.557   8.222 -0.2438  0.1044  0.4554
 4908SOL    HW126183   0.768   3.594   8.298 -0.3460 -1.9079  1.3807
 4908SOL    HW226184   0.764   3.475   8.219 -0.8934  0.4714  0.8875
 4909SOL     OW26185   3.038   4.273  12.574 -0.2208  0.5101 -0.2216
 4909SOL    HW126186   3.103   4.209  12.602  1.9784  1.8110 -2.3492
 4909SOL    HW226187   2.966   4.271  12.637  2.1495 -1.8190  2.4114
 4910SOL     OW26188   4.370   3.362   2.652  0.1351 -0.1539 -0.5240
 4910SOL    HW126189   4.296   3.313   2.687  0.4470  0.3441  0.7959
 4910SOL    HW226190   4.342   3.450   2.675 -0.9037 -0.8235  0.7604
 4911SOL     OW26191   1.930   4.679   4.970 -0.3946  0.5118 -0.2950
 4911SOL    HW126192   2.003   4.624   4.941 -0.4797  0.9579 -1.3804
 4911SOL    HW226193   1.988   0.021   5.007  0.8572  0.8485 -2.8297
 4912SOL     OW26194   2.418   0.691  14.228  0.1966 -0.0010 -0.1632
 4912SOL    HW126195   2.331   0.723  14.252 -0.3250 -2.8265  1.7112
 4912SOL    HW226196   2.415   0.659  14.137 -0.2506 -1.1017  0.2289
 4913SOL     OW26197   2.692   1.705   2.393  0.1310  0.2213  0.2439
 4913SOL    HW126198   2.714   1.739   2.480  0.7379  0.9674 -0.2039
 4913SOL    HW226199   2.672   1.784   2.342 -0.5858 -0.8327 -1.1037
 4914SOL     OW26200   3.306   0.343  12.450 -0.8120  0.0880 -0.4549
 4914SOL    HW126201   3.307   0.410  12.519  0.1594 -0.8554  0.4431
 4914SOL    HW226202   3.229   0.291  12.472 -0.7537  0.3164  0.3197
 4915SOL     OW26203   0.064   2.101  16.979 -0.0572 -0.2788  0.1163
 4915SOL    HW126204   4.717   2.079  16.918 -1.1715  0.1140  1.2667
 4915SOL    HW226205   0.115   2.165  16.930 -1.9954  0.7549 -0.5423
 4916SOL     OW26206   2.960   0.661   2.389 -0.3309  0.7922  0.0332
 4916SOL    HW126207   2.952   0.752   2.419  2.7531  0.8880  0.5430
 4916SOL    HW226208   3.055   0.652   2.396 -0.4128 -0.9919 -1.0681
 4917SOL     OW26209   0.389   3.635  11.854  0.1497  0.0122 -0.0288
 4917SOL    HW126210   0.431   3.642  11.940  0.4401  0.9960 -0.2600
 4917SOL    HW226211   0.460   3.607  11.796  0.2672  0.3249 -0.0321
 4918SOL     OW26212   2.722   2.677  16.297  0.4934 -0.4556  0.5373
 4918SOL    HW126213   2.640   2.726  16.294  0.5179 -0.4467  0.0600
 4918SOL    HW226214   2.777   2.734  16.351  0.0260  0.3829  0.1207
 4919SOL     OW26215   3.779   0.249   1.740  0.2695  0.0389  0.0602
 4919SOL    HW126216   3.862   0.277   1.778  1.5082 -3.8543  0.2422
 4919SOL    HW226217   3.721   0.311   1.784  0.6774  0.5217 -0.0743
 4920SOL     OW26218   2.739   2.292  13.139  0.3064 -0.0037  0.1986
 4920SOL    HW126219   2.810   2.270  13.078  0.0593  1.1972 -0.5203
 4920SOL    HW226220   2.691   2.364  13.098  0.4487  0.6477  1.1877
 4921SOL     OW26221   1.165   4.528  12.834  0.0236  0.3957 -0.2238
 4921SOL    HW126222   1.077   4.496  12.819 -0.0094 -0.1229  1.1058
 4921SOL    HW226223   1.214   4.500  12.757 -0.5183 -1.6871  0.2068
 4922SOL     OW26224   0.856   2.113   3.576 -0.2560 -0.0039  0.4053
 4922SOL    HW126225   0.772   2.086   3.539  0.1157 -2.0065  1.0184
 4922SOL    HW226226   0.911   2.096   3.500 -2.7926 -1.9982 -0.9569
 4923SOL     OW26227   3.723   0.717   3.075  0.5024 -0.3951  0.0806
 4923SOL    HW126228   3.715   0.664   2.995  0.8479  0.1717 -0.3280
 4923SOL    HW226229   3.659   0.664   3.122 -0.3891  1.6746  1.1680
 4924SOL     OW26230   2.545   1.801  11.044 -0.2338  0.0552 -0.3150
 4924SOL    HW126231   2.489   1.727  11.021 -2.0075  1.3593 -0.2532
 4924SOL    HW226232   2.621   1.784  10.989 -0.7050  2.8846 -1.8229
 4925SOL     OW26233   4.473   4.600  15.862  0.3460 -0.5055  0.0698
 4925SOL    HW126234   4.406   4.657  15.902  1.2582 -0.1829  1.1340
 4925SOL    HW226235   4.547   4.611  15.921 -0.2280 -0.1365  0.7301
 4926SOL     OW26236   4.520   1.593   3.890 -0.4077  0.6618 -0.1515
 4926SOL    HW126237   4.469   1.660   3.844 -1.4679  0.0287  0.0947
 4926SOL    HW226238   4.495   1.521   3.832 -2.8914  2.7931 -1.6811
 4927SOL     OW26239   2.487   3.945   3.038 -0.3827 -0.7267  0.3640
 4927SOL    HW126240   2.488   3.852   3.059  0.6542 -0.5284  1.1593
 4927SOL    HW226241   2.557   3.956   2.974 -0.3923  1.4849  0.7223
 4928SOL     OW26242   1.106   3.123   4.749 -0.8177 -0.8936  0.2365
 4928SOL    HW126243   1.072   3.120   4.660  0.0917 -1.4915 -0.0858
 4928SOL    HW226244   1.166   3.049   4.743  1.5389  1.0021  0.4301
 4929SOL     OW26245   3.727   0.085   7.174 -0.2278 -0.7651  0.0560
 4929SOL    HW126246   3.810   0.051   7.139  0.4376  0.2666  0.6281
 4929SOL    HW226247   3.748   0.124   7.259 -1.1319 -2.3315  0.9898
 4930SOL     OW26248   0.131   2.204   9.042  0.0998  0.0657 -0.6965
 4930SOL    HW126249   0.134   2.219   9.137  0.5913  0.5025 -0.7827
 4930SOL    HW226250   0.103   2.114   9.031 -0.5561  0.3145 -1.0723
 4931SOL     OW26251   4.180   2.116   1.044 -0.2715 -0.4160 -0.1779
 4931SOL    HW126252   4.121   2.063   0.990 -0.2864  0.6728 -1.2283
 4931SOL    HW226253   4.124   2.147   1.116 -2.5191 -2.6055 -0.9712
 4932SOL     OW26254   3.493   0.565  14.080  0.5770 -0.1707  0.0581
 4932SOL    HW126255   3.405   0.561  14.116  0.6824  1.0927  0.4323
 4932SOL    HW226256   3.488   0.645  14.028  1.7548  0.2595  0.5972
 4933SOL     OW26257   2.247   1.890   8.839 -0.8529  0.1358 -0.6417
 4933SOL    HW126258   2.226   1.840   8.918 -0.4433 -1.5149 -1.5770
 4933SOL    HW226259   2.342   1.873   8.834 -0.9618 -0.7267  0.1069
 4934SOL     OW26260   3.505   3.780   1.209  0.6433  0.4703  0.1264
 4934SOL    HW126261   3.556   3.736   1.141 -2.0528  0.0827 -1.6556
 4934SOL    HW226262   3.419   3.745   1.185  0.4698  1.6874 -1.0194
 4935SOL     OW26263   4.578   2.253   6.682  0.4740  0.1469  0.3909
 4935SOL    HW126264   4.673   2.260   6.692  0.2065  0.2650  2.8129
 4935SOL    HW226265   4.554   2.322   6.619  0.4222 -0.5082 -0.3115
 4936SOL     OW26266   0.663   3.515  17.366  0.4847 -0.3764  0.3555
 4936SOL    HW126267   0.722   3.579  17.406  0.1993  0.2762 -0.2743
 4936SOL    HW226268   0.662   3.538  17.273 -2.1910 -0.8718  0.2777
 4937SOL     OW26269   2.803   4.333  12.696 -0.1907  0.1224 -0.0043
 4937SOL    HW126270   2.731   4.297  12.748  1.2781  0.3885  2.2140
 4937SOL    HW226271   2.791   4.424  12.722 -0.6542 -0.0877  0.5223
 4938SOL     OW26272   3.536   3.604   8.313  0.2729  0.0661  0.3838
 4938SOL    HW126273   3.568   3.527   8.266 -2.8140  0.2365 -1.9608
 4938SOL    HW226274   3.540   3.572   8.403 -1.5382 -0.6369  0.2007
 4939SOL     OW26275   2.406   4.476   8.639  0.2691  0.4493  0.1587
 4939SOL    HW126276   2.411   4.532   8.562 -1.5362 -1.8848 -1.6551
 4939SOL    HW226277   2.402   4.390   8.597  1.9807 -0.2233  1.3453
 4940SOL     OW26278   1.519   0.185   0.396 -0.1676 -0.3840  0.3431
 4940SOL    HW126279   1.471   0.257   0.436 -2.4841 -1.2451 -0.9040
 4940SOL    HW226280   1.509   0.196   0.302 -0.2561 -0.4376  0.3462
 4941SOL     OW26281   1.280   0.355   6.038  0.3227  0.0880 -0.3290
 4941SOL    HW126282   1.225   0.380   5.963 -1.0907 -0.7936  0.4134
 4941SOL    HW226283   1.353   0.405   6.003  0.7292 -0.2531  0.0326
 4942SOL     OW26284   3.381   4.241   7.464  0.8253 -0.5073  0.7406
 4942SOL    HW126285   3.465   4.268   7.500  0.2512  1.8377  0.3377
 4942SOL    HW226286   3.410   4.167   7.411 -0.4467 -0.1982 -0.3935
 4943SOL     OW26287   3.325   4.267   5.793 -0.0458 -0.5691 -0.0267
 4943SOL    HW126288   3.338   4.362   5.794  1.4972 -0.7805  0.8946
 4943SOL    HW226289   3.314   4.254   5.887  1.5284  0.8399  0.3619
 4944SOL     OW26290   2.793   3.130   4.429  0.0619  0.6795  0.2064
 4944SOL    HW126291   2.858   3.079   4.381  0.7499  0.7582  1.0556
 4944SOL    HW226292   2.844   3.146   4.508 -0.7912 -2.9751  1.4726
 4945SOL     OW26293   0.725   0.331   4.465 -0.6122  0.5099  0.1539
 4945SOL    HW126294   0.750   0.409   4.417  0.0141 -0.7580 -1.5829
 4945SOL    HW226295   0.711   0.360   4.555  2.4985 -0.2045  0.8593
 4946SOL     OW26296   0.890   2.509   6.409  0.0748 -0.0332  0.0213
 4946SOL    HW126297   0.983   2.484   6.407 -0.1618 -1.1978  2.7757
 4946SOL    HW226298   0.889   2.601   6.433  0.6464 -0.4498  1.6892
 4947SOL     OW26299   2.747   1.451   5.562  0.7636 -0.3077  0.0010
 4947SOL    HW126300   2.700   1.374   5.532 -0.6913 -0.6995  3.3391
 4947SOL    HW226301   2.712   1.472   5.648  2.7399  0.6779  0.5688
 4948SOL     OW26302   0.549   3.172   4.825 -0.4096  0.4924  1.0814
 4948SOL    HW126303   0.493   3.187   4.901 -0.1215  0.3950  1.3132
 4948SOL    HW226304   0.614   3.110   4.859 -1.7481 -1.2821  0.3817
 4949SOL     OW26305   0.605   2.359   6.403 -0.1544  0.0501  0.4059
 4949SOL    HW126306   0.676   2.419   6.423 -0.1554 -0.1006  0.8528
 4949SOL    HW226307   0.587   2.394   6.316  0.3720  1.2101  0.7650
 4950SOL     OW26308   1.740   3.927  11.519 -0.0233 -0.2824 -0.1801
 4950SOL    HW126309   1.794   4.002  11.497 -0.8920  0.0235 -1.2326
 4950SOL    HW226310   1.691   3.960  11.595 -1.9948 -2.2035 -0.6005
 4951SOL     OW26311   4.186   0.773  12.711  0.4450  0.4928  0.3081
 4951SOL    HW126312   4.268   0.742  12.750  1.3028 -0.1927 -2.0369
 4951SOL    HW226313   4.120   0.706  12.730  2.3288 -1.4824 -0.0735
 4952SOL     OW26314   3.212   1.182   7.649  0.2887 -0.2258 -0.6850
 4952SOL    HW126315   3.287   1.198   7.592  0.5727  0.9648  0.0203
 4952SOL    HW226316   3.242   1.135   7.727  0.2643  0.2123 -0.4115
 4953SOL     OW26317   4.139   1.919  15.148 -0.4420 -0.0419 -0.3410
 4953SOL    HW126318   4.078   1.871  15.203 -1.0611 -0.1201 -1.1014
 4953SOL    HW226319   4.177   1.976  15.215  0.9392 -2.1188  0.6836
 4954SOL     OW26320   1.437   3.253   0.755 -0.0772 -0.3625 -0.0691
 4954SOL    HW126321   1.475   3.172   0.790  2.7358  1.0933  0.2308
 4954SOL    HW226322   1.515   3.307   0.745  1.5215 -2.8720 -0.9519
 4955SOL     OW26323   3.286   1.666  14.203 -0.1893 -0.8383 -0.8294
 4955SOL    HW126324   3.314   1.596  14.144 -1.4887  0.2003 -2.6563
 4955SOL    HW226325   3.202   1.645  14.244  1.3089 -3.2801  0.9891
 4956SOL     OW26326   3.456   1.524  17.004  0.1128  0.4007 -0.2202
 4956SOL    HW126327   3.496   1.588  16.945  1.5511 -1.5237 -1.3556
 4956SOL    HW226328   3.537   1.484  17.036 -1.0652 -1.8334 -0.0170
 4957SOL     OW26329   0.037   2.631   3.531 -0.4662  0.0394  0.0837
 4957SOL    HW126330   4.686   2.574   3.553  1.1135 -1.7621  0.7314
 4957SOL    HW226331   4.718   2.685   3.464  0.9257  1.3652  0.2803
 4958SOL     OW26332   4.241   2.453   0.669  0.3237 -0.2190  0.3584
 4958SOL    HW126333   4.163   2.427   0.717 -0.0354  0.5274  0.1812
 4958SOL    HW226334   4.219   2.545   0.652  0.3918  0.5616  4.5284
 4959SOL     OW26335   4.601   3.152   8.950  0.5827  0.1809 -0.2897
 4959SOL    HW126336   4.688   3.135   8.987  0.1425 -1.0250  0.2015
 4959SOL    HW226337   4.577   3.060   8.939 -1.8335  0.7745  0.0961
 4960SOL     OW26338   0.017   4.494   6.125 -0.9291  0.0380  0.2162
 4960SOL    HW126339   0.026   4.409   6.081 -0.7244  0.7352 -1.0950
 4960SOL    HW226340   0.056   4.560   6.068 -1.6395 -0.0041 -0.3311
 4961SOL     OW26341   1.000   3.118   8.080  0.6324 -0.3442  0.3617
 4961SOL    HW126342   0.980   3.191   8.139 -0.5098 -0.2952 -0.0937
 4961SOL    HW226343   1.093   3.101   8.096  1.1857 -0.7773 -3.2470
 4962SOL     OW26344   4.183   0.137   6.680 -0.1958  0.1793 -0.1468
 4962SOL    HW126345   4.255   0.121   6.741 -0.1582  0.6249 -0.0768
 4962SOL    HW226346   4.209   0.223   6.647 -1.6897  0.5352 -0.4145
 4963SOL     OW26347   2.369   1.933   1.983  0.2120  0.8445 -0.3572
 4963SOL    HW126348   2.444   1.911   2.039 -1.7610 -1.5951  1.2835
 4963SOL    HW226349   2.289   1.915   2.031  2.1202 -1.7423  1.8091
 4964SOL     OW26350   0.255   1.639   8.066  0.0103  0.0593  0.4264
 4964SOL    HW126351   0.246   1.640   8.161  1.9558 -0.0579  0.6043
 4964SOL    HW226352   0.242   1.547   8.043  3.1796 -0.1923 -0.3463
 4965SOL     OW26353   4.375   4.493   9.114  0.1718  0.3645 -0.5459
 4965SOL    HW126354   4.444   4.553   9.086  1.6340 -1.7461 -1.4926
 4965SOL    HW226355   4.418   4.429   9.170 -1.8491  0.9688  1.6762
 4966SOL     OW26356   2.069   4.142   8.935  0.4859  0.1398  0.4863
 4966SOL    HW126357   2.085   4.096   9.018  0.4134  3.2366  2.2311
 4966SOL    HW226358   2.113   4.091   8.867  0.8277  1.1282 -0.0303
 4967SOL     OW26359   0.557   3.664   3.631  0.9117  0.4881  0.8986
 4967SOL    HW126360   0.480   3.628   3.673 -0.9755  1.8106 -1.4276
 4967SOL    HW226361   0.549   3.752   3.669  0.9653  0.6859  0.4573
 4968SOL     OW26362   1.499   1.432   4.730  0.0359 -0.4628 -0.1496
 4968SOL    HW126363   1.481   1.505   4.671 -0.0877 -0.7888 -0.5164
 4968SOL    HW226364   1.416   1.396   4.762 -0.7822  0.4683 -1.2181
 4969SOL     OW26365   3.194   2.281   8.276  0.5632  0.6115 -0.4468
 4969SOL    HW126366   3.181   2.329   8.194 -0.3528  1.7874  0.3920
 4969SOL    HW226367   3.164   2.357   8.326 -0.6800 -0.0961 -0.0980
 4970SOL     OW26368   2.984   3.820   7.514  0.4195 -0.2163 -0.3406
 4970SOL    HW126369   3.014   3.847   7.601  0.8030  1.0724 -0.8707
 4970SOL    HW226370   3.051   3.839   7.448  1.1444  1.3520  0.8299
 4971SOL     OW26371   3.692   1.391   0.794 -0.0970  0.5525  0.3557
 4971SOL    HW126372   3.688   1.297   0.813  2.3828  0.1862 -0.9732
 4971SOL    HW226373   3.626   1.426   0.854 -1.9331 -1.6103 -0.4262
 4972SOL     OW26374   1.701   2.795   9.216 -0.4769  0.4023  0.0576
 4972SOL    HW126375   1.616   2.839   9.212 -2.3199 -3.1212  0.7236
 4972SOL    HW226376   1.687   2.729   9.148  0.7292  0.9841 -0.7634
 4973SOL     OW26377   3.974   1.211   4.120 -0.1882  0.2697 -0.4048
 4973SOL    HW126378   4.032   1.287   4.126  1.7851 -1.1330 -2.0571
 4973SOL    HW226379   3.927   1.198   4.203  1.0534 -1.5061  0.0060
 4974SOL     OW26380   3.311   3.256   9.950  0.0204  0.3337 -0.2319
 4974SOL    HW126381   3.370   3.303  10.009 -0.6644 -0.0697  0.7679
 4974SOL    HW226382   3.237   3.316   9.940 -3.3729 -3.6410  0.9295
 4975SOL     OW26383   0.694   2.011   3.184 -0.2200  0.1917  0.7420
 4975SOL    HW126384   0.734   1.979   3.103  2.3235 -1.9613  2.8705
 4975SOL    HW226385   0.683   1.932   3.238 -2.1925  0.0936  0.2221
 4976SOL     OW26386   2.172   0.371   6.256 -0.3077  0.3215 -0.0350
 4976SOL    HW126387   2.081   0.361   6.229 -0.0979  0.7972 -0.9269
 4976SOL    HW226388   2.191   0.282   6.287  2.7342  1.1237  0.4459
 4977SOL     OW26389   4.509   3.288   2.120 -0.2856  0.5638  0.3375
 4977SOL    HW126390   4.417   3.262   2.127 -0.0872 -0.4669 -0.7891
 4977SOL    HW226391   4.533   3.213   2.066  0.0123 -0.9069  2.5116
 4978SOL     OW26392   2.145   4.077   3.986 -0.0659 -0.2669 -0.2581
 4978SOL    HW126393   2.200   4.098   3.910  0.1212 -1.0458 -0.3455
 4978SOL    HW226394   2.065   4.064   3.933 -0.8081 -0.5246  0.9327
 4979SOL     OW26395   0.515   2.018   8.920 -0.5445  0.4287 -0.0499
 4979SOL    HW126396   0.456   2.005   8.846 -0.4411  1.5686 -0.3243
 4979SOL    HW226397   0.457   1.990   8.991 -1.1286 -0.5141 -0.9094
 4980SOL     OW26398   2.943   1.239  16.776  0.0878 -0.8042  0.5638
 4980SOL    HW126399   2.852   1.215  16.757 -0.5338  1.4923  0.6149
 4980SOL    HW226400   2.978   1.150  16.773 -1.1761 -1.3349  1.1823
 4981SOL     OW26401   1.960   2.765   8.213 -0.6021  0.3008  0.4250
 4981SOL    HW126402   1.967   2.669   8.213  0.0789  0.3507 -0.6294
 4981SOL    HW226403   2.043   2.773   8.260 -0.7822  2.1238  0.4252
 4982SOL     OW26404   1.970   1.477   3.214 -0.2185 -0.2982 -0.1263
 4982SOL    HW126405   1.976   1.385   3.238 -1.6189 -0.6156 -0.9459
 4982SOL    HW226406   2.025   1.473   3.135 -0.1344 -2.6953  0.0668
 4983SOL     OW26407   4.154   1.948   0.520  0.4186  0.3151 -0.1021
 4983SOL    HW126408   4.067   1.910   0.512 -0.3000  1.9240  0.0574
 4983SOL    HW226409   4.125   2.031   0.558  0.1472  0.4717 -0.6617
 4984SOL     OW26410   2.378   0.758   7.351 -0.0984  0.6873 -0.1544
 4984SOL    HW126411   2.404   0.849   7.362  1.6648  0.6482 -3.9681
 4984SOL    HW226412   2.424   0.740   7.269  1.2407  0.7232  0.5886
 4985SOL     OW26413   0.349   2.259   1.935  0.1762  0.4174 -0.4075
 4985SOL    HW126414   0.440   2.285   1.919  0.0905 -0.4616 -2.3402
 4985SOL    HW226415   0.333   2.192   1.869  1.2410  2.0026 -2.2796
 4986SOL     OW26416   2.989   3.615  15.392  0.0518 -0.0556 -0.0947
 4986SOL    HW126417   2.962   3.555  15.460  0.9455 -0.0507  0.2688
 4986SOL    HW226418   3.038   3.686  15.435  0.8612 -0.3705 -0.4902
 4987SOL     OW26419   4.707   3.985   1.305 -0.1596 -1.0985  0.4400
 4987SOL    HW126420   4.630   3.928   1.311 -0.4089 -0.7805  0.2429
 4987SOL    HW226421   4.688   4.058   1.364 -0.8233 -0.7987 -0.1397
 4988SOL     OW26422   1.067   2.092   5.460  0.3892 -0.1732  1.0941
 4988SOL    HW126423   1.004   2.050   5.402 -0.6931  3.1197 -0.1324
 4988SOL    HW226424   1.018   2.081   5.542 -1.0392 -1.3699  0.0739
 4989SOL     OW26425   0.814   2.651   1.822  0.1101  0.2089 -0.0725
 4989SOL    HW126426   0.761   2.589   1.873 -1.2692  1.1439 -0.3707
 4989SOL    HW226427   0.812   2.608   1.737 -0.1949  0.9196 -0.4233
 4990SOL     OW26428   1.944   2.744   8.684  0.0136  0.1379  0.4515
 4990SOL    HW126429   1.923   2.809   8.617  1.2514 -0.7391 -0.7865
 4990SOL    HW226430   2.022   2.778   8.728  0.3923  0.8457 -0.7604
 4991SOL     OW26431   2.062   4.221   7.494 -0.4536  0.5434 -0.0454
 4991SOL    HW126432   1.999   4.230   7.565 -0.9487 -1.8947 -0.1747
 4991SOL    HW226433   2.013   4.166   7.433  0.0363 -2.4321  2.3038
 4992SOL     OW26434   2.719   1.174   4.246  0.0657 -0.3169 -0.5115
 4992SOL    HW126435   2.746   1.264   4.268 -0.8659 -0.1481 -0.0379
 4992SOL    HW226436   2.781   1.143   4.181 -0.0367 -1.8594  0.1401
 4993SOL     OW26437   3.261   3.228   7.732  0.0702  0.4055  0.0438
 4993SOL    HW126438   3.258   3.220   7.827 -1.8006 -2.3154 -0.2509
 4993SOL    HW226439   3.243   3.321   7.717 -0.6373 -0.0971 -2.2970
 4994SOL     OW26440   2.548   4.247   7.397  0.3691 -0.1824 -0.0792
 4994SOL    HW126441   2.576   4.303   7.469  0.5174 -0.7927  0.3339
 4994SOL    HW226442   2.462   4.223   7.431  1.0290  1.4611  2.6451
 4995SOL     OW26443   2.403   4.219  16.064 -0.1850 -0.0522 -0.1465
 4995SOL    HW126444   2.460   4.162  16.012 -1.8651  1.0515 -3.1728
 4995SOL    HW226445   2.409   4.174  16.148 -0.8485 -0.3490 -0.2561
 4996SOL     OW26446   4.116   1.366   6.474  0.0749  0.1100  0.4088
 4996SOL    HW126447   4.143   1.278   6.503 -2.0284 -0.4337  0.7068
 4996SOL    HW226448   4.189   1.398   6.420  1.5557 -0.0314  2.3055
 4997SOL     OW26449   1.009   1.774  13.541  0.5647 -0.2926 -0.2187
 4997SOL    HW126450   1.056   1.692  13.522  0.6323 -0.0111 -1.2755
 4997SOL    HW226451   1.082   1.830  13.567 -0.0386  1.9051 -3.2436
 4998SOL     OW26452   2.405   3.663   2.532  0.3003  0.2030 -0.2200
 4998SOL    HW126453   2.460   3.689   2.606 -0.3314 -1.3143  0.7880
 4998SOL    HW226454   2.342   3.609   2.581  0.2364 -0.1676 -0.7116
 4999SOL     OW26455   1.840   2.940  15.529  0.5716 -0.1069  0.7047
 4999SOL    HW126456   1.823   2.879  15.601 -0.9652  0.7470  1.0510
 4999SOL    HW226457   1.832   2.883  15.452 -1.7313  1.4769 -0.2057
 5000SOL     OW26458   3.034   2.056  13.266  0.4578 -0.3332 -0.3564
 5000SOL    HW126459   3.023   2.150  13.280 -2.4776 -0.0199 -4.6408
 5000SOL    HW226460   3.052   2.057  13.172 -1.8114  3.5940 -0.7430
 5001SOL     OW26461   0.486   2.149   1.596 -0.4029 -0.0802  0.0124
 5001SOL    HW126462   0.426   2.112   1.661 -0.6483  1.2716  0.5533
 5001SOL    HW226463   0.494   2.241   1.622  0.9120 -0.0060 -0.6593
 5002SOL     OW26464   0.694   3.374   4.630 -0.1268  0.4782  0.5334
 5002SOL    HW126465   0.746   3.353   4.708  0.5655  0.7828  0.1560
 5002SOL    HW226466   0.611   3.326   4.634  0.1890  0.1153  2.4857
 5003SOL     OW26467   3.255   2.822   8.304 -0.2640  0.1351  0.1947
 5003SOL    HW126468   3.323   2.889   8.313 -0.5769  0.4631  0.1126
 5003SOL    HW226469   3.271   2.799   8.396 -1.1050 -3.3384 -0.5210
 5004SOL     OW26470   4.090   2.401   8.064  0.1696 -0.6353 -0.3576
 5004SOL    HW126471   3.996   2.397   8.081  0.3418  1.4336  1.0888
 5004SOL    HW226472   4.087   2.475   8.002 -1.3775  0.7916  1.4374
 5005SOL     OW26473   1.841   1.673   9.208  0.3802 -0.0518  0.1770
 5005SOL    HW126474   1.920   1.676   9.155  2.0520  1.1326  2.7392
 5005SOL    HW226475   1.805   1.758   9.185  1.5542  0.4083  0.0278
 5006SOL     OW26476   3.353   0.283   3.824 -0.3751  0.1053  0.4312
 5006SOL    HW126477   3.412   0.270   3.898 -0.4173  0.2389  0.4874
 5006SOL    HW226478   3.275   0.302   3.875  1.5310  2.1056  2.6416
 5007SOL     OW26479   3.578   1.143   1.741 -0.6736 -0.2050 -0.4806
 5007SOL    HW126480   3.653   1.200   1.759  0.1608 -1.2431 -0.6250
 5007SOL    HW226481   3.562   1.099   1.824  0.2984 -2.4039 -1.4500
 5008SOL     OW26482   3.207   0.580   7.172  0.2331  0.4806  0.1228
 5008SOL    HW126483   3.221   0.674   7.163 -0.6729  0.7737  1.9367
 5008SOL    HW226484   3.139   0.565   7.237  0.6168  0.3948  0.5018
 5009SOL     OW26485   4.095   3.227  13.252 -0.4537  0.1764  0.1217
 5009SOL    HW126486   4.101   3.302  13.193  0.9943  0.1413  0.2296
 5009SOL    HW226487   4.110   3.266  13.338  1.4310  0.7823 -0.4831
 5010SOL     OW26488   3.825   4.110  10.772 -0.3566  0.2038  0.6074
 5010SOL    HW126489   3.849   4.182  10.713 -1.7590  0.8023  0.7705
 5010SOL    HW226490   3.755   4.152  10.821 -0.3678 -0.3932  1.1059
 5011SOL     OW26491   4.237   0.856  16.672  0.0051 -0.3101  0.9543
 5011SOL    HW126492   4.233   0.950  16.691 -3.8727 -0.7530  2.3533
 5011SOL    HW226493   4.302   0.826  16.736  0.4707 -0.3570  0.4559
 5012SOL     OW26494   0.239   4.280  11.209 -0.1025 -0.1983 -0.2780
 5012SOL    HW126495   0.159   4.249  11.166 -1.0746 -0.8393  2.0096
 5012SOL    HW226496   0.310   4.250  11.152 -0.0012  0.5366 -0.5361
 5013SOL     OW26497   2.932   4.487  15.038  0.3748  0.4997 -0.3754
 5013SOL    HW126498   2.918   4.581  15.044 -3.1251 -0.1518  1.5868
 5013SOL    HW226499   2.844   4.450  15.044  0.0124  1.2787 -0.8931
 5014SOL     OW26500   3.142   2.636   6.769 -0.0439 -0.1724 -0.0517
 5014SOL    HW126501   3.051   2.608   6.771 -0.4284  0.9797 -1.1801
 5014SOL    HW226502   3.139   2.706   6.704  0.8234 -0.3729 -0.3123
 5015SOL     OW26503   2.745   4.534   2.752  0.0711 -0.5465  0.6519
 5015SOL    HW126504   2.725   4.552   2.844 -1.6063 -0.5659  0.2737
 5015SOL    HW226505   2.669   4.567   2.705  1.0852 -1.9730 -2.0339
 5016SOL     OW26506   4.377   0.964  12.153 -0.3103 -0.1526 -0.2296
 5016SOL    HW126507   4.338   0.897  12.096 -1.9861  0.4406  0.2290
 5016SOL    HW226508   4.330   1.035  12.110  0.6142  1.8640  2.1643
 5017SOL     OW26509   0.479   4.494   3.595  0.1901 -0.0079 -0.0559
 5017SOL    HW126510   0.431   4.473   3.514  1.2876 -0.3788 -0.5997
 5017SOL    HW226511   0.559   4.538   3.565  1.8228 -0.6060  3.4715
 5018SOL     OW26512   4.007   3.570   7.092 -0.1388 -0.0495 -0.8589
 5018SOL    HW126513   4.024   3.664   7.105 -0.5362 -0.2050  0.7212
 5018SOL    HW226514   3.914   3.560   7.111  0.3913  0.1996  1.8981
 5019SOL     OW26515   3.861   3.096   7.535 -0.0376  0.6508 -0.1334
 5019SOL    HW126516   3.928   3.030   7.550 -1.3760 -0.1869  2.2086
 5019SOL    HW226517   3.803   3.046   7.478  0.8607 -0.3331 -0.1811
 5020SOL     OW26518   0.785   2.663  12.218 -0.0969  0.2784 -0.0731
 5020SOL    HW126519   0.762   2.754  12.233 -0.3964 -0.2567  2.6543
 5020SOL    HW226520   0.873   2.659  12.256 -0.0770  0.4070 -0.1052
 5021SOL     OW26521   0.670   3.515   9.485 -0.1431  0.4445 -0.1228
 5021SOL    HW126522   0.703   3.567   9.412  0.9527 -0.6197 -0.3734
 5021SOL    HW226523   0.640   3.596   9.528  0.8844  1.2281 -0.8880
 5022SOL     OW26524   2.999   0.292   6.441 -0.2569 -0.0108  0.4824
 5022SOL    HW126525   3.030   0.302   6.531 -0.5011 -0.2793  0.5979
 5022SOL    HW226526   2.908   0.321   6.438 -0.4771 -0.7817 -0.5092
 5023SOL     OW26527   3.178   0.659  12.798 -0.2351 -0.1482 -0.1064
 5023SOL    HW126528   3.098   0.686  12.754 -1.0471 -1.3384  0.6706
 5023SOL    HW226529   3.178   0.690  12.889  0.1552  0.9481 -0.4807
 5024SOL     OW26530   4.247   4.085   7.461 -0.0285  0.0305 -0.4451
 5024SOL    HW126531   4.254   4.179   7.476  1.4724 -0.0155 -0.7908
 5024SOL    HW226532   4.261   4.066   7.554 -2.0566 -0.5426 -0.2713
 5025SOL     OW26533   1.674   1.223   9.382  0.4325  0.0550  0.8447
 5025SOL    HW126534   1.756   1.272   9.380 -0.2659  1.1984  0.2338
 5025SOL    HW226535   1.675   1.185   9.470  0.0874  1.8948  1.6405
 5026SOL     OW26536   1.156   1.458   1.908 -0.2078 -0.2516  0.1516
 5026SOL    HW126537   1.113   1.423   1.830  1.1880  0.6607 -1.0322
 5026SOL    HW226538   1.122   1.546   1.900 -1.3952 -1.0188 -2.9272
 5027SOL     OW26539   2.241   1.223   2.416  0.2469 -0.6601 -0.1724
 5027SOL    HW126540   2.332   1.199   2.436  0.9279  1.2642 -0.9910
 5027SOL    HW226541   2.213   1.152   2.358 -1.8546 -2.0371  2.5130
 5028SOL     OW26542   0.045   2.549   2.395 -0.6727  0.1449 -0.1306
 5028SOL    HW126543   0.085   2.613   2.454 -0.4831 -1.8000  1.8678
 5028SOL    HW226544   0.117   2.545   2.332 -1.3950  0.0259 -0.9615
 5029SOL     OW26545   1.980   2.537   6.670 -0.3398 -0.0149 -0.2752
 5029SOL    HW126546   2.070   2.505   6.679 -0.4483 -0.8335 -2.1513
 5029SOL    HW226547   1.976   2.533   6.575 -0.3981 -0.5342 -0.2489
 5030SOL     OW26548   1.453   0.255   1.082 -0.0693 -0.7210 -0.0244
 5030SOL    HW126549   1.470   0.327   1.021 -1.2464  0.4605  1.0565
 5030SOL    HW226550   1.520   0.274   1.147  0.4215 -1.8613 -0.2057
 5031SOL     OW26551   1.974   2.132   7.512 -0.4001  0.2008 -0.1748
 5031SOL    HW126552   1.931   2.188   7.447  0.6782 -1.0379 -1.9389
 5031SOL    HW226553   2.013   2.067   7.454  0.1767  2.8203 -2.7167
 5032SOL     OW26554   1.609   0.132   6.241  0.3005 -0.7533  0.1784
 5032SOL    HW126555   1.572   0.046   6.223 -2.1146  0.4671 -0.7184
 5032SOL    HW226556   1.591   0.176   6.157  2.9749 -2.1617 -1.1289
 5033SOL     OW26557   2.429   1.201   3.841 -0.1503 -0.7180 -0.4825
 5033SOL    HW126558   2.505   1.180   3.787 -0.4379  1.1995 -1.6182
 5033SOL    HW226559   2.375   1.124   3.822  0.1614 -0.8142 -0.9653
 5034SOL     OW26560   2.020   3.366  12.585 -0.0356  1.3979 -0.0404
 5034SOL    HW126561   1.990   3.456  12.596  1.2668  1.4978  2.8096
 5034SOL    HW226562   2.058   3.340  12.670 -0.8966  0.4381  0.0491
 5035SOL     OW26563   0.282   1.919   2.635 -0.3385 -0.6001 -0.0235
 5035SOL    HW126564   0.221   1.854   2.599 -0.3681 -0.6845  0.1754
 5035SOL    HW226565   0.326   1.863   2.700  0.7481  0.0481 -0.2014
 5036SOL     OW26566   2.196   4.505  12.934  0.3941  0.3498  0.0752
 5036SOL    HW126567   2.237   4.494  13.020  1.9332  0.0122 -0.6993
 5036SOL    HW226568   2.268   4.544  12.884  0.5974 -0.7813 -0.5120
 5037SOL     OW26569   3.969   3.071   3.680  0.2345  0.1431 -0.3874
 5037SOL    HW126570   3.912   3.019   3.738  1.9628 -1.6313 -0.2618
 5037SOL    HW226571   4.057   3.034   3.692  0.5999  1.6660  1.7484
 5038SOL     OW26572   3.854   1.927  17.645 -0.4025  0.0438  0.0219
 5038SOL    HW126573   3.843   1.873  17.567  0.9384  1.6366 -1.2658
 5038SOL    HW226574   3.763   1.937  17.673  0.0785  0.4905  1.4246
 5039SOL     OW26575   0.251   2.695   8.006 -0.5508 -0.1993 -0.2691
 5039SOL    HW126576   0.237   2.624   8.069 -0.3691 -1.3388 -1.5177
 5039SOL    HW226577   0.163   2.698   7.967 -0.1147  0.6631 -1.1903
 5040SOL     OW26578   3.178   3.662   7.964 -0.0812 -0.5862  0.1435
 5040SOL    HW126579   3.122   3.730   7.925 -1.2418 -1.6201  0.0395
 5040SOL    HW226580   3.144   3.578   7.935  1.9384 -1.5609  0.5636
 5041SOL     OW26581   3.791   0.416   8.947  0.4242 -0.2688  0.9009
 5041SOL    HW126582   3.697   0.407   8.931  0.3874  0.6055  0.5879
 5041SOL    HW226583   3.816   0.469   8.870 -2.1873 -0.3699 -0.0142
 5042SOL     OW26584   4.697   0.356   5.064  0.0119 -0.0166 -0.0429
 5042SOL    HW126585   4.609   0.362   5.102 -0.2742  1.7480 -1.0053
 5042SOL    HW226586   0.019   0.340   5.147  2.1136 -0.3317 -1.2714
 5043SOL     OW26587   3.736   4.393   7.852  0.1425  0.3425 -0.1238
 5043SOL    HW126588   3.831   4.382   7.860  0.3114  1.7249 -0.3305
 5043SOL    HW226589   3.733   4.482   7.816  2.0310  0.7992  0.8694
 5044SOL     OW26590   1.183   2.454   2.801 -0.3988 -0.1432  1.1962
 5044SOL    HW126591   1.180   2.423   2.892  0.2893 -0.4323  1.1207
 5044SOL    HW226592   1.267   2.419   2.772 -0.6649  1.3604 -1.3994
 5045SOL     OW26593   1.500   2.088   2.327  0.0776  0.3256  0.1039
 5045SOL    HW126594   1.414   2.057   2.358 -1.0120 -0.8174 -3.9970
 5045SOL    HW226595   1.499   2.067   2.233 -0.4795  0.4202  0.0884
 5046SOL     OW26596   4.465   2.411   8.612 -0.5819  0.6139  0.4280
 5046SOL    HW126597   4.384   2.379   8.572 -1.7200  3.0989  0.7215
 5046SOL    HW226598   4.447   2.502   8.637  0.3031  1.8479 -3.3552
 5047SOL     OW26599   1.613   3.683   8.953  0.0146  0.2483  0.7261
 5047SOL    HW126600   1.708   3.675   8.939 -0.4469  0.3398 -2.3308
 5047SOL    HW226601   1.604   3.778   8.949 -3.3333 -0.0505  1.7018
 5048SOL     OW26602   0.136   3.364   6.215 -0.0236 -0.4475 -0.6713
 5048SOL    HW126603   0.206   3.410   6.261 -0.9512 -0.7656  1.0620
 5048SOL    HW226604   0.061   3.398   6.265 -0.3363 -1.8880 -0.1500
 5049SOL     OW26605   3.422   2.659   5.339  0.8565  0.5720 -0.4751
 5049SOL    HW126606   3.419   2.749   5.305  0.7982  0.8408  0.2407
 5049SOL    HW226607   3.508   2.631   5.309  0.1806  0.0080 -1.9171
 5050SOL     OW26608   1.157   3.444  15.504  0.0832  0.2477  0.0637
 5050SOL    HW126609   1.246   3.410  15.519  0.3481  1.6706  1.6625
 5050SOL    HW226610   1.109   3.361  15.509 -0.5912  0.5995 -0.6905
 5051SOL     OW26611   4.023   2.095   2.337 -0.0837  0.1617  0.9085
 5051SOL    HW126612   3.986   2.136   2.259 -0.2743 -2.6616 -0.5190
 5051SOL    HW226613   4.081   2.166   2.363 -0.4347  1.0302 -0.6736
 5052SOL     OW26614   0.132   2.649   4.588  0.0703 -0.1203 -0.0388
 5052SOL    HW126615   0.099   2.671   4.501  1.9993 -1.4195 -1.1114
 5052SOL    HW226616   0.119   2.732   4.634  1.1984 -0.3128  0.6291
 5053SOL     OW26617   2.923   0.288   5.253 -0.4251  0.2056 -0.6800
 5053SOL    HW126618   2.970   0.367   5.282  1.2759 -1.2580  0.5301
 5053SOL    HW226619   2.999   0.255   5.205 -0.4787 -1.2911  0.2974
 5054SOL     OW26620   2.838   3.910   3.321  0.0856 -0.0204 -0.0103
 5054SOL    HW126621   2.776   3.973   3.286  0.7752  1.4823  1.4438
 5054SOL    HW226622   2.894   3.874   3.252  1.2938 -0.6654  1.2855
 5055SOL     OW26623   0.342   2.553   7.178  0.0771  0.4038  0.5830
 5055SOL    HW126624   0.317   2.503   7.256  0.5003 -1.2217 -0.3280
 5055SOL    HW226625   0.341   2.642   7.215 -0.6387  0.7025 -0.1453
 5056SOL     OW26626   0.090   2.576   7.368  0.0460  0.4105  0.9441
 5056SOL    HW126627   0.037   2.524   7.308  3.8678 -1.8517 -0.4537
 5056SOL    HW226628   0.027   2.595   7.438  0.1009  2.7566  0.3671
 5057SOL     OW26629   2.182   1.397   6.725  0.4228 -0.2887  0.0990
 5057SOL    HW126630   2.273   1.373   6.712  0.2662 -1.5696  1.4123
 5057SOL    HW226631   2.129   1.324   6.691  0.5876 -0.0814 -0.5938
 5058SOL     OW26632   3.349   1.184  13.058 -0.4815 -0.1029 -0.5247
 5058SOL    HW126633   3.323   1.161  12.969  0.5751 -1.8989 -0.3529
 5058SOL    HW226634   3.372   1.099  13.094 -3.5169 -1.3046 -1.3835
 5059SOL     OW26635   2.270   3.068   8.069  0.3869 -0.6315 -0.4812
 5059SOL    HW126636   2.272   3.040   8.161 -0.8464  2.0858  0.3704
 5059SOL    HW226637   2.243   2.986   8.027 -0.7100  0.6770 -2.3287
 5060SOL     OW26638   2.864   1.501   2.148  0.6164 -0.5269 -0.3954
 5060SOL    HW126639   2.884   1.423   2.097 -2.4580 -2.0899  0.7903
 5060SOL    HW226640   2.948   1.542   2.129  0.1676  1.1013  1.0691
 5061SOL     OW26641   3.392   0.872   2.695  0.1425  0.4275 -0.1857
 5061SOL    HW126642   3.487   0.864   2.692 -0.0031 -2.0436  1.7920
 5061SOL    HW226643   3.382   0.967   2.685  1.8503  0.6244  0.0978
 5062SOL     OW26644   0.007   1.980   5.740 -0.0313  0.2219 -0.1434
 5062SOL    HW126645   0.070   2.021   5.799 -0.4696 -0.7952  1.0238
 5062SOL    HW226646   4.698   2.057   5.693 -0.8273  0.9613  1.5993
 5063SOL     OW26647   2.744   2.020   7.051 -0.3137 -0.4413 -0.0979
 5063SOL    HW126648   2.717   2.022   7.143  1.0769 -1.2085  0.3332
 5063SOL    HW226649   2.769   1.928   7.040 -2.3739 -1.2493  1.9280
 5064SOL     OW26650   0.227   3.714   4.394 -0.0475  0.7611 -0.2817
 5064SOL    HW126651   0.298   3.742   4.337 -0.4414  1.6228 -0.3486
 5064SOL    HW226652   0.278   3.690   4.471  0.2673  0.7620 -0.4880
 5065SOL     OW26653   2.753   2.047   4.987  0.1533  0.2829 -0.1731
 5065SOL    HW126654   2.752   2.139   4.959 -0.1193  0.7485  1.3865
 5065SOL    HW226655   2.780   2.066   5.077 -1.6455  0.3219  0.3632
 5066SOL     OW26656   2.348   3.931   1.500 -0.3450 -0.8147 -0.5824
 5066SOL    HW126657   2.329   3.838   1.483 -1.0414 -1.2124  2.3210
 5066SOL    HW226658   2.406   3.952   1.427  1.1624 -0.7713  0.6295
 5067SOL     OW26659   4.298   3.846   9.110  0.3308 -0.4564 -0.1129
 5067SOL    HW126660   4.366   3.912   9.101  0.3954 -0.9315 -2.8702
 5067SOL    HW226661   4.297   3.825   9.017 -2.1897 -0.2749 -0.1287
 5068SOL     OW26662   4.663   1.531   2.474 -0.0560  0.3612  0.7835
 5068SOL    HW126663   4.676   1.570   2.387 -0.5042  0.1261  0.6111
 5068SOL    HW226664   4.650   1.610   2.527  0.4350  1.3582 -0.5651
 5069SOL     OW26665   4.527   1.226   4.204  0.0905  0.2706 -0.2464
 5069SOL    HW126666   4.475   1.221   4.284 -1.1986 -1.1967 -1.1539
 5069SOL    HW226667   4.617   1.215   4.232  0.5374 -0.5514 -1.9411
 5070SOL     OW26668   4.379   3.030  10.619  0.4057  0.1044 -0.6857
 5070SOL    HW126669   4.315   3.068  10.559 -1.0108 -0.6032  0.3928
 5070SOL    HW226670   4.458   3.066  10.578  1.8144 -1.8721  0.3226
 5071SOL     OW26671   0.859   4.644   8.756 -0.3283  0.4999 -0.4545
 5071SOL    HW126672   0.862   0.016   8.764 -0.2369  0.5992 -1.6624
 5071SOL    HW226673   0.947   4.622   8.726 -1.3659 -1.9797 -1.7333
 5072SOL     OW26674   0.010   1.841   6.299 -0.5021  0.1657 -0.1294
 5072SOL    HW126675   0.007   1.930   6.263 -0.0780 -0.3700 -1.4927
 5072SOL    HW226676   0.106   1.835   6.299 -0.5505 -0.4458  1.1744
 5073SOL     OW26677   2.257   0.279  14.310 -0.0338  0.4827  0.1263
 5073SOL    HW126678   2.166   0.258  14.291  0.6226 -1.9439 -0.3773
 5073SOL    HW226679   2.301   0.318  14.235 -1.2564 -0.2717 -0.9924
 5074SOL     OW26680   3.326   0.373   6.577 -0.7817 -0.3316 -0.1976
 5074SOL    HW126681   3.330   0.404   6.667  2.2602 -0.5702 -0.2593
 5074SOL    HW226682   3.268   0.297   6.584 -0.1383 -0.7875  0.1044
 5075SOL     OW26683   0.258   4.024   8.059 -0.1964 -0.3789 -0.3172
 5075SOL    HW126684   0.293   4.111   8.039 -0.7379  0.2685  1.5630
 5075SOL    HW226685   0.233   4.030   8.151  0.1578  0.5126 -0.2783
 5076SOL     OW26686   2.759   2.724   5.901 -0.2990  0.5681 -0.8491
 5076SOL    HW126687   2.666   2.739   5.890 -0.2605 -0.4347 -2.5990
 5076SOL    HW226688   2.773   2.680   5.817 -0.3732  1.9992 -1.6115
 5077SOL     OW26689   0.583   2.027  10.185  0.1336  0.0739 -0.6860
 5077SOL    HW126690   0.630   1.962  10.237 -1.5757 -1.4166 -0.9920
 5077SOL    HW226691   0.497   2.035  10.228  0.1419 -0.3106 -0.5930
 5078SOL     OW26692   4.347   3.688   3.435 -0.3756  0.7745  0.2047
 5078SOL    HW126693   4.274   3.736   3.474 -1.5858  0.6533 -1.9242
 5078SOL    HW226694   4.407   3.757   3.405 -1.6002  0.4421 -3.0073
 5079SOL     OW26695   1.151   4.647   4.467 -0.0298  0.0545  0.3006
 5079SOL    HW126696   1.174   4.697   4.546  2.6215  1.3196 -1.2893
 5079SOL    HW226697   1.063   4.680   4.448 -0.0109 -0.0514  0.0395
 5080SOL     OW26698   1.091   4.418   1.296  0.7038  0.0182 -0.4940
 5080SOL    HW126699   1.057   4.504   1.322  0.9277 -0.3463  0.9899
 5080SOL    HW226700   1.112   4.429   1.203 -1.8584  1.7282 -0.8872
 5081SOL     OW26701   2.914   0.197   5.807  0.8384 -0.2461 -0.3510
 5081SOL    HW126702   2.913   0.289   5.831 -0.4675 -0.0135 -1.3158
 5081SOL    HW226703   2.890   0.158   5.891  3.0005  0.2823  0.5145
 5082SOL     OW26704   4.101   1.167   9.150 -0.2217 -0.1092  0.2198
 5082SOL    HW126705   4.111   1.239   9.212 -1.2622 -0.2896  0.5898
 5082SOL    HW226706   4.156   1.114   9.207 -0.0254  0.6787  0.7602
 5083SOL     OW26707   0.592   2.407   4.601 -0.7196  0.1622  0.4606
 5083SOL    HW126708   0.603   2.313   4.588  0.4813  0.4788 -0.9428
 5083SOL    HW226709   0.676   2.435   4.564 -0.0307 -0.8190  1.2604
 5084SOL     OW26710   3.537   3.403   3.194  0.1509  0.0590  0.3174
 5084SOL    HW126711   3.574   3.391   3.282  1.2112  1.3162  0.0363
 5084SOL    HW226712   3.588   3.342   3.141 -1.2892 -2.0952  1.3919
 5085SOL     OW26713   4.559   4.234   0.949 -0.4112  0.7271  0.2665
 5085SOL    HW126714   4.477   4.251   0.902  0.6478 -1.0454 -2.2343
 5085SOL    HW226715   4.517   4.192   1.024  1.5696  1.6904  1.9217
 5086SOL     OW26716   3.432   0.980   6.665 -0.1878 -0.3522  0.1236
 5086SOL    HW126717   3.409   1.045   6.598 -3.1892  0.9478  2.4736
 5086SOL    HW226718   3.523   1.009   6.674 -0.3695  0.1162  0.4728
 5087SOL     OW26719   0.312   1.471  13.019  0.1260  0.1962  0.0685
 5087SOL    HW126720   0.330   1.415  13.095  3.4175 -0.4167 -1.1662
 5087SOL    HW226721   0.230   1.509  13.051  0.3436  1.4149 -0.8323
 5088SOL     OW26722   3.323   0.521   4.155  0.1417  1.0346 -0.6581
 5088SOL    HW126723   3.271   0.601   4.142 -0.4759  0.8763  0.9044
 5088SOL    HW226724   3.299   0.502   4.245  0.2300  0.7540 -0.6934
 5089SOL     OW26725   3.111   1.105  13.970 -0.5171 -0.0884 -0.2829
 5089SOL    HW126726   3.086   1.126  13.881  0.8790 -1.1805 -0.9314
 5089SOL    HW226727   3.032   1.097  14.024 -0.2604  0.1738  0.1364
 5090SOL     OW26728   4.570   4.294  10.094 -0.0005  0.2570  0.2158
 5090SOL    HW126729   4.501   4.360  10.092  0.3556  0.5776 -1.4896
 5090SOL    HW226730   4.574   4.280  10.000 -0.6670  1.4474  0.0150
 5091SOL     OW26731   3.138   2.559   4.452 -0.0871 -0.6038 -0.3156
 5091SOL    HW126732   3.133   2.576   4.358  2.7201 -0.5291 -0.4538
 5091SOL    HW226733   3.201   2.628   4.472 -1.1521  0.4573 -0.6123
 5092SOL     OW26734   0.609   0.912  13.677 -0.2471 -0.3541  0.1338
 5092SOL    HW126735   0.522   0.928  13.713 -0.5731  0.4134 -1.0062
 5092SOL    HW226736   0.576   0.853  13.609 -0.5463 -1.2231  1.0203
 5093SOL     OW26737   4.171   1.402   3.578  0.5570  0.2734  0.5899
 5093SOL    HW126738   4.080   1.430   3.573  0.7148  0.8380  0.8008
 5093SOL    HW226739   4.214   1.449   3.506  2.5318  0.4847  1.9087
 5094SOL     OW26740   1.489   3.750  17.077 -0.0665 -0.0798  0.7975
 5094SOL    HW126741   1.452   3.686  17.017 -0.0599  1.7902 -1.1842
 5094SOL    HW226742   1.510   3.825  17.022 -0.9108  0.1042  0.7268
 5095SOL     OW26743   0.010   4.007   4.891 -0.0947  0.0187  1.0523
 5095SOL    HW126744   0.071   3.959   4.947  0.8714  0.3423  0.2738
 5095SOL    HW226745   4.701   3.939   4.832  0.2369  0.4309  0.3978
 5096SOL     OW26746   3.365   2.949  10.182  0.2811  0.2615  0.1855
 5096SOL    HW126747   3.342   2.857  10.166 -0.3207  0.4719 -0.1661
 5096SOL    HW226748   3.437   2.936  10.121  0.8268  0.9055  0.7072
 5097SOL     OW26749   3.733   0.149   8.599 -0.3222  0.1223  0.4655
 5097SOL    HW126750   3.664   0.214   8.588  0.3792  0.5487 -1.4171
 5097SOL    HW226751   3.679   0.089   8.650  1.1336 -1.7974 -0.2299
 5098SOL     OW26752   3.550   4.157   8.240 -0.1166 -0.2009 -0.0335
 5098SOL    HW126753   3.622   4.214   8.216 -0.6088 -0.0558 -1.1712
 5098SOL    HW226754   3.482   4.221   8.259  1.2381  0.8655  1.1946
 5099SOL     OW26755   0.817   1.704   2.988 -0.4078  0.1259  0.2546
 5099SOL    HW126756   0.909   1.682   2.995 -0.9808 -2.5142 -0.6503
 5099SOL    HW226757   0.823   1.793   2.952 -1.1239 -0.1369 -0.5107
 5100SOL     OW26758   0.217   2.516   2.161  0.2099  0.2231 -0.4481
 5100SOL    HW126759   0.306   2.482   2.148  0.3984 -0.1952  1.9436
 5100SOL    HW226760   0.180   2.480   2.080  1.2933 -0.3950 -0.6731
 5101SOL     OW26761   0.095   0.517   2.475 -0.0137 -0.6916  0.6835
 5101SOL    HW126762   0.163   0.475   2.423 -0.4884 -1.6426  0.8392
 5101SOL    HW226763   0.022   0.470   2.434  0.7548 -1.4441  0.1894
 5102SOL     OW26764   1.416   3.837   7.215  0.0860  0.2605 -0.0187
 5102SOL    HW126765   1.473   3.774   7.170  0.6373  0.5364  0.3002
 5102SOL    HW226766   1.380   3.883   7.139 -0.2440  2.2076  1.3226
 5103SOL     OW26767   0.358   0.696  12.322 -0.0782  0.4213 -0.1606
 5103SOL    HW126768   0.412   0.617  12.330 -2.0163 -0.7338  1.6086
 5103SOL    HW226769   0.276   0.658  12.353  0.1535 -1.0769 -1.3694
 5104SOL     OW26770   3.070   1.799  16.040  0.4259 -0.1248 -0.2467
 5104SOL    HW126771   3.058   1.728  15.978 -0.3849  0.4386 -0.7233
 5104SOL    HW226772   3.004   1.784  16.108 -0.2069 -2.6949 -1.4360
 5105SOL     OW26773   0.425   0.057   7.438  0.5633 -0.0989 -0.4900
 5105SOL    HW126774   0.335   0.028   7.432 -0.9174  4.6931 -1.8173
 5105SOL    HW226775   0.419   0.131   7.377  0.4390  1.3289  1.2737
 5106SOL     OW26776   2.821   1.736  17.532 -0.0404 -0.0419 -0.1401
 5106SOL    HW126777   2.736   1.721  17.574 -0.9550  2.4175 -1.1081
 5106SOL    HW226778   2.872   1.696  17.603 -0.4413 -2.0951 -0.9962
 5107SOL     OW26779   3.815   1.768   2.734 -0.4751  0.2502  0.1755
 5107SOL    HW126780   3.812   1.838   2.668 -0.5446  0.2950  0.2254
 5107SOL    HW226781   3.798   1.802   2.822 -1.5366 -0.0277  0.0878
 5108SOL     OW26782   0.251   3.945  11.086  0.2486  0.0369  0.2806
 5108SOL    HW126783   0.342   3.918  11.076 -0.3546 -1.0628 -2.3648
 5108SOL    HW226784   0.227   3.884  11.156  1.7284 -0.1538  0.6115
 5109SOL     OW26785   2.178   1.031   5.094  0.2644  0.0574  0.5835
 5109SOL    HW126786   2.201   1.116   5.059  4.0303 -0.2913  2.2558
 5109SOL    HW226787   2.218   0.975   5.027  4.4310 -0.7304  3.7582
 5110SOL     OW26788   4.214   2.417   7.222  0.3188  0.6146 -0.4973
 5110SOL    HW126789   4.143   2.398   7.283 -0.2683  0.8463 -1.1047
 5110SOL    HW226790   4.219   2.330   7.182 -1.9166  1.0840 -1.7722
 5111SOL     OW26791   0.494   3.328   8.636  0.2335 -0.1700  0.0213
 5111SOL    HW126792   0.473   3.247   8.683  1.2664 -0.9975 -0.9653
 5111SOL    HW226793   0.450   3.321   8.551  1.3916 -0.5722 -0.5402
 5112SOL     OW26794   0.032   3.496   2.074  0.2868 -0.3089 -0.5596
 5112SOL    HW126795   0.102   3.562   2.072 -0.0317 -0.0136 -1.9244
 5112SOL    HW226796   0.044   3.454   2.159  0.5102  1.0304  0.0675
 5113SOL     OW26797   3.369   3.550   6.931 -0.6340 -0.5883  0.5965
 5113SOL    HW126798   3.304   3.614   6.904  0.9252 -0.3344 -2.5016
 5113SOL    HW226799   3.423   3.540   6.853  0.7156 -0.9873  1.5784
 5114SOL     OW26800   1.451   1.503   2.933 -0.5632  0.4048 -0.4505
 5114SOL    HW126801   1.372   1.484   2.882 -1.1415  0.2857  0.5034
 5114SOL    HW226802   1.513   1.442   2.892 -0.9932  0.8285 -1.7464
 5115SOL     OW26803   2.722   4.536   5.942 -0.2655  0.6228 -0.0916
 5115SOL    HW126804   2.783   4.543   5.869 -2.1619 -0.0496 -1.7153
 5115SOL    HW226805   2.777   4.492   6.007 -2.2859  0.8418  1.7621
 5116SOL     OW26806   2.864   4.541   5.372 -0.1345 -0.2735 -0.1651
 5116SOL    HW126807   2.893   4.545   5.463 -2.0427  1.1000  0.3677
 5116SOL    HW226808   2.782   4.589   5.375 -0.5114 -0.9666  0.5306
 5117SOL     OW26809   2.524   4.615  15.179 -0.2342 -0.3217 -0.4821
 5117SOL    HW126810   2.538   4.700  15.222  1.0832 -0.1701 -1.2038
 5117SOL    HW226811   2.431   4.626  15.163 -0.1215  1.2920 -0.0578
 5118SOL     OW26812   0.018   2.640   5.508 -0.5517 -0.0333 -0.5720
 5118SOL    HW126813   4.688   2.562   5.492 -1.4879  0.0680  2.0280
 5118SOL    HW226814   0.106   2.613   5.481 -0.5922 -1.7707  1.0044
 5119SOL     OW26815   4.530   1.330   8.558  0.4873 -0.1640  0.9354
 5119SOL    HW126816   4.588   1.254   8.556  0.1919 -0.3195 -2.3899
 5119SOL    HW226817   4.523   1.352   8.651  0.3875 -1.0264  1.1326
 5120SOL     OW26818   2.026   2.119   0.008 -0.3292 -0.7063  0.6849
 5120SOL    HW126819   1.974   2.058  17.650  0.0821 -0.9433  0.5472
 5120SOL    HW226820   2.111   2.101  17.663 -0.0106  0.5572  0.8074
 5121SOL     OW26821   4.549   1.670   2.225  0.5098  0.2948  0.1176
 5121SOL    HW126822   4.565   1.746   2.282  0.7699 -2.2291  3.3874
 5121SOL    HW226823   4.455   1.687   2.216  0.7166 -0.0367 -2.5943
 5122SOL     OW26824   4.074   0.821  10.736 -0.3657 -0.4005 -0.1121
 5122SOL    HW126825   4.155   0.834  10.785 -1.2462 -0.9737  1.5082
 5122SOL    HW226826   4.099   0.820  10.644  4.2616 -1.5189  1.1665
 5123SOL     OW26827   0.357   0.663   3.793 -0.0072  0.1354 -0.3393
 5123SOL    HW126828   0.297   0.673   3.718 -2.1073  0.0181  1.3321
 5123SOL    HW226829   0.437   0.629   3.754  0.5326 -0.9312  1.7506
 5124SOL     OW26830   4.411   0.595   9.469 -0.6979  0.0526  0.7440
 5124SOL    HW126831   4.504   0.583   9.489 -0.8699 -1.7958  0.4318
 5124SOL    HW226832   4.372   0.542   9.538  1.1079 -0.4886  1.3637
 5125SOL     OW26833   2.301   3.899   5.774  0.3895 -0.1064 -0.3057
 5125SOL    HW126834   2.357   3.956   5.721 -0.8736  1.0757 -0.3812
 5125SOL    HW226835   2.231   3.963   5.785 -1.4901 -2.2872  0.4364
 5126SOL     OW26836   4.299   2.102   7.344  0.0353  0.0417  0.4822
 5126SOL    HW126837   4.380   2.111   7.292 -0.5629  1.7397 -0.1541
 5126SOL    HW226838   4.329   2.146   7.424 -0.2153  1.0231  0.0424
 5127SOL     OW26839   4.217   2.260   9.209 -0.3652 -0.3356  0.1306
 5127SOL    HW126840   4.217   2.216   9.294  2.2842  1.8528  1.2593
 5127SOL    HW226841   4.257   2.196   9.150  0.8712  0.3308  0.2383
 5128SOL     OW26842   2.424   3.562   7.594  0.0979  0.4820 -0.0153
 5128SOL    HW126843   2.408   3.577   7.688  1.2075 -1.6078  0.5033
 5128SOL    HW226844   2.380   3.629   7.542  1.2747  1.0362 -0.2786
 5129SOL     OW26845   0.157   0.722   6.459 -0.1066  0.3941 -0.1467
 5129SOL    HW126846   0.206   0.757   6.534  0.7190 -0.0931 -0.4623
 5129SOL    HW226847   0.171   0.628   6.472 -2.6307  0.2958  2.0092
 5130SOL     OW26848   0.122   2.048  14.573 -0.2488 -0.0406  0.3151
 5130SOL    HW126849   0.083   2.111  14.633  0.9926  0.2796  0.7755
 5130SOL    HW226850   0.048   2.013  14.522  0.8537 -0.1770 -1.1773
 5131SOL     OW26851   2.344   2.732   8.978 -0.6089 -0.0481  0.1644
 5131SOL    HW126852   2.332   2.784   9.057 -0.2939 -0.4457  0.4797
 5131SOL    HW226853   2.380   2.659   9.029  0.3427  0.2643 -0.0507
 5132SOL     OW26854   3.698   3.815   7.068  0.3388 -0.4436  0.8183
 5132SOL    HW126855   3.727   3.770   7.148  1.6808 -0.2120  0.4573
 5132SOL    HW226856   3.603   3.804   7.071  0.1696  0.7707  0.0175
 5133SOL     OW26857   4.440   0.552   5.020  0.0165  0.1869 -0.4350
 5133SOL    HW126858   4.452   0.647   5.029 -0.9759  0.3537 -0.8245
 5133SOL    HW226859   4.393   0.530   5.100 -0.9067 -2.6191 -1.7605
 5134SOL     OW26860   4.236   4.712   5.365 -0.0130 -0.6692 -0.0643
 5134SOL    HW126861   4.293   4.688   5.438  0.3400  2.9063  0.8231
 5134SOL    HW226862   4.154   4.699   5.414  1.7100 -0.1035  2.9669
 5135SOL     OW26863   3.521   1.158   7.699 -0.1858 -0.4291  0.0426
 5135SOL    HW126864   3.544   1.234   7.646 -0.8734  0.4826  1.0488
 5135SOL    HW226865   3.534   1.206   7.781  1.0102 -0.1772 -0.2893
 5136SOL     OW26866   1.326   1.260   1.975  0.2015 -0.0917 -0.3716
 5136SOL    HW126867   1.252   1.321   1.972 -0.2481 -0.5946  0.3616
 5136SOL    HW226868   1.361   1.283   2.061 -0.3718 -0.7486  0.0327
 5137SOL     OW26869   2.174   1.217   2.840  0.2525  0.0519  0.7906
 5137SOL    HW126870   2.133   1.211   2.753  0.3456  0.7516  0.6942
 5137SOL    HW226871   2.264   1.215   2.807  0.4617  0.5804  1.3378
 5138SOL     OW26872   0.833   0.814  16.733  0.2425 -0.4264  0.3144
 5138SOL    HW126873   0.879   0.792  16.652  1.1465  2.1630  0.1250
 5138SOL    HW226874   0.761   0.751  16.724 -0.6968  0.8529 -1.0874
 5139SOL     OW26875   0.890   1.136  15.254  0.1609 -0.6274  0.3338
 5139SOL    HW126876   0.808   1.133  15.303  0.9240 -0.9007  1.6021
 5139SOL    HW226877   0.955   1.151  15.322 -0.2614  1.0287  0.3717
 5140SOL     OW26878   0.587   1.516  13.245 -0.0810 -0.1994 -0.3320
 5140SOL    HW126879   0.611   1.539  13.335  1.0167 -0.4078 -0.5772
 5140SOL    HW226880   0.508   1.464  13.259  0.3388 -0.7320  0.0531
 5141SOL     OW26881   0.954   0.377  15.704 -0.3718 -0.4358 -0.0558
 5141SOL    HW126882   0.911   0.425  15.775  0.0990 -0.8601  0.5101
 5141SOL    HW226883   1.043   0.388  15.739  1.0758 -2.1823 -3.2216
 5142SOL     OW26884   2.293   4.195   9.509  0.5117 -0.2601  0.2766
 5142SOL    HW126885   2.334   4.169   9.426  0.3823 -1.0481  0.4596
 5142SOL    HW226886   2.352   4.145   9.566 -0.0453  0.6503  1.6333
 5143SOL     OW26887   2.149   1.730  11.023 -0.4224  0.1297  0.2078
 5143SOL    HW126888   2.059   1.754  11.048 -0.3981 -0.8138  1.2347
 5143SOL    HW226889   2.203   1.794  11.069  0.3355  0.4294 -1.0975
 5144SOL     OW26890   1.309   2.204  15.028  0.3858  0.4820  0.2718
 5144SOL    HW126891   1.289   2.243  15.114 -0.4793 -0.6081  0.5703
 5144SOL    HW226892   1.251   2.258  14.975 -0.3007 -0.3823  0.1365
 5145SOL     OW26893   2.053   3.184   4.415  0.0431  0.1066 -0.1333
 5145SOL    HW126894   2.107   3.260   4.393 -0.4952  0.0194 -1.7239
 5145SOL    HW226895   2.056   3.182   4.511 -1.5364  1.6536 -0.0400
 5146SOL     OW26896   3.990   2.959   4.833  0.3449  0.2069  0.7520
 5146SOL    HW126897   3.929   2.987   4.900 -0.8076 -0.2233 -0.1104
 5146SOL    HW226898   4.012   3.044   4.796 -0.9406  0.2976  0.1904
 5147SOL     OW26899   3.610   2.028   5.217 -0.1255 -0.2153  0.0233
 5147SOL    HW126900   3.675   1.970   5.177 -0.2046  1.4363 -2.4769
 5147SOL    HW226901   3.569   1.966   5.277 -0.6928 -0.3901 -0.5478
 5148SOL     OW26902   1.067   0.316   7.818 -0.0820  0.0803  0.0091
 5148SOL    HW126903   1.152   0.350   7.847 -0.3571  2.1337 -1.6158
 5148SOL    HW226904   1.087   0.228   7.787 -0.3258 -0.1487  0.5123
 5149SOL     OW26905   2.983   0.826   7.794  0.0519  0.0468  0.1460
 5149SOL    HW126906   2.982   0.888   7.868  1.1582 -0.3739  0.5156
 5149SOL    HW226907   3.071   0.789   7.790 -0.8153 -1.9568  0.0575
 5150SOL     OW26908   0.075   3.627   9.397 -0.2626 -0.0353 -0.3876
 5150SOL    HW126909   0.095   3.652   9.307 -2.1899 -1.8215 -1.3067
 5150SOL    HW226910   4.709   3.661   9.396  1.1288  3.5595 -0.1138
 5151SOL     OW26911   1.792   1.808   4.632  0.3770  0.0277  0.0941
 5151SOL    HW126912   1.822   1.731   4.582 -0.6828  0.3514 -1.0368
 5151SOL    HW226913   1.827   1.879   4.578 -0.7809  0.8750  0.4536
 5152SOL     OW26914   1.757   0.070   5.766 -0.4303  0.3156  0.3240
 5152SOL    HW126915   1.852   0.081   5.765 -0.0314 -3.2101  2.1598
 5152SOL    HW226916   1.719   0.118   5.691  1.5282  0.2800 -0.6996
 5153SOL     OW26917   0.861   2.559   5.508  0.6408 -0.0047  0.0530
 5153SOL    HW126918   0.810   2.553   5.589 -0.2494 -1.7124 -0.6271
 5153SOL    HW226919   0.851   2.651   5.484 -1.2231  0.1643  1.4408
 5154SOL     OW26920   4.491   0.694   1.452  0.0260 -0.4077  0.2565
 5154SOL    HW126921   4.423   0.655   1.507 -1.4556 -1.4739 -2.3486
 5154SOL    HW226922   4.451   0.722   1.369 -1.0275  0.4450  1.0521
 5155SOL     OW26923   0.558   0.284   2.156 -0.5757  0.3042 -0.1669
 5155SOL    HW126924   0.588   0.197   2.184 -1.6259  0.1964  0.6062
 5155SOL    HW226925   0.464   0.272   2.151 -0.6564  1.2496 -0.8842
 5156SOL     OW26926   3.700   0.079  14.185  0.4097  0.6120  0.8108
 5156SOL    HW126927   3.715   0.006  14.245 -0.6665 -0.2678  0.0107
 5156SOL    HW226928   3.630   0.131  14.225  0.2257 -0.2095  1.5478
 5157SOL     OW26929   0.070   2.294  16.693 -0.1378  0.4094 -0.1344
 5157SOL    HW126930   4.699   2.311  16.690 -0.0586  0.8001 -0.4511
 5157SOL    HW226931   0.095   2.345  16.770  1.2831  0.8741 -0.8939
 5158SOL     OW26932   4.702   2.729  15.953  0.1954 -0.2378  0.5166
 5158SOL    HW126933   4.721   2.791  15.882  4.8767 -4.9680 -2.4159
 5158SOL    HW226934   4.706   2.782  16.032  0.5053  0.9624 -0.3027
 5159SOL     OW26935   1.328   3.059   5.454  0.4479  0.0224 -0.0950
 5159SOL    HW126936   1.367   3.130   5.505 -2.1834  0.4744  1.2732
 5159SOL    HW226937   1.379   2.984   5.486  0.5633  0.3647  0.5095
 5160SOL     OW26938   1.178   2.708  14.635 -0.1954  0.8580  0.6166
 5160SOL    HW126939   1.255   2.712  14.692  1.3080  0.5120 -1.3585
 5160SOL    HW226940   1.211   2.650  14.565  1.6829  0.3975  1.8729
 5161SOL     OW26941   3.307   1.842  11.026 -0.2907 -0.4214  0.0794
 5161SOL    HW126942   3.259   1.759  11.022  1.1700 -1.2556 -0.2586
 5161SOL    HW226943   3.380   1.823  11.085  1.2314 -0.4131 -1.8436
 5162SOL     OW26944   1.165   2.431   5.201  0.2180  0.2376 -0.0389
 5162SOL    HW126945   1.187   2.522   5.221  0.4333  0.7301 -2.4834
 5162SOL    HW226946   1.247   2.391   5.170  0.1498 -0.0614  0.1715
 5163SOL     OW26947   4.406   2.270  13.612  0.7006  0.3572  0.1438
 5163SOL    HW126948   4.315   2.243  13.623  0.0133  1.7991 -1.9292
 5163SOL    HW226949   4.392   2.316  13.528  0.1850 -3.6376 -1.9655
 5164SOL     OW26950   2.225   4.015   2.761  0.1914 -0.0426 -0.2892
 5164SOL    HW126951   2.289   3.961   2.714 -0.6742 -2.1738  0.9914
 5164SOL    HW226952   2.158   3.948   2.759  0.8124 -0.6431 -0.9734
 5165SOL     OW26953   2.747   4.662   0.587  0.0064 -0.2812 -0.2112
 5165SOL    HW126954   2.713   4.582   0.627  0.2192  0.5108  1.5805
 5165SOL    HW226955   2.776   4.636   0.500  1.8624 -0.8470  0.5822
 5166SOL     OW26956   4.373   3.292   9.119 -0.0717 -0.1622 -0.0883
 5166SOL    HW126957   4.366   3.206   9.078 -3.0344 -0.9317  1.9815
 5166SOL    HW226958   4.287   3.330   9.099  0.3667  0.2162 -1.2391
 5167SOL     OW26959   4.461   1.696   7.543 -0.1244 -0.0532 -0.5041
 5167SOL    HW126960   4.375   1.736   7.534  0.0578 -0.3431 -3.4502
 5167SOL    HW226961   4.529   1.747   7.498 -0.3479 -0.0475 -0.8306
 5168SOL     OW26962   1.639   4.506   5.107 -0.7278 -0.4215  0.0636
 5168SOL    HW126963   1.621   4.599   5.095 -1.3603 -0.1817  2.9415
 5168SOL    HW226964   1.604   4.481   5.021  0.4813 -2.9663  0.2952
 5169SOL     OW26965   2.520   1.353   8.967 -0.0511  0.1550  0.3040
 5169SOL    HW126966   2.574   1.357   8.888  1.7970 -0.0928  1.5546
 5169SOL    HW226967   2.588   1.375   9.031  0.2056 -3.2171  1.2145
 5170SOL     OW26968   3.802   0.105  14.883  0.3133 -0.2041 -0.3014
 5170SOL    HW126969   3.856   0.181  14.860  0.0079  0.1576  0.1948
 5170SOL    HW226970   3.877   0.064  14.927 -0.9397 -1.0083  1.0707
 5171SOL     OW26971   3.316   1.330   5.445 -0.4259  0.0449  0.0634
 5171SOL    HW126972   3.290   1.364   5.531 -1.0461  2.5771 -1.1020
 5171SOL    HW226973   3.308   1.411   5.394  1.7084 -0.5007 -1.1074
 5172SOL     OW26974   2.969   2.804   2.363 -0.2962  0.5878 -0.3965
 5172SOL    HW126975   2.944   2.810   2.271  1.1374 -1.5987 -0.9156
 5172SOL    HW226976   2.982   2.710   2.370 -0.7519  0.4999 -0.7732
 5173SOL     OW26977   0.556   1.663   4.018  0.1533  0.2326 -0.1468
 5173SOL    HW126978   0.542   1.752   3.985  0.4451  0.1719 -0.4368
 5173SOL    HW226979   0.589   1.672   4.107 -0.9663 -1.8065  0.4716
 5174SOL     OW26980   1.299   2.323   4.025 -0.1954  0.0391  0.3368
 5174SOL    HW126981   1.340   2.310   3.940 -3.3496 -1.2114 -0.9864
 5174SOL    HW226982   1.209   2.345   4.002  0.6761  0.8427 -2.2123
 5175SOL     OW26983   1.084   3.188   1.586  0.1330 -0.3655 -0.3970
 5175SOL    HW126984   1.147   3.147   1.526  0.9277 -1.1476  0.9756
 5175SOL    HW226985   1.008   3.165   1.533 -1.9068  1.1811  1.8741
 5176SOL     OW26986   4.232   1.519   4.701  0.7259  0.5853 -0.1745
 5176SOL    HW126987   4.253   1.612   4.688 -1.6873  1.4830  2.3972
 5176SOL    HW226988   4.189   1.498   4.618  0.0793  1.8233 -0.1495
 5177SOL     OW26989   3.381   0.785   3.548  0.2468 -0.3422  0.0426
 5177SOL    HW126990   3.383   0.696   3.514 -1.8954  0.0111 -1.0016
 5177SOL    HW226991   3.299   0.799   3.595  1.5123  0.2751  2.0608
 5178SOL     OW26992   3.504   0.731  12.880  0.0168 -0.6893  0.5085
 5178SOL    HW126993   3.411   0.718  12.901 -0.6050  0.0591 -1.7708
 5178SOL    HW226994   3.547   0.667  12.936  0.2576 -2.7879 -2.0517
 5179SOL     OW26995   0.386   3.851   5.991 -0.1548 -0.7337 -0.2020
 5179SOL    HW126996   0.477   3.858   5.962 -0.0390  0.7042  0.4675
 5179SOL    HW226997   0.376   3.759   6.016 -0.7222 -0.7941 -0.6660
 5180SOL     OW26998   4.632   0.650   3.122 -0.1840 -0.2184 -0.4675
 5180SOL    HW126999   4.570   0.600   3.176  0.5730 -0.2651  0.3570
 5180SOL    HW227000   4.614   0.739   3.151 -1.8382 -0.9188  0.7166
 5181SOL     OW27001   2.032   3.298   9.528 -0.4373 -0.4236 -0.2083
 5181SOL    HW127002   2.071   3.243   9.461  0.2579  0.2960 -0.3895
 5181SOL    HW227003   2.094   3.295   9.600  1.5295  1.3982 -1.8389
 5182SOL     OW27004   3.109   0.050   8.609  0.2556  0.2075  0.0037
 5182SOL    HW127005   3.176   0.060   8.541  0.8738  0.1303  0.6049
 5182SOL    HW227006   3.164   0.071   8.685  1.2961  0.9320 -0.9541
 5183SOL     OW27007   0.532   3.292   9.349 -0.0172  0.0393 -0.1625
 5183SOL    HW127008   0.586   3.335   9.283 -0.8946  0.2900 -0.7161
 5183SOL    HW227009   0.548   3.340   9.431 -0.8013 -0.1065  0.0738
 5184SOL     OW27010   1.499   4.201  17.443 -0.0446 -0.1540  0.0471
 5184SOL    HW127011   1.481   4.151  17.523  2.1321  0.2888  0.8134
 5184SOL    HW227012   1.466   4.145  17.373 -1.3189  0.4542  0.1722
 5185SOL     OW27013   3.234   4.257   5.244  0.0499  0.1686  0.0498
 5185SOL    HW127014   3.201   4.265   5.333  0.1402  0.3846  0.0638
 5185SOL    HW227015   3.159   4.291   5.196 -0.4686  0.7158  1.2513
 5186SOL     OW27016   4.669   4.571   6.369  0.3542  0.0176  0.1198
 5186SOL    HW127017   4.696   4.486   6.405 -0.9522 -0.6838 -0.5312
 5186SOL    HW227018   4.680   4.550   6.276  1.6900 -0.9563  0.5010
 5187SOL     OW27019   2.942   4.698   2.990 -0.3046  0.0711 -0.1379
 5187SOL    HW127020   3.014   4.639   3.014  0.7418  1.1996 -0.4922
 5187SOL    HW227021   2.995   0.043   2.949  1.4765 -0.3144  1.5285
 5188SOL     OW27022   1.064   2.613   2.523  0.5169 -0.0572 -0.7568
 5188SOL    HW127023   0.988   2.580   2.570  0.8199 -0.6668 -0.6924
 5188SOL    HW227024   1.061   2.570   2.438  0.8995 -2.8633  0.6428
 5189SOL     OW27025   3.418   3.977   7.692 -0.3996  0.0901  1.2217
 5189SOL    HW127026   3.442   4.063   7.660  1.7219 -0.3969  1.5238
 5189SOL    HW227027   3.504   3.935   7.694 -0.9615 -1.0058  2.2642
 5190SOL     OW27028   0.833   3.341   8.658 -0.5792 -0.0540 -0.2971
 5190SOL    HW127029   0.751   3.350   8.707 -0.8334 -1.9205 -0.3759
 5190SOL    HW227030   0.870   3.258   8.689 -0.6031 -0.7668 -2.2216
 5191SOL     OW27031   1.065   1.495   2.445 -0.1504  0.1473  0.0362
 5191SOL    HW127032   1.111   1.523   2.365 -1.0225  1.8824  0.1493
 5191SOL    HW227033   1.138   1.499   2.507 -0.4545  0.9396  0.3437
 5192SOL     OW27034   3.473   1.684   0.671  0.0140 -0.3337 -0.0866
 5192SOL    HW127035   3.464   1.618   0.602 -0.3578  1.8573 -2.1450
 5192SOL    HW227036   3.496   1.767   0.628 -0.0920  0.8633  2.1419
 5193SOL     OW27037   3.528   0.348   4.057 -0.0477 -0.0176  0.5973
 5193SOL    HW127038   3.555   0.433   4.021 -1.5652  0.2719  0.1692
 5193SOL    HW227039   3.441   0.379   4.082 -1.6347 -4.6375  0.7999
 5194SOL     OW27040   0.049   0.131   5.215 -0.0811  0.4450  0.1783
 5194SOL    HW127041   0.087   0.044   5.208 -1.7807 -0.3036  0.2354
 5194SOL    HW227042   0.108   0.167   5.281  0.2970  0.0491  0.0528
 5195SOL     OW27043   1.759   4.439  17.105  0.2931  0.0449  0.1500
 5195SOL    HW127044   1.843   4.483  17.096  0.0873 -0.1070 -2.4809
 5195SOL    HW227045   1.786   4.349  17.087  0.4404  0.1206 -0.0004
 5196SOL     OW27046   4.239   3.551   4.832  0.2319  0.0758 -0.2830
 5196SOL    HW127047   4.210   3.590   4.749 -0.0172  1.7427  0.5886
 5196SOL    HW227048   4.302   3.483   4.807  2.6992  1.3989  2.4381
 5197SOL     OW27049   0.435   0.740   3.113 -0.5176  0.2923  0.1267
 5197SOL    HW127050   0.435   0.761   3.019  1.9279 -0.6232 -0.0810
 5197SOL    HW227051   0.364   0.797   3.144 -0.5267  0.7794 -0.7775
 5198SOL     OW27052   0.475   0.745   2.197 -0.0099  0.4013  0.7088
 5198SOL    HW127053   0.414   0.803   2.150 -0.1377  0.6617  1.1900
 5198SOL    HW227054   0.550   0.750   2.139 -0.4256 -0.8051  0.0753
 5199SOL     OW27055   2.525   1.960  16.582 -0.2849 -0.7204  0.6429
 5199SOL    HW127056   2.531   2.055  16.584 -1.8562 -0.6614  2.3188
 5199SOL    HW227057   2.606   1.923  16.618  1.6649  2.2316 -0.7107
 5200SOL     OW27058   4.447   1.032   5.550 -0.3037  0.6239  0.1398
 5200SOL    HW127059   4.522   1.024   5.609  0.1868 -1.8264 -0.8147
 5200SOL    HW227060   4.490   1.070   5.473 -0.9264  0.4823 -0.2711
 5201SOL     OW27061   2.997   1.089   0.614 -0.1833  0.0033  0.1063
 5201SOL    HW127062   2.905   1.114   0.620 -0.4536 -0.7073 -1.1600
 5201SOL    HW227063   2.985   0.995   0.599  1.8374 -0.1115 -0.7786
 5202SOL     OW27064   0.896   2.970  12.432 -0.6460  0.4318 -0.2353
 5202SOL    HW127065   0.860   2.955  12.520  0.4429  2.1426  0.5159
 5202SOL    HW227066   0.977   3.015  12.457  0.7404 -1.6731 -0.9039
 5203SOL     OW27067   0.872   3.450   0.103  0.0716  0.0720 -0.4530
 5203SOL    HW127068   0.840   3.535   0.133 -2.0212 -0.8209 -0.1285
 5203SOL    HW227069   0.796   3.432   0.047  0.4338  0.0955 -0.9479
 5204SOL     OW27070   2.666   2.840   8.736  0.5351 -0.0132  0.2618
 5204SOL    HW127071   2.591   2.786   8.712  1.9217 -1.3600 -0.9718
 5204SOL    HW227072   2.715   2.832   8.655 -0.3323  0.4719 -0.3120
 5205SOL     OW27073   2.697   3.061   2.823 -0.1924  0.1209  0.3294
 5205SOL    HW127074   2.683   2.967   2.816  1.3851 -0.2086  1.5436
 5205SOL    HW227075   2.773   3.077   2.767 -1.4348 -0.0356 -1.3777
 5206SOL     OW27076   4.519   4.401   7.090  0.3959  0.3913 -0.5719
 5206SOL    HW127077   4.576   4.470   7.122  0.2490  0.2447 -0.0067
 5206SOL    HW227078   4.445   4.460   7.099 -0.0655 -0.2297 -0.3029
 5207SOL     OW27079   1.841   2.643  13.938  0.1383 -0.0853 -0.3034
 5207SOL    HW127080   1.772   2.654  13.872 -0.2447  0.4672  0.1832
 5207SOL    HW227081   1.787   2.638  14.018 -1.1625 -0.1973 -1.1836
 5208SOL     OW27082   1.814   4.203   5.879 -0.0228 -0.0595  0.2005
 5208SOL    HW127083   1.819   4.113   5.845 -2.2260  0.8869 -2.6185
 5208SOL    HW227084   1.786   4.190   5.969 -1.1326 -1.5458 -0.3535
 5209SOL     OW27085   0.404   1.377  15.170 -0.1348 -0.0476  0.8595
 5209SOL    HW127086   0.455   1.435  15.227  0.7271 -0.7067  0.7652
 5209SOL    HW227087   0.467   1.309  15.147  0.0885 -0.9675  4.1215
 5210SOL     OW27088   4.561   4.278   9.797  0.2660  0.4440 -0.1417
 5210SOL    HW127089   4.654   4.257   9.801 -0.2919 -2.1218 -1.0420
 5210SOL    HW227090   4.557   4.333   9.719  0.1071  1.6039  0.6843
 5211SOL     OW27091   3.765   0.517   8.666  0.5434 -0.0534  0.3219
 5211SOL    HW127092   3.696   0.492   8.604  1.4358 -0.9998 -0.2854
 5211SOL    HW227093   3.836   0.472   8.620 -1.5821  0.3366 -3.4185
 5212SOL     OW27094   4.014   0.214   1.529  0.1732 -0.0195  0.0076
 5212SOL    HW127095   3.947   0.278   1.550  1.3467  0.5255  2.1375
 5212SOL    HW227096   4.091   0.259   1.565  0.4835  0.7686 -1.6837
 5213SOL     OW27097   4.400   1.282   7.186 -0.8549  0.8746  0.8231
 5213SOL    HW127098   4.452   1.337   7.245 -2.2286  0.6313  2.2693
 5213SOL    HW227099   4.474   1.228   7.158 -1.2294  0.9981 -0.4093
 5214SOL     OW27100   0.723   0.623  15.383 -0.2110  0.1591  0.1055
 5214SOL    HW127101   0.799   0.580  15.343  0.6465  1.3137  0.4804
 5214SOL    HW227102   0.659   0.555  15.367  0.2044 -0.2401  0.1297
 5215SOL     OW27103   3.660   2.553   9.282  0.3380 -0.2514 -0.3804
 5215SOL    HW127104   3.751   2.528   9.268  0.4158  0.5126 -1.2297
 5215SOL    HW227105   3.635   2.498   9.356 -0.8598  0.5447 -0.1969
 5216SOL     OW27106   1.335   0.721   3.877  0.2402  0.0621 -0.0718
 5216SOL    HW127107   1.383   0.803   3.886 -0.2253  0.5023 -1.6987
 5216SOL    HW227108   1.379   0.676   3.949  1.0512 -0.1500 -0.7070
 5217SOL     OW27109   0.981   4.499   8.489 -0.2348 -0.1364 -0.4834
 5217SOL    HW127110   1.046   4.510   8.559 -0.1663  1.4023 -0.7912
 5217SOL    HW227111   0.916   4.445   8.534 -0.0571  0.4006  0.4298
 5218SOL     OW27112   1.183   1.145   8.874  0.4447 -0.1940  0.4801
 5218SOL    HW127113   1.106   1.121   8.822  1.7402 -0.1030 -1.4685
 5218SOL    HW227114   1.142   1.156   8.960  1.3609  0.5546  0.8070
 5219SOL     OW27115   0.798   3.682   7.666 -0.1194  0.5023  0.2023
 5219SOL    HW127116   0.720   3.725   7.631  0.5226 -0.9191 -3.0141
 5219SOL    HW227117   0.781   3.668   7.759  0.8305  0.8740  0.4385
 5220SOL     OW27118   1.571   1.075   9.058 -0.5719 -0.0440  0.2583
 5220SOL    HW127119   1.636   1.015   9.021  0.7494  2.6648 -1.8387
 5220SOL    HW227120   1.497   1.015   9.065 -1.4753  1.1777  1.0867
 5221SOL     OW27121   0.033   0.204   4.644  0.0595  0.2464  0.4399
 5221SOL    HW127122   0.048   0.151   4.722  0.2776  0.1430  0.3250
 5221SOL    HW227123   0.094   0.164   4.582 -2.0364  0.5828 -1.8614
 5222SOL     OW27124   1.856   4.151   5.238  0.2571 -0.4021  0.3284
 5222SOL    HW127125   1.810   4.088   5.293 -0.0076 -1.3843 -0.9996
 5222SOL    HW227126   1.819   4.126   5.153  1.3654  0.7303 -0.4853
 5223SOL     OW27127   1.903   2.186   5.420  0.0002  0.7835 -0.1417
 5223SOL    HW127128   1.983   2.135   5.430 -0.0587  0.5501 -0.8641
 5223SOL    HW227129   1.919   2.223   5.333  1.1635  0.1804 -0.1788
 5224SOL     OW27130   3.359   1.939  10.051 -0.1123 -0.2161 -0.6076
 5224SOL    HW127131   3.291   1.910  10.112 -0.9256  2.6508 -0.1703
 5224SOL    HW227132   3.420   1.978  10.113 -2.1179  1.6636  0.2274
 5225SOL     OW27133   2.389   3.356   3.497  0.7682  0.5069 -0.0229
 5225SOL    HW127134   2.442   3.326   3.571 -1.1177 -2.1474  0.2651
 5225SOL    HW227135   2.300   3.332   3.522 -0.4929  2.4395 -2.5523
 5226SOL     OW27136   4.124   2.279   5.328  0.1406  0.5642  0.4493
 5226SOL    HW127137   4.151   2.327   5.250  2.2546 -1.8603 -0.2892
 5226SOL    HW227138   4.052   2.227   5.291  0.9358  0.3304 -0.7697
 5227SOL     OW27139   2.073   3.811   8.065  0.3660  0.0182 -0.2494
 5227SOL    HW127140   2.029   3.836   7.984  2.3055  1.2486 -0.9226
 5227SOL    HW227141   2.052   3.717   8.058 -1.6777  0.6105 -2.0329
 5228SOL     OW27142   0.650   2.884   2.518  0.1064  0.4663 -0.3906
 5228SOL    HW127143   0.660   2.805   2.571 -1.1610  2.2373  2.5028
 5228SOL    HW227144   0.692   2.950   2.573  0.0255  0.2412 -0.0577
 5229SOL     OW27145   3.302   4.147   8.542  0.0780 -0.0636 -0.2342
 5229SOL    HW127146   3.348   4.106   8.616 -1.4665 -1.4594 -0.0479
 5229SOL    HW227147   3.320   4.091   8.466  0.7522  0.4052 -0.4274
 5230SOL     OW27148   0.806   1.866  15.173  0.0606 -0.0370  0.4899
 5230SOL    HW127149   0.874   1.817  15.126  0.7286  2.0646 -0.7559
 5230SOL    HW227150   0.737   1.865  15.107  2.0773  0.5524 -1.6479
 5231SOL     OW27151   3.408   1.450   8.690  0.3405  0.2513  0.2126
 5231SOL    HW127152   3.440   1.371   8.733  0.7135  1.9384  3.1015
 5231SOL    HW227153   3.347   1.410   8.628 -1.7431 -0.7471  2.8818
 5232SOL     OW27154   2.099   3.468   5.685  0.5314 -0.6114  0.2263
 5232SOL    HW127155   2.004   3.479   5.682  1.0119  3.6466  0.5727
 5232SOL    HW227156   2.129   3.553   5.652 -0.6461  0.4249  1.8074
 5233SOL     OW27157   4.206   4.146   8.495 -0.0308 -0.6494  0.4152
 5233SOL    HW127158   4.284   4.090   8.501 -0.5737 -1.2303  2.1702
 5233SOL    HW227159   4.196   4.148   8.400 -1.0645 -1.2842  0.5143
 5234SOL     OW27160   4.417   1.345   7.492 -0.2045  0.0500 -0.2787
 5234SOL    HW127161   4.452   1.429   7.463  3.0696 -1.7671 -1.5593
 5234SOL    HW227162   4.334   1.372   7.532 -1.2306 -0.9245 -1.7320
 5235SOL     OW27163   3.615   0.070   7.957 -0.5332 -1.0304  0.4432
 5235SOL    HW127164   3.683   0.030   8.010  1.6309 -0.0118 -1.5687
 5235SOL    HW227165   3.541   0.018   7.989  0.4483 -1.3729  2.1568
 5236SOL     OW27166   3.150   0.369   4.306 -0.6444  0.3053  0.1182
 5236SOL    HW127167   3.158   0.277   4.280  0.9012  0.2046  0.9263
 5236SOL    HW227168   3.059   0.396   4.297 -0.4140  1.1351  0.2722
 5237SOL     OW27169   3.852   2.306   6.665 -0.1628  0.6530 -0.0925
 5237SOL    HW127170   3.823   2.310   6.756 -0.4512  1.2258 -0.2121
 5237SOL    HW227171   3.824   2.216   6.649 -2.6011  1.2800  0.7858
 5238SOL     OW27172   4.429   3.762   6.304 -0.2657  0.2769 -0.6050
 5238SOL    HW127173   4.394   3.723   6.224 -0.6065 -0.0021 -0.3181
 5238SOL    HW227174   4.501   3.806   6.259 -0.8973  1.6217 -0.3127
 5239SOL     OW27175   3.920   3.197   9.950 -0.5155  0.2880 -0.0877
 5239SOL    HW127176   3.968   3.136   9.893 -0.5527 -1.4714  1.7348
 5239SOL    HW227177   3.966   3.198  10.034 -2.5613 -1.0019  1.0398
 5240SOL     OW27178   1.276   4.549   5.035  0.1280  0.5381 -0.0237
 5240SOL    HW127179   1.246   4.466   5.070 -0.6569  0.9213  0.2286
 5240SOL    HW227180   1.329   4.581   5.107 -0.3408  1.2216  0.0269
 5241SOL     OW27181   2.670   0.210   2.896 -0.0784 -0.2286 -0.2774
 5241SOL    HW127182   2.670   0.144   2.965  0.7224 -0.0478 -0.0999
 5241SOL    HW227183   2.576   0.221   2.883 -0.3670  3.0856  4.3032
 5242SOL     OW27184   0.736   3.769  13.351  0.4064 -0.3640 -0.1530
 5242SOL    HW127185   0.825   3.785  13.317  0.4244  0.3505  0.2329
 5242SOL    HW227186   0.722   3.679  13.324 -0.3480 -0.4256  0.4540
 5243SOL     OW27187   4.402   1.739   3.678 -0.1193  0.2898 -0.0588
 5243SOL    HW127188   4.422   1.772   3.590 -0.6515  0.2845 -0.1827
 5243SOL    HW227189   4.398   1.823   3.723  0.4265  1.4534 -2.1689
 5244SOL     OW27190   4.722   4.307   4.487 -0.4417 -0.4597 -0.4241
 5244SOL    HW127191   0.065   4.305   4.418  0.7067 -1.6641  0.6904
 5244SOL    HW227192   0.003   4.399   4.512 -0.4137 -0.7606  0.6917
 5245SOL     OW27193   0.202   4.533   4.732 -0.7258  0.2463  0.6022
 5245SOL    HW127194   0.295   4.518   4.752  0.0514  1.9695 -1.7325
 5245SOL    HW227195   0.167   4.447   4.756 -0.5449 -0.4610 -1.6547
 5246SOL     OW27196   4.696   2.318   6.251  0.1374 -0.1808  0.2232
 5246SOL    HW127197   0.035   2.364   6.307 -1.5119  2.6556 -0.2473
 5246SOL    HW227198   4.616   2.319   6.305  0.4128 -0.0905  0.6351
 5247SOL     OW27199   2.833   3.410   0.840 -0.5411 -0.8098  0.0840
 5247SOL    HW127200   2.859   3.376   0.754 -0.3123 -0.6755  0.0989
 5247SOL    HW227201   2.883   3.490   0.827  0.8451 -1.6833 -0.0263
 5248SOL     OW27202   3.865   3.127   8.076 -0.1180 -0.3060  0.1852
 5248SOL    HW127203   3.944   3.089   8.038 -0.5179 -1.0917  0.1403
 5248SOL    HW227204   3.894   3.217   8.088  1.3608 -0.8252  0.5350
 5249SOL     OW27205   1.941   1.402   7.903  0.2195  0.6592 -0.3177
 5249SOL    HW127206   1.862   1.455   7.897 -1.5853 -2.1932 -2.0048
 5249SOL    HW227207   1.920   1.312   7.876 -0.6523  0.9505 -0.5957
 5250SOL     OW27208   0.401   4.374   1.751 -0.8304 -0.2228  0.3553
 5250SOL    HW127209   0.463   4.434   1.791 -1.2645 -0.1171  0.8722
 5250SOL    HW227210   0.458   4.304   1.721  1.4903  1.8611 -0.0696
 5251SOL     OW27211   2.516   3.045   2.511 -0.0218  0.5345 -0.2933
 5251SOL    HW127212   2.473   3.017   2.431 -0.8981  0.8037  0.0784
 5251SOL    HW227213   2.593   2.988   2.508  0.8095  1.5164  2.3871
 5252SOL     OW27214   1.952   2.064   8.494  0.5996  0.5654  0.4655
 5252SOL    HW127215   1.991   1.980   8.471 -0.4636 -0.2374  1.5643
 5252SOL    HW227216   1.935   2.069   8.588 -0.9719 -2.7086  0.3667
 5253SOL     OW27217   0.358   2.406   4.370  0.0293  0.1999  0.1706
 5253SOL    HW127218   0.301   2.330   4.361  0.0676  0.0046  1.6077
 5253SOL    HW227219   0.392   2.409   4.460 -1.1055  1.3143  0.5797
 5254SOL     OW27220   4.161   4.331   3.991 -0.6498 -0.2920 -0.1446
 5254SOL    HW127221   4.073   4.342   3.954 -0.3166  1.1851 -0.5074
 5254SOL    HW227222   4.192   4.422   3.989  0.1829 -0.6468 -2.4417
 5255SOL     OW27223   3.488   0.943  13.116  0.1712  0.1688 -0.2801
 5255SOL    HW127224   3.540   0.865  13.094 -0.7760 -0.9616  1.4583
 5255SOL    HW227225   3.550   0.988  13.173 -1.7808  3.2266 -0.5823
 5256SOL     OW27226   1.535   4.230   0.174 -0.1545 -0.0897 -0.4357
 5256SOL    HW127227   1.451   4.273   0.187 -0.0270 -0.8096  2.6837
 5256SOL    HW227228   1.581   4.307   0.140 -0.8669  1.0078  1.0810
 5257SOL     OW27229   0.320   1.355   8.138 -0.0543 -0.8487 -0.0245
 5257SOL    HW127230   0.377   1.326   8.066  0.8181 -0.5017  0.5378
 5257SOL    HW227231   0.356   1.315   8.217 -0.3742  1.2567  1.1751
 5258SOL     OW27232   3.663   2.003   0.231 -0.4128  0.1326 -0.1821
 5258SOL    HW127233   3.644   2.004   0.325 -0.9309  2.8510 -0.2955
 5258SOL    HW227234   3.740   2.061   0.232 -0.9658  0.8478  1.7576
 5259SOL     OW27235   2.072   2.406   3.225  0.1110  0.2827  0.4547
 5259SOL    HW127236   2.150   2.459   3.211 -1.0922  1.7704 -0.5555
 5259SOL    HW227237   1.997   2.463   3.213 -0.3929 -0.6534 -0.8080
 5260SOL     OW27238   0.630   3.696   0.481 -0.0075  0.2648  0.2543
 5260SOL    HW127239   0.563   3.763   0.466 -1.8497 -1.7008 -0.3810
 5260SOL    HW227240   0.650   3.656   0.396  0.9016  0.2245  0.4958
 5261SOL     OW27241   3.699   1.659   6.142 -0.9078 -0.2823  0.3128
 5261SOL    HW127242   3.730   1.662   6.232 -1.1857 -2.1383  0.4765
 5261SOL    HW227243   3.757   1.588   6.113  1.2940  2.0443 -0.9131
 5262SOL     OW27244   0.916   1.784   8.403  0.4609  0.1877 -0.1004
 5262SOL    HW127245   0.987   1.767   8.465 -0.6148 -1.9730  0.5630
 5262SOL    HW227246   0.904   1.878   8.418  0.0289  0.1131  0.0168
 5263SOL     OW27247   2.322   0.283   0.809 -0.2713 -0.4960 -0.3288
 5263SOL    HW127248   2.263   0.312   0.879  0.6381 -0.1667  0.2936
 5263SOL    HW227249   2.259   0.282   0.737  0.4233 -1.2212 -0.9199
 5264SOL     OW27250   0.470   0.918   4.427 -0.7220 -0.0426 -0.6222
 5264SOL    HW127251   0.478   0.921   4.522  0.3305  0.6835 -0.7311
 5264SOL    HW227252   0.543   0.860   4.407 -1.1061  0.5545 -3.7813
 5265SOL     OW27253   3.383   0.027   7.226 -0.0643 -0.0384 -0.1698
 5265SOL    HW127254   3.345   4.667   7.253 -3.1082  1.6083  0.5687
 5265SOL    HW227255   3.410   0.051   7.315  3.0134 -1.3096 -0.7367
 5266SOL     OW27256   1.446   3.624   3.415  0.7046 -0.7442  0.7171
 5266SOL    HW127257   1.376   3.566   3.386 -1.1584  1.2527  1.2333
 5266SOL    HW227258   1.507   3.612   3.342 -1.1692  0.8953 -1.1086
 5267SOL     OW27259   4.450   3.265   9.644 -0.1263  0.4562 -0.4790
 5267SOL    HW127260   4.369   3.229   9.681 -1.3162  0.6935 -2.8776
 5267SOL    HW227261   4.430   3.358   9.635 -0.6964  0.3158 -0.6654
 5268SOL     OW27262   3.076   4.095   1.133 -0.4023  0.3031  0.2232
 5268SOL    HW127263   3.039   4.183   1.132  0.1778  0.5142 -1.5933
 5268SOL    HW227264   3.058   4.069   1.043  0.7409 -0.7813  0.3146
 5269SOL     OW27265   0.056   1.286   2.491  0.2523  0.0808 -0.4483
 5269SOL    HW127266   0.012   1.226   2.431  2.5248 -0.1143 -1.9352
 5269SOL    HW227267   0.032   1.378   2.475 -2.2328 -0.2122  1.7806
 5270SOL     OW27268   0.517   4.657   0.771 -0.0770  0.4502 -0.1482
 5270SOL    HW127269   0.482   4.602   0.841  3.0445  2.1962  2.8466
 5270SOL    HW227270   0.449   0.001   0.769  0.7214  1.2668 -0.1419
 5271SOL     OW27271   4.493   0.091   2.540  0.7840  0.2582  0.0752
 5271SOL    HW127272   4.408   0.123   2.568 -0.6350 -3.2691 -0.2040
 5271SOL    HW227273   4.511   0.048   2.623  0.4462 -1.0149 -0.5081
 5272SOL     OW27274   0.659   1.534  15.301  0.8170  0.0504 -0.4265
 5272SOL    HW127275   0.655   1.532  15.206  0.3581  1.1634 -0.4280
 5272SOL    HW227276   0.687   1.445  15.324 -0.1119  0.4266  2.2700
 5273SOL     OW27277   3.958   0.904   3.759  0.1269  0.7685  0.0292
 5273SOL    HW127278   3.959   1.000   3.764  0.1892  0.7768 -0.1468
 5273SOL    HW227279   3.946   0.883   3.851 -3.2491 -1.0433 -0.8188
 5274SOL     OW27280   2.840   2.690   7.450 -0.1540  0.1123  0.1051
 5274SOL    HW127281   2.806   2.692   7.360  0.4914  0.3147 -0.1326
 5274SOL    HW227282   2.931   2.665   7.433 -0.1451  1.3856 -1.6552
 5275SOL     OW27283   3.248   3.664  16.660  0.1502 -0.7073  0.5150
 5275SOL    HW127284   3.188   3.643  16.731 -0.6228 -1.4844 -0.3779
 5275SOL    HW227285   3.261   3.757  16.679  0.0145 -0.8723  1.4471
 5276SOL     OW27286   3.817   1.494   7.356  0.7785 -0.0687 -0.0578
 5276SOL    HW127287   3.858   1.536   7.432 -0.4622  0.7901  0.1363
 5276SOL    HW227288   3.894   1.448   7.321  0.4848  0.3699 -1.2743
 5277SOL     OW27289   3.224   4.103   1.930 -0.4083 -0.4059  0.1553
 5277SOL    HW127290   3.296   4.069   1.982 -0.1900 -0.9647 -0.5030
 5277SOL    HW227291   3.183   4.163   1.992  0.3740  1.5805 -1.2531
 5278SOL     OW27292   4.156   2.806   6.614 -0.1336 -0.8259 -0.3930
 5278SOL    HW127293   4.188   2.775   6.699  1.2567  1.7459  0.0386
 5278SOL    HW227294   4.158   2.901   6.626  0.6463 -0.7421 -1.2661
 5279SOL     OW27295   0.564   4.558   5.960 -0.5338  0.8029 -0.3886
 5279SOL    HW127296   0.626   4.619   5.920 -0.0036  1.5642  1.5858
 5279SOL    HW227297   0.544   4.505   5.883 -1.0778 -1.3921  1.2595
 5280SOL     OW27298   4.268   2.798   4.731  0.2815 -0.4793  0.5721
 5280SOL    HW127299   4.344   2.848   4.762 -0.5283  0.7151  0.6615
 5280SOL    HW227300   4.226   2.852   4.664  1.2869 -0.1733  0.1919
 5281SOL     OW27301   4.680   0.441   4.774  0.4830 -0.1890  0.3439
 5281SOL    HW127302   4.646   0.410   4.858  0.4580  0.3542  0.5358
 5281SOL    HW227303   4.714   0.367   4.725  0.5154  0.6428 -0.9079
 5282SOL     OW27304   0.620   3.930   3.530  0.2578  0.1726  0.3669
 5282SOL    HW127305   0.668   3.854   3.496  0.1651 -0.4346  1.6067
 5282SOL    HW227306   0.683   4.002   3.521 -0.6128  0.7350 -1.1914
 5283SOL     OW27307   0.606   4.173   8.222 -0.2528 -0.1133  0.1885
 5283SOL    HW127308   0.679   4.114   8.205 -2.1673 -1.9687 -1.6385
 5283SOL    HW227309   0.639   4.249   8.175 -2.2057  0.5647 -0.1072
 5284SOL     OW27310   2.499   0.630   6.305  0.3384  0.2936 -0.7950
 5284SOL    HW127311   2.407   0.654   6.319  0.4458  0.4675 -0.4194
 5284SOL    HW227312   2.495   0.607   6.212 -0.7439 -0.6707 -0.5147
 5285SOL     OW27313   1.849   2.704  14.722  0.0668 -0.5233 -0.2103
 5285SOL    HW127314   1.884   2.671  14.640 -1.0196 -1.7663 -0.1690
 5285SOL    HW227315   1.837   2.623  14.773 -2.0919 -0.5300 -0.7378
 5286SOL     OW27316   1.766   1.182   7.230  0.1042 -0.5005  0.0168
 5286SOL    HW127317   1.747   1.089   7.237 -0.5620 -0.3958 -0.4222
 5286SOL    HW227318   1.860   1.177   7.248 -0.4205  0.4548  2.9465
 5287SOL     OW27319   3.799   0.792  11.166 -0.0041 -0.1065  0.1771
 5287SOL    HW127320   3.813   0.761  11.076  0.1576  0.9051 -0.1395
 5287SOL    HW227321   3.799   0.709  11.215 -0.0177 -0.0785  0.2246
 5288SOL     OW27322   0.307   0.953  15.639  0.2413 -0.1191  0.2122
 5288SOL    HW127323   0.257   0.997  15.708 -1.2857 -1.2466 -0.1872
 5288SOL    HW227324   0.375   1.020  15.629  0.6120 -0.2448  1.8285
 5289SOL     OW27325   4.621   0.962  10.934 -0.6251  0.0781 -0.4348
 5289SOL    HW127326   4.669   0.963  10.851 -0.9712 -1.8106 -0.6529
 5289SOL    HW227327   4.689   0.986  10.996 -0.8005 -1.1380  0.2395
 5290SOL     OW27328   2.739   0.088   7.362  0.0115 -0.2301  0.0904
 5290SOL    HW127329   2.717   4.718   7.358 -1.0579  0.1667 -3.3411
 5290SOL    HW227330   2.654   0.131   7.358 -0.0340 -0.4651 -1.5039
 5291SOL     OW27331   0.277   1.397   3.226 -0.0152  0.5129  0.2792
 5291SOL    HW127332   0.286   1.380   3.319  1.4818  2.0852  0.4172
 5291SOL    HW227333   0.346   1.346   3.183  1.9800  1.8666  1.8600
 5292SOL     OW27334   2.259   2.618  13.578  0.0048 -0.0078 -0.7217
 5292SOL    HW127335   2.306   2.548  13.532 -0.0460 -0.0363 -0.7301
 5292SOL    HW227336   2.264   2.591  13.670 -0.8177 -1.8948 -1.2224
 5293SOL     OW27337   1.647   3.663  15.161  0.2549 -0.3588 -0.5941
 5293SOL    HW127338   1.685   3.746  15.131  0.5508 -0.8643 -1.6205
 5293SOL    HW227339   1.652   3.667  15.257  0.9337 -0.3005 -0.6271
 5294SOL     OW27340   4.397   1.885   3.441 -0.3317  0.3339 -0.2385
 5294SOL    HW127341   4.314   1.890   3.394 -0.4194 -1.5772 -0.2974
 5294SOL    HW227342   4.455   1.949   3.401 -1.1984  1.4607  0.2974
 5295SOL     OW27343   1.129   3.818   4.263  0.0622 -0.5137 -0.2232
 5295SOL    HW127344   1.146   3.739   4.212  0.5089 -0.9363  0.5807
 5295SOL    HW227345   1.181   3.881   4.212  0.3379 -0.9945 -0.5287
 5296SOL     OW27346   4.096   3.697  12.686 -0.1405 -0.4095  0.3247
 5296SOL    HW127347   4.123   3.699  12.777 -0.7317  0.2943  0.4830
 5296SOL    HW227348   4.015   3.746  12.696 -0.0047  0.3447 -2.0962
 5297SOL     OW27349   3.447   1.595   0.253  0.2235  0.4148 -0.0326
 5297SOL    HW127350   3.484   1.662   0.194  1.0045 -1.8221 -2.0641
 5297SOL    HW227351   3.356   1.619   0.270 -0.1113  0.2652 -1.6062
 5298SOL     OW27352   3.597   3.397  16.735 -0.2973 -0.3576  0.3057
 5298SOL    HW127353   3.541   3.326  16.707  0.8664 -1.5300  0.9608
 5298SOL    HW227354   3.684   3.380  16.698 -1.3261 -1.8193 -1.4101
 5299SOL     OW27355   2.886   1.910   5.559  0.3966 -0.0577 -0.7272
 5299SOL    HW127356   2.950   1.956   5.613  0.2937 -0.4898 -0.2348
 5299SOL    HW227357   2.917   1.923   5.470 -1.0469 -1.4216 -1.4262
 5300SOL     OW27358   2.555   4.060   4.632  0.0602 -0.3784 -0.8063
 5300SOL    HW127359   2.601   4.010   4.565  1.7433  0.1648 -0.0762
 5300SOL    HW227360   2.630   4.111   4.665  1.4187 -1.5994 -1.9907
 5301SOL     OW27361   2.350   4.029  13.464 -0.1904 -0.3774  0.2507
 5301SOL    HW127362   2.327   4.077  13.543 -1.1649 -1.4219  0.6052
 5301SOL    HW227363   2.445   4.039  13.458 -0.3015  0.6488  0.3475
 5302SOL     OW27364   2.494   0.999  10.914 -0.3400 -0.1551  0.5379
 5302SOL    HW127365   2.495   1.049  10.832 -1.0950  1.3459  1.4355
 5302SOL    HW227366   2.567   0.940  10.899 -0.3185  0.1466 -0.5323
 5303SOL     OW27367   0.788   3.825   3.096 -0.2078  0.0789  0.0936
 5303SOL    HW127368   0.717   3.861   3.042  1.0717  1.1659 -0.8549
 5303SOL    HW227369   0.808   3.750   3.039 -1.7854 -0.0939 -0.2374
 5304SOL     OW27370   3.848   4.644   6.448  0.3242  0.1688 -0.5743
 5304SOL    HW127371   3.887   4.698   6.516 -1.1303  0.6627 -0.1255
 5304SOL    HW227372   3.884   4.693   6.374  0.6222  1.4711  0.4306
 5305SOL     OW27373   3.515   3.988   0.188 -0.0383  0.4739 -0.2317
 5305SOL    HW127374   3.552   3.943   0.264  0.0551  0.5892 -0.2097
 5305SOL    HW227375   3.590   4.044   0.171  1.0479 -0.9592 -0.1500
 5306SOL     OW27376   3.035   2.085   1.831  0.7342 -0.1140 -0.0218
 5306SOL    HW127377   2.982   2.011   1.800 -2.4907  2.9676 -1.8157
 5306SOL    HW227378   2.967   2.152   1.823  0.1446 -0.8821 -1.6374
 5307SOL     OW27379   1.171   3.881   4.652  0.1226 -0.4818  0.8402
 5307SOL    HW127380   1.254   3.894   4.605  0.9694  0.3742  2.5890
 5307SOL    HW227381   1.168   3.787   4.670 -0.7069 -0.4277  0.9768
 5308SOL     OW27382   3.057   4.432   7.194  0.1368  0.9309  0.1221
 5308SOL    HW127383   3.096   4.453   7.279  1.2115  0.6645 -0.3107
 5308SOL    HW227384   3.096   4.506   7.147 -1.4769  1.0140 -1.1078
 5309SOL     OW27385   3.932   2.472   9.759  0.3179 -0.2653  0.6514
 5309SOL    HW127386   3.853   2.422   9.738  0.9785  0.4840 -3.6647
 5309SOL    HW227387   3.898   2.515   9.837  1.0731  0.6028  0.5056
 5310SOL     OW27388   0.925   3.072   0.828  0.2470  0.2322 -0.2372
 5310SOL    HW127389   0.999   3.130   0.811  0.9029 -0.7455 -0.7248
 5310SOL    HW227390   0.855   3.137   0.817 -0.1594 -0.0902  0.4766
 5311SOL     OW27391   4.610   4.146   1.834 -0.2115 -0.5067 -0.2889
 5311SOL    HW127392   4.563   4.219   1.875  4.0504  0.2131  3.3027
 5311SOL    HW227393   4.661   4.192   1.767  1.6438 -2.5709 -0.2855
 5312SOL     OW27394   1.263   3.409  13.135 -0.4349 -0.3672 -0.7660
 5312SOL    HW127395   1.256   3.330  13.081  0.2592  0.5344 -2.1680
 5312SOL    HW227396   1.210   3.387  13.212  2.1431 -0.3265  0.9958
 5313SOL     OW27397   2.186   0.763   4.452 -0.3310 -0.3004 -0.0228
 5313SOL    HW127398   2.150   0.733   4.535 -0.3916  0.4077  0.1997
 5313SOL    HW227399   2.279   0.773   4.475 -0.3654  0.8872 -0.4230
 5314SOL     OW27400   0.352   4.681   5.734 -0.2404  0.4708  0.0724
 5314SOL    HW127401   0.421   4.657   5.797 -0.2663  2.2474  0.7744
 5314SOL    HW227402   0.384   4.652   5.648  0.7216  1.0580  0.2336
 5315SOL     OW27403   3.035   0.466  10.349  0.4533  0.1531 -0.1013
 5315SOL    HW127404   3.023   0.395  10.413  2.2112 -0.2953 -0.2852
 5315SOL    HW227405   3.006   0.410  10.277 -1.6336 -1.5037  1.9985
 5316SOL     OW27406   2.577   4.044  15.940 -0.3964  0.0219  0.3618
 5316SOL    HW127407   2.652   4.009  15.989  0.4654 -0.3718 -1.2239
 5316SOL    HW227408   2.602   4.016  15.852  0.6643 -1.3918  1.0965
 5317SOL     OW27409   2.144   2.365  13.687 -0.1146  0.3735  0.2396
 5317SOL    HW127410   2.054   2.392  13.707 -0.2817  0.2161 -0.2901
 5317SOL    HW227411   2.196   2.381  13.765 -0.4617  2.4928  0.0368
 5318SOL     OW27412   2.186   2.756  15.928 -0.8782  0.0486 -0.2756
 5318SOL    HW127413   2.190   2.686  15.992  4.1734  0.3701 -0.2709
 5318SOL    HW227414   2.222   2.828  15.979  0.3309 -0.9222  0.2545
 5319SOL     OW27415   0.421   0.900   3.907 -0.1702 -0.1462  0.6726
 5319SOL    HW127416   0.380   0.939   3.830 -1.2198 -2.8101 -0.1475
 5319SOL    HW227417   0.408   0.806   3.890 -0.6287  0.1710 -0.7751
 5320SOL     OW27418   2.092   1.301  11.059  0.7726  0.4355  0.5781
 5320SOL    HW127419   2.141   1.356  10.998  1.3280  0.3072  0.9026
 5320SOL    HW227420   2.036   1.367  11.099 -0.0839 -0.8980  1.5577
 5321SOL     OW27421   2.084   0.025   3.141 -0.5523  0.2738 -0.2010
 5321SOL    HW127422   2.114   0.015   3.232 -0.2142  1.1871 -0.2179
 5321SOL    HW227423   2.037   4.666   3.124  0.9706 -0.4161 -1.0447
 5322SOL     OW27424   0.427   3.349   4.620 -0.1301  0.3716  0.0788
 5322SOL    HW127425   0.371   3.324   4.547  2.1866 -0.2781 -1.4834
 5322SOL    HW227426   0.427   3.269   4.672 -0.1622  0.6144  0.4557
 5323SOL     OW27427   0.023   0.866  14.701 -0.1452  0.9255 -0.1517
 5323SOL    HW127428   0.041   0.853  14.794  0.4681  2.4717 -0.0601
 5323SOL    HW227429   0.056   0.949  14.666 -0.3307  1.7081  1.5491
 5324SOL     OW27430   2.149   0.247   4.065 -0.3636 -0.3040  0.2067
 5324SOL    HW127431   2.241   0.234   4.045 -0.4516 -2.3336  1.1157
 5324SOL    HW227432   2.132   0.325   4.012  0.1949  0.9929  1.9452
 5325SOL     OW27433   2.405   3.640   0.414  0.4571  0.1584 -0.1788
 5325SOL    HW127434   2.377   3.594   0.493 -1.6013  1.8482  0.0815
 5325SOL    HW227435   2.325   3.650   0.362  1.1801 -1.8985 -1.6817
 5326SOL     OW27436   3.212   0.114   7.783  0.1682  0.1644 -0.1037
 5326SOL    HW127437   3.206   0.052   7.710 -0.1079 -0.6598  0.6171
 5326SOL    HW227438   3.130   0.104   7.833 -0.6336 -0.1996 -1.4980
 5327SOL     OW27439   4.185   4.051  15.857  0.0858 -0.5273 -0.0618
 5327SOL    HW127440   4.262   3.994  15.851  1.3436  1.1262  0.5450
 5327SOL    HW227441   4.162   4.032  15.948 -0.3608  1.3646  0.2031
 5328SOL     OW27442   2.016   2.705   1.967  0.0411 -0.6352 -0.4623
 5328SOL    HW127443   2.024   2.612   1.946 -1.8235 -1.0125  0.5335
 5328SOL    HW227444   2.099   2.727   1.924  0.3438 -1.1170 -0.1343
 5329SOL     OW27445   1.064   3.555   9.468  0.2577 -0.0065 -0.3019
 5329SOL    HW127446   1.010   3.483   9.502  1.2673  0.8296  3.1160
 5329SOL    HW227447   1.143   3.511   9.437 -0.0247  0.8523 -2.1712
 5330SOL     OW27448   1.141   1.863   2.111 -0.4854  0.3980  0.1625
 5330SOL    HW127449   1.128   1.887   2.020  0.8544  0.6505  0.0338
 5330SOL    HW227450   1.108   1.773   2.112  3.0171 -0.9049 -0.3008
 5331SOL     OW27451   1.554   1.260   4.135 -0.1889 -0.1550 -0.3960
 5331SOL    HW127452   1.523   1.336   4.085  0.3341  0.5136  0.2924
 5331SOL    HW227453   1.553   1.310   4.216 -2.0961 -1.1787  0.2170
 5332SOL     OW27454   0.075   3.522   1.087  0.4322 -0.3029 -0.2202
 5332SOL    HW127455   0.147   3.508   1.025  1.8126 -0.8997  1.5076
 5332SOL    HW227456   0.057   3.616   1.082  1.0918 -0.2205 -1.1557
 5333SOL     OW27457   3.032   2.541   4.965  0.0984  0.0663 -0.5272
 5333SOL    HW127458   3.081   2.465   4.933  3.3794  2.3824 -1.0674
 5333SOL    HW227459   3.080   2.580   5.038 -1.3044 -0.2211  0.5386
 5334SOL     OW27460   4.512   0.491  10.146  0.2293 -0.3304 -0.6137
 5334SOL    HW127461   4.603   0.518  10.159  0.0624 -0.3292  0.5336
 5334SOL    HW227462   4.500   0.451  10.232  0.2082 -0.1248 -0.5211
 5335SOL     OW27463   0.772   2.472   0.418 -0.3848 -0.3309 -0.7133
 5335SOL    HW127464   0.707   2.541   0.426 -0.8564 -0.8401 -0.1643
 5335SOL    HW227465   0.779   2.439   0.508  0.2456  0.1257 -0.5942
 5336SOL     OW27466   3.811   2.813  16.447 -0.5385 -0.6521 -0.3655
 5336SOL    HW127467   3.750   2.741  16.461 -0.6420 -0.6275 -0.6761
 5336SOL    HW227468   3.776   2.878  16.507  3.0354  1.3919 -0.4495
 5337SOL     OW27469   3.340   4.199  10.708  0.5618 -0.4637 -0.3523
 5337SOL    HW127470   3.355   4.265  10.776  1.9213 -0.4823 -0.6330
 5337SOL    HW227471   3.376   4.122  10.753 -0.7298 -0.3883  0.8261
 5338SOL     OW27472   0.588   4.218  12.972 -0.3920 -0.1929  0.2505
 5338SOL    HW127473   0.537   4.249  13.047 -1.9489 -1.1559 -0.4139
 5338SOL    HW227474   0.633   4.141  13.006 -0.0455 -0.6752 -1.2740
 5339SOL     OW27475   0.708   3.689   1.430 -0.2641  0.2442 -0.2285
 5339SOL    HW127476   0.644   3.622   1.405 -0.3395 -0.0064  0.6272
 5339SOL    HW227477   0.667   3.775   1.424  0.5684  0.6588  0.0717
 5340SOL     OW27478   0.330   2.103   7.961  0.8061  0.6412 -0.6167
 5340SOL    HW127479   0.270   2.028   7.959 -1.1477  2.1541  0.6297
 5340SOL    HW227480   0.271   2.175   7.940  0.6861  0.3927 -1.1233
 5341SOL     OW27481   2.879   1.075   2.911 -0.1821 -0.1861  0.5699
 5341SOL    HW127482   2.925   1.148   2.952 -0.5740 -0.3305  1.2757
 5341SOL    HW227483   2.952   1.021   2.880 -0.2689 -0.4481  0.8265
 5342SOL     OW27484   0.059   1.738   9.675 -0.1862  0.9044 -0.5619
 5342SOL    HW127485   0.044   1.756   9.768  1.4432  0.7654 -0.2746
 5342SOL    HW227486   0.090   1.824   9.648  0.1605  0.9815  0.0857
 5343SOL     OW27487   3.778   2.169   7.201 -0.2572  0.9005 -0.3239
 5343SOL    HW127488   3.730   2.137   7.125  0.2596 -1.0225  0.1641
 5343SOL    HW227489   3.868   2.139   7.186  0.3757  3.1076 -0.9752
 5344SOL     OW27490   4.520   3.466  16.615 -0.2631 -0.2538 -0.0686
 5344SOL    HW127491   4.592   3.529  16.608 -0.0736 -0.3824  0.7233
 5344SOL    HW227492   4.477   3.498  16.694  0.3346 -2.1751  1.0372
 5345SOL     OW27493   3.668   1.858   8.515  0.1318 -0.7263  0.2095
 5345SOL    HW127494   3.576   1.870   8.491 -0.0854 -0.4051  1.1760
 5345SOL    HW227495   3.650   1.773   8.554 -2.3273  0.0410  0.7757
 5346SOL     OW27496   3.652   3.835   8.400 -0.4358  0.3464  0.4081
 5346SOL    HW127497   3.623   3.760   8.349 -2.4123 -0.9228  3.4150
 5346SOL    HW227498   3.630   3.811   8.490  0.4650  2.7353  1.2736
 5347SOL     OW27499   2.341   0.908   0.216  0.0979  0.5094  0.0890
 5347SOL    HW127500   2.351   0.868   0.302  0.4434 -1.9438 -1.0778
 5347SOL    HW227501   2.310   0.991   0.251 -0.6914 -0.0539  0.7510
 5348SOL     OW27502   4.364   1.787   8.721  0.7625  0.3307  0.3606
 5348SOL    HW127503   4.311   1.712   8.693 -0.3288  1.9390 -1.8584
 5348SOL    HW227504   4.305   1.860   8.705  2.9702  1.8156 -0.8761
 5349SOL     OW27505   0.898   2.173   7.417  0.1939 -0.1310 -0.4687
 5349SOL    HW127506   0.973   2.230   7.432  0.7033 -1.1808  1.0004
 5349SOL    HW227507   0.836   2.204   7.483 -0.1592 -2.1580  0.1450
 5350SOL     OW27508   2.279   3.279   9.973 -0.1047 -0.3486 -0.1466
 5350SOL    HW127509   2.242   3.326  10.048 -0.0109 -0.3922 -0.0744
 5350SOL    HW227510   2.363   3.253  10.010  0.5670 -3.3615 -3.7517
 5351SOL     OW27511   0.214   4.261   9.159 -0.0463 -0.0986 -0.0238
 5351SOL    HW127512   0.163   4.243   9.080  0.1433  0.7156 -0.3272
 5351SOL    HW227513   0.301   4.258   9.119  0.0466 -0.8408  0.2408
 5352SOL     OW27514   1.779   2.804   1.853 -0.1455 -0.2955  0.4585
 5352SOL    HW127515   1.804   2.888   1.816 -0.6153  0.0259  0.8589
 5352SOL    HW227516   1.856   2.774   1.900 -0.2447 -1.7838 -0.3296
 5353SOL     OW27517   0.379   1.388  12.169 -0.1785  0.3879 -0.3994
 5353SOL    HW127518   0.319   1.374  12.242 -0.9022  1.4907 -0.7945
 5353SOL    HW227519   0.379   1.482  12.153  2.0560  0.1344 -1.9739
 5354SOL     OW27520   0.015   0.548   1.782  0.0572 -0.0214  0.5031
 5354SOL    HW127521   0.019   0.601   1.703 -0.0200 -0.9277 -0.1032
 5354SOL    HW227522   4.653   0.585   1.807  0.9865  2.4920 -0.0232
 5355SOL     OW27523   4.086   0.372   4.630 -0.9242 -0.1651 -0.3490
 5355SOL    HW127524   4.138   0.292   4.623 -1.5826 -0.4504 -2.1684
 5355SOL    HW227525   4.148   0.420   4.685  1.3056 -1.7908 -1.4439
 5356SOL     OW27526   3.621   4.112  11.675  0.8216 -0.1028  0.1150
 5356SOL    HW127527   3.593   4.160  11.598  1.0652  0.2095  0.2208
 5356SOL    HW227528   3.620   4.184  11.738  1.1364 -0.5320  0.6083
 5357SOL     OW27529   0.147   0.624   7.697 -0.5279 -0.0388  0.1277
 5357SOL    HW127530   0.069   0.638   7.643  0.1402  1.9359 -0.3399
 5357SOL    HW227531   0.119   0.583   7.779 -0.4494  0.5384  0.4456
 5358SOL     OW27532   4.411   1.152   2.132 -0.3504  0.0137  0.4894
 5358SOL    HW127533   4.352   1.102   2.076 -1.6684  0.6323  1.3227
 5358SOL    HW227534   4.497   1.128   2.096 -0.7995  1.6522 -1.6616
 5359SOL     OW27535   1.085   2.382   7.487  0.3082 -0.2186 -0.6239
 5359SOL    HW127536   1.123   2.414   7.405  0.2452 -0.9167 -0.9253
 5359SOL    HW227537   1.166   2.372   7.537 -1.1209 -0.0523  1.7267
 5360SOL     OW27538   4.589   0.644   7.595 -0.2882  0.4645  0.0142
 5360SOL    HW127539   4.542   0.583   7.538  0.3539  0.3054 -0.3338
 5360SOL    HW227540   4.574   0.729   7.552  0.2097  0.3523 -0.3776
 5361SOL     OW27541   0.103   2.252   3.834  0.0978  0.3342  0.0255
 5361SOL    HW127542   0.143   2.334   3.805 -1.4162  1.1593  0.2544
 5361SOL    HW227543   0.011   2.275   3.821  0.3366  1.0091 -0.4496
 5362SOL     OW27544   1.490   0.996   2.632 -0.3355  0.4054  0.1566
 5362SOL    HW127545   1.553   1.034   2.693 -0.8784 -0.1431  1.0493
 5362SOL    HW227546   1.470   0.915   2.677 -1.3994  0.1484 -0.7663
 5363SOL     OW27547   2.322   1.100   8.143  0.1067  0.0854 -0.4915
 5363SOL    HW127548   2.353   1.010   8.132 -0.7653 -0.2169 -0.5438
 5363SOL    HW227549   2.233   1.087   8.110 -1.2888  1.5018  2.7182
 5364SOL     OW27550   1.623   2.326   3.219 -0.5723  0.4251  1.0917
 5364SOL    HW127551   1.685   2.268   3.263  1.8408  4.1215  2.6041
 5364SOL    HW227552   1.689   2.384   3.182  0.8857 -1.2704  1.0186
 5365SOL     OW27553   3.154   4.527   8.733 -0.9375 -0.5407 -0.1743
 5365SOL    HW127554   3.146   4.522   8.638  1.4861  1.3693 -0.4909
 5365SOL    HW227555   3.243   4.494   8.748  0.2192  2.1282 -1.1667
 5366SOL     OW27556   4.084   4.631   9.623 -0.6312 -0.6269 -0.3885
 5366SOL    HW127557   4.001   4.584   9.615 -1.2235  0.4368 -0.4377
 5366SOL    HW227558   4.094   4.661   9.713  1.5364 -1.2188 -0.4350
 5367SOL     OW27559   3.766   2.496  12.679  0.8508  0.0123 -0.0152
 5367SOL    HW127560   3.752   2.591  12.681  0.0026 -0.0975 -0.5299
 5367SOL    HW227561   3.768   2.470  12.771  1.8995  1.2369  0.3112
 5368SOL     OW27562   4.565   2.175   8.957 -0.2665 -0.0589  0.1041
 5368SOL    HW127563   4.596   2.127   9.034 -1.6097 -1.8475 -0.4570
 5368SOL    HW227564   4.573   2.264   8.989 -1.1251 -0.5321  1.6307
 5369SOL     OW27565   1.333   1.626   8.983  0.0450  0.2926 -0.1168
 5369SOL    HW127566   1.370   1.608   8.896 -2.7075 -1.6639 -0.8998
 5369SOL    HW227567   1.360   1.550   9.034  0.2304  0.4562  0.0286
 5370SOL     OW27568   1.332   1.105   6.046  0.1938 -0.3504 -0.5686
 5370SOL    HW127569   1.381   1.110   6.129  1.0610  0.8652 -1.1648
 5370SOL    HW227570   1.362   1.188   6.009  1.5099 -0.1199  0.9944
 5371SOL     OW27571   2.297   2.089   5.062  0.0177  0.1809  0.1765
 5371SOL    HW127572   2.326   2.020   5.122 -0.3221  0.0722  0.2167
 5371SOL    HW227573   2.275   2.033   4.988  1.3993  0.8628 -0.7636
 5372SOL     OW27574   3.124   3.711   4.812  0.0859  0.1893 -0.2623
 5372SOL    HW127575   3.115   3.696   4.906  0.8284  3.5025  0.3434
 5372SOL    HW227576   3.035   3.697   4.779 -1.1308  3.2067  1.7681
 5373SOL     OW27577   3.460   3.889   5.266  0.1605 -0.3155 -0.4434
 5373SOL    HW127578   3.523   3.838   5.214 -0.2319  0.0535 -1.2832
 5373SOL    HW227579   3.493   3.979   5.263  2.4123 -1.1307  0.0088
 5374SOL     OW27580   2.320   0.491   5.278  0.0257 -0.0715 -0.0723
 5374SOL    HW127581   2.281   0.437   5.346  0.9654 -1.1954 -0.4321
 5374SOL    HW227582   2.409   0.460   5.268 -0.1467 -1.1477  1.7953
 5375SOL     OW27583   3.841   1.141   6.000  0.7372 -0.4734 -0.4313
 5375SOL    HW127584   3.822   1.048   6.014 -1.6821  0.1803  0.6574
 5375SOL    HW227585   3.750   1.172   6.007  1.6304  1.5730  1.8685
 5376SOL     OW27586   1.129   1.401   8.591 -0.2360  0.5702 -0.0228
 5376SOL    HW127587   1.099   1.310   8.595 -0.1364  0.5450  0.1681
 5376SOL    HW227588   1.066   1.450   8.643  0.1989 -2.4407  3.2700
 5377SOL     OW27589   1.410   2.522  13.550 -0.8562 -0.2712 -0.5100
 5377SOL    HW127590   1.346   2.515  13.621 -1.2476  1.3972 -0.7044
 5377SOL    HW227591   1.441   2.605  13.586 -0.7014  0.6449 -2.7479
 5378SOL     OW27592   0.014   4.566   5.339  0.3505  0.3513  0.2481
 5378SOL    HW127593   4.643   4.547   5.335  0.9082 -1.5669 -3.7650
 5378SOL    HW227594   0.011   4.637   5.403  1.5225  1.7258 -1.2556
 5379SOL     OW27595   4.090   3.399   4.523 -0.2379  0.3053  0.1150
 5379SOL    HW127596   4.169   3.438   4.485  0.8489 -1.5951  0.4526
 5379SOL    HW227597   4.043   3.482   4.528  0.8263  0.8581  0.9859
 5380SOL     OW27598   0.200   2.376   0.177  0.3816 -0.7375  0.0620
 5380SOL    HW127599   0.228   2.445   0.237 -1.0001 -1.2555  1.3143
 5380SOL    HW227600   0.135   2.431   0.134 -0.7592 -1.9565  0.2049
 5381SOL     OW27601   0.620   3.427   4.972 -0.3148  0.3016  0.0368
 5381SOL    HW127602   0.700   3.391   4.933 -0.5021 -1.1316  0.9869
 5381SOL    HW227603   0.612   3.372   5.051  0.4105 -0.7396 -0.6076
 5382SOL     OW27604   2.773   0.473   5.832  0.5123 -0.1081 -0.0600
 5382SOL    HW127605   2.677   0.476   5.829  0.5417 -1.7834 -2.8801
 5382SOL    HW227606   2.798   0.542   5.893  2.7642 -0.8319 -0.1847
 5383SOL     OW27607   4.390   4.595   3.501 -0.3599 -0.1765  0.4164
 5383SOL    HW127608   4.306   4.556   3.476 -1.8682  3.2342  0.1683
 5383SOL    HW227609   4.367   4.688   3.510  1.5328  0.0595  2.7676
 5384SOL     OW27610   3.600   0.352   5.021  0.1126 -0.1864 -0.1468
 5384SOL    HW127611   3.542   0.292   4.974 -0.9210  1.4465 -0.9541
 5384SOL    HW227612   3.628   0.304   5.099 -2.8539 -1.3416  0.2011
 5385SOL     OW27613   2.383   1.270  16.370  0.1196 -0.1850  0.1466
 5385SOL    HW127614   2.339   1.252  16.286  1.7821  0.1369 -0.7976
 5385SOL    HW227615   2.329   1.321  16.430  1.4766 -1.1927  2.2404
 5386SOL     OW27616   2.218   2.968   2.965  0.0336  0.5013 -0.2408
 5386SOL    HW127617   2.289   2.904   2.971 -0.4200 -0.0855 -1.2185
 5386SOL    HW227618   2.172   2.931   2.891 -0.8637 -1.5625  1.3538
 5387SOL     OW27619   1.887   4.699   7.242 -0.0458  0.3648 -0.4054
 5387SOL    HW127620   1.926   0.032   7.309 -0.5603 -0.1341  0.3098
 5387SOL    HW227621   1.897   4.610   7.273 -0.7407  0.4184 -0.0251
 5388SOL     OW27622   3.877   3.984   8.329 -0.3760 -0.2245 -0.5521
 5388SOL    HW127623   3.895   4.020   8.415  0.6747  1.3745 -1.4496
 5388SOL    HW227624   3.795   3.939   8.349 -0.8669  1.7844  1.9135
 5389SOL     OW27625   1.636   4.249   4.948  0.7902  0.0639 -0.2455
 5389SOL    HW127626   1.579   4.325   4.938  1.1960  0.3276 -0.5428
 5389SOL    HW227627   1.650   4.224   4.857  0.1379  2.1118 -0.8922
 5390SOL     OW27628   0.921   0.395   8.051 -0.3369  0.0690  0.1710
 5390SOL    HW127629   0.962   0.390   7.965 -1.7774  0.9220 -0.5714
 5390SOL    HW227630   0.948   0.315   8.096  0.9424  0.7650  0.6510
 5391SOL     OW27631   3.185   0.509   1.649  0.4398 -0.4656  0.5996
 5391SOL    HW127632   3.265   0.463   1.624  1.3039  0.5895  1.4093
 5391SOL    HW227633   3.207   0.602   1.661  0.8721 -0.5274  0.2742
 5392SOL     OW27634   3.785   1.582   9.094 -0.1400  0.4678 -0.1580
 5392SOL    HW127635   3.845   1.540   9.156  1.8910  1.4128 -1.4582
 5392SOL    HW227636   3.709   1.592   9.151  0.7658 -0.7773  1.2341
 5393SOL     OW27637   0.957   0.828   7.449  0.4801  0.0199 -0.1433
 5393SOL    HW127638   0.942   0.780   7.367 -2.2304  0.1416  0.2687
 5393SOL    HW227639   0.974   0.917   7.419 -1.9980  0.5752  0.0700
 5394SOL     OW27640   2.883   3.615   5.560  0.1480 -0.4018 -0.1924
 5394SOL    HW127641   2.834   3.681   5.510 -0.0041  1.0040  1.8191
 5394SOL    HW227642   2.834   3.537   5.534  0.5880 -2.0843  4.0360
 5395SOL     OW27643   2.457   3.203  13.609 -0.6570  0.3841  0.0256
 5395SOL    HW127644   2.429   3.294  13.616 -0.8801  0.2740  0.6229
 5395SOL    HW227645   2.376   3.167  13.572 -0.0912  0.5799 -1.3883
 5396SOL     OW27646   3.208   4.495   3.537  0.1158 -0.1736 -0.3573
 5396SOL    HW127647   3.283   4.539   3.497 -1.4589  2.4548 -0.4716
 5396SOL    HW227648   3.240   4.470   3.623  1.8848 -1.0777 -1.2908
 5397SOL     OW27649   1.410   0.247   5.163  0.1557 -0.1043  0.3782
 5397SOL    HW127650   1.433   0.281   5.250  1.2490  2.4828 -0.9062
 5397SOL    HW227651   1.394   0.154   5.178 -2.5974  0.1429 -0.9458
 5398SOL     OW27652   4.411   4.179   2.110  0.0402  0.4152  0.6391
 5398SOL    HW127653   4.413   4.098   2.162 -1.7527  0.1261  0.2302
 5398SOL    HW227654   4.458   4.236   2.171 -0.5420 -0.0680  1.5511
 5399SOL     OW27655   3.732   4.417  14.740  0.3212  0.0133  0.5021
 5399SOL    HW127656   3.778   4.406  14.657 -1.2202 -1.5837 -0.1239
 5399SOL    HW227657   3.649   4.373  14.721 -0.1686  0.4311  1.6390
 5400SOL     OW27658   1.833   1.104   3.862 -0.3436 -0.6656 -0.0631
 5400SOL    HW127659   1.813   1.057   3.943  3.0360 -0.7047  0.7567
 5400SOL    HW227660   1.806   1.192   3.889  0.2033 -0.4872 -0.0989
 5401SOL     OW27661   3.995   2.477   6.172 -0.4712  0.2663 -0.0315
 5401SOL    HW127662   3.999   2.466   6.267 -2.6995 -1.1401 -0.1019
 5401SOL    HW227663   4.080   2.520   6.163  0.6897 -2.1684 -0.7425
 5402SOL     OW27664   1.453   2.983   2.105 -0.1569 -0.0143  0.3575
 5402SOL    HW127665   1.527   2.961   2.049 -1.6320 -2.8252 -0.4917
 5402SOL    HW227666   1.456   2.936   2.188  0.2125 -1.1168 -0.2840
 5403SOL     OW27667   4.037   0.825   0.830  0.6550 -0.5839 -0.1895
 5403SOL    HW127668   3.971   0.856   0.767 -0.6885 -0.7776  1.1247
 5403SOL    HW227669   4.105   0.794   0.769  1.7655  0.4185  0.5578
 5404SOL     OW27670   4.271   3.071   6.589 -0.1059 -0.0236  0.1171
 5404SOL    HW127671   4.343   3.034   6.539 -0.2624 -2.5942  1.7946
 5404SOL    HW227672   4.316   3.138   6.640 -0.9577  1.8957 -1.6044
 5405SOL     OW27673   4.255   1.321  16.972  0.0817  0.2279 -0.0669
 5405SOL    HW127674   4.202   1.269  17.032  1.8066 -4.2116 -2.3850
 5405SOL    HW227675   4.328   1.351  17.026 -0.2599 -2.4164  1.8435
 5406SOL     OW27676   2.030   0.530   5.006  0.3941 -0.4725  0.2978
 5406SOL    HW127677   1.958   0.580   5.043 -0.3371 -1.5544  0.3528
 5406SOL    HW227678   2.096   0.585   5.048 -0.9459  0.1031  1.6421
 5407SOL     OW27679   3.678   3.146  10.061 -0.3031  0.2353  0.6632
 5407SOL    HW127680   3.732   3.099  10.125 -0.3640 -1.3306 -0.4249
 5407SOL    HW227681   3.742   3.175   9.995 -1.2701  1.6579  0.3413
 5408SOL     OW27682   3.813   2.946   0.593 -0.5321 -0.0710 -0.5861
 5408SOL    HW127683   3.735   2.891   0.585 -0.4544 -0.2332 -0.1816
 5408SOL    HW227684   3.825   2.942   0.687  2.8945 -2.0660 -1.1146
 5409SOL     OW27685   4.583   4.504   7.426 -0.3907 -0.1214 -0.2814
 5409SOL    HW127686   4.661   4.461   7.390 -0.8512 -0.1891 -1.1874
 5409SOL    HW227687   4.599   4.588   7.383  1.9014 -0.1718  0.4654
 5410SOL     OW27688   1.008   0.154   5.838  0.7961  0.2570  0.0091
 5410SOL    HW127689   1.100   0.128   5.833 -0.0448 -2.3322 -1.9729
 5410SOL    HW227690   0.998   0.192   5.751  2.3005  1.5745  0.4142
 5411SOL     OW27691   3.416   1.115   8.538  0.7387 -0.0060 -0.2706
 5411SOL    HW127692   3.415   1.130   8.444  1.5262  0.5783 -0.1829
 5411SOL    HW227693   3.500   1.149   8.567  1.4154 -1.9892  0.1101
 5412SOL     OW27694   3.294   4.672   8.157  0.7226  0.2215  0.0012
 5412SOL    HW127695   3.206   4.675   8.120  0.1620  0.6709  1.3624
 5412SOL    HW227696   3.311   4.578   8.165 -1.9009 -0.2969 -0.4933
 5413SOL     OW27697   3.695   1.683   7.162  0.2644  0.3742  0.1731
 5413SOL    HW127698   3.751   1.640   7.226  1.2211 -1.3132 -1.7901
 5413SOL    HW227699   3.626   1.620   7.146  0.8149 -0.5210  1.3952
 5414SOL     OW27700   4.017   1.414   1.536 -0.2542 -0.0851 -0.0282
 5414SOL    HW127701   3.940   1.408   1.592 -1.5275  1.2389 -1.6195
 5414SOL    HW227702   4.019   1.331   1.489  0.6112  1.2599 -2.4112
 5415SOL     OW27703   2.865   2.517   3.235 -0.2121 -0.4342 -0.2459
 5415SOL    HW127704   2.833   2.520   3.325 -0.6904 -0.1590 -0.4240
 5415SOL    HW227705   2.958   2.537   3.248  0.1450 -0.7454 -2.2781
 5416SOL     OW27706   4.490   0.575   1.914 -0.7598 -0.5594 -0.0927
 5416SOL    HW127707   4.417   0.599   1.858 -2.0323  0.6105  2.0864
 5416SOL    HW227708   4.517   0.663   1.940 -1.2850 -0.2506 -0.5957
 5417SOL     OW27709   3.911   3.570  11.044 -0.5347  0.8583  0.5199
 5417SOL    HW127710   3.840   3.561  11.108  0.5505  1.2219  1.7814
 5417SOL    HW227711   3.904   3.487  10.997  2.2919  0.1664  1.2785
 5418SOL     OW27712   2.788   3.384  10.764 -0.1665  0.0841  0.4892
 5418SOL    HW127713   2.729   3.434  10.707 -0.6467 -1.9888 -0.8160
 5418SOL    HW227714   2.721   3.327  10.802 -0.2010 -0.6081 -0.6183
 5419SOL     OW27715   2.826   3.437   8.524  0.1638 -0.4920  0.1139
 5419SOL    HW127716   2.739   3.396   8.531 -1.0202  2.4161  2.6898
 5419SOL    HW227717   2.879   3.361   8.546  1.4831  0.3526 -0.1897
 5420SOL     OW27718   3.695   1.327   6.420  0.0393 -0.3330  0.6002
 5420SOL    HW127719   3.647   1.410   6.416  1.4392  0.4295 -0.4817
 5420SOL    HW227720   3.744   1.344   6.500 -0.2272  1.4319  0.3875
 5421SOL     OW27721   1.724   4.103   6.680 -0.6738 -0.0716 -1.0457
 5421SOL    HW127722   1.723   4.047   6.757  1.2577  2.4217  0.7777
 5421SOL    HW227723   1.650   4.077   6.624 -0.8648  1.0946 -1.3443
 5422SOL     OW27724   2.308   2.141   8.465 -0.0930 -0.0200  0.0393
 5422SOL    HW127725   2.296   2.047   8.481  0.3495 -0.3157 -1.3532
 5422SOL    HW227726   2.298   2.172   8.554  1.8653 -0.7335  0.5067
 5423SOL     OW27727   2.563   3.471  12.743  0.3235 -0.5835 -0.7237
 5423SOL    HW127728   2.489   3.443  12.798  0.1111  3.2527  0.9672
 5423SOL    HW227729   2.582   3.559  12.777  0.9528 -1.0032  0.0001
 5424SOL     OW27730   1.602   2.197   5.257  0.1058 -0.4194  0.2554
 5424SOL    HW127731   1.679   2.230   5.210 -0.7282  1.1846  0.0280
 5424SOL    HW227732   1.624   2.105   5.239  0.0191 -0.9621  2.9166
 5425SOL     OW27733   1.151   2.674  16.271 -0.5799 -0.2165 -0.7908
 5425SOL    HW127734   1.074   2.719  16.304  0.1951  1.2684 -1.0322
 5425SOL    HW227735   1.218   2.740  16.288 -2.3322  1.6857 -1.3648
 5426SOL     OW27736   2.489   3.768   7.026  0.0390 -0.0575  0.7165
 5426SOL    HW127737   2.492   3.837   7.092 -0.6097  0.2030  0.4712
 5426SOL    HW227738   2.395   3.759   7.016 -0.3190  3.0666  1.2612
 5427SOL     OW27739   1.381   3.151   0.090 -0.2002  0.6067  0.4165
 5427SOL    HW127740   1.334   3.068   0.099 -0.0766  0.5113  0.1909
 5427SOL    HW227741   1.452   3.135   0.153 -0.4602  0.1874  0.6016
 5428SOL     OW27742   2.819   2.283   3.083  0.2270 -0.0616 -0.3343
 5428SOL    HW127743   2.880   2.242   3.021 -0.8095  1.2938 -2.2711
 5428SOL    HW227744   2.872   2.308   3.159 -1.1085  0.4954  0.4078
 5429SOL     OW27745   0.129   0.082   9.084  0.4282 -0.0152  0.0360
 5429SOL    HW127746   0.090   0.151   9.030  0.1905 -1.1676 -1.2858
 5429SOL    HW227747   0.174   0.027   9.019 -0.4517 -0.2395 -0.3859
 5430SOL     OW27748   1.519   2.014   4.408  0.7000  0.3335 -0.3222
 5430SOL    HW127749   1.463   2.079   4.365 -1.0799 -0.1081  1.3058
 5430SOL    HW227750   1.535   2.066   4.487  0.9464  0.9749 -0.7966
 5431SOL     OW27751   4.385   3.453   7.582 -0.5713 -0.1346 -0.0932
 5431SOL    HW127752   4.441   3.388   7.624  2.0754  0.9850 -1.8711
 5431SOL    HW227753   4.348   3.489   7.663  1.2308 -0.4618  0.8827
 5432SOL     OW27754   4.684   0.910   2.897  0.3095  0.1869 -0.0209
 5432SOL    HW127755   4.646   0.992   2.927 -0.0329  1.0020 -2.6833
 5432SOL    HW227756   4.627   0.892   2.822 -0.0058 -0.1976  0.3100
 5433SOL     OW27757   4.711   1.394   3.148  0.1653  0.6133  0.1868
 5433SOL    HW127758   0.081   1.391   3.172 -0.2438  1.0273  1.8198
 5433SOL    HW227759   4.688   1.476   3.192  1.5944  0.3526  1.3899
 5434SOL     OW27760   2.409   3.482  13.042  0.8750  0.0408 -0.1584
 5434SOL    HW127761   2.467   3.493  13.117  0.1554 -1.1279  0.5701
 5434SOL    HW227762   2.335   3.441  13.085  0.4034  1.3274  0.2444
 5435SOL     OW27763   2.575   3.944   4.150  0.0101 -0.3272  0.6803
 5435SOL    HW127764   2.571   3.972   4.058  0.2935 -0.4658  0.6258
 5435SOL    HW227765   2.481   3.943   4.169  0.1454  0.2483  1.3722
 5436SOL     OW27766   0.618   0.436   6.195 -0.3908 -0.4933  0.1229
 5436SOL    HW127767   0.659   0.445   6.281  0.5244 -1.0175 -0.2595
 5436SOL    HW227768   0.620   0.341   6.183  3.0732 -0.3654 -0.3101
 5437SOL     OW27769   3.170   0.384   8.945  0.2637 -0.1888 -0.2503
 5437SOL    HW127770   3.179   0.459   9.004  0.7294 -0.0349 -0.5123
 5437SOL    HW227771   3.114   0.325   8.996 -0.0952 -0.8413 -1.3941
 5438SOL     OW27772   2.499   3.174  12.355  0.4945  0.0899  0.6046
 5438SOL    HW127773   2.434   3.243  12.343  1.9740  1.3598 -0.1814
 5438SOL    HW227774   2.461   3.099  12.309  1.4463  1.3967 -2.3043
 5439SOL     OW27775   1.964   1.490   4.986 -0.9683  0.2046 -0.2577
 5439SOL    HW127776   2.004   1.557   5.041 -3.9486  1.2777  0.6296
 5439SOL    HW227777   1.872   1.518   4.981 -0.6227  0.8983 -2.3627
 5440SOL     OW27778   0.101   0.370   1.120  0.7152  0.1612 -0.7880
 5440SOL    HW127779   0.101   0.457   1.161 -0.9362  0.2414 -0.9475
 5440SOL    HW227780   0.009   0.362   1.096  0.8890  0.2095 -1.4684
 5441SOL     OW27781   4.620   0.823   6.583  0.3261 -0.4450  0.4103
 5441SOL    HW127782   4.706   0.846   6.548  0.9314 -1.3144  1.3428
 5441SOL    HW227783   4.637   0.731   6.600 -1.4472 -0.8723 -0.0900
 5442SOL     OW27784   0.460   3.249   2.609  0.5238 -0.5142  0.3945
 5442SOL    HW127785   0.420   3.193   2.543  0.2123  1.4276 -1.0622
 5442SOL    HW227786   0.466   3.329   2.556  1.0150 -0.0933  1.0783
 5443SOL     OW27787   2.618   4.089  13.615  0.7638 -0.3115 -0.3378
 5443SOL    HW127788   2.686   4.121  13.555  1.3522  0.6565  0.8308
 5443SOL    HW227789   2.560   4.165  13.621 -1.6135 -2.3991  2.9622
 5444SOL     OW27790   1.377   2.736   3.844  0.4711 -0.2428 -0.4954
 5444SOL    HW127791   1.387   2.667   3.779 -0.2345  0.7516 -1.6575
 5444SOL    HW227792   1.331   2.800   3.790 -3.4882 -1.4396  1.4878
 5445SOL     OW27793   3.283   1.234   9.614 -0.5009  0.2296  0.6817
 5445SOL    HW127794   3.338   1.210   9.689  0.1783  1.3489  0.5379
 5445SOL    HW227795   3.336   1.202   9.541 -0.0218 -0.0892  1.1705
 5446SOL     OW27796   2.358   1.220   4.088  0.7327 -0.6145 -0.3823
 5446SOL    HW127797   2.392   1.230   3.999 -1.9712 -0.9789 -1.4336
 5446SOL    HW227798   2.270   1.257   4.090  0.1452 -2.0402 -0.3369
 5447SOL     OW27799   0.372   2.079   7.613 -0.8250 -0.0519  0.1111
 5447SOL    HW127800   0.430   2.128   7.671  0.6771 -1.8362  0.0909
 5447SOL    HW227801   0.425   2.075   7.534 -1.8384 -2.2542 -0.4517
 5448SOL     OW27802   3.641   2.233   0.711 -0.7603 -0.0895 -0.3287
 5448SOL    HW127803   3.713   2.186   0.753 -0.5491  2.4570  2.1557
 5448SOL    HW227804   3.561   2.198   0.749  0.7287 -0.0960  2.8110
 5449SOL     OW27805   3.399   3.398   3.991  0.1456 -0.0587  0.2811
 5449SOL    HW127806   3.359   3.315   4.019  1.3259 -0.3448  1.1007
 5449SOL    HW227807   3.467   3.419   4.054  1.6491  0.4376 -1.4930
 5450SOL     OW27808   2.951   3.486   1.759 -0.1331 -0.0764  0.0349
 5450SOL    HW127809   2.860   3.496   1.786  0.1781  0.9721  0.6959
 5450SOL    HW227810   2.982   3.570   1.793  0.0943 -1.3069  2.8774
 5451SOL     OW27811   4.179   0.662   5.426  0.3586  0.1889 -0.4111
 5451SOL    HW127812   4.116   0.732   5.406 -0.3688 -0.7960 -1.5052
 5451SOL    HW227813   4.226   0.709   5.495  0.1873  0.6806 -0.6258
 5452SOL     OW27814   4.686   1.488   5.747 -0.0808  0.0291  0.2630
 5452SOL    HW127815   4.634   1.413   5.718 -1.5218  1.9201 -2.0179
 5452SOL    HW227816   4.697   1.472   5.841  2.2798 -2.3825 -0.4408
 5453SOL     OW27817   2.681   4.031   8.052 -0.9094  0.7231 -0.6374
 5453SOL    HW127818   2.760   3.979   8.040 -0.7171  0.6448  0.9907
 5453SOL    HW227819   2.657   4.033   7.960 -1.0797  2.0876 -0.5675
 5454SOL     OW27820   1.157   3.003   1.394  0.5038 -0.7669 -0.1950
 5454SOL    HW127821   1.138   2.972   1.305 -2.1092 -0.1354  0.1416
 5454SOL    HW227822   1.203   2.933   1.440 -1.5102 -0.9953  1.4661
 5455SOL     OW27823   3.469   1.521   9.607  0.1202  0.0222 -0.5150
 5455SOL    HW127824   3.481   1.527   9.702 -1.3920  2.1401 -0.4627
 5455SOL    HW227825   3.382   1.481   9.605  0.5490 -0.8995 -0.7992
 5456SOL     OW27826   1.844   3.312   5.584  0.1970 -0.8811 -0.2173
 5456SOL    HW127827   1.795   3.291   5.504  1.3765  0.3092 -1.2589
 5456SOL    HW227828   1.928   3.313   5.537 -1.3058 -0.6916 -2.8883
 5457SOL     OW27829   4.109   0.955   1.064  0.7455  0.5128  0.2561
 5457SOL    HW127830   4.092   0.921   0.976  0.3784  2.2118 -0.3290
 5457SOL    HW227831   4.056   0.907   1.128 -0.6324  0.3691 -0.9989
 5458SOL     OW27832   1.222   3.451   2.074  0.6440 -0.7087  0.3314
 5458SOL    HW127833   1.265   3.366   2.075  1.8250 -0.1174 -0.8538
 5458SOL    HW227834   1.131   3.421   2.088  0.2125  0.1408 -0.7252
 5459SOL     OW27835   3.520   3.003   3.706  0.0258 -0.5056  0.0640
 5459SOL    HW127836   3.527   2.941   3.633 -1.4434  1.1926 -1.5229
 5459SOL    HW227837   3.448   3.061   3.680  1.7059  0.9908 -1.2133
 5460SOL     OW27838   3.340   3.213   8.778  0.0063 -0.5208  0.1148
 5460SOL    HW127839   3.326   3.307   8.787  0.6516 -0.4023 -0.1450
 5460SOL    HW227840   3.434   3.205   8.793 -0.0994  0.9946  1.5177
 5461SOL     OW27841   3.601   0.254  15.143  0.1455  0.4242  0.4904
 5461SOL    HW127842   3.683   0.268  15.191  0.5563  2.0754 -0.7211
 5461SOL    HW227843   3.628   0.295  15.061 -0.0506 -0.0293  0.1953
 5462SOL     OW27844   4.262   3.385   6.447 -0.1614 -0.1630 -0.0799
 5462SOL    HW127845   4.301   3.349   6.527  0.6216  0.5818 -0.1182
 5462SOL    HW227846   4.232   3.473   6.471  0.0508  0.2567 -1.3959
 5463SOL     OW27847   0.284   1.135   5.668 -0.1074  0.1191 -0.3148
 5463SOL    HW127848   0.298   1.041   5.655 -0.4041 -0.0694  0.6677
 5463SOL    HW227849   0.354   1.164   5.610 -0.4716  0.9831 -0.3244
 5464SOL     OW27850   0.903   3.254   6.254 -0.2295 -0.5359 -0.2608
 5464SOL    HW127851   0.860   3.263   6.169 -0.0829  0.1851 -0.2654
 5464SOL    HW227852   0.989   3.230   6.221  0.4468  1.7642 -0.2160
 5465SOL     OW27853   1.978   3.385   7.433 -0.3284 -0.5215 -0.1744
 5465SOL    HW127854   1.939   3.351   7.352 -2.7843 -1.7580  1.5326
 5465SOL    HW227855   2.029   3.314   7.471 -0.8597 -0.3026  0.9431
 5466SOL     OW27856   2.436   3.703   5.929 -0.7552 -0.0140 -0.1733
 5466SOL    HW127857   2.388   3.775   5.886 -1.4397  0.0653  0.7294
 5466SOL    HW227858   2.521   3.707   5.885 -0.3997 -1.3680  0.4025
 5467SOL     OW27859   2.223   1.903  15.747  0.4919 -0.2676  0.0589
 5467SOL    HW127860   2.227   1.827  15.688  1.1835 -0.3118  0.1642
 5467SOL    HW227861   2.314   1.913  15.774  0.0421  3.1874  0.3158
 5468SOL     OW27862   3.091   1.096   4.900 -0.4826 -0.2338  0.2958
 5468SOL    HW127863   3.023   1.153   4.936 -1.1252 -0.2730 -0.8271
 5468SOL    HW227864   3.171   1.144   4.923 -0.4070 -1.0104  1.5835
 5469SOL     OW27865   1.358   2.093   9.332 -0.1148  0.0934 -0.0712
 5469SOL    HW127866   1.346   2.032   9.259  0.2736 -0.5056  0.3717
 5469SOL    HW227867   1.268   2.104   9.364 -0.2906 -0.5331 -0.3648
 5470SOL     OW27868   0.928   1.095   7.829  0.1690 -0.1536 -0.8336
 5470SOL    HW127869   1.022   1.101   7.817  0.1877  2.1143  0.5926
 5470SOL    HW227870   0.921   1.062   7.918 -0.2946 -0.0194 -0.8179
 5471SOL     OW27871   0.007   0.925   1.384 -0.0555  0.4808 -0.3939
 5471SOL    HW127872   4.708   1.000   1.440 -1.6906 -0.5608  0.3466
 5471SOL    HW227873   4.660   0.917   1.320  2.6771 -0.1613 -3.2788
 5472SOL     OW27874   0.433   2.564   7.864 -0.6021  0.1160  1.1419
 5472SOL    HW127875   0.473   2.605   7.787 -0.8224 -1.0360  0.4196
 5472SOL    HW227876   0.368   2.628   7.894  0.2469  1.1520  0.7898
 5473SOL     OW27877   0.898   3.161   1.258  0.4234  0.4641  0.3285
 5473SOL    HW127878   0.985   3.136   1.226  0.7742 -1.0176  2.4407
 5473SOL    HW227879   0.875   3.237   1.205  0.1672 -0.4831 -0.9354
 5474SOL     OW27880   0.857   0.925   8.358  0.0301 -0.4140  0.6653
 5474SOL    HW127881   0.889   1.012   8.384 -3.3296  0.9813  0.1549
 5474SOL    HW227882   0.934   0.868   8.358 -1.2214 -2.0929  0.8348
 5475SOL     OW27883   4.414   1.055   3.033 -0.4214  0.0331 -0.5517
 5475SOL    HW127884   4.390   1.002   2.957 -1.7916 -0.4295  0.1904
 5475SOL    HW227885   4.475   1.122   3.004 -1.4653  1.1793 -0.0740
 5476SOL     OW27886   2.278   1.585  12.731  0.2605 -0.4810  0.0822
 5476SOL    HW127887   2.258   1.665  12.682  0.7058 -0.5540 -0.2279
 5476SOL    HW227888   2.276   1.630  12.815 -0.2913  0.8594 -0.6517
 5477SOL     OW27889   1.602   3.056   0.235  0.3208  0.2674 -0.4197
 5477SOL    HW127890   1.627   3.046   0.327  0.4173  2.8354 -0.1751
 5477SOL    HW227891   1.666   3.123   0.210  0.5680  0.2183  0.0813
 5478SOL     OW27892   1.621   1.335   1.329  0.3366  0.3942  0.1488
 5478SOL    HW127893   1.587   1.372   1.247  0.4889  1.8410  0.7428
 5478SOL    HW227894   1.577   1.381   1.400 -2.2409  0.4056 -1.4601
 5479SOL     OW27895   1.858   4.449   6.242  0.3301  0.4776  0.2552
 5479SOL    HW127896   1.887   4.505   6.170  0.8881 -1.3022 -0.9365
 5479SOL    HW227897   1.765   4.447   6.220  0.1193  1.5179  1.0864
 5480SOL     OW27898   2.461   3.847   7.922  0.4060 -0.3302  0.7421
 5480SOL    HW127899   2.502   3.824   8.006  4.0691  2.0803 -0.4054
 5480SOL    HW227900   2.481   3.765   7.877 -1.6536  1.6581 -3.8247
 5481SOL     OW27901   4.615   0.957   2.536  0.4249 -0.2721 -0.4210
 5481SOL    HW127902   4.622   1.038   2.485  1.7575  0.3167  0.7085
 5481SOL    HW227903   4.666   0.887   2.495  0.5253 -0.0789 -0.6245
 5482SOL     OW27904   2.778   1.990   8.187 -0.0247 -0.2436  0.4396
 5482SOL    HW127905   2.791   2.044   8.109 -1.5781  0.6961  0.8380
 5482SOL    HW227906   2.842   2.037   8.242  1.7225 -1.4467 -0.5749
 5483SOL     OW27907   3.794   2.018   9.728  0.3613  0.3002  0.2305
 5483SOL    HW127908   3.874   2.070   9.737  0.2277  0.1315  2.4674
 5483SOL    HW227909   3.836   1.938   9.696  0.7484  1.4814 -2.2075
 5484SOL     OW27910   4.369   3.142  12.034 -0.0558 -0.2299 -0.1014
 5484SOL    HW127911   4.438   3.143  11.967 -0.3630  0.6793 -0.3945
 5484SOL    HW227912   4.300   3.195  11.996 -0.0721 -0.6564 -0.6641
 5485SOL     OW27913   1.784   4.655   2.931  0.5937  0.1244 -0.1515
 5485SOL    HW127914   1.797   4.588   2.864 -0.0861  1.1237 -1.3027
 5485SOL    HW227915   1.861   4.669   2.985  0.3755 -0.5814  0.3428
 5486SOL     OW27916   2.535   1.589   5.170  0.5392 -0.2394  0.5510
 5486SOL    HW127917   2.551   1.615   5.079  1.1815 -2.9221 -0.1030
 5486SOL    HW227918   2.585   1.650   5.223  0.6222 -2.2705  2.7972
 5487SOL     OW27919   2.202   3.697   5.590 -0.0613  0.1533 -0.4479
 5487SOL    HW127920   2.221   3.765   5.655 -0.0640 -1.4040  1.1754
 5487SOL    HW227921   2.191   3.750   5.511  1.2265  0.8394 -0.1711
 5488SOL     OW27922   0.149   1.722  11.938 -0.3816  0.0137 -0.4878
 5488SOL    HW127923   0.169   1.813  11.958  1.7033 -0.2660 -1.2931
 5488SOL    HW227924   0.241   1.696  11.929 -0.6524 -1.8790  2.1517
 5489SOL     OW27925   1.050   4.644  14.339 -0.3649  0.4486  0.5947
 5489SOL    HW127926   1.071   4.551  14.330 -0.1548  0.5832 -0.3798
 5489SOL    HW227927   0.964   4.642  14.381  0.2414  0.2484  1.8075
 5490SOL     OW27928   3.291   3.986  17.159  0.2708  0.5480 -0.2442
 5490SOL    HW127929   3.380   3.961  17.185 -0.4305 -0.0807  1.5367
 5490SOL    HW227930   3.289   4.082  17.156  0.9498  0.5672 -0.0157
 5491SOL     OW27931   1.322   2.884  11.401 -0.1420 -0.6976 -0.5545
 5491SOL    HW127932   1.291   2.966  11.363  0.5501  1.1696  2.9320
 5491SOL    HW227933   1.236   2.847  11.423 -0.4647 -0.0218 -0.6706
 5492SOL     OW27934   0.615   2.919   9.039  0.5232  0.5719  0.1237
 5492SOL    HW127935   0.592   2.956   9.125  0.2708  2.2011 -0.6408
 5492SOL    HW227936   0.709   2.904   9.046  0.5764  0.4083 -0.9468
 5493SOL     OW27937   0.626   2.255   8.264  1.1667 -0.0255  0.4197
 5493SOL    HW127938   0.610   2.315   8.336  0.2616 -1.3703  1.3385
 5493SOL    HW227939   0.593   2.306   8.189  2.2713 -0.2608 -0.2362
 5494SOL     OW27940   3.454   4.025   4.347 -0.2264  0.1000 -0.0147
 5494SOL    HW127941   3.470   4.089   4.416  1.1912 -1.9633  1.5909
 5494SOL    HW227942   3.359   4.030   4.358 -0.4159  0.3199 -1.8176
 5495SOL     OW27943   1.246   4.303   9.963 -0.2850 -0.0570  0.5447
 5495SOL    HW127944   1.165   4.329  10.006 -0.8912  1.6089 -1.6042
 5495SOL    HW227945   1.270   4.378   9.908 -1.7011  0.8743  1.2037
 5496SOL     OW27946   3.492   0.652  11.404 -0.2320 -0.5396 -0.5021
 5496SOL    HW127947   3.488   0.686  11.314  0.1725 -0.0025 -0.3175
 5496SOL    HW227948   3.463   0.560  11.397 -1.1934 -0.2189 -0.7456
 5497SOL     OW27949   2.820   4.464   7.056 -0.0595 -0.3499  0.3015
 5497SOL    HW127950   2.737   4.419   7.044  0.0820 -0.6776  0.5646
 5497SOL    HW227951   2.861   4.416   7.128 -0.7001 -1.9818 -0.4081
 5498SOL     OW27952   0.355   1.427   2.272 -0.0409 -0.0217  0.6913
 5498SOL    HW127953   0.278   1.381   2.238 -0.1198  1.7388 -1.4539
 5498SOL    HW227954   0.348   1.512   2.230  1.3688 -0.4153 -0.3386
 5499SOL     OW27955   3.805   4.690   8.171  0.2722 -0.3350 -0.4801
 5499SOL    HW127956   3.881   4.662   8.223  0.6510  1.1072 -0.2650
 5499SOL    HW227957   3.783   0.043   8.224  3.0645 -0.3199  0.6378
 5500SOL     OW27958   3.056   1.379   8.748 -0.1284 -0.0556 -0.1560
 5500SOL    HW127959   3.097   1.293   8.738  1.8937  0.7901  0.9079
 5500SOL    HW227960   3.090   1.426   8.672 -1.8194  0.6273 -0.4801
 5501SOL     OW27961   1.837   3.318   4.245 -0.1545  0.1188  0.8562
 5501SOL    HW127962   1.907   3.254   4.257  2.6183  2.4585 -2.6944
 5501SOL    HW227963   1.817   3.348   4.333 -0.9161  1.4915  0.2273
 5502SOL     OW27964   3.023   1.960  14.005  0.1317 -0.1591 -0.1564
 5502SOL    HW127965   3.038   2.022  13.933 -3.1927  0.3771 -0.3768
 5502SOL    HW227966   3.105   1.912  14.011  0.6073  0.6597 -0.0319
 5503SOL     OW27967   1.883   0.683   8.050 -0.6480  0.3441 -0.3103
 5503SOL    HW127968   1.919   0.596   8.068 -1.8933 -0.2041 -0.4989
 5503SOL    HW227969   1.789   0.672   8.041 -0.7446  1.3312 -0.5497
 5504SOL     OW27970   1.361   3.009   3.274  0.9981  0.1700 -0.1712
 5504SOL    HW127971   1.330   2.919   3.284  0.9782  0.0528 -1.2507
 5504SOL    HW227972   1.330   3.032   3.187  0.4194  0.6411  0.1625
 5505SOL     OW27973   1.386   1.714   2.268 -0.3482 -0.5543 -0.0159
 5505SOL    HW127974   1.369   1.636   2.215 -0.3820  0.3727 -1.3717
 5505SOL    HW227975   1.327   1.707   2.343 -2.4031 -0.4261 -1.6156
 5506SOL     OW27976   3.558   4.181   3.589  0.4234  0.8098  0.0630
 5506SOL    HW127977   3.553   4.197   3.494 -1.1329  0.1477  0.0286
 5506SOL    HW227978   3.472   4.205   3.623  1.1994  2.6030  0.7852
 5507SOL     OW27979   1.864   1.620   5.220 -0.1071 -0.3624  0.2818
 5507SOL    HW127980   1.837   1.606   5.311  1.4052 -2.5800  0.3738
 5507SOL    HW227981   1.899   1.708   5.228  1.5351 -0.9492 -0.4439
 5508SOL     OW27982   0.139   2.236   6.676 -0.2738 -0.6379 -0.0905
 5508SOL    HW127983   0.173   2.228   6.765  0.6367  0.9701 -0.2859
 5508SOL    HW227984   0.193   2.165   6.641  0.4773 -0.1896  0.1633
 5509SOL     OW27985   0.759   2.596   8.987 -0.2952 -0.0000 -0.4402
 5509SOL    HW127986   0.682   2.625   9.036  1.0477  1.3640  0.8514
 5509SOL    HW227987   0.748   2.502   8.976  2.0289 -0.3405  0.1149
 5510SOL     OW27988   4.714   1.762  16.332  0.0255 -0.0306 -0.4860
 5510SOL    HW127989   0.068   1.714  16.304  0.7112  1.5499 -1.3579
 5510SOL    HW227990   0.025   1.827  16.394 -0.1008 -0.0003 -0.4474
 5511SOL     OW27991   4.599   3.638   2.456 -0.1864 -0.1089  0.1681
 5511SOL    HW127992   4.548   3.681   2.525 -0.0479 -0.8930  0.7566
 5511SOL    HW227993   4.626   3.558   2.501  0.1046 -0.1422 -0.0691
 5512SOL     OW27994   2.364   4.593   7.019  0.2940  0.2073  0.4909
 5512SOL    HW127995   2.363   4.498   7.026 -1.3572  0.2033  0.1083
 5512SOL    HW227996   2.278   4.610   6.981 -0.1406  1.0750  1.8718
 5513SOL     OW27997   4.711   2.622   7.941 -0.2684 -0.4341 -0.0353
 5513SOL    HW127998   4.687   2.529   7.938 -0.4515 -0.4106  0.7065
 5513SOL    HW227999   4.648   2.667   7.996 -1.2675  0.4128 -1.8792
 5514SOL     OW28000   3.540   4.538   7.479  0.2041 -0.5587  0.5798
 5514SOL    HW128001   3.585   4.516   7.560  0.7006 -0.5902  0.2962
 5514SOL    HW228002   3.498   4.623   7.494  2.7078  1.0367 -1.1956
 5515SOL     OW28003   0.642   0.704  17.055 -0.4210  0.4432 -0.3036
 5515SOL    HW128004   0.561   0.700  17.106  0.6956 -1.2557  1.3354
 5515SOL    HW228005   0.625   0.775  16.993 -1.9821  0.4686  0.1674
 5516SOL     OW28006   3.892   2.503   5.056 -0.3236  0.2630 -0.1244
 5516SOL    HW128007   3.968   2.548   5.020 -1.0380  2.4853  1.1269
 5516SOL    HW228008   3.822   2.547   5.006 -0.4200 -0.1848 -0.3811
 5517SOL     OW28009   2.168   4.019   6.965 -0.1210  0.5993  0.0480
 5517SOL    HW128010   2.201   3.975   7.043 -0.4436  1.2912  0.5758
 5517SOL    HW228011   2.099   3.956   6.945  0.2163  0.4347 -0.5810
 5518SOL     OW28012   3.876   4.462   3.993  0.2339  0.3774 -0.1515
 5518SOL    HW128013   3.912   4.385   3.948  0.5669  0.0741  0.6390
 5518SOL    HW228014   3.782   4.451   3.979  0.2717  1.3647 -1.1686
 5519SOL     OW28015   3.846   3.522   6.838  0.4987  0.1376 -0.3061
 5519SOL    HW128016   3.822   3.614   6.840 -1.7879 -0.4681  0.2652
 5519SOL    HW228017   3.876   3.508   6.928  1.3334  0.8826 -0.4686
 5520SOL     OW28018   1.721   3.181   6.916  0.3466 -0.0655 -0.6507
 5520SOL    HW128019   1.742   3.163   6.824  1.2373  1.7432 -0.7887
 5520SOL    HW228020   1.760   3.104   6.958 -2.9595 -0.2387  2.1189
 5521SOL     OW28021   0.814   3.663   0.698 -0.4301  0.0871  0.0292
 5521SOL    HW128022   0.771   3.623   0.774 -0.3220  0.5649  0.3451
 5521SOL    HW228023   0.742   3.691   0.642 -0.8624  1.2127  1.1507
 5522SOL     OW28024   0.856   4.643   4.188 -0.8183  0.1266 -0.0995
 5522SOL    HW128025   0.766   4.629   4.157 -1.3147  1.2041  0.8205
 5522SOL    HW228026   0.836   0.005   4.229  0.8559  0.1724  0.5949
 5523SOL     OW28027   3.845   0.161   8.996 -0.4332  0.8129  0.3565
 5523SOL    HW128028   3.825   0.253   8.977 -0.0913  0.7307 -0.4276
 5523SOL    HW228029   3.934   0.169   9.030 -0.6742  1.7008  0.7938
 5524SOL     OW28030   2.365   2.997   6.733  0.1042  0.2532 -0.3046
 5524SOL    HW128031   2.430   3.066   6.746  0.0333 -0.1395  2.1571
 5524SOL    HW228032   2.285   3.046   6.715 -0.8721 -0.5667  1.7892
 5525SOL     OW28033   3.071   0.069  14.288  0.1463  0.3701 -0.4918
 5525SOL    HW128034   3.077   0.017  14.367  0.1419  0.8243 -0.1932
 5525SOL    HW228035   3.065   4.713  14.234  1.5185 -1.0161  1.3617
 5526SOL     OW28036   3.311   0.378  10.453  0.2834 -0.2362  0.0581
 5526SOL    HW128037   3.273   0.426  10.526 -0.2547  1.8668 -1.6205
 5526SOL    HW228038   3.386   0.434  10.433  0.4404  0.2364  2.0060
 5527SOL     OW28039   3.066   3.234   6.365 -0.3085 -0.2298 -0.3602
 5527SOL    HW128040   3.071   3.174   6.440 -0.2219 -1.7087 -1.5448
 5527SOL    HW228041   3.034   3.314   6.408 -0.2852 -1.2418  1.5596
 5528SOL     OW28042   4.378   0.541  12.609  0.0129  0.5199 -0.2831
 5528SOL    HW128043   4.411   0.628  12.634  0.5201 -0.2081  1.5322
 5528SOL    HW228044   4.390   0.493  12.691 -1.6737  2.3059  1.0052
 5529SOL     OW28045   4.556   4.468   1.972 -0.2119 -0.5177 -0.0342
 5529SOL    HW128046   4.473   4.419   1.970  0.1815 -1.1772 -0.4795
 5529SOL    HW228047   4.615   4.410   2.021  1.6106  0.5960 -0.8968
 5530SOL     OW28048   1.528   0.327   8.093  0.5533 -0.5228  0.3749
 5530SOL    HW128049   1.567   0.408   8.061  2.6116 -1.3337  0.8241
 5530SOL    HW228050   1.548   0.336   8.187 -1.0105 -2.2274  0.8563
 5531SOL     OW28051   1.983   3.724   8.492 -0.2131 -0.0187  0.2241
 5531SOL    HW128052   1.897   3.746   8.455 -0.0561  2.9159  1.5768
 5531SOL    HW228053   1.990   3.631   8.472 -1.0034  0.3155 -1.5979
 5532SOL     OW28054   2.946   4.129   4.322 -0.0112  0.3965 -0.0006
 5532SOL    HW128055   2.917   4.130   4.230  1.0471  1.1521 -0.3288
 5532SOL    HW228056   2.893   4.202   4.353 -0.5139  0.0338  0.0054
 5533SOL     OW28057   4.587   4.387   2.976  0.1010 -0.0153  0.0377
 5533SOL    HW128058   4.655   4.331   3.013  1.1340  0.7644 -0.7010
 5533SOL    HW228059   4.585   4.459   3.038  0.1823  1.2078 -1.3768
 5534SOL     OW28060   1.361   2.701  11.763  0.3733 -0.2940  0.7020
 5534SOL    HW128061   1.325   2.673  11.847  2.0689 -0.7784  1.2649
 5534SOL    HW228062   1.276   2.730  11.730  1.0280  0.3022 -0.4652
 5535SOL     OW28063   2.791   0.457   2.981 -0.5659  0.0635  0.3159
 5535SOL    HW128064   2.747   0.387   2.933  0.8098 -3.1328  3.7812
 5535SOL    HW228065   2.874   0.451   2.933  1.2234  1.7070  3.2544
 5536SOL     OW28066   1.551   0.842   8.279  0.1100 -0.6857 -0.1517
 5536SOL    HW128067   1.567   0.865   8.370 -3.1081  2.4078 -0.4139
 5536SOL    HW228068   1.472   0.791   8.296 -0.2407 -0.4282 -1.0391
 5537SOL     OW28069   2.062   2.598   9.049  0.4469  0.4321  0.1126
 5537SOL    HW128070   2.067   2.511   9.088 -1.2219  0.0142 -0.6038
 5537SOL    HW228071   2.085   2.643   9.130 -0.3806 -0.4387  0.8304
 5538SOL     OW28072   2.368   3.179   4.196  0.4119  0.0983  0.6867
 5538SOL    HW128073   2.379   3.112   4.264  1.3343 -0.9598 -0.4886
 5538SOL    HW228074   2.309   3.243   4.236 -0.8830 -0.7139  0.0812
 5539SOL     OW28075   2.053   0.474  12.756  0.4078 -0.1249  0.9690
 5539SOL    HW128076   2.015   0.395  12.717 -0.7022  0.0567  1.7018
 5539SOL    HW228077   2.141   0.441  12.776  0.4095 -0.8035 -0.1692
 5540SOL     OW28078   3.851   0.882   0.627  0.4051 -0.1696 -0.0129
 5540SOL    HW128079   3.841   0.838   0.543 -1.9369 -0.3889  0.3874
 5540SOL    HW228080   3.779   0.834   0.668 -0.2974  0.4776 -0.4953
 5541SOL     OW28081   4.387   3.525   9.582 -1.3094 -0.5199 -0.0746
 5541SOL    HW128082   4.423   3.502   9.496  0.6400  2.2367  0.0218
 5541SOL    HW228083   4.417   3.615   9.592 -0.9330 -0.3587 -2.6371
 5542SOL     OW28084   1.808   3.500   0.132  0.1204  0.0706  0.0556
 5542SOL    HW128085   1.777   3.590   0.119 -1.2394 -0.6992 -2.1543
 5542SOL    HW228086   1.743   3.457   0.187 -0.1914  0.1018 -0.2814
 5543SOL     OW28087   4.390   1.835   9.254  0.2366 -0.8212  0.2481
 5543SOL    HW128088   4.316   1.852   9.312  0.3317  4.6473 -1.2441
 5543SOL    HW228089   4.354   1.803   9.171 -0.1124  2.5581 -0.9035
 5544SOL     OW28090   4.482   0.152   4.500  0.0141 -0.0185  0.4420
 5544SOL    HW128091   4.552   0.110   4.549 -0.1185  0.0901  0.7251
 5544SOL    HW228092   4.489   0.242   4.533 -2.3800 -0.2006  1.4969
 5545SOL     OW28093   1.349   2.743   1.061  0.4319  0.1245  0.4552
 5545SOL    HW128094   1.432   2.719   1.019  0.0262 -0.5784  0.0536
 5545SOL    HW228095   1.305   2.787   0.988  3.8015  2.5165 -0.1559
 5546SOL     OW28096   4.270   1.705   2.168 -0.1324  0.1549  0.0335
 5546SOL    HW128097   4.271   1.784   2.114  0.1192 -0.8161 -1.3861
 5546SOL    HW228098   4.225   1.741   2.244  0.9701  1.6076  0.0062
 5547SOL     OW28099   2.522   1.408   7.921  0.3792 -0.1387  0.0851
 5547SOL    HW128100   2.585   1.480   7.928 -0.8128  1.1855 -2.8418
 5547SOL    HW228101   2.555   1.368   7.840 -1.0263 -2.7880  0.8174
 5548SOL     OW28102   4.181   1.461  13.376  0.8350  0.3298  0.3891
 5548SOL    HW128103   4.190   1.474  13.282 -2.7589 -0.5209 -0.0498
 5548SOL    HW228104   4.167   1.550  13.409 -1.0344  0.4029 -0.6496
 5549SOL     OW28105   1.431   1.490   7.963 -0.2354  0.1211  0.2249
 5549SOL    HW128106   1.408   1.578   7.933  1.0930 -0.1467 -1.6031
 5549SOL    HW228107   1.349   1.440   7.960 -1.7365  2.6499 -1.0634
 5550SOL     OW28108   0.207   3.737   2.647  0.1878  0.4409  0.0086
 5550SOL    HW128109   0.260   3.810   2.617 -0.9757  0.3949 -2.1759
 5550SOL    HW228110   0.165   3.712   2.564  0.5675  0.6484 -0.2431
 5551SOL     OW28111   1.822   1.356   6.008  0.1754  0.3740  0.0187
 5551SOL    HW128112   1.911   1.327   6.030  0.7971  1.8830 -0.4634
 5551SOL    HW228113   1.810   1.319   5.920 -1.3447  0.1857  0.3148
 5552SOL     OW28114   4.545   1.566   7.187 -0.0034  0.0947  0.2591
 5552SOL    HW128115   4.625   1.576   7.238 -0.0674 -1.5103  0.6725
 5552SOL    HW228116   4.490   1.641   7.209 -3.9228 -2.5219 -0.6503
 5553SOL     OW28117   3.185   0.846   4.962  0.0835  0.2926 -0.4646
 5553SOL    HW128118   3.142   0.927   4.934  2.3519  1.5197 -0.4002
 5553SOL    HW228119   3.121   0.782   4.930 -0.5886  0.2233  1.0132
 5554SOL     OW28120   1.602   1.656  12.991 -0.4069  0.2127 -0.5244
 5554SOL    HW128121   1.652   1.678  13.070 -1.3980  0.4839  0.0236
 5554SOL    HW228122   1.660   1.590  12.952 -0.0516 -0.7928  1.7382
 5555SOL     OW28123   0.375   3.816   4.154  0.1579 -0.0225  0.0549
 5555SOL    HW128124   0.465   3.803   4.123  0.0854 -0.4008 -0.0057
 5555SOL    HW228125   0.319   3.838   4.079  2.0320  1.6219 -0.8532
 5556SOL     OW28126   2.211   4.319   8.048 -0.3387  0.2803  0.2356
 5556SOL    HW128127   2.197   4.249   8.112 -3.3579 -1.3828 -2.2730
 5556SOL    HW228128   2.159   4.393   8.081 -2.0632 -0.6936 -0.2701
 5557SOL     OW28129   4.363   2.738   2.505 -0.2236 -0.5013  0.1379
 5557SOL    HW128130   4.312   2.772   2.431  0.5908  0.8854  0.2066
 5557SOL    HW228131   4.292   2.729   2.569 -0.4235  2.2774  0.3143
 5558SOL     OW28132   3.044   0.408   6.712 -0.2230  0.4682  0.0615
 5558SOL    HW128133   2.971   0.387   6.769  1.1737 -2.7871  0.6540
 5558SOL    HW228134   3.103   0.436   6.782 -0.8343  3.0037 -0.4400
 5559SOL     OW28135   2.631   1.434   2.847  0.2365  0.4515  0.6484
 5559SOL    HW128136   2.567   1.467   2.910  0.7978  4.5063 -0.9332
 5559SOL    HW228137   2.587   1.387   2.776 -1.2173  0.7792  1.3278
 5560SOL     OW28138   0.819   0.091   0.295 -0.0143 -0.1465  0.3756
 5560SOL    HW128139   0.779   0.162   0.246  2.6722  1.0906  0.0098
 5560SOL    HW228140   0.906   0.096   0.256  0.3688  0.3778  1.3002
 5561SOL     OW28141   0.552   2.961  14.558 -0.2450 -0.3329  0.1378
 5561SOL    HW128142   0.560   2.867  14.570 -0.0049 -0.4729 -1.1307
 5561SOL    HW228143   0.529   2.969  14.466 -0.3434 -2.4746 -0.0232
 5562SOL     OW28144   1.767   3.981   1.495 -0.2878  0.6454 -0.1098
 5562SOL    HW128145   1.703   3.943   1.434  0.3978 -1.6005  0.5860
 5562SOL    HW228146   1.763   4.075   1.477 -0.1939  0.5605 -0.5775
 5563SOL     OW28147   4.454   0.009  17.463  0.1914 -0.1023  0.4704
 5563SOL    HW128148   4.530   0.011  17.522 -0.4924 -2.7086  1.4711
 5563SOL    HW228149   4.460   4.646  17.422 -0.3897 -0.0511  0.2906
 5564SOL     OW28150   3.374   4.129  15.630  0.2263 -0.2764  0.1062
 5564SOL    HW128151   3.302   4.186  15.604  0.8199  0.8500  0.9650
 5564SOL    HW228152   3.350   4.048  15.585 -0.2627 -0.8338  1.3599
 5565SOL     OW28153   2.715   1.143   7.762 -0.2159 -0.1670 -0.1913
 5565SOL    HW128154   2.706   1.188   7.678 -0.9427 -0.1784 -0.1191
 5565SOL    HW228155   2.623   1.142   7.787  0.3909  0.0071  2.0038
 5566SOL     OW28156   1.349   2.209   5.108 -0.3626  0.7992 -0.1106
 5566SOL    HW128157   1.423   2.223   5.169  0.9426  1.2419 -1.8010
 5566SOL    HW228158   1.284   2.164   5.161  1.5880 -1.6899  0.1558
 5567SOL     OW28159   0.192   3.889   5.055 -0.3356 -0.8287 -0.1849
 5567SOL    HW128160   0.165   3.937   5.134  1.7314  2.2630 -1.3840
 5567SOL    HW228161   0.266   3.838   5.087  1.7414  2.5705  0.4266
 5568SOL     OW28162   3.168   0.724   4.115  0.5771  0.3193 -0.0184
 5568SOL    HW128163   3.154   0.818   4.114 -2.8596 -0.1803 -0.2932
 5568SOL    HW228164   3.079   0.700   4.088 -0.2014  0.6286  2.2583
 5569SOL     OW28165   2.210   0.225  11.936  0.5644  0.3506 -0.1408
 5569SOL    HW128166   2.180   0.292  11.875  1.6118  0.2856 -0.7318
 5569SOL    HW228167   2.275   0.181  11.881 -0.1219  0.2201 -0.8395
 5570SOL     OW28168   1.551   2.785  13.297 -0.2647 -0.1928  0.0689
 5570SOL    HW128169   1.606   2.840  13.242  1.1547 -0.6867  0.9951
 5570SOL    HW228170   1.622   2.746  13.348  1.1154 -1.8781 -3.1627
 5571SOL     OW28171   3.164   2.287   4.330 -0.0878 -0.2284 -0.0687
 5571SOL    HW128172   3.216   2.332   4.263 -2.3107 -0.8683 -2.2401
 5571SOL    HW228173   3.204   2.321   4.410 -0.3923 -0.6526  0.2633
 5572SOL     OW28174   0.365   2.013  14.485  0.0480 -0.2611 -0.1117
 5572SOL    HW128175   0.373   2.052  14.398  1.1562  0.9339  0.5159
 5572SOL    HW228176   0.282   2.044  14.520 -0.7317 -0.0710 -2.1059
 5573SOL     OW28177   1.007   2.532   0.294 -0.4563  0.0851 -0.3094
 5573SOL    HW128178   1.032   2.600   0.356  1.9874 -0.4530 -0.6742
 5573SOL    HW228179   0.932   2.502   0.346  0.0607 -0.6797  0.0077
 5574SOL     OW28180   2.904   0.279   3.830  0.3098 -0.1622  0.2096
 5574SOL    HW128181   2.938   0.311   3.748 -0.9767  1.4498  0.3128
 5574SOL    HW228182   2.981   0.231   3.859 -0.0106  0.2704  1.7956
 5575SOL     OW28183   3.602   2.077   1.425  0.0113  0.1533 -0.2401
 5575SOL    HW128184   3.590   2.083   1.520  1.1819 -1.8786  0.0461
 5575SOL    HW228185   3.575   1.990   1.396 -2.1504  0.5323  0.6851
 5576SOL     OW28186   0.513   3.468   8.869  0.0997  0.1058 -0.1063
 5576SOL    HW128187   0.496   3.420   8.788 -0.0987  0.6352 -0.3778
 5576SOL    HW228188   0.560   3.547   8.842  1.0471 -0.3262  0.2379
 5577SOL     OW28189   3.293   4.185   3.293  0.0584 -0.4157  0.2783
 5577SOL    HW128190   3.227   4.252   3.273  0.6574  0.6632  1.9618
 5577SOL    HW228191   3.365   4.247   3.300  1.0991 -1.3441 -2.0230
 5578SOL     OW28192   3.765   3.952   4.404 -0.2235  0.4938 -0.5759
 5578SOL    HW128193   3.770   3.976   4.497 -2.5268  0.8221 -0.5290
 5578SOL    HW228194   3.707   4.022   4.375 -1.1732  0.4753  1.2385
 5579SOL     OW28195   3.014   1.369   6.622 -0.4455 -0.1395 -0.1705
 5579SOL    HW128196   2.948   1.433   6.648 -0.4022  0.4650 -1.5492
 5579SOL    HW228197   2.960   1.291   6.628 -0.1506 -0.3136  0.2332
 5580SOL     OW28198   0.567   2.677  14.612  0.7877  0.3135  0.2660
 5580SOL    HW128199   0.655   2.667  14.650 -0.7996 -2.4182  3.2253
 5580SOL    HW228200   0.546   2.584  14.602 -2.8573  0.9529  2.2185
 5581SOL     OW28201   3.180   3.476   0.370  0.1421  0.5619 -0.9419
 5581SOL    HW128202   3.240   3.442   0.304 -0.1811 -0.8730 -0.5044
 5581SOL    HW228203   3.100   3.424   0.363  1.5177 -1.9335  1.4507
 5582SOL     OW28204   2.336   0.014   4.895  0.5302 -0.2153  0.4846
 5582SOL    HW128205   2.348   0.056   4.810  0.5811 -0.9176  0.1399
 5582SOL    HW228206   2.327   0.089   4.952 -1.2766 -0.1631  0.1501
 5583SOL     OW28207   2.419   4.037   1.764 -0.4573 -0.3033 -0.2833
 5583SOL    HW128208   2.391   4.001   1.680 -2.0945 -1.8804  0.9050
 5583SOL    HW228209   2.357   4.110   1.770  0.3082  0.1666  1.7906
 5584SOL     OW28210   0.157   2.953   4.067 -0.3393 -0.4848  0.7539
 5584SOL    HW128211   0.244   2.977   4.033 -1.6959  2.7111 -0.4784
 5584SOL    HW228212   0.137   2.890   3.998 -1.1907 -0.8467  1.3330
 5585SOL     OW28213   1.865   4.469   1.893  0.8925  0.1945 -0.2386
 5585SOL    HW128214   1.790   4.461   1.952  0.3161  0.5029 -0.9295
 5585SOL    HW228215   1.864   4.564   1.881 -1.5325  0.3283  1.1564
 5586SOL     OW28216   3.681   2.286   9.731 -0.3832 -0.4535 -0.0889
 5586SOL    HW128217   3.709   2.195   9.732 -0.6750 -0.5561 -1.4367
 5586SOL    HW228218   3.631   2.282   9.812  1.4168 -0.6271  1.0169
 5587SOL     OW28219   2.391   2.875   9.372  0.1507  0.2492 -0.3081
 5587SOL    HW128220   2.376   2.917   9.287 -2.3007  0.8408  0.4338
 5587SOL    HW228221   2.486   2.878   9.365  0.0701  0.4719 -1.4332
 5588SOL     OW28222   0.287   1.732   0.720  0.1248  0.5966 -0.3692
 5588SOL    HW128223   0.304   1.746   0.813 -1.7713  0.9520 -0.0767
 5588SOL    HW228224   0.219   1.799   0.713 -0.8901 -0.5264 -1.1609
 5589SOL     OW28225   4.027   1.804  13.279 -0.7115  0.0434 -0.0567
 5589SOL    HW128226   4.071   1.751  13.346 -1.4076 -0.3107  0.1154
 5589SOL    HW228227   4.095   1.804  13.212 -0.3242 -0.6790  0.3241
 5590SOL     OW28228   0.170   0.167   0.012  0.3552  0.7100  0.3056
 5590SOL    HW128229   0.250   0.197  17.662  0.4342 -0.4773 -0.3436
 5590SOL    HW228230   0.198   0.092   0.064  0.6280  1.1322  0.7660
 5591SOL     OW28231   0.311   2.109   5.261 -0.5899 -0.2037 -0.0810
 5591SOL    HW128232   0.292   2.017   5.243 -0.8717 -0.0980 -0.3401
 5591SOL    HW228233   0.318   2.147   5.174  0.0862 -2.0293 -0.8261
 5592SOL     OW28234   3.788   3.705   2.508 -0.2758 -0.2612  0.4263
 5592SOL    HW128235   3.703   3.678   2.544 -2.4767  1.3082 -3.5957
 5592SOL    HW228236   3.839   3.626   2.525  0.0315 -0.4426 -1.3671
 5593SOL     OW28237   0.981   2.212  14.472  0.2870 -0.2825  0.1368
 5593SOL    HW128238   1.072   2.242  14.461  0.5597 -1.6395 -1.3681
 5593SOL    HW228239   0.955   2.192  14.382 -2.7840 -0.9545  1.1816
 5594SOL     OW28240   4.624   4.232   7.999 -0.0980  0.3723  0.2609
 5594SOL    HW128241   4.691   4.256   8.063  2.1662  1.2002 -2.4334
 5594SOL    HW228242   4.567   4.306   8.015 -0.2483  0.2709  0.1901
 5595SOL     OW28243   0.738   3.373  10.369  0.5563 -0.0053  0.4262
 5595SOL    HW128244   0.644   3.366  10.388  0.5735 -0.5559  0.3137
 5595SOL    HW228245   0.738   3.334  10.282  1.8329 -1.6157  1.1527
 5596SOL     OW28246   4.207   1.617   3.787  0.2360  0.2265 -0.1707
 5596SOL    HW128247   4.291   1.651   3.756  1.8441 -0.8658  2.9830
 5596SOL    HW228248   4.215   1.530   3.748  0.5108  0.8660 -1.5341
 5597SOL     OW28249   4.475   0.868  15.813  0.0453 -0.8781 -0.4812
 5597SOL    HW128250   4.447   0.938  15.871  1.9342 -0.7950  0.3242
 5597SOL    HW228251   4.404   0.804  15.818 -0.1847 -0.6232 -0.5180
 5598SOL     OW28252   3.951   1.113   6.327  0.3878  0.3953  0.2274
 5598SOL    HW128253   4.045   1.108   6.345  1.1420  0.4156 -3.8750
 5598SOL    HW228254   3.922   1.156   6.408 -1.3808 -1.4405  0.5739
 5599SOL     OW28255   1.876   0.821   7.026 -0.0520 -0.3916 -0.0730
 5599SOL    HW128256   1.919   0.886   7.082 -1.3204 -1.8898  2.6138
 5599SOL    HW228257   1.895   0.743   7.078 -0.6820  0.2550  1.1359
 5600SOL     OW28258   3.946   0.651   4.222 -0.1023  0.5589  0.0347
 5600SOL    HW128259   3.892   0.713   4.269 -1.1838 -1.7433  1.8364
 5600SOL    HW228260   4.037   0.657   4.251  0.2858  1.3246 -1.3603
 5601SOL     OW28261   2.114   0.074  17.381 -0.2127  0.1887  0.5067
 5601SOL    HW128262   2.113   0.004  17.447 -1.4095  3.0532  3.5212
 5601SOL    HW228263   2.209   0.077  17.369  0.0502  0.5549  2.5860
 5602SOL     OW28264   3.611   1.085   7.369 -0.0389 -0.6504 -0.3054
 5602SOL    HW128265   3.542   1.130   7.417 -1.6016  0.0578 -3.1743
 5602SOL    HW228266   3.631   1.029   7.443  0.8138 -1.4569 -1.1486
 5603SOL     OW28267   3.077   0.055   6.297 -0.3545 -0.3171 -0.5996
 5603SOL    HW128268   3.039   0.137   6.328 -0.9288 -0.6644 -0.3942
 5603SOL    HW228269   3.125   0.030   6.376  0.1883  1.6238 -0.2938
 5604SOL     OW28270   0.250   4.312  15.381 -0.0771 -0.4616 -0.4759
 5604SOL    HW128271   0.197   4.233  15.370  0.9757 -1.1671 -0.4055
 5604SOL    HW228272   0.242   4.350  15.293 -1.0722 -2.1790 -1.1220
 5605SOL     OW28273   3.762   0.022   3.359 -0.2452  0.2494  0.8626
 5605SOL    HW128274   3.694   0.079   3.327 -0.3023 -0.1860  0.2089
 5605SOL    HW228275   3.756   0.035   3.454 -3.3913  2.6004  0.3125
 5606SOL     OW28276   1.355   4.254   1.193 -0.3581  0.4968  0.1091
 5606SOL    HW128277   1.386   4.273   1.105 -2.1738 -0.7035 -0.7955
 5606SOL    HW228278   1.321   4.339   1.219 -2.1827 -0.4654  0.9417
 5607SOL     OW28279   0.576   3.132   9.696  0.2928 -0.7069  0.4424
 5607SOL    HW128280   0.582   3.095   9.785  0.6886 -2.0756 -0.1454
 5607SOL    HW228281   0.608   3.221   9.707 -1.3840  0.3192 -3.1778
 5608SOL     OW28282   2.991   1.461  16.611 -0.4310  0.0732  0.0919
 5608SOL    HW128283   2.972   1.387  16.668 -1.7635  1.2199  1.1362
 5608SOL    HW228284   2.914   1.518  16.619 -1.2149 -0.8721 -0.6472
 5609SOL     OW28285   4.325   4.590   5.104  0.1350  0.5116  0.0966
 5609SOL    HW128286   4.281   4.663   5.148 -1.7649 -1.5583  1.6249
 5609SOL    HW228287   4.374   4.563   5.182 -1.8582 -1.9412  0.5131
 5610SOL     OW28288   2.712   4.214   3.265  0.2230  0.2251 -0.4330
 5610SOL    HW128289   2.690   4.236   3.356  1.4160  1.8096 -0.5377
 5610SOL    HW228290   2.626   4.204   3.223 -0.3318 -1.1356  1.0286
 5611SOL     OW28291   3.388   1.420   3.493  0.0144 -0.0294  0.0795
 5611SOL    HW128292   3.458   1.410   3.557 -0.4244  1.2012  0.7418
 5611SOL    HW228293   3.335   1.491   3.527  1.8780  1.4877 -0.1838
 5612SOL     OW28294   1.580   2.456   9.748  0.0993  0.1066  0.1292
 5612SOL    HW128295   1.627   2.477   9.667 -1.4600 -1.5790 -1.2150
 5612SOL    HW228296   1.504   2.403   9.722  0.2892 -1.1269  2.0907
 5613SOL     OW28297   4.621   1.799   8.783 -0.0359  0.0898  0.6740
 5613SOL    HW128298   4.528   1.818   8.772 -0.9917 -4.6577  0.7215
 5613SOL    HW228299   4.640   1.754   8.701 -1.3831 -0.3694  0.6154
 5614SOL     OW28300   2.882   0.712   5.963 -0.1261  0.4313  0.5106
 5614SOL    HW128301   2.872   0.736   6.055  1.0396 -1.6599  1.2030
 5614SOL    HW228302   2.833   0.783   5.922  0.2338  0.4879  0.1776
 5615SOL     OW28303   0.339   2.648   5.023  0.6831  0.3490 -0.1570
 5615SOL    HW128304   0.366   2.635   4.932 -2.3831  1.8333 -1.2836
 5615SOL    HW228305   0.282   2.724   5.017  0.4548  0.4185  2.8049
 5616SOL     OW28306   2.154   1.676  10.047  0.0822  0.1118 -0.2446
 5616SOL    HW128307   2.146   1.587  10.013 -1.1907  0.2460 -0.3215
 5616SOL    HW228308   2.142   1.724   9.965 -2.1171 -3.0724 -1.7998
 5617SOL     OW28309   3.396   4.156   5.026  0.3580 -0.1858  0.2048
 5617SOL    HW128310   3.463   4.160   5.094  1.6103 -0.3410 -1.0127
 5617SOL    HW228311   3.317   4.163   5.079 -0.0085  0.6821 -0.4589
 5618SOL     OW28312   4.196   2.385   9.648 -0.4036 -0.0468 -0.0676
 5618SOL    HW128313   4.130   2.426   9.704 -0.0438 -1.3056  1.2768
 5618SOL    HW228314   4.267   2.448   9.652 -0.5929  0.3598 -3.5406
 5619SOL     OW28315   1.650   2.726  14.975  0.0872  0.1729 -0.1147
 5619SOL    HW128316   1.655   2.631  14.969 -1.3814  0.1444 -0.7055
 5619SOL    HW228317   1.591   2.748  14.903  0.4877  1.4445 -0.0502
 5620SOL     OW28318   0.030   2.286   9.751  0.2428 -0.0563  0.6012
 5620SOL    HW128319   0.074   2.211   9.709 -2.5871 -1.3731 -0.0230
 5620SOL    HW228320   0.055   2.273   9.842  1.5695 -1.1420  0.0866
 5621SOL     OW28321   1.382   2.776   1.471 -0.1185 -0.1437 -0.2606
 5621SOL    HW128322   1.429   2.851   1.434 -1.6035  0.3891 -1.0527
 5621SOL    HW228323   1.446   2.706   1.455  1.1537  0.8965  0.2344
 5622SOL     OW28324   0.468   0.416  11.198  0.4044  0.0740 -0.1897
 5622SOL    HW128325   0.563   0.425  11.195  0.5079 -0.4295  1.2676
 5622SOL    HW228326   0.459   0.352  11.128 -0.8165 -0.9450  0.9007
 5623SOL     OW28327   1.018   2.500   5.948  0.4404 -0.5849  0.3583
 5623SOL    HW128328   1.015   2.459   5.862  0.1698  1.3020 -0.5194
 5623SOL    HW228329   0.931   2.489   5.986 -0.9535  2.8328 -1.7741
 5624SOL     OW28330   0.471   3.286   3.440  0.0401  0.0114  0.1444
 5624SOL    HW128331   0.392   3.258   3.485 -0.0523 -1.7097 -1.1023
 5624SOL    HW228332   0.434   3.325   3.361 -1.4537 -0.7158  0.4962
 5625SOL     OW28333   1.002   1.765   3.709 -0.6567  0.3426  0.1847
 5625SOL    HW128334   0.989   1.843   3.762  1.5604  0.2226  0.9125
 5625SOL    HW228335   1.098   1.759   3.709 -0.6937 -0.4150 -1.0986
 5626SOL     OW28336   3.009   3.202   2.464  0.0852  0.3209  0.7829
 5626SOL    HW128337   3.007   3.264   2.536  0.9379  0.0129  1.0618
 5626SOL    HW228338   2.960   3.131   2.505 -1.0957  1.3779  1.1950
 5627SOL     OW28339   2.437   4.035   9.643 -0.1532 -0.3562  0.0501
 5627SOL    HW128340   2.531   4.051   9.631 -0.4260  1.4174  0.3024
 5627SOL    HW228341   2.432   4.029   9.738  1.0613  0.3569  0.1665
 5628SOL     OW28342   3.302   2.421   3.887  0.9334  0.3002 -0.2334
 5628SOL    HW128343   3.277   2.512   3.874  1.2712  0.5540  0.8533
 5628SOL    HW228344   3.312   2.386   3.799 -0.1071 -2.9229  0.9181
 5629SOL     OW28345   1.643   2.740   3.277  0.6166  0.0200  0.1278
 5629SOL    HW128346   1.686   2.825   3.285  0.9715 -0.1958  0.5594
 5629SOL    HW228347   1.581   2.751   3.350 -0.4549 -0.9190 -0.6375
 5630SOL     OW28348   2.439   3.973   9.908  0.1920 -0.5210  0.3267
 5630SOL    HW128349   2.530   3.999   9.922 -0.0510 -0.0458  0.9808
 5630SOL    HW228350   2.400   4.050   9.948 -0.7571 -0.6208 -0.4022
 5631SOL     OW28351   1.568   3.484   4.543 -0.1035 -0.8617 -0.0543
 5631SOL    HW128352   1.517   3.490   4.463 -1.4489  0.0381  0.8655
 5631SOL    HW228353   1.534   3.402   4.577  1.2894 -2.1669 -1.8533
 5632SOL     OW28354   2.422   4.498   4.653  0.1212 -0.1099 -0.3484
 5632SOL    HW128355   2.378   4.559   4.593 -0.3430 -0.5045 -0.4106
 5632SOL    HW228356   2.435   4.418   4.601  1.6056 -0.4490  0.5432
 5633SOL     OW28357   0.800   4.637  12.589 -0.4774 -0.7158  1.1288
 5633SOL    HW128358   0.868   4.632  12.522 -1.5853  0.4935 -0.0779
 5633SOL    HW228359   0.832   4.585  12.663 -0.4376  1.4900  2.6789
 5634SOL     OW28360   1.653   1.644  11.634 -0.6795  0.0329  0.2031
 5634SOL    HW128361   1.603   1.572  11.672 -2.2451  0.6276 -0.7139
 5634SOL    HW228362   1.730   1.595  11.607 -0.8264 -0.1071  0.0291
 5635SOL     OW28363   1.995   2.491   3.490 -0.1970 -0.0121 -0.3996
 5635SOL    HW128364   2.060   2.435   3.449 -0.3096 -0.0359 -0.5432
 5635SOL    HW228365   2.041   2.534   3.562  1.2415 -1.4102 -0.5103
 5636SOL     OW28366   1.481   0.596   7.802  0.0064 -0.1860 -1.0277
 5636SOL    HW128367   1.463   0.548   7.722 -0.4641 -2.1428  0.2514
 5636SOL    HW228368   1.526   0.677   7.779  0.7844 -0.0903  0.7685
 5637SOL     OW28369   1.062   0.716   6.567 -0.4651  0.4006 -0.1086
 5637SOL    HW128370   0.980   0.756   6.536  0.0958  0.7310 -1.1363
 5637SOL    HW228371   1.122   0.745   6.499  0.2638 -0.9621 -0.0324
 5638SOL     OW28372   3.945   1.182   3.800 -0.1955  0.8056  0.3399
 5638SOL    HW128373   3.938   1.275   3.822  3.8798  1.1536  0.1150
 5638SOL    HW228374   3.892   1.152   3.873 -0.9914  0.7331 -0.2715
 5639SOL     OW28375   0.597   4.194  15.171  0.4982 -0.3191  0.1030
 5639SOL    HW128376   0.553   4.213  15.254 -0.1822  0.5319 -0.4693
 5639SOL    HW228377   0.649   4.116  15.192  1.9020  0.5168 -0.2455
 5640SOL     OW28378   3.076   2.065   7.155  0.5022 -0.3040  0.3087
 5640SOL    HW128379   3.030   2.101   7.231  0.0826 -1.5755  0.6608
 5640SOL    HW228380   3.107   2.146   7.113 -0.7904  0.7045  1.2920
 5641SOL     OW28381   1.500   4.454  17.202 -0.1930  0.2401  0.8091
 5641SOL    HW128382   1.593   4.474  17.193 -0.1360  0.2120  1.2989
 5641SOL    HW228383   1.487   4.472  17.295 -0.6866  3.4544  0.1260
 5642SOL     OW28384   0.391   3.703  11.571 -0.0151 -0.0817  0.3232
 5642SOL    HW128385   0.384   3.721  11.664 -0.6877  0.7185  0.1198
 5642SOL    HW228386   0.480   3.670  11.567  0.0491  0.1660 -0.2996
 5643SOL     OW28387   1.939   1.104   5.424  0.2202  0.2630  0.3674
 5643SOL    HW128388   1.934   1.024   5.476 -2.0147  0.6062  0.7040
 5643SOL    HW228389   1.946   1.067   5.336 -1.1128  1.6517 -0.3223
 5644SOL     OW28390   3.997   1.055   6.935  0.1359  0.0504  0.7060
 5644SOL    HW128391   3.917   1.032   6.888  0.9108 -2.9201  0.8345
 5644SOL    HW228392   4.024   0.971   6.970  0.6568  1.6349  4.1280
 5645SOL     OW28393   2.247   4.100   5.344 -0.3186  0.1518 -0.0171
 5645SOL    HW128394   2.240   4.152   5.263  1.3865  0.2841 -0.0766
 5645SOL    HW228395   2.336   4.066   5.342  0.5555  2.4250 -0.7823
 5646SOL     OW28396   2.975   3.613  13.609 -0.0427 -0.9198  0.2295
 5646SOL    HW128397   2.882   3.624  13.591  0.0924 -0.4709 -0.1821
 5646SOL    HW228398   3.013   3.669  13.542 -1.6968  0.9112  0.8113
 5647SOL     OW28399   3.964   0.352   8.535  0.3396 -0.7322  0.2353
 5647SOL    HW128400   3.987   0.331   8.444 -0.2229  0.0539 -0.0822
 5647SOL    HW228401   3.893   0.289   8.546 -0.0697 -0.5517 -1.4983
 5648SOL     OW28402   0.887   3.339   9.496 -0.1726  0.2283 -0.5209
 5648SOL    HW128403   0.812   3.399   9.499 -0.7913 -0.6339  1.0457
 5648SOL    HW228404   0.896   3.319   9.403  1.1671  0.9837 -0.5540
 5649SOL     OW28405   0.193   1.903   9.885 -0.3343 -0.0898 -0.3083
 5649SOL    HW128406   0.122   1.856   9.929 -0.1894 -0.6130 -0.6232
 5649SOL    HW228407   0.249   1.826   9.893 -1.8891 -1.0194  1.6998
 5650SOL     OW28408   2.451   3.766  15.110  0.2057 -0.4488  0.8172
 5650SOL    HW128409   2.516   3.756  15.040 -1.4398  0.9409 -0.9030
 5650SOL    HW228410   2.499   3.814  15.178  0.9018 -1.1446  0.8294
 5651SOL     OW28411   0.753   0.217  14.502  0.0889  0.2153 -0.7643
 5651SOL    HW128412   0.762   0.123  14.491  0.5753  0.3440 -1.4918
 5651SOL    HW228413   0.812   0.237  14.574 -3.0833 -1.0311  2.1572
 5652SOL     OW28414   1.244   1.625  15.828  0.0640  0.2527 -0.1140
 5652SOL    HW128415   1.196   1.648  15.749 -0.7549 -1.6433 -0.1812
 5652SOL    HW228416   1.333   1.626  15.793 -0.0312 -1.7609 -0.4292
 5653SOL     OW28417   1.741   4.112  13.456 -0.2806 -0.1300 -0.1128
 5653SOL    HW128418   1.657   4.118  13.410 -0.9040 -1.3340  0.8821
 5653SOL    HW228419   1.738   4.194  13.505  1.0579 -0.5011  0.5678
 5654SOL     OW28420   3.347   2.848  15.389 -0.0855 -0.1680 -0.0381
 5654SOL    HW128421   3.421   2.903  15.363 -1.3528  1.5949  0.0919
 5654SOL    HW228422   3.310   2.892  15.466  0.4866 -0.6885  0.5321
 5655SOL     OW28423   1.155   1.756  16.415 -0.0420 -0.4830  0.0216
 5655SOL    HW128424   1.066   1.771  16.445  0.0574 -0.0778  0.1092
 5655SOL    HW228425   1.196   1.806  16.485  0.5064 -1.8626  0.6964
 5656SOL     OW28426   2.735   3.359  11.158  0.1988  0.6486  0.2371
 5656SOL    HW128427   2.710   3.294  11.092  1.1865  0.7413 -0.2229
 5656SOL    HW228428   2.775   3.308  11.229 -0.4602  0.2240  0.3032
 5657SOL     OW28429   2.262   0.080  12.403  0.6516  0.1262  0.4057
 5657SOL    HW128430   2.238   0.018  12.334 -2.2003  2.8698 -1.0705
 5657SOL    HW228431   2.264   0.016  12.474 -0.3382 -0.5026 -0.1216
 5658SOL     OW28432   1.583   4.343   2.951  0.0619  0.0160  0.1984
 5658SOL    HW128433   1.489   4.326   2.948  0.0087  0.4192 -0.3414
 5658SOL    HW228434   1.613   4.264   2.905  0.5404  0.3483 -0.0626
 5659SOL     OW28435   0.325   3.593   8.571 -0.0761  0.2078 -0.5416
 5659SOL    HW128436   0.346   3.622   8.482  1.5590  3.7368  0.9685
 5659SOL    HW228437   0.377   3.512   8.570 -0.7361 -0.2068 -0.8101
 5660SOL     OW28438   3.811   1.264   5.561  0.1161  0.2652 -0.0933
 5660SOL    HW128439   3.862   1.332   5.604 -1.7103  2.0542 -0.7942
 5660SOL    HW228440   3.720   1.282   5.584 -0.1175 -2.3732  1.1104
 5661SOL     OW28441   4.210   1.526   6.210  0.6761 -0.5467 -0.3348
 5661SOL    HW128442   4.226   1.492   6.122  2.7265 -1.3170  0.3244
 5661SOL    HW228443   4.271   1.599   6.214 -1.4843  1.2875 -0.8261
 5662SOL     OW28444   3.445   3.493   7.219 -0.0784 -0.6047  0.0886
 5662SOL    HW128445   3.356   3.459   7.218 -0.1944 -0.3368  1.3399
 5662SOL    HW228446   3.446   3.555   7.147 -0.6469  1.1621  1.5971
 5663SOL     OW28447   1.491   4.001   0.812 -0.0107 -0.3433  0.4250
 5663SOL    HW128448   1.467   4.058   0.739 -1.9805  0.3723  1.6173
 5663SOL    HW228449   1.583   4.028   0.810 -0.5176  1.2407 -2.4302
 5664SOL     OW28450   1.391   0.598   5.682 -0.0360 -0.2115 -0.5441
 5664SOL    HW128451   1.311   0.559   5.718  0.7534 -2.5785 -1.3616
 5664SOL    HW228452   1.362   0.688   5.666  0.6090  0.2887  1.0384
 5665SOL     OW28453   2.127   1.776  12.570  0.0899 -0.1359  0.3048
 5665SOL    HW128454   2.106   1.868  12.557  0.9556 -0.4943 -3.5345
 5665SOL    HW228455   2.122   1.731  12.485  0.5986  3.0064 -1.3868
 5666SOL     OW28456   1.609   4.645   7.808  0.0862 -0.2652  0.1209
 5666SOL    HW128457   1.597   4.625   7.901  1.8490 -2.0458 -0.0385
 5666SOL    HW228458   1.552   4.722   7.805  1.4915  0.7397 -0.5711
 5667SOL     OW28459   3.345   0.260  16.043  0.3738 -0.3129 -0.2565
 5667SOL    HW128460   3.365   0.186  15.986 -0.7311 -1.9231  1.4528
 5667SOL    HW228461   3.300   0.311  15.976  1.5299 -0.0314 -0.8238
 5668SOL     OW28462   0.492   3.715   6.738  0.7497  0.2092 -0.2432
 5668SOL    HW128463   0.451   3.759   6.664  0.8597  0.5349 -0.1128
 5668SOL    HW228464   0.485   3.784   6.804 -0.3142  0.0080 -0.1444
 5669SOL     OW28465   0.397   4.526   3.340 -0.0298 -0.3874 -0.5815
 5669SOL    HW128466   0.322   4.550   3.286  0.8025 -0.0557 -1.5994
 5669SOL    HW228467   0.473   4.538   3.283  0.5978 -2.2350 -0.1441
 5670SOL     OW28468   3.817   3.334   7.728  0.8871  0.5162  0.5334
 5670SOL    HW128469   3.721   3.331   7.730  0.8622  0.2276 -1.0078
 5670SOL    HW228470   3.844   3.251   7.690  0.3979  2.0509 -3.1284
 5671SOL     OW28471   2.291   3.032   5.796 -0.0006  0.5839  0.5157
 5671SOL    HW128472   2.285   3.122   5.763  0.6599 -0.2367 -1.8831
 5671SOL    HW228473   2.368   3.031   5.853  0.6042 -0.5516 -0.3063
 5672SOL     OW28474   1.602   3.375   7.286 -0.3661  0.3958 -0.2280
 5672SOL    HW128475   1.641   3.287   7.288 -2.8982 -0.7157 -0.1600
 5672SOL    HW228476   1.583   3.384   7.192 -1.7227  1.0416  0.1126
 5673SOL     OW28477   1.196   1.439   4.397 -0.1725  0.6967 -0.1874
 5673SOL    HW128478   1.202   1.474   4.309 -1.1150  2.2837  0.3866
 5673SOL    HW228479   1.259   1.367   4.391 -2.3798 -1.3658  1.3049
 5674SOL     OW28480   0.211   4.642   3.168  0.0894  0.6139 -0.5561
 5674SOL    HW128481   0.201   4.651   3.074  1.9918 -0.2316 -0.8306
 5674SOL    HW228482   0.119   4.624   3.189  0.3414  0.4809  0.4593
 5675SOL     OW28483   2.806   2.446   8.531  0.4801  0.4646  0.5015
 5675SOL    HW128484   2.745   2.501   8.481 -1.7419  1.4503  4.3065
 5675SOL    HW228485   2.837   2.507   8.598 -2.6277  1.2896  1.1838
 5676SOL     OW28486   0.057   0.887   7.400 -0.6167  0.1256  0.2758
 5676SOL    HW128487   0.026   0.916   7.486  0.2781  2.6835 -0.2626
 5676SOL    HW228488   4.693   0.865   7.367 -0.9479  0.2665  1.0446
 5677SOL     OW28489   0.956   2.068  14.959 -0.0551  0.0906  0.4142
 5677SOL    HW128490   0.946   2.104  14.871  3.8085 -2.0504 -0.9097
 5677SOL    HW228491   0.866   2.063  14.989 -0.0527 -0.5870  0.3094
 5678SOL     OW28492   0.088   1.491   9.101 -0.4470 -0.0592  0.6058
 5678SOL    HW128493   0.066   1.426   9.035  3.3554 -1.9416  1.2116
 5678SOL    HW228494   0.068   1.446   9.183 -3.0010  1.3240  0.7422
 5679SOL     OW28495   0.607   0.407   5.810  0.4505 -0.1036 -0.4991
 5679SOL    HW128496   0.513   0.387   5.818  0.8134 -1.1434  1.0846
 5679SOL    HW228497   0.617   0.455   5.892 -2.6176 -0.1084 -0.1051
 5680SOL     OW28498   2.488   0.356   6.114 -0.3196  0.0682 -0.2593
 5680SOL    HW128499   2.468   0.288   6.178  0.0076 -0.5063 -0.7596
 5680SOL    HW228500   2.584   0.362   6.113 -0.3212  0.0731 -0.6017
 5681SOL     OW28501   2.411   3.468   8.718  0.0945 -0.4375  0.0146
 5681SOL    HW128502   2.327   3.426   8.737 -0.9088  1.6093  0.1359
 5681SOL    HW228503   2.398   3.560   8.744  2.6448 -0.0512 -0.1283
 5682SOL     OW28504   2.705   4.308  15.549 -0.5326  0.0369 -0.1408
 5682SOL    HW128505   2.726   4.356  15.469 -2.3453  0.3468 -0.4382
 5682SOL    HW228506   2.756   4.229  15.534  2.4690  1.5994  1.8974
 5683SOL     OW28507   0.957   0.472  12.996  0.8553  0.4398 -0.4157
 5683SOL    HW128508   1.030   0.446  13.053 -0.8633  1.1030  2.0811
 5683SOL    HW228509   0.924   0.387  12.966 -0.1976  0.5435  0.4882
 5684SOL     OW28510   4.024   3.021   6.916  0.1311  0.4422  0.6292
 5684SOL    HW128511   3.979   2.945   6.879  0.1968  1.8560 -2.3808
 5684SOL    HW228512   4.029   3.077   6.838 -2.8306 -0.9680 -0.5832
 5685SOL     OW28513   3.687   1.128   4.545 -0.0531  0.2845  0.6551
 5685SOL    HW128514   3.642   1.208   4.573 -0.1276  0.2022  0.7711
 5685SOL    HW228515   3.671   1.073   4.621  0.3808 -1.7140 -0.7131
 5686SOL     OW28516   2.983   1.201  12.721  0.2421  0.1948  0.1275
 5686SOL    HW128517   3.024   1.199  12.635  0.6231  1.4098  0.2814
 5686SOL    HW228518   2.928   1.123  12.731 -0.4061  0.7785  1.2308
 5687SOL     OW28519   3.981   2.901   3.221 -0.5480  0.1589  0.3424
 5687SOL    HW128520   3.941   2.976   3.265 -1.9292 -1.1915  1.3720
 5687SOL    HW228521   4.074   2.920   3.232 -1.3176  3.3314  1.4467
 5688SOL     OW28522   2.243   2.106   2.192  0.2362  0.1587  0.0704
 5688SOL    HW128523   2.231   2.012   2.181 -3.6986  0.8984 -2.2597
 5688SOL    HW228524   2.242   2.120   2.287 -0.2357 -1.4352  0.3054
 5689SOL     OW28525   1.134   1.429   8.120 -0.2803  0.0291  0.1658
 5689SOL    HW128526   1.196   1.389   8.181 -0.1664  1.5519  1.0477
 5689SOL    HW228527   1.146   1.386   8.036  2.1178  1.0225  0.0226
 5690SOL     OW28528   0.165   4.612   5.001 -0.1411  0.4177 -0.3699
 5690SOL    HW128529   0.248   4.618   5.047 -0.3122  0.1480 -0.0334
 5690SOL    HW228530   0.193   4.634   4.912  0.1669  1.4179 -0.0226
 5691SOL     OW28531   1.428   4.337   7.146  0.1724 -0.4666  0.0770
 5691SOL    HW128532   1.482   4.269   7.187  0.2417 -0.4733 -0.0272
 5691SOL    HW228533   1.339   4.320   7.177  1.1591 -1.5725  2.3486
 5692SOL     OW28534   2.377   0.083  10.101 -0.1903 -0.2576  0.0664
 5692SOL    HW128535   2.414   0.115  10.019 -2.1884 -0.1319 -0.7815
 5692SOL    HW228536   2.459   0.066  10.148 -1.1453 -2.3497  0.9387
 5693SOL     OW28537   1.823   2.732  11.378  0.6923 -0.1653  0.4963
 5693SOL    HW128538   1.753   2.667  11.387  1.4951 -0.5472  3.9762
 5693SOL    HW228539   1.868   2.700  11.300  0.2184 -4.4854  1.9928
 5694SOL     OW28540   3.848   1.155   9.326 -0.4224  0.5460  0.2492
 5694SOL    HW128541   3.841   1.109   9.243  0.3734 -0.2948  0.6484
 5694SOL    HW228542   3.882   1.086   9.384  2.2815  1.8183  0.1634
 5695SOL     OW28543   4.642   2.756   6.386 -0.4499 -0.2331  0.6355
 5695SOL    HW128544   4.582   2.682   6.389  1.5336 -1.7342  2.9555
 5695SOL    HW228545   4.646   2.782   6.478 -1.6981  0.2756  0.5491
 5696SOL     OW28546   1.211   2.387   8.734 -0.5507 -0.2571 -0.5402
 5696SOL    HW128547   1.197   2.305   8.686  0.7489 -1.0309  0.3956
 5696SOL    HW228548   1.182   2.362   8.822 -1.3653  2.1749 -0.1218
 5697SOL     OW28549   0.572   3.671   4.342 -0.6418 -0.4705 -0.0211
 5697SOL    HW128550   0.535   3.588   4.313  1.0595 -1.6339  1.1100
 5697SOL    HW228551   0.589   3.709   4.256  0.5428 -0.2550  0.3092
 5698SOL     OW28552   4.429   2.842   3.516  0.0573 -0.0353  0.5127
 5698SOL    HW128553   4.521   2.865   3.503 -0.2579  0.3424 -1.0568
 5698SOL    HW228554   4.423   2.771   3.452  0.8114 -0.6318  1.1119
 5699SOL     OW28555   2.186   2.163   3.300  0.3388  0.1383  0.3725
 5699SOL    HW128556   2.140   2.247   3.302 -3.3340 -1.8565 -0.8494
 5699SOL    HW228557   2.280   2.181   3.301  0.2244  0.8252 -1.0221
 5700SOL     OW28558   2.303   3.268   3.937  0.3133  0.0870  0.2626
 5700SOL    HW128559   2.244   3.202   3.900 -0.4130  0.7720  0.1957
 5700SOL    HW228560   2.306   3.240   4.028  1.5938 -3.3528 -0.8455
 5701SOL     OW28561   3.482   0.756   1.820 -0.0326 -0.5324 -0.0907
 5701SOL    HW128562   3.527   0.819   1.877 -0.8755  1.0985 -1.2349
 5701SOL    HW228563   3.544   0.751   1.747  0.1135 -2.6080  0.1838
 5702SOL     OW28564   0.308   0.116   7.746  0.1861 -0.0886 -0.1173
 5702SOL    HW128565   0.304   0.164   7.829 -1.6593  1.5450 -1.1461
 5702SOL    HW228566   0.395   0.148   7.721 -0.4981  1.3726 -0.6647
 5703SOL     OW28567   0.620   3.683   8.714 -0.3429  0.1873 -0.1368
 5703SOL    HW128568   0.687   3.733   8.762  1.2539 -2.2548  0.2166
 5703SOL    HW228569   0.549   3.746   8.707  0.9216  1.8561  1.9237
 5704SOL     OW28570   0.819   0.663  12.859  0.4271  0.1950 -0.4330
 5704SOL    HW128571   0.857   0.606  12.926  0.1866 -0.1348 -0.5759
 5704SOL    HW228572   0.733   0.622  12.843  0.5906 -0.0086 -0.7920
 5705SOL     OW28573   2.732   2.521  16.740 -0.8763  0.2904  0.1965
 5705SOL    HW128574   2.687   2.568  16.670 -0.9855  0.2442  0.2368
 5705SOL    HW228575   2.685   2.438  16.743  1.1794 -0.8486  1.2043
 5706SOL     OW28576   4.701   2.764   6.653  0.0195  0.3294  0.0270
 5706SOL    HW128577   0.019   2.832   6.706 -2.5207  1.4924  0.4953
 5706SOL    HW228578   4.665   2.703   6.717 -1.5526  1.9420  0.6829
 5707SOL     OW28579   0.896   2.129  13.665 -0.6639 -0.0116 -0.3426
 5707SOL    HW128580   0.829   2.197  13.668  0.0277  0.6325  0.4919
 5707SOL    HW228581   0.858   2.047  13.696  0.8390 -0.5811 -0.0066
 5708SOL     OW28582   4.275   2.858   8.843  0.7133  0.4301  0.0563
 5708SOL    HW128583   4.289   2.835   8.936  1.3674  1.1890  0.1447
 5708SOL    HW228584   4.224   2.938   8.847  1.4157  0.8914 -0.2769
 5709SOL     OW28585   4.094   0.114   5.766 -0.5180 -0.2784 -0.4170
 5709SOL    HW128586   4.074   0.053   5.695 -1.4143 -0.8987  0.3731
 5709SOL    HW228587   4.174   0.072   5.796 -1.5987 -2.0234 -0.0047
 5710SOL     OW28588   2.788   4.682   6.566 -0.4751 -0.1131  0.2422
 5710SOL    HW128589   2.785   0.029   6.500  0.1500 -1.1466 -0.8891
 5710SOL    HW228590   2.711   4.690   6.623 -0.1309 -0.4905  0.7572
 5711SOL     OW28591   2.732   1.034   6.380  0.1957  0.6557  0.0052
 5711SOL    HW128592   2.756   0.943   6.364  0.5958  1.0312 -1.4877
 5711SOL    HW228593   2.638   1.018   6.378  0.6010 -1.7450 -0.2467
 5712SOL     OW28594   4.678   1.978   4.503  0.0872 -0.7420 -0.1290
 5712SOL    HW128595   4.649   2.067   4.484 -1.6455 -0.7952  2.1939
 5712SOL    HW228596   4.711   1.991   4.592 -1.3003 -0.3825  0.3392
 5713SOL     OW28597   1.611   0.556   6.232 -0.1804 -0.0977  0.3551
 5713SOL    HW128598   1.651   0.475   6.264  2.0531 -0.0156 -2.3269
 5713SOL    HW228599   1.568   0.530   6.151  1.4957 -2.4745  0.2175
 5714SOL     OW28600   2.811   0.502   8.314  0.3684 -0.1198 -0.3228
 5714SOL    HW128601   2.847   0.446   8.384 -3.1046 -1.1376  0.6793
 5714SOL    HW228602   2.782   0.431   8.257 -0.1393  0.8003 -1.1954
 5715SOL     OW28603   3.113   1.634  14.981 -0.3664 -0.2256  0.7103
 5715SOL    HW128604   3.141   1.643  15.072 -2.8880  3.7232  1.0834
 5715SOL    HW228605   3.130   1.541  14.967  1.6673  0.0551  1.3096
 5716SOL     OW28606   3.311   2.296   3.635  0.3231 -0.7504  0.4318
 5716SOL    HW128607   3.336   2.262   3.549 -0.6655  0.8775 -0.4864
 5716SOL    HW228608   3.287   2.217   3.683 -0.4832  0.5368  2.1526
 5717SOL     OW28609   2.775   3.761   7.372  0.5082 -0.1782 -0.1012
 5717SOL    HW128610   2.759   3.717   7.455  0.0719 -1.1600 -0.7024
 5717SOL    HW228611   2.849   3.808   7.411  1.1447 -0.7648 -0.5977
 5718SOL     OW28612   3.918   4.254   9.004 -0.2197  0.3404  0.1315
 5718SOL    HW128613   3.976   4.331   8.998  0.1377  0.1784  1.4484
 5718SOL    HW228614   3.971   4.185   8.964  0.1600  0.3605  0.5977
 5719SOL     OW28615   0.440   3.534   1.695  0.2417  0.1495  0.0310
 5719SOL    HW128616   0.364   3.479   1.714  0.3447 -0.1283 -0.3555
 5719SOL    HW228617   0.453   3.528   1.600 -1.2396 -0.9467 -0.1047
 5720SOL     OW28618   0.597   0.736   3.422  0.0648  0.5502  0.3621
 5720SOL    HW128619   0.549   0.671   3.371  1.0942 -0.0434  0.1522
 5720SOL    HW228620   0.586   0.819   3.376 -0.0435 -0.3576 -1.2462
 5721SOL     OW28621   1.025   2.677   6.164 -0.1948  1.0304  0.2114
 5721SOL    HW128622   1.000   2.654   6.074 -1.1156 -0.0981  0.7690
 5721SOL    HW228623   0.939   2.702   6.197 -1.7444 -1.7181 -1.7990
 5722SOL     OW28624   0.027   3.020   5.906 -0.2473 -0.4134  0.5660
 5722SOL    HW128625   0.118   2.992   5.913 -0.5278 -1.6455 -0.6147
 5722SOL    HW228626   4.719   2.955   5.843  1.7452 -0.4872 -0.3397
 5723SOL     OW28627   4.270   3.094  16.228  0.1801 -0.0144  0.4896
 5723SOL    HW128628   4.330   3.121  16.297  0.2893 -1.8834  1.1328
 5723SOL    HW228629   4.292   3.001  16.225  1.8394  0.3770  0.8648
 5724SOL     OW28630   4.164   3.330   4.101  0.5043 -0.0399  0.3195
 5724SOL    HW128631   4.234   3.394   4.106  0.3607  0.1373  0.0757
 5724SOL    HW228632   4.178   3.276   4.179 -0.1019 -0.6976 -0.0214
 5725SOL     OW28633   4.147   1.791   8.400 -0.0535 -0.0435  0.6181
 5725SOL    HW128634   4.108   1.775   8.486 -1.4984 -0.4331 -0.1118
 5725SOL    HW228635   4.145   1.886   8.405  0.8566 -0.0992  1.9042
 5726SOL     OW28636   0.499   3.312  17.375  0.4673 -0.2917  0.0747
 5726SOL    HW128637   0.564   3.382  17.378  1.2995 -1.0536 -0.2730
 5726SOL    HW228638   0.427   3.346  17.429  1.4526 -0.2089  1.3516
 5727SOL     OW28639   0.950   0.994   4.006 -0.1918 -0.3539  0.1234
 5727SOL    HW128640   0.976   0.904   3.988 -1.2732 -0.7464  0.4946
 5727SOL    HW228641   0.868   0.993   3.956  0.5936 -0.2537 -1.1394
 5728SOL     OW28642   3.080   0.726   3.096  0.0888  0.0815 -0.3201
 5728SOL    HW128643   3.132   0.806   3.100 -0.1748  0.3470 -2.2576
 5728SOL    HW228644   3.139   0.671   3.148 -0.7433 -0.3600  0.1611
 5729SOL     OW28645   1.527   3.776   6.528  0.1795 -0.2279 -0.1197
 5729SOL    HW128646   1.433   3.755   6.524  0.3570 -1.1627  0.6556
 5729SOL    HW228647   1.545   3.723   6.606 -2.0255 -0.2530  0.3703
 5730SOL     OW28648   0.649   1.866   5.739  0.2681 -0.2978  0.1679
 5730SOL    HW128649   0.687   1.781   5.716  1.9908  0.4666  0.1964
 5730SOL    HW228650   0.579   1.841   5.800 -0.3298  0.3149 -0.2742
 5731SOL     OW28651   1.135   3.201   6.118  0.5890  0.5734  0.5848
 5731SOL    HW128652   1.155   3.285   6.075 -0.0966 -0.0962 -1.0433
 5731SOL    HW228653   1.197   3.135   6.087 -1.7662 -0.7463 -1.3470
 5732SOL     OW28654   4.275   2.981   5.278 -0.1818  0.3033  0.4146
 5732SOL    HW128655   4.283   2.960   5.185  1.4442  0.2172  0.5774
 5732SOL    HW228656   4.185   2.954   5.297 -0.3678  0.4089 -0.2958
 5733SOL     OW28657   2.921   0.723  12.751  0.2814 -0.5959 -0.0637
 5733SOL    HW128658   2.931   0.718  12.846  1.8525 -0.4470 -0.2139
 5733SOL    HW228659   2.856   0.655  12.736  0.4176 -0.3632 -1.6892
 5734SOL     OW28660   2.893   0.669   4.058 -0.3989  0.2255  0.1312
 5734SOL    HW128661   2.833   0.686   3.986  0.9238  1.8483 -0.6069
 5734SOL    HW228662   2.856   0.696   4.143  0.9006  0.9962  0.4582
 5735SOL     OW28663   1.592   2.577   5.049  0.1447 -0.1574  0.6940
 5735SOL    HW128664   1.675   2.623   5.058 -1.1334  2.4538 -0.6855
 5735SOL    HW228665   1.537   2.652   5.025 -0.6120 -1.2494 -1.0281
 5736SOL     OW28666   2.757   0.660  14.586  0.2585 -0.0578  0.1373
 5736SOL    HW128667   2.827   0.715  14.620 -0.9305 -0.3223  3.0312
 5736SOL    HW228668   2.761   0.667  14.491 -2.6281  2.1384  0.1783
 5737SOL     OW28669   0.501   1.708   3.548 -0.4407  0.3148  0.2975
 5737SOL    HW128670   0.578   1.732   3.599 -1.5064  2.8012  0.7274
 5737SOL    HW228671   0.440   1.767   3.592  0.5633  0.8681  0.9491
 5738SOL     OW28672   3.215   1.072   7.899 -0.0227  0.5666 -0.4207
 5738SOL    HW128673   3.128   1.093   7.934  0.8039  0.8618  1.4417
 5738SOL    HW228674   3.256   1.021   7.969 -1.3119 -2.1464 -1.6501
 5739SOL     OW28675   0.876   3.303  17.212  0.1736 -0.0742  0.0184
 5739SOL    HW128676   0.832   3.384  17.187 -0.6538 -0.7162 -0.5917
 5739SOL    HW228677   0.903   3.337  17.297 -2.3697 -0.2613  0.8907
 5740SOL     OW28678   0.654   3.179  10.164 -0.0434 -0.0347  0.0165
 5740SOL    HW128679   0.591   3.143  10.227  0.3872 -0.6333  0.1129
 5740SOL    HW228680   0.629   3.131  10.084 -1.5993 -1.2282  1.2278
 5741SOL     OW28681   0.174   2.989   3.568  0.6588  0.2955  0.1302
 5741SOL    HW128682   0.199   3.082   3.564  0.9729  0.1619 -0.9675
 5741SOL    HW228683   0.222   2.948   3.497 -0.6847  1.5418 -1.5028
 5742SOL     OW28684   1.357   1.305   5.100  0.0943  0.5719  0.1799
 5742SOL    HW128685   1.375   1.340   5.187  0.7972  2.9542 -0.9353
 5742SOL    HW228686   1.265   1.331   5.092 -0.5179 -1.6741 -0.0807
 5743SOL     OW28687   0.539   1.979  12.597  0.6635 -0.4240  0.3586
 5743SOL    HW128688   0.451   1.945  12.611  0.0763  1.2529  0.7967
 5743SOL    HW228689   0.605   1.932  12.648  0.9216 -1.3624 -0.8370
 5744SOL     OW28690   0.456   1.050   2.466 -0.1009  0.0497 -0.1500
 5744SOL    HW128691   0.399   0.994   2.518  1.5525 -2.6897 -1.2756
 5744SOL    HW228692   0.391   1.057   2.397  1.0639  0.8155 -1.1763
 5745SOL     OW28693   4.484   0.991   0.319 -0.2153  0.4777  0.0147
 5745SOL    HW128694   4.441   1.063   0.274  2.6069  2.6419  0.7719
 5745SOL    HW228695   4.467   0.922   0.254 -0.6299 -0.5126  1.1773
 5746SOL     OW28696   4.534   1.417   0.101 -0.2403  0.0600 -0.4614
 5746SOL    HW128697   4.550   1.484   0.034 -0.2562  1.1371  0.6190
 5746SOL    HW228698   4.557   1.469   0.178 -0.1292  2.2855 -1.9783
 5747SOL     OW28699   2.881   3.080   5.171  0.0957 -0.1690 -0.6725
 5747SOL    HW128700   2.878   3.157   5.228  3.9841  0.0821 -0.7849
 5747SOL    HW228701   2.936   3.026   5.228 -0.5549 -1.3839 -1.2058
 5748SOL     OW28702   1.903   0.687   9.591 -0.0627  0.1995  0.6158
 5748SOL    HW128703   1.878   0.621   9.656 -1.9894  0.6839  0.3665
 5748SOL    HW228704   1.971   0.639   9.545  0.0609  0.4998  0.4839
 5749SOL     OW28705   1.719   0.401   4.184 -0.2027  0.5121 -0.0297
 5749SOL    HW128706   1.668   0.320   4.181 -0.5210  0.7737 -2.3708
 5749SOL    HW228707   1.758   0.404   4.096  0.2812  0.8196  0.2022
 5750SOL     OW28708   2.832   1.976   4.633  0.3777  0.0068  0.3269
 5750SOL    HW128709   2.864   2.066   4.632 -1.9421  0.8642  1.9140
 5750SOL    HW228710   2.877   1.931   4.704  2.4698  0.6609 -0.5847
 5751SOL     OW28711   1.824   1.126   2.789 -0.1114  0.3114 -0.5752
 5751SOL    HW128712   1.781   1.207   2.816 -0.5212  0.6393 -2.2665
 5751SOL    HW228713   1.865   1.152   2.707  1.4372  3.4228  1.2211
 5752SOL     OW28714   0.468   1.292  14.195  0.3665 -0.4642 -0.0763
 5752SOL    HW128715   0.561   1.313  14.190  0.4722 -1.2727 -1.6791
 5752SOL    HW228716   0.460   1.246  14.111  2.4141  0.9739 -1.0383
 5753SOL     OW28717   4.694   2.877   8.670 -0.4203  0.3104  0.0113
 5753SOL    HW128718   4.721   2.904   8.583 -1.4846 -2.0331 -1.0523
 5753SOL    HW228719   4.651   2.794   8.648  2.6805 -1.1641 -0.6535
 5754SOL     OW28720   2.066   1.046   6.431 -0.1314 -0.1263  1.0456
 5754SOL    HW128721   2.055   0.993   6.509 -2.2121 -0.7910  0.3072
 5754SOL    HW228722   2.025   1.128   6.459  1.4726  1.2438 -0.5939
 5755SOL     OW28723   3.735   3.588   6.498 -0.2039 -0.1249 -0.1353
 5755SOL    HW128724   3.811   3.536   6.520  0.1896 -0.3935 -2.0973
 5755SOL    HW228725   3.710   3.557   6.411  0.2884 -1.2413  0.1288
 5756SOL     OW28726   4.305   0.250   5.106 -0.2735 -0.3519 -0.1946
 5756SOL    HW128727   4.278   0.341   5.123  0.9869 -0.3820  1.9577
 5756SOL    HW228728   4.377   0.232   5.166 -0.9043 -0.9461  0.3742
 5757SOL     OW28729   2.628   3.517   7.120 -0.0741 -0.2348 -0.2307
 5757SOL    HW128730   2.611   3.611   7.117  0.4471 -0.1975 -1.8511
 5757SOL    HW228731   2.583   3.486   7.199  2.9434  1.4150  2.1304
 5758SOL     OW28732   4.627   2.143  13.750  0.2615  0.0900 -0.3436
 5758SOL    HW128733   4.641   2.194  13.831 -0.8885 -0.6069  0.2981
 5758SOL    HW228734   4.554   2.186  13.706 -1.7963 -2.8112  0.2673
 5759SOL     OW28735   2.464   2.787   6.534 -0.3572 -0.0274  0.5421
 5759SOL    HW128736   2.459   2.842   6.612  0.4539  0.2241  0.4258
 5759SOL    HW228737   2.374   2.782   6.502  0.3555  0.0773 -1.4916
 5760SOL     OW28738   1.586   2.799   8.332  0.5881 -0.2621  0.3502
 5760SOL    HW128739   1.622   2.710   8.335 -1.2963 -1.1164 -1.5715
 5760SOL    HW228740   1.539   2.801   8.415 -1.5228  0.3587 -0.8575
 5761SOL     OW28741   2.790   3.620  11.102 -0.1663  0.1009  0.4262
 5761SOL    HW128742   2.801   3.619  11.007 -0.0605 -3.2404  0.4714
 5761SOL    HW228743   2.778   3.528  11.128 -2.4400 -0.0438 -1.1976
 5762SOL     OW28744   0.829   2.291   3.759 -0.0212  0.4731  0.1523
 5762SOL    HW128745   0.872   2.227   3.702  0.6380  0.5239  0.5830
 5762SOL    HW228746   0.774   2.336   3.696  0.3788  0.0928 -0.4633
 5763SOL     OW28747   0.458   4.228   7.939  0.1683 -0.9595  0.0142
 5763SOL    HW128748   0.538   4.255   7.894  0.1042  1.1710  1.2123
 5763SOL    HW228749   0.414   4.309   7.963 -0.0425 -0.4998 -1.9359
 5764SOL     OW28750   1.793   0.287   4.615  0.4724 -0.2856 -0.0895
 5764SOL    HW128751   1.856   0.302   4.685  0.3104 -0.1734  0.0316
 5764SOL    HW228752   1.805   0.363   4.558 -0.6834  0.5962  0.8314
 5765SOL     OW28753   3.500   3.773   4.258 -0.1486 -0.7636  0.0629
 5765SOL    HW128754   3.427   3.808   4.310  1.3566  1.4582  0.6598
 5765SOL    HW228755   3.577   3.825   4.281 -0.0029  0.6509 -3.7433
 5766SOL     OW28756   4.216   1.279   2.984 -0.3966  0.2866 -0.1900
 5766SOL    HW128757   4.195   1.210   3.046 -2.7449  2.6386  1.6405
 5766SOL    HW228758   4.235   1.352   3.043 -0.1098  2.5814 -3.0945
 5767SOL     OW28759   3.535   3.704   3.179  0.4367  0.1372 -0.0205
 5767SOL    HW128760   3.556   3.610   3.181 -0.5187 -0.0802 -0.5154
 5767SOL    HW228761   3.442   3.684   3.181  0.6659 -1.0247 -1.1121
 5768SOL     OW28762   1.146   2.293   8.974 -0.7576  0.7109  0.1582
 5768SOL    HW128763   1.106   2.206   8.978 -1.2350  1.0243  2.2568
 5768SOL    HW228764   1.082   2.338   9.030 -0.2689  1.1826  0.3430
 5769SOL     OW28765   1.803   2.182   5.780 -0.4010  0.4635 -0.3536
 5769SOL    HW128766   1.892   2.150   5.770  0.1542  1.6205  0.8846
 5769SOL    HW228767   1.756   2.122   5.722 -1.3088  0.8491 -0.0143
 5770SOL     OW28768   1.583   2.085   8.690  0.4238 -0.2742 -0.3003
 5770SOL    HW128769   1.616   2.160   8.641 -1.1155 -0.8328 -2.1930
 5770SOL    HW228770   1.657   2.027   8.707 -0.8884 -2.0007 -0.5625
 5771SOL     OW28771   1.238   2.852  13.715  0.1386 -0.0616 -0.1035
 5771SOL    HW128772   1.303   2.909  13.671 -1.6742  0.4321 -2.1467
 5771SOL    HW228773   1.166   2.915  13.706 -2.2494 -2.6895  0.7698
 5772SOL     OW28774   2.668   4.569   1.489  0.3274 -0.0957 -0.2547
 5772SOL    HW128775   2.690   4.662   1.477 -1.4327  0.2167 -0.9762
 5772SOL    HW228776   2.752   4.545   1.529 -0.3382  0.9253  1.7416
 5773SOL     OW28777   1.219   4.070   8.840 -0.0056  0.2360 -0.4163
 5773SOL    HW128778   1.171   4.029   8.913  0.8420  0.1200  0.0695
 5773SOL    HW228779   1.154   4.073   8.770 -1.2701 -3.1860  0.6094
 5774SOL     OW28780   1.618   1.619   8.080  0.4539  0.4337 -0.8519
 5774SOL    HW128781   1.637   1.685   8.014 -0.5652  1.5836  0.0090
 5774SOL    HW228782   1.585   1.551   8.021  0.7072  0.6236 -1.2121
 5775SOL     OW28783   1.404   1.155   3.158 -0.3562  0.0519  0.2531
 5775SOL    HW128784   1.351   1.077   3.141 -1.0764  0.2407  1.6400
 5775SOL    HW228785   1.486   1.127   3.199  0.3060 -0.8129 -1.6479
 5776SOL     OW28786   3.415   1.870   8.436  0.0089  0.0153  0.2307
 5776SOL    HW128787   3.330   1.826   8.439 -0.0379  0.0486 -0.5513
 5776SOL    HW228788   3.391   1.952   8.392  1.6736  0.6529  0.5394
 5777SOL     OW28789   3.647   0.346   2.524  0.1659  0.1068  0.5370
 5777SOL    HW128790   3.645   0.288   2.600 -0.4375 -2.1992 -1.2429
 5777SOL    HW228791   3.691   0.289   2.462 -1.1419  1.0912 -1.2716
 5778SOL     OW28792   0.715   2.655   3.154 -0.3125  0.4715 -0.3743
 5778SOL    HW128793   0.731   2.721   3.221 -1.1179 -0.8897  1.1651
 5778SOL    HW228794   0.806   2.629   3.139 -0.8313 -1.7232  0.2892
 5779SOL     OW28795   3.185   0.378  15.843 -0.3836  0.0779  0.7652
 5779SOL    HW128796   3.139   0.390  15.760  1.4620 -1.6839 -0.5146
 5779SOL    HW228797   3.122   0.392  15.913 -1.5419 -2.8478  0.3010
 5780SOL     OW28798   3.513   2.460   0.937 -0.0863  0.4612 -0.4564
 5780SOL    HW128799   3.560   2.379   0.962 -1.4392  0.1000  0.8948
 5780SOL    HW228800   3.458   2.433   0.863 -0.5743  0.6892 -0.1667
 5781SOL     OW28801   0.451   3.361   8.355 -0.4335 -0.1548 -0.1427
 5781SOL    HW128802   0.516   3.431   8.359  0.0463 -0.3908 -3.6301
 5781SOL    HW228803   0.494   3.300   8.295  1.5381  1.3028 -0.1934
 5782SOL     OW28804   1.778   2.062   8.006 -0.6543  0.2792 -0.2486
 5782SOL    HW128805   1.722   2.132   8.039  1.0402  1.0290  1.0918
 5782SOL    HW228806   1.808   2.022   8.088 -0.6863  0.6038 -0.0750
 5783SOL     OW28807   1.018   0.167  15.541  0.1815 -0.0912  0.2166
 5783SOL    HW128808   1.041   0.119  15.621  0.6184 -1.1092 -0.5232
 5783SOL    HW228809   0.947   0.223  15.572  2.9615  3.0625  0.9216
 5784SOL     OW28810   1.984   0.206   5.304 -0.2840  0.7272  0.7683
 5784SOL    HW128811   1.979   0.124   5.354  0.1253 -0.3378 -0.9510
 5784SOL    HW228812   1.969   0.266   5.377 -1.8822  0.8793  0.3063
 5785SOL     OW28813   1.039   4.276  13.529  0.1914  0.0676 -0.0762
 5785SOL    HW128814   1.073   4.345  13.472  0.4236 -1.2495 -1.5422
 5785SOL    HW228815   1.043   4.328  13.609  1.1417 -0.3381  0.1338
 5786SOL     OW28816   4.422   3.075   6.931 -0.1738  0.3885 -0.2984
 5786SOL    HW128817   4.443   3.087   6.838 -2.7083  1.5907 -0.7187
 5786SOL    HW228818   4.489   3.130   6.971 -2.5318  1.9244  1.6007
 5787SOL     OW28819   3.136   0.233   2.228 -0.1027 -0.1809 -0.0304
 5787SOL    HW128820   3.208   0.289   2.198  1.3393 -1.9856  0.0747
 5787SOL    HW228821   3.070   0.293   2.263  0.0340  0.4571 -0.8789
 5788SOL     OW28822   0.113   2.893   4.323  0.2537  0.0343 -0.1126
 5788SOL    HW128823   0.136   2.925   4.236 -2.5458 -0.3895 -1.0262
 5788SOL    HW228824   0.046   2.954   4.353 -2.2794 -2.9535  0.4058
 5789SOL     OW28825   4.297   1.623   1.025 -0.2014  0.1229  0.3051
 5789SOL    HW128826   4.241   1.678   0.969 -0.3136  0.2041  0.4974
 5789SOL    HW228827   4.342   1.571   0.958 -1.1952 -3.1412  2.1688
 5790SOL     OW28828   4.577   2.066   7.639  0.1536 -0.0373 -0.2907
 5790SOL    HW128829   4.605   1.975   7.634  0.7728 -0.0159  2.6488
 5790SOL    HW228830   4.653   2.116   7.608 -0.9502  1.4409 -0.6298
 5791SOL     OW28831   3.381   1.862   4.668  0.1227 -0.5245  0.1280
 5791SOL    HW128832   3.431   1.810   4.605  1.9934  1.6227 -0.1638
 5791SOL    HW228833   3.337   1.914   4.600  0.9285 -1.8160 -1.3926
 5792SOL     OW28834   3.933   4.500   4.584 -0.6890  0.1496  0.0705
 5792SOL    HW128835   4.009   4.442   4.582 -0.8705 -0.0020 -2.2270
 5792SOL    HW228836   3.889   4.473   4.504  0.1511  0.7854 -0.6022
 5793SOL     OW28837   0.931   0.248   2.450 -0.0164  0.1344  0.0402
 5793SOL    HW128838   0.977   0.313   2.503  1.5234 -0.4348 -0.6163
 5793SOL    HW228839   0.995   0.177   2.453  0.4422  0.5200 -0.5730
 5794SOL     OW28840   3.747   3.896   3.042 -0.2632 -0.2198  0.2322
 5794SOL    HW128841   3.799   3.826   3.080 -2.1525 -2.1599 -0.7482
 5794SOL    HW228842   3.805   3.966   3.072  0.4948 -1.2686  1.2133
 5795SOL     OW28843   0.587   3.774  10.155 -0.2859  0.2055 -0.0481
 5795SOL    HW128844   0.521   3.834  10.188  0.0641  1.0576 -0.8908
 5795SOL    HW228845   0.569   3.707  10.220 -1.8450  1.0001  0.3380
 5796SOL     OW28846   3.011   0.661   4.843 -0.5453 -0.1250  0.4864
 5796SOL    HW128847   2.958   0.672   4.763  0.3142 -0.8206 -0.1708
 5796SOL    HW228848   2.988   0.572   4.871 -0.3715 -0.0343  0.9180
 5797SOL     OW28849   3.575   0.043   4.027  0.1451  0.1918 -0.0749
 5797SOL    HW128850   3.603   0.067   4.116 -1.3001 -2.0687  0.9927
 5797SOL    HW228851   3.592   0.124   3.980  2.2417 -0.3626 -0.2778
 5798SOL     OW28852   1.497   0.735   2.735  0.0347  0.4885  0.7395
 5798SOL    HW128853   1.529   0.729   2.825  0.4153  0.2078  0.5843
 5798SOL    HW228854   1.518   0.649   2.699 -1.9356 -0.0837  0.9457
 5799SOL     OW28855   1.760   4.529   5.485 -0.8835 -0.1316  0.2244
 5799SOL    HW128856   1.703   4.461   5.449 -0.9948  1.1299 -2.0185
 5799SOL    HW228857   1.800   4.482   5.558  1.2893 -0.6179 -1.2956
 5800SOL     OW28858   4.071   0.978   8.112  0.5366  0.3958 -0.6318
 5800SOL    HW128859   3.996   0.958   8.169  0.2716  0.6745 -0.8833
 5800SOL    HW228860   4.067   1.074   8.112 -1.1455  0.3335  0.4992
 5801SOL     OW28861   1.117   2.911   7.181  0.2906  0.7537 -0.5610
 5801SOL    HW128862   1.129   2.845   7.113 -0.3277 -1.8937  1.8814
 5801SOL    HW228863   1.127   2.860   7.262  0.1808  1.7164  0.0545
 5802SOL     OW28864   0.654   2.203   2.895  0.7827 -0.3288  0.2463
 5802SOL    HW128865   0.628   2.294   2.882 -2.9214 -1.3630  0.5050
 5802SOL    HW228866   0.610   2.159   2.822  0.0304 -0.4126  0.7509
 5803SOL     OW28867   1.994   3.472   7.797 -1.2421 -0.1200 -0.1344
 5803SOL    HW128868   2.041   3.401   7.754  0.7367  1.8606 -1.2883
 5803SOL    HW228869   1.992   3.539   7.729 -0.3260  2.6195  2.5022
 5804SOL     OW28870   3.064   1.065   4.399  0.6271  0.0022 -0.0592
 5804SOL    HW128871   3.120   1.030   4.330  1.2965  0.4167  0.2721
 5804SOL    HW228872   3.019   0.987   4.432 -0.1859  0.7801  0.6918
 5805SOL     OW28873   3.051   4.376   6.870  0.2024 -0.1494  0.1807
 5805SOL    HW128874   3.008   4.407   6.950  0.6985  1.5210 -0.1969
 5805SOL    HW228875   2.990   4.407   6.803 -0.5334  1.0972  1.4313
 5806SOL     OW28876   4.554   2.098   7.253 -0.1716 -0.2078  0.6106
 5806SOL    HW128877   4.563   2.125   7.161  1.9309 -2.5055  0.1384
 5806SOL    HW228878   4.610   2.165   7.292 -1.4461  1.8317 -1.0153
 5807SOL     OW28879   1.030   3.069   3.606  0.0837  0.4252 -0.1172
 5807SOL    HW128880   0.992   3.151   3.638 -0.8299  0.0016 -0.1172
 5807SOL    HW228881   1.093   3.104   3.544  2.0772  1.4441  2.4789
 5808SOL     OW28882   3.608   1.953   2.855  0.1461 -0.3581 -0.2386
 5808SOL    HW128883   3.538   1.924   2.795  0.3730  0.2872 -0.8204
 5808SOL    HW228884   3.648   2.018   2.797  0.6412 -0.5680 -0.1305
 5809SOL     OW28885   4.257   2.135  17.094  0.1725  0.0865  0.2663
 5809SOL    HW128886   4.319   2.163  17.027  1.2446  0.9078  1.5840
 5809SOL    HW228887   4.316   2.132  17.169  1.8513  1.5846 -0.9988
 5810SOL     OW28888   1.854   0.504   1.233  0.3801  0.0730  0.0222
 5810SOL    HW128889   1.859   0.408   1.227 -0.3889  0.0142  0.3075
 5810SOL    HW228890   1.798   0.521   1.157 -0.6695 -0.9052  0.5822
 5811SOL     OW28891   1.458   2.472   5.301  0.0122 -0.2405  0.3859
 5811SOL    HW128892   1.488   2.465   5.211 -0.0833  1.0716  0.2517
 5811SOL    HW228893   1.464   2.568   5.301 -0.3726 -0.2158 -0.3529
 5812SOL     OW28894   2.566   1.797   7.385 -0.1395  0.0328  0.2200
 5812SOL    HW128895   2.615   1.879   7.393 -0.0680 -0.1146  1.3241
 5812SOL    HW228896   2.517   1.809   7.304  1.8926  1.0182 -0.8650
 5813SOL     OW28897   2.752   2.783   5.255  0.1422 -0.7326  0.3724
 5813SOL    HW128898   2.709   2.773   5.340  0.3728 -0.2380  0.5499
 5813SOL    HW228899   2.690   2.752   5.189 -0.6679  2.1179 -0.2341
 5814SOL     OW28900   1.573   0.154   4.829 -0.2175  0.9533  0.3695
 5814SOL    HW128901   1.576   0.247   4.852  1.0759  1.1190 -0.4672
 5814SOL    HW228902   1.479   0.145   4.812 -0.1812  1.5047 -0.1212
 5815SOL     OW28903   3.010   1.649   7.732 -0.8033  0.2945 -0.0995
 5815SOL    HW128904   3.070   1.596   7.679 -1.7214  1.1130 -1.9482
 5815SOL    HW228905   3.060   1.644   7.814  1.3556 -1.4889 -1.5126
 5816SOL     OW28906   2.082   0.472   7.500  0.4456  0.2146 -0.9152
 5816SOL    HW128907   2.113   0.486   7.411  0.8598  4.4446 -0.1177
 5816SOL    HW228908   2.161   0.447   7.550 -0.6076 -0.2926  0.4990
 5817SOL     OW28909   0.955   3.360   9.197  0.4528  0.1758 -0.5710
 5817SOL    HW128910   0.986   3.363   9.106 -0.8101 -1.9758 -1.0672
 5817SOL    HW228911   1.039   3.345   9.241 -0.1433  2.9666  1.5023
 5818SOL     OW28912   1.735   3.938  16.255 -0.1155  0.0076 -0.6906
 5818SOL    HW128913   1.827   3.915  16.243 -0.4142 -1.7921  0.5149
 5818SOL    HW228914   1.725   4.022  16.210 -2.1525  0.6173  0.8882
 5819SOL     OW28915   0.649   0.469   1.370  0.1889  0.0859  0.3431
 5819SOL    HW128916   0.717   0.447   1.306 -0.1686  1.7519 -0.5968
 5819SOL    HW228917   0.705   0.491   1.445 -0.7314  2.6333  0.2822
 5820SOL     OW28918   1.729   2.767  10.077  0.3330 -0.5474 -0.1318
 5820SOL    HW128919   1.676   2.832  10.123 -0.8117 -0.5411 -1.4435
 5820SOL    HW228920   1.660   2.711  10.042  0.0233 -0.9649  1.1362
 5821SOL     OW28921   3.166   1.730  15.244  0.2769 -0.7911  1.4437
 5821SOL    HW128922   3.192   1.823  15.241 -0.1195 -0.7019  0.9404
 5821SOL    HW228923   3.195   1.707  15.333  1.5277 -0.5888  1.0907
 5822SOL     OW28924   3.704   4.422   6.916  0.5090 -0.3500 -0.2793
 5822SOL    HW128925   3.683   4.502   6.867 -0.5833  0.6955  1.8893
 5822SOL    HW228926   3.667   4.450   6.999 -1.6158 -0.4569 -1.1860
 5823SOL     OW28927   2.847   0.618   9.293  0.6760 -0.2277 -0.2791
 5823SOL    HW128928   2.807   0.694   9.337 -0.8282 -0.5274 -1.1263
 5823SOL    HW228929   2.796   0.547   9.332 -0.1460  0.7626  0.4768
 5824SOL     OW28930   1.190   3.499   3.357 -0.4836 -0.1869  0.3523
 5824SOL    HW128931   1.156   3.559   3.291 -0.1415  0.3523  0.6693
 5824SOL    HW228932   1.188   3.415   3.312  0.5696  0.3775 -0.7249
 5825SOL     OW28933   1.375   4.172   6.827  0.1380 -0.4486 -0.4566
 5825SOL    HW128934   1.431   4.249   6.837 -0.2764 -0.0549 -1.1452
 5825SOL    HW228935   1.293   4.217   6.805  0.5210  0.8771  0.8000
 5826SOL     OW28936   3.282   3.443  16.529  0.1024  0.3893 -0.2121
 5826SOL    HW128937   3.269   3.522  16.582  0.3425  1.2987 -1.5007
 5826SOL    HW228938   3.342   3.391  16.581  0.5403  2.3968  1.2959
 5827SOL     OW28939   4.081   4.671   1.652  0.2187 -0.1766 -0.1389
 5827SOL    HW128940   4.052   0.034   1.623 -0.1503 -0.4637 -0.6274
 5827SOL    HW228941   4.023   4.655   1.727  1.3432 -1.6667  0.4127
 5828SOL     OW28942   2.795   1.525   6.636 -0.2941  0.1341  0.1130
 5828SOL    HW128943   2.808   1.570   6.553 -1.4673  1.4250  0.6430
 5828SOL    HW228944   2.829   1.590   6.698  0.7262  1.3145 -1.6704
 5829SOL     OW28945   1.752   1.983   3.123  0.4465  0.1144 -0.2201
 5829SOL    HW128946   1.746   1.906   3.067 -2.5720 -0.2799  0.6038
 5829SOL    HW228947   1.720   1.929   3.196 -0.8505  1.2365  0.0480
 5830SOL     OW28948   1.822   1.723   3.027 -0.3234 -0.5260  0.5747
 5830SOL    HW128949   1.904   1.718   3.075  0.7515  0.2370 -1.1977
 5830SOL    HW228950   1.836   1.644   2.974  0.0909 -1.1503  1.6220
 5831SOL     OW28951   2.745   0.388   6.482 -0.1074 -0.5448  0.0013
 5831SOL    HW128952   2.740   0.476   6.519  0.9160 -0.1575 -0.8167
 5831SOL    HW228953   2.663   0.352   6.516 -0.6087 -1.5626 -2.3408
 5832SOL     OW28954   0.162   2.062   9.679  0.1277  0.5563 -0.4878
 5832SOL    HW128955   0.177   2.015   9.761  1.7531 -1.0200 -1.6896
 5832SOL    HW228956   0.200   2.002   9.615  0.3248  0.1148  0.0392
 5833SOL     OW28957   2.092   2.090   0.890  0.8366  0.4121 -0.2400
 5833SOL    HW128958   2.015   2.130   0.932 -0.5193 -1.0349 -1.3754
 5833SOL    HW228959   2.160   2.128   0.946 -0.6699  1.0352  1.1727
 5834SOL     OW28960   2.256   2.211   1.602  0.1268  0.7118 -0.1919
 5834SOL    HW128961   2.322   2.274   1.630 -1.6494  1.9255  1.3247
 5834SOL    HW228962   2.292   2.128   1.634  1.8310  1.4972 -0.0986
 5835SOL     OW28963   2.531   4.278   3.694 -0.2256  0.4431  0.0130
 5835SOL    HW128964   2.578   4.217   3.638 -1.8987 -0.9227  0.1118
 5835SOL    HW228965   2.571   4.365   3.690  1.4215 -0.2413  1.7876
 5836SOL     OW28966   3.731   3.521   3.841 -0.3483  0.2968  0.1993
 5836SOL    HW128967   3.778   3.444   3.810 -1.1206 -0.2330  0.3480
 5836SOL    HW228968   3.640   3.514   3.813 -1.5690  3.7086  3.3035
 5837SOL     OW28969   3.335   3.528   7.801 -0.1159  0.1585  0.0185
 5837SOL    HW128970   3.292   3.594   7.856  0.7862  0.4213  0.3995
 5837SOL    HW228971   3.348   3.582   7.722 -1.6084 -0.0828 -0.4015
 5838SOL     OW28972   1.384   3.014  12.573  0.5783  0.6233 -0.0130
 5838SOL    HW128973   1.376   3.082  12.640  0.9435 -0.6391  1.3231
 5838SOL    HW228974   1.436   3.068  12.514  1.4586  0.0902  0.2805
 5839SOL     OW28975   3.167   2.518   8.473  1.1453 -0.5281 -0.0631
 5839SOL    HW128976   3.138   2.523   8.564 -1.6627  3.3584 -1.1967
 5839SOL    HW228977   3.259   2.506   8.497  1.3187 -2.1265 -1.5288
 5840SOL     OW28978   3.979   0.127  16.443 -0.1147  0.5101  0.0985
 5840SOL    HW128979   4.003   0.160  16.530 -1.1604  0.6202  0.3441
 5840SOL    HW228980   3.928   0.204  16.418 -0.3941 -0.0792 -1.1450
 5841SOL     OW28981   4.025   0.489   5.274 -0.6065 -0.1860  0.1056
 5841SOL    HW128982   4.064   0.565   5.319  1.4278 -1.9698  1.3526
 5841SOL    HW228983   3.973   0.531   5.205 -0.9266  0.0275  0.4797
 5842SOL     OW28984   4.000   4.568  16.705  0.3351 -0.4486  0.7300
 5842SOL    HW128985   4.033   4.575  16.794  3.2647  0.4322 -0.4367
 5842SOL    HW228986   3.911   4.596  16.725 -0.0425 -1.0807 -0.0713
 5843SOL     OW28987   0.107   3.945   6.536 -0.1731  0.2051 -0.7421
 5843SOL    HW128988   0.076   3.952   6.626  0.8520 -0.4393 -0.3418
 5843SOL    HW228989   0.150   3.860   6.540  0.3669  0.5506  0.5442
 5844SOL     OW28990   2.669   0.637   1.620  0.5656  0.0126  0.1970
 5844SOL    HW128991   2.676   0.612   1.712 -3.0684 -2.0791 -0.1079
 5844SOL    HW228992   2.747   0.593   1.584  0.4809 -0.3609  0.4639
 5845SOL     OW28993   0.338   3.916   9.156 -0.0121  0.0855  0.1770
 5845SOL    HW128994   0.301   3.828   9.150  1.7301 -0.4766 -2.4706
 5845SOL    HW228995   0.336   3.937   9.062  0.1413  0.3397  0.2305
 5846SOL     OW28996   2.284   0.656   2.617 -0.2853  0.5085 -0.1084
 5846SOL    HW128997   2.359   0.645   2.675  0.2720 -1.2442 -1.1800
 5846SOL    HW228998   2.214   0.681   2.678 -0.1491  0.0428  0.2331
 5847SOL     OW28999   1.930   2.232   8.730 -0.1420  0.2458 -0.6384
 5847SOL    HW129000   1.936   2.185   8.813  0.9494 -1.3852 -1.6258
 5847SOL    HW229001   1.915   2.322   8.757 -1.5344  0.2779 -1.5355
 5848SOL     OW29002   3.741   0.268   2.963 -0.0137 -0.0318  0.3151
 5848SOL    HW129003   3.666   0.254   3.020 -0.0482  0.3886  0.3741
 5848SOL    HW229004   3.759   0.362   2.959 -2.4792  0.3703 -1.1187
 5849SOL     OW29005   3.670   2.690   5.884 -0.2887 -0.6872  0.2713
 5849SOL    HW129006   3.639   2.649   5.803  1.6073 -2.6347  0.5373
 5849SOL    HW229007   3.687   2.612   5.938  1.4656 -1.5886 -1.6048
 5850SOL     OW29008   3.095   1.872   4.733 -0.0995  0.2251  0.3281
 5850SOL    HW129009   3.091   1.894   4.826  0.7951  0.6285  0.2721
 5850SOL    HW229010   3.174   1.917   4.701  1.9216 -3.3429  0.3247
 5851SOL     OW29011   0.172   0.400   1.965 -0.2306  0.3077 -0.9664
 5851SOL    HW129012   0.257   0.369   1.934 -0.8839 -1.8952 -0.5748
 5851SOL    HW229013   0.127   0.438   1.890 -0.0121 -3.1350 -2.8462
 5852SOL     OW29014   2.030   2.475   8.197 -0.3576  0.0869 -0.1587
 5852SOL    HW129015   1.937   2.457   8.185 -0.3416  0.1912 -0.4297
 5852SOL    HW229016   2.064   2.392   8.231  0.3915 -0.1496 -1.4538
 5853SOL     OW29017   4.523   1.672   1.169 -0.2572  0.4584 -1.1134
 5853SOL    HW129018   4.545   1.580   1.155  0.7596  0.4348  0.6386
 5853SOL    HW229019   4.435   1.660   1.132 -1.3226  2.2608  0.8271
 5854SOL     OW29020   2.883   4.430  13.056 -0.0220 -0.0779  0.2142
 5854SOL    HW129021   2.967   4.389  13.038 -0.3858 -1.3657  1.4782
 5854SOL    HW229022   2.871   4.449  12.963 -1.0060  0.2351  0.4078
 5855SOL     OW29023   2.079   1.423   2.982 -0.2545  0.0025 -0.3058
 5855SOL    HW129024   2.131   1.497   2.950  0.4502 -0.2213  0.3385
 5855SOL    HW229025   2.117   1.350   2.935  1.4218 -0.5794  1.9998
 5856SOL     OW29026   1.954   3.520   5.330 -0.1419 -0.1028  0.0193
 5856SOL    HW129027   2.017   3.591   5.319  2.4289 -2.2456  1.1101
 5856SOL    HW229028   1.880   3.579   5.350  1.6282  1.3712  2.1654
 5857SOL     OW29029   0.641   0.154   8.573  0.5057  0.2600  0.2304
 5857SOL    HW129030   0.652   0.165   8.667 -2.1496 -3.1003  0.9452
 5857SOL    HW229031   0.702   0.213   8.530 -2.4340  2.2315 -1.2735
 5858SOL     OW29032   4.366   4.160  10.587  0.3555 -0.1236 -0.0488
 5858SOL    HW129033   4.366   4.163  10.491  2.5380  0.3545 -0.0262
 5858SOL    HW229034   4.456   4.183  10.610  0.4666 -0.4459 -0.1645
 5859SOL     OW29035   4.263   1.566   6.753 -0.3174 -0.1068 -0.4283
 5859SOL    HW129036   4.257   1.512   6.674  0.2298  0.8860 -1.1366
 5859SOL    HW229037   4.349   1.544   6.790 -0.7557  0.1902  0.7889
 5860SOL     OW29038   3.680   3.872   3.364 -0.6256 -0.1808  0.2312
 5860SOL    HW129039   3.622   3.916   3.302  2.7335  0.5073 -2.4761
 5860SOL    HW229040   3.633   3.791   3.384 -0.6157  0.0281  1.0942
 5861SOL     OW29041   3.257   3.578  12.606  0.0356 -0.0439  0.2308
 5861SOL    HW129042   3.212   3.565  12.523 -0.2544  0.7072  0.2740
 5861SOL    HW229043   3.279   3.486  12.622 -0.9638 -0.3276 -0.0694
 5862SOL     OW29044   4.105   4.675   6.942 -0.6857  0.0709 -1.0442
 5862SOL    HW129045   4.194   4.706   6.960 -1.2492  0.7862  0.4901
 5862SOL    HW229046   4.130   4.608   6.878 -0.5742 -1.6208  0.7749
 5863SOL     OW29047   3.566   0.883   0.743 -0.1054  0.3133  0.0015
 5863SOL    HW129048   3.603   0.947   0.803 -0.3826  1.0051 -0.5659
 5863SOL    HW229049   3.474   0.906   0.731 -0.0643  2.4288  3.8248
 5864SOL     OW29050   3.770   1.230  10.306  0.4958  0.0877 -0.1261
 5864SOL    HW129051   3.794   1.251  10.215 -1.6401 -0.3743 -0.7838
 5864SOL    HW229052   3.678   1.213  10.290  0.2276 -0.4970  2.0874
 5865SOL     OW29053   4.441   1.226   0.560  0.5930  0.1090  0.2625
 5865SOL    HW129054   4.449   1.304   0.505  0.1504 -0.4601 -0.6148
 5865SOL    HW229055   4.348   1.204   0.554 -0.3651  5.2114 -2.6660
 5866SOL     OW29056   3.732   0.486   8.063  0.0611 -0.1835  0.6513
 5866SOL    HW129057   3.675   0.411   8.083  0.5227 -0.5269  0.6818
 5866SOL    HW229058   3.689   0.503   7.979  0.0214  1.6450  1.0458
 5867SOL     OW29059   2.332   0.525   8.583 -0.1676  0.6336 -0.4468
 5867SOL    HW129060   2.309   0.611   8.619  1.4760  0.8033  0.2104
 5867SOL    HW229061   2.383   0.554   8.507  2.0854 -0.9223  0.4799
 5868SOL     OW29062   1.846   0.077   7.831 -0.0647 -0.0360 -0.4168
 5868SOL    HW129063   1.782   0.010   7.854  0.2772  0.3102  1.5719
 5868SOL    HW229064   1.844   0.076   7.736  1.3438  0.4201 -0.4432
 5869SOL     OW29065   0.675   2.782   0.394  0.2609 -0.0388 -0.1188
 5869SOL    HW129066   0.708   2.763   0.306  0.8907  0.0099  0.1061
 5869SOL    HW229067   0.718   2.866   0.411  0.3989 -0.0157 -0.5933
 5870SOL     OW29068   2.429   0.380  11.845 -0.0387  0.2148  0.1306
 5870SOL    HW129069   2.506   0.434  11.832 -1.5816  2.0864 -1.1325
 5870SOL    HW229070   2.468   0.293  11.854  0.0038  0.3799  1.6583
 5871SOL     OW29071   1.658   0.537   0.052 -0.4074  0.0424  0.4190
 5871SOL    HW129072   1.641   0.631   0.054 -0.1786  0.0140  3.6831
 5871SOL    HW229073   1.695   0.515   0.138  0.5974 -3.3722 -0.8836
 5872SOL     OW29074   0.181   2.145   9.312 -0.0747  0.3958  0.0510
 5872SOL    HW129075   0.181   2.221   9.372  0.2502  2.4088 -2.5062
 5872SOL    HW229076   0.192   2.073   9.374 -0.4053 -0.3242 -0.7439
 5873SOL     OW29077   0.090   4.385   9.365 -0.2182 -0.2560 -0.3614
 5873SOL    HW129078   0.154   4.356   9.430  1.7877 -0.6847 -2.5080
 5873SOL    HW229079   0.122   4.338   9.287 -0.2109 -0.0608 -0.4767
 5874SOL     OW29080   2.723   2.430   5.461 -0.2296  0.0373  0.1194
 5874SOL    HW129081   2.715   2.511   5.511 -1.2944 -0.6205  1.0045
 5874SOL    HW229082   2.640   2.388   5.483 -0.5469 -0.2446 -1.5838
 5875SOL     OW29083   1.418   4.466   1.500 -0.4633 -0.2268 -0.7588
 5875SOL    HW129084   1.480   4.469   1.427 -0.7286 -1.3306 -1.0252
 5875SOL    HW229085   1.343   4.489   1.446 -1.3027 -0.0231  0.4919
 5876SOL     OW29086   2.819   2.298   4.694 -0.9454  0.0297  0.2680
 5876SOL    HW129087   2.737   2.337   4.725 -0.4660  0.4636  0.9904
 5876SOL    HW229088   2.863   2.373   4.652  0.0775 -1.0739 -0.6331
 5877SOL     OW29089   4.464   3.015   8.595  0.4781 -0.2310  0.7210
 5877SOL    HW129090   4.491   2.986   8.507 -3.1896 -0.0420 -0.4728
 5877SOL    HW229091   4.512   2.959   8.655  2.3019  1.2801  0.6658
 5878SOL     OW29092   3.944   1.394   0.904  0.1757 -0.0788  0.0432
 5878SOL    HW129093   3.948   1.310   0.950  0.3821  0.3783  0.8563
 5878SOL    HW229094   3.860   1.381   0.860  0.8491 -0.1712 -1.2136
 5879SOL     OW29095   2.766   1.919   3.749 -0.8925  0.3891 -0.4156
 5879SOL    HW129096   2.828   1.876   3.808  0.3663  1.7012 -0.7998
 5879SOL    HW229097   2.820   1.967   3.686 -0.2759  1.1382  0.6834
 5880SOL     OW29098   3.168   1.472   4.639  0.3005 -0.1322 -0.2551
 5880SOL    HW129099   3.089   1.526   4.634  0.8516  0.5998 -1.1316
 5880SOL    HW229100   3.123   1.391   4.614  1.5100 -1.2371  1.1694
 5881SOL     OW29101   1.416   0.245   4.365  0.2752  0.1237  0.2676
 5881SOL    HW129102   1.411   0.260   4.459 -1.2370  2.4929 -0.1742
 5881SOL    HW229103   1.386   0.329   4.329  0.7914 -0.1329 -0.7564
 5882SOL     OW29104   2.878   1.270  10.806 -0.1074  0.0859  0.7045
 5882SOL    HW129105   2.826   1.271  10.726  0.1483  1.5598  0.5488
 5882SOL    HW229106   2.845   1.338  10.866  1.0062  1.4352 -0.2194
 5883SOL     OW29107   4.521   2.798  16.444  0.5992 -0.3423 -0.2669
 5883SOL    HW129108   4.534   2.800  16.539  2.3631  2.4377 -0.5867
 5883SOL    HW229109   4.432   2.833  16.439 -0.1682 -1.9251  2.1108
 5884SOL     OW29110   0.746   1.543   7.999  0.2540 -0.0417 -0.1840
 5884SOL    HW129111   0.757   1.619   8.056  1.9322 -0.3450 -0.0939
 5884SOL    HW229112   0.763   1.469   8.057 -0.1441  2.1809  2.7287
 5885SOL     OW29113   0.527   3.284   5.197 -0.6398 -0.0958 -0.7126
 5885SOL    HW129114   0.500   3.250   5.282 -0.6609 -1.9646 -1.4787
 5885SOL    HW229115   0.489   3.210   5.150  1.3003 -2.3272  1.2972
 5886SOL     OW29116   2.944   0.966   6.865 -0.4328  0.6959 -0.2610
 5886SOL    HW129117   2.998   0.989   6.940 -0.4220 -1.0000  0.2616
 5886SOL    HW229118   3.018   0.961   6.805 -0.2079 -0.2050  0.0920
 5887SOL     OW29119   0.603   0.606   5.998 -0.0179  0.1155  0.3250
 5887SOL    HW129120   0.604   0.552   6.077  3.5993 -0.6925 -0.3001
 5887SOL    HW229121   0.633   0.689   6.033 -1.9513  0.9742 -0.0222
 5888SOL     OW29122   3.166   2.008  17.426 -0.0856  0.5354 -0.3096
 5888SOL    HW129123   3.114   1.959  17.490  0.6233 -2.0635 -1.7002
 5888SOL    HW229124   3.175   1.947  17.353 -1.1556  0.1941 -0.1537
 5889SOL     OW29125   3.236   0.220   3.417  0.8253  0.6670  0.4775
 5889SOL    HW129126   3.185   0.249   3.492 -2.0755 -3.2846  0.0375
 5889SOL    HW229127   3.207   0.282   3.350  0.4401 -0.8847 -0.8055
 5890SOL     OW29128   2.631   2.469  14.932  0.0191  0.4744  0.7134
 5890SOL    HW129129   2.543   2.472  14.969  0.1696 -0.4867  1.1680
 5890SOL    HW229130   2.635   2.373  14.939  1.4409  0.4525 -0.3863
 5891SOL     OW29131   4.696   1.672   6.939  0.2961 -0.0614 -0.0817
 5891SOL    HW129132   4.677   1.698   6.849  2.3604 -0.1391 -0.5345
 5891SOL    HW229133   4.609   1.638   6.958  0.6142  0.6245  2.5879
 5892SOL     OW29134   3.700   4.386  11.765 -0.6689  0.3139  0.3771
 5892SOL    HW129135   3.634   4.353  11.826 -2.4936  1.0320 -1.1916
 5892SOL    HW229136   3.671   4.477  11.750 -0.1978  0.3600 -0.2625
 5893SOL     OW29137   1.874   3.200   6.650  0.0376  0.5635 -0.0592
 5893SOL    HW129138   1.836   3.271   6.598 -0.2471  0.0418 -0.5678
 5893SOL    HW229139   1.928   3.256   6.705 -0.6713  2.3541 -1.1853
 5894SOL     OW29140   0.809   2.803   6.315 -0.6713 -0.0266  0.3506
 5894SOL    HW129141   0.821   2.880   6.260 -1.6002  0.0154  0.1988
 5894SOL    HW229142   0.718   2.820   6.339 -0.8245 -0.6518  0.2050
 5895SOL     OW29143   3.353   3.847   4.031 -0.7014 -0.0955  0.1204
 5895SOL    HW129144   3.322   3.844   4.122  1.3063 -1.8602  0.7586
 5895SOL    HW229145   3.439   3.806   4.038 -0.4024  0.4459 -0.3643
 5896SOL     OW29146   3.591   2.432   9.534  0.1853  0.7467 -0.0536
 5896SOL    HW129147   3.517   2.487   9.562 -0.0526  0.9484 -1.0822
 5896SOL    HW229148   3.615   2.379   9.610 -2.0903 -1.0953 -0.6024
 5897SOL     OW29149   0.745   0.150   7.860  0.4016 -0.4182 -0.6023
 5897SOL    HW129150   0.694   0.077   7.894 -1.6634  1.6917  0.7725
 5897SOL    HW229151   0.829   0.109   7.839  0.4100 -1.5301  1.6963
 5898SOL     OW29152   4.084   1.245  14.311 -0.4771 -0.2254 -0.4684
 5898SOL    HW129153   4.064   1.160  14.273 -1.2110  0.6433 -2.0192
 5898SOL    HW229154   4.130   1.287  14.239  1.0055 -0.9925  0.0328
 5899SOL     OW29155   0.998   3.520  10.860  0.4851  0.0717  0.0279
 5899SOL    HW129156   1.016   3.530  10.954  0.3183  0.6652 -0.0010
 5899SOL    HW229157   0.906   3.495  10.859  0.3600  0.4814  0.7864
 5900SOL     OW29158   0.833   4.386   2.778 -0.2416  0.3235 -0.2403
 5900SOL    HW129159   0.847   4.478   2.800 -1.4717  0.1040  1.4999
 5900SOL    HW229160   0.742   4.372   2.749 -0.6183 -0.5440  1.3551
 5901SOL     OW29161   0.544   2.454   6.790  1.1142  0.5880 -0.4106
 5901SOL    HW129162   0.509   2.383   6.843  0.5783  0.8737 -0.3879
 5901SOL    HW229163   0.569   2.513   6.861  0.8962  0.3268 -0.1172
 5902SOL     OW29164   0.872   0.429   3.612 -0.0397 -0.5763 -0.3540
 5902SOL    HW129165   0.863   0.517   3.574  1.2704 -0.0881  0.4703
 5902SOL    HW229166   0.909   0.386   3.535 -0.3240  0.6408 -1.1877
 5903SOL     OW29167   0.497   3.527  12.627  0.3166  0.1194 -0.5548
 5903SOL    HW129168   0.480   3.486  12.712 -0.7946  0.0705 -0.7969
 5903SOL    HW229169   0.586   3.498  12.610  1.2799  1.1789  2.6831
 5904SOL     OW29170   3.644   2.381   3.804 -0.1706  0.1032  0.3426
 5904SOL    HW129171   3.572   2.352   3.860  0.4573 -1.0974  0.5399
 5904SOL    HW229172   3.619   2.467   3.771  0.7086  0.8663  1.6762
 5905SOL     OW29173   2.673   0.366   2.279 -0.3917  0.8630 -0.4451
 5905SOL    HW129174   2.763   0.371   2.249 -0.0177  1.4259  0.7770
 5905SOL    HW229175   2.660   0.272   2.262  0.2067  0.8849 -1.0251
 5906SOL     OW29176   2.762   4.008   6.987 -0.0722 -0.3883 -0.6258
 5906SOL    HW129177   2.753   4.071   7.058  0.3965 -0.1528 -0.7766
 5906SOL    HW229178   2.846   4.035   6.949 -1.3329 -1.3652 -4.1398
 5907SOL     OW29179   1.202   3.591  16.073  0.3005 -0.2864  0.4268
 5907SOL    HW129180   1.200   3.660  16.007 -0.3820 -0.3587  0.3698
 5907SOL    HW229181   1.278   3.613  16.127  1.8129 -1.1925 -1.3350
 5908SOL     OW29182   2.714   3.760   2.471  0.1190 -0.4574 -0.4478
 5908SOL    HW129183   2.624   3.781   2.447 -0.3228 -3.9171 -1.8055
 5908SOL    HW229184   2.710   3.665   2.478 -0.6213 -0.1677  3.4227
 5909SOL     OW29185   0.825   2.375  15.855 -0.6727  0.0493 -0.3296
 5909SOL    HW129186   0.774   2.432  15.798 -0.4299 -0.9449 -1.5451
 5909SOL    HW229187   0.860   2.322  15.783  0.0568 -2.3342  1.7631
 5910SOL     OW29188   2.251   1.598  11.994  0.0903 -0.6400 -0.4233
 5910SOL    HW129189   2.341   1.630  11.995 -0.2164  0.1116  1.5276
 5910SOL    HW229190   2.275   1.516  11.949  1.0700 -0.5647 -0.0389
 5911SOL     OW29191   3.137   1.382   2.282  0.3995 -0.0430 -0.4001
 5911SOL    HW129192   3.151   1.472   2.250 -1.7973  0.7989  0.9899
 5911SOL    HW229193   3.147   1.405   2.374  0.3533 -0.0436 -0.3951
 5912SOL     OW29194   0.638   3.648   5.490 -0.5409 -0.0657  0.2143
 5912SOL    HW129195   0.558   3.600   5.512  0.1153 -0.1953  2.3709
 5912SOL    HW229196   0.661   3.636   5.398 -1.5226 -1.1300  0.1039
 5913SOL     OW29197   1.170   1.039   6.972  0.4217 -0.5500 -0.2159
 5913SOL    HW129198   1.093   1.092   6.949 -0.0988 -1.2241 -0.0119
 5913SOL    HW229199   1.170   0.964   6.913 -0.4082 -0.2008 -0.6644
 5914SOL     OW29200   4.185   3.663   7.412  0.1530  0.6357  0.4000
 5914SOL    HW129201   4.122   3.659   7.484  0.0730  1.8947  0.4060
 5914SOL    HW229202   4.192   3.569   7.398  1.1697  0.6876  0.5932
 5915SOL     OW29203   3.996   3.558   6.301 -0.3954  0.1534  0.4776
 5915SOL    HW129204   3.973   3.467   6.279 -1.0508  0.9368 -2.0612
 5915SOL    HW229205   3.996   3.594   6.212 -2.3658  2.5143  1.4415
 5916SOL     OW29206   0.397   1.923   9.141  0.3517 -0.0881  0.0044
 5916SOL    HW129207   0.477   1.888   9.182 -0.2573 -1.8197 -0.2789
 5916SOL    HW229208   0.341   1.845   9.148  1.4165 -0.7868  0.9321
 5917SOL     OW29209   3.795   2.029   2.009  0.1783  0.9508 -0.3453
 5917SOL    HW129210   3.729   1.972   2.050  0.2471  0.1181 -1.3900
 5917SOL    HW229211   3.804   2.099   2.073 -1.1019  0.6882  0.1210
 5918SOL     OW29212   4.362   2.333   8.112  0.2361 -0.3188 -0.6564
 5918SOL    HW129213   4.266   2.331   8.108  0.2695 -1.5502 -0.8495
 5918SOL    HW229214   4.372   2.240   8.128  0.9555 -0.2834 -0.9189
 5919SOL     OW29215   2.514   0.547  12.906  0.1187 -0.3343 -0.0128
 5919SOL    HW129216   2.435   0.589  12.941 -1.1794 -0.6379 -2.5928
 5919SOL    HW229217   2.553   0.498  12.977  3.4344 -1.5057 -2.6528
 5920SOL     OW29218   1.557   2.132   2.993 -0.0733 -0.0856  0.0166
 5920SOL    HW129219   1.595   2.176   2.917 -0.5716  1.0820  0.4487
 5920SOL    HW229220   1.631   2.084   3.029  1.3991  1.0848 -1.4374
 5921SOL     OW29221   1.838   3.603   1.952 -0.0749  0.1610 -0.3565
 5921SOL    HW129222   1.901   3.630   2.019  0.0900 -1.4906  0.1440
 5921SOL    HW229223   1.900   3.560   1.893 -1.1799 -1.4261 -0.3582
 5922SOL     OW29224   2.368   4.502   5.840  0.4107 -0.9230 -0.1708
 5922SOL    HW129225   2.393   4.504   5.748  2.2449 -1.1309  0.3019
 5922SOL    HW229226   2.441   4.459   5.885  0.0274  1.6336  2.9647
 5923SOL     OW29227   2.204   2.408   8.645  0.2494 -0.2919  0.1298
 5923SOL    HW129228   2.221   2.315   8.665 -0.6648 -0.0959  1.8234
 5923SOL    HW229229   2.177   2.449   8.728  1.9583  0.4248  0.3191
 5924SOL     OW29230   0.698   4.031   1.982  0.1880 -0.0554 -0.1841
 5924SOL    HW129231   0.696   3.937   1.960 -0.7859 -0.2296  0.6770
 5924SOL    HW229232   0.783   4.024   2.026  0.6086 -0.3581 -1.0281
 5925SOL     OW29233   3.046   2.148   2.964 -0.0919  0.0782  0.2037
 5925SOL    HW129234   3.115   2.116   3.021  0.1985 -2.4402 -1.5626
 5925SOL    HW229235   3.057   2.086   2.892 -2.1236 -0.3995  0.2855
 5926SOL     OW29236   2.767   1.666   9.511  0.1962  0.7590  0.4536
 5926SOL    HW129237   2.788   1.734   9.447 -2.2959 -1.6239 -2.9142
 5926SOL    HW229238   2.679   1.635   9.490  0.6006 -1.3349  1.8753
 5927SOL     OW29239   3.120   0.352  15.548  0.1054  0.4320  0.2433
 5927SOL    HW129240   3.146   0.367  15.457 -0.2378 -0.4902 -0.0111
 5927SOL    HW229241   3.117   0.256  15.553  0.6218  0.3005 -1.9484
 5928SOL     OW29242   3.755   1.353   1.707  0.9665  0.5192 -0.3119
 5928SOL    HW129243   3.806   1.408   1.766 -0.6740 -1.2648  2.7750
 5928SOL    HW229244   3.678   1.406   1.689  0.7157  0.1028 -0.4641
 5929SOL     OW29245   2.888   3.749   8.245  0.2695  0.4816  0.3637
 5929SOL    HW129246   2.835   3.778   8.319  1.2060  1.1716  0.7671
 5929SOL    HW229247   2.958   3.710   8.297  1.8490  3.7877  0.7054
 5930SOL     OW29248   4.612   2.409   5.158  0.4015  0.0045 -0.2747
 5930SOL    HW129249   4.694   2.454   5.180  0.1266 -0.1025  1.0017
 5930SOL    HW229250   4.552   2.473   5.196  0.8089  1.6148 -2.3309
 5931SOL     OW29251   0.938   0.172   2.075 -0.0902 -0.2515  0.0962
 5931SOL    HW129252   1.018   0.189   2.125 -0.2799  0.0906  0.2840
 5931SOL    HW229253   0.895   0.257   2.080  1.7086  0.7453 -1.4749
 5932SOL     OW29254   0.911   2.913   5.809  0.3773 -0.0092 -0.9967
 5932SOL    HW129255   0.850   2.982   5.784 -0.4899  0.3496  2.1686
 5932SOL    HW229256   0.856   2.847   5.852 -0.2071  1.0555 -0.1220
 5933SOL     OW29257   3.358   2.536   2.683 -0.4449  0.0446  0.2050
 5933SOL    HW129258   3.280   2.542   2.628 -0.6064 -1.1027  0.3200
 5933SOL    HW229259   3.415   2.486   2.625 -0.9698 -2.5921  1.9834
 5934SOL     OW29260   2.300   0.521   2.152 -0.0741  0.1663 -0.4545
 5934SOL    HW129261   2.346   0.551   2.230  0.8472 -0.7497 -0.6518
 5934SOL    HW229262   2.288   0.427   2.165  0.2586  0.4457  1.9091
 5935SOL     OW29263   2.964   2.678   0.968 -0.3506  0.3344  0.9891
 5935SOL    HW129264   2.983   2.603   0.912  3.3615  2.7705 -1.0905
 5935SOL    HW229265   2.913   2.734   0.910  0.2594 -0.7749 -0.6148
 5936SOL     OW29266   4.650   0.511  10.746 -0.0342  0.4683  0.0272
 5936SOL    HW129267   4.659   0.420  10.717 -0.5693  0.9857 -1.7022
 5936SOL    HW229268   0.006   0.532  10.797  0.6743  0.3274 -1.0214
 5937SOL     OW29269   1.878   1.959   2.021 -0.2662  0.2167 -0.7250
 5937SOL    HW129270   1.865   2.039   1.969  1.6251  1.5804  0.8684
 5937SOL    HW229271   1.801   1.913   1.990  1.1810 -3.1022  0.5839
 5938SOL     OW29272   2.727   3.122   9.655  0.3196  0.2548  0.6980
 5938SOL    HW129273   2.680   3.204   9.671  1.2113  0.7154  0.9455
 5938SOL    HW229274   2.747   3.128   9.562  1.7923 -2.8021  0.8260
 5939SOL     OW29275   2.354   1.624   9.727 -0.2328  0.5744 -0.2742
 5939SOL    HW129276   2.380   1.537   9.758  1.1142  1.0170 -0.1611
 5939SOL    HW229277   2.418   1.677   9.774 -0.1130 -0.6449  0.9408
 5940SOL     OW29278   0.254   2.592   6.276  0.3160  0.1926  0.1373
 5940SOL    HW129279   0.192   2.664   6.265  0.3158  0.3899  1.4286
 5940SOL    HW229280   0.221   2.552   6.357 -1.9677  1.6777 -0.0660
 5941SOL     OW29281   1.775   3.726   4.517 -0.2077  0.5243 -0.9695
 5941SOL    HW129282   1.731   3.705   4.435 -1.3949  2.2514 -0.7667
 5941SOL    HW229283   1.856   3.676   4.524 -1.4220 -1.4887 -1.2992
 5942SOL     OW29284   2.333   4.079  12.886 -0.3900 -0.2010 -0.3604
 5942SOL    HW129285   2.256   4.122  12.923  0.6389  2.0768 -0.9229
 5942SOL    HW229286   2.323   3.989  12.917  1.1975 -0.0533  0.6327
 5943SOL     OW29287   0.210   3.685   6.485  0.5290 -0.7582 -0.0853
 5943SOL    HW129288   0.255   3.601   6.491  0.4331 -0.9636 -2.3939
 5943SOL    HW229289   0.288   3.731   6.455  0.8365 -2.4515 -1.8645
 5944SOL     OW29290   1.593   3.648   3.047  0.2654  0.0756  0.3618
 5944SOL    HW129291   1.591   3.734   3.088  1.6541  1.0343 -1.6008
 5944SOL    HW229292   1.614   3.668   2.956 -0.3434  0.1595  0.2448
 5945SOL     OW29293   3.922   1.403   6.006 -0.1866 -0.2004 -0.2635
 5945SOL    HW129294   3.906   1.406   6.101  2.2776  0.7417  0.1375
 5945SOL    HW229295   3.918   1.309   5.991 -1.2571 -0.4875  1.7901
 5946SOL     OW29296   1.041   1.792   7.232 -0.2768 -0.0671 -0.1968
 5946SOL    HW129297   0.954   1.819   7.262  0.4071  2.3582 -0.4259
 5946SOL    HW229298   1.102   1.862   7.256 -1.0370 -0.0387  1.6368
 5947SOL     OW29299   0.695   3.211  13.330  0.4180  0.1130 -0.3742
 5947SOL    HW129300   0.651   3.157  13.264 -1.3281  0.7366  0.2935
 5947SOL    HW229301   0.779   3.211  13.283 -0.0581  1.9044 -1.2079
 5948SOL     OW29302   4.380   3.987   3.549  0.0526 -0.6634  0.3191
 5948SOL    HW129303   4.406   4.077   3.527 -3.0799  0.0308 -0.5707
 5948SOL    HW229304   4.289   3.996   3.522  0.5217  2.5384 -0.2888
 5949SOL     OW29305   4.605   2.363   7.933  0.0972  0.0504  0.8529
 5949SOL    HW129306   4.528   2.353   7.990  0.1968 -1.2713  0.7462
 5949SOL    HW229307   4.648   2.278   7.936  0.9420  0.4686  0.6492
 5950SOL     OW29308   0.743   4.691   4.797  0.2022 -0.2801  0.3051
 5950SOL    HW129309   0.743   4.696   4.701  1.6796  0.3851  0.3353
 5950SOL    HW229310   0.802   4.617   4.815 -2.3166 -1.7983  2.1952
 5951SOL     OW29311   2.965   1.600   2.682  0.0174  0.8276 -0.6651
 5951SOL    HW129312   2.907   1.675   2.676  0.3177  1.0999 -0.2134
 5951SOL    HW229313   3.038   1.643   2.728  0.0526  0.8161 -0.7099
 5952SOL     OW29314   0.769   2.661  14.795  0.6029 -0.4009  0.1293
 5952SOL    HW129315   0.848   2.698  14.756  0.4974 -0.5255 -0.2035
 5952SOL    HW229316   0.802   2.576  14.823  0.8825 -0.9580 -1.8847
 5953SOL     OW29317   2.916   3.260   4.678 -0.3900  0.3715 -0.8024
 5953SOL    HW129318   2.856   3.302   4.740 -1.0406 -1.7743  0.0190
 5953SOL    HW229319   2.983   3.242   4.745  0.2626 -0.1862 -1.5976
 5954SOL     OW29320   4.344   3.535   4.549 -0.3673  0.1817 -0.3857
 5954SOL    HW129321   4.318   3.627   4.541  2.4261  0.8722 -1.6581
 5954SOL    HW229322   4.433   3.533   4.513 -0.3947  0.1099 -0.4482
 5955SOL     OW29323   1.756   1.373  14.247 -0.1385 -0.4801 -0.0074
 5955SOL    HW129324   1.849   1.388  14.266 -0.2121 -0.8162  0.5988
 5955SOL    HW229325   1.757   1.387  14.152  5.0355  3.2709  0.6026
 5956SOL     OW29326   2.737   1.312  10.567  0.1111  0.0916  0.3882
 5956SOL    HW129327   2.667   1.249  10.587  0.1260  0.3608  1.2766
 5956SOL    HW229328   2.759   1.303  10.474 -0.5780  0.2869  0.2032
 5957SOL     OW29329   3.738   0.063   4.465 -0.0161  0.2320  0.0553
 5957SOL    HW129330   3.832   0.063   4.450 -0.2304 -0.8591 -1.3836
 5957SOL    HW229331   3.712   0.126   4.398 -0.1955 -0.8841 -0.9459
 5958SOL     OW29332   3.184   3.667   5.093 -0.5835 -0.5844  0.1103
 5958SOL    HW129333   3.157   3.578   5.069  5.5369 -2.3213 -0.2876
 5958SOL    HW229334   3.129   3.674   5.171  0.5950  0.4046  0.8513
 5959SOL     OW29335   2.975   4.037  13.683  0.2986  0.5074 -0.1396
 5959SOL    HW129336   2.915   3.976  13.726 -0.1049 -0.0469 -1.4951
 5959SOL    HW229337   2.929   4.085  13.615  1.0381  2.7060  0.9032
 5960SOL     OW29338   1.244   2.630  15.500 -0.3615  0.5920 -0.0781
 5960SOL    HW129339   1.330   2.608  15.537 -0.5762 -1.3074 -0.6844
 5960SOL    HW229340   1.180   2.573  15.542  1.0648 -0.4454  0.7210
 5961SOL     OW29341   1.974   3.619  12.679 -1.0058  0.2539 -0.1611
 5961SOL    HW129342   1.971   3.683  12.608 -0.2975  0.1762 -0.2592
 5961SOL    HW229343   2.056   3.635  12.726  0.2360 -2.5107 -1.3715
 5962SOL     OW29344   0.968   3.327   2.066  0.4545 -0.0465 -0.1932
 5962SOL    HW129345   0.989   3.257   2.128 -0.4288 -0.1178  0.0288
 5962SOL    HW229346   0.879   3.296   2.046  0.5712 -0.0760 -0.6554
 5963SOL     OW29347   0.803   0.421  12.635 -0.3711 -0.1865  0.9416
 5963SOL    HW129348   0.783   0.327  12.633 -1.0149 -0.0491  0.9844
 5963SOL    HW229349   0.718   0.455  12.663 -0.2906  0.7428  0.0549
 5964SOL     OW29350   2.101   3.372  11.376  0.5844 -0.2488  0.6656
 5964SOL    HW129351   2.045   3.329  11.441  2.4716 -1.3020  1.5920
 5964SOL    HW229352   2.156   3.296  11.355 -0.6285 -0.7234 -0.8004
 5965SOL     OW29353   0.460   4.597  12.800 -0.4734  0.3504 -1.0309
 5965SOL    HW129354   0.516   4.598  12.877 -0.0075 -1.0293 -1.3498
 5965SOL    HW229355   0.372   4.597  12.837  1.1902  1.7988  2.8927
 5966SOL     OW29356   0.367   2.793   2.397 -0.4493  0.4932  0.0348
 5966SOL    HW129357   0.433   2.789   2.327  0.1480 -0.0797  0.6280
 5966SOL    HW229358   0.380   2.721   2.459 -0.3661  0.6013  0.1426
 5967SOL     OW29359   1.915   4.430   7.335 -0.0599 -0.3752  0.4018
 5967SOL    HW129360   1.867   4.425   7.417 -0.1636  1.0235  0.4159
 5967SOL    HW229361   1.977   4.361   7.358 -1.3163 -1.2703  1.1185
 5968SOL     OW29362   1.391   3.714   4.354 -0.5034 -0.2646  0.1225
 5968SOL    HW129363   1.351   3.629   4.373  1.7907 -1.2016  0.7071
 5968SOL    HW229364   1.382   3.716   4.259 -0.4871 -2.4997  0.0803
 5969SOL     OW29365   1.887   1.868   5.331  0.0261 -0.5718  0.0879
 5969SOL    HW129366   1.961   1.916   5.367 -2.4963  2.4481  1.2028
 5969SOL    HW229367   1.824   1.880   5.402 -0.3203 -0.5798 -0.2188
 5970SOL     OW29368   4.380   4.709   9.694  0.6420 -0.4247 -0.1222
 5970SOL    HW129369   4.441   0.059   9.705  0.7818 -0.3393 -1.4660
 5970SOL    HW229370   4.339   4.708   9.780  1.6593 -0.2682  0.3729
 5971SOL     OW29371   0.728   4.330   1.096  0.4905  0.1331 -0.4845
 5971SOL    HW129372   0.752   4.417   1.064 -2.9188  1.4351  0.5060
 5971SOL    HW229373   0.813   4.287   1.097  0.4619  0.0960  0.0802
 5972SOL     OW29374   1.388   3.070   7.139 -0.3711  0.3211 -0.0192
 5972SOL    HW129375   1.454   3.046   7.075 -1.3951 -1.1461 -0.5324
 5972SOL    HW229376   1.312   3.033   7.093 -1.2748  1.2379  0.7237
 5973SOL     OW29377   2.073   4.447  11.729  0.1953  0.0725  0.0708
 5973SOL    HW129378   2.084   4.487  11.815  1.0456 -1.5869  0.7210
 5973SOL    HW229379   2.123   4.366  11.725 -1.6626 -1.1352  0.9066
 5974SOL     OW29380   0.354   1.300  13.251  0.2006  0.0443  0.6673
 5974SOL    HW129381   0.261   1.275  13.254  0.1331 -0.1262 -3.1748
 5974SOL    HW229382   0.383   1.247  13.325 -0.7496 -2.0445 -0.4521
 5975SOL     OW29383   0.844   1.548   7.399  0.4469 -0.0632 -0.4290
 5975SOL    HW129384   0.815   1.468   7.442  2.9784 -0.5102  0.4693
 5975SOL    HW229385   0.938   1.534   7.408  0.1995 -2.1480 -1.0667
 5976SOL     OW29386   2.127   3.831  10.310 -0.0278  0.2607 -0.0286
 5976SOL    HW129387   2.147   3.786  10.228 -1.2451 -0.5562  0.1305
 5976SOL    HW229388   2.034   3.815  10.323  0.2509 -0.1133  1.4390
 5977SOL     OW29389   1.154   2.079   7.221  0.2407  0.1925  0.3678
 5977SOL    HW129390   1.105   2.104   7.143  2.4199  2.2196 -0.3624
 5977SOL    HW229391   1.232   2.134   7.211  0.4778 -0.2038  0.0077
 5978SOL     OW29392   3.695   1.522   2.393  0.3345 -0.8338 -0.4949
 5978SOL    HW129393   3.689   1.543   2.486  0.8622 -0.7740 -0.4755
 5978SOL    HW229394   3.756   1.588   2.362  0.3218  0.5456  2.3604
 5979SOL     OW29395   4.358   2.535   6.957 -0.2802  0.5469 -0.1099
 5979SOL    HW129396   4.282   2.593   6.954  0.2608  1.3274  1.2875
 5979SOL    HW229397   4.328   2.458   6.908 -2.5526  1.0776  0.4368
 5980SOL     OW29398   0.245   1.630   6.698  0.0119  0.1658 -0.2681
 5980SOL    HW129399   0.317   1.688   6.725  0.0574  0.8180 -1.8147
 5980SOL    HW229400   0.178   1.694   6.674  1.2778  1.5186 -0.1590
 5981SOL     OW29401   4.274   0.360   6.548 -0.2993  0.6974  0.4524
 5981SOL    HW129402   4.272   0.443   6.595 -2.9996 -0.3389  2.1923
 5981SOL    HW229403   4.230   0.382   6.466  0.3984  0.9749  0.1545
 5982SOL     OW29404   1.650   4.589   5.908 -0.3814 -0.1377 -0.0008
 5982SOL    HW129405   1.688   4.661   5.858  0.4162 -1.0669 -0.7256
 5982SOL    HW229406   1.724   4.582   5.969  0.9699  0.3048 -1.6067
 5983SOL     OW29407   1.303   0.843   3.542 -0.1888 -0.5648  0.2529
 5983SOL    HW129408   1.376   0.857   3.602 -0.5185 -0.5094  0.6382
 5983SOL    HW229409   1.262   0.930   3.545  4.2130  1.6004 -2.1589
 5984SOL     OW29410   2.354   3.217  10.971  0.1960  0.1106 -1.1552
 5984SOL    HW129411   2.350   3.236  11.065  4.7686  2.7759 -1.5200
 5984SOL    HW229412   2.261   3.205  10.948 -0.0979  0.6971 -0.2689
 5985SOL     OW29413   4.096   2.953   8.263  0.3588  0.0802  0.0788
 5985SOL    HW129414   4.176   3.005   8.266  1.0832 -1.1185  1.7540
 5985SOL    HW229415   4.077   2.975   8.172 -2.0981 -0.1316  0.5411
 5986SOL     OW29416   4.195   2.209   7.027 -0.0650  0.4229 -0.5441
 5986SOL    HW129417   4.289   2.195   7.022 -0.3169 -1.2233 -0.6209
 5986SOL    HW229418   4.165   2.194   6.937 -0.2283 -0.6722 -0.3038
 5987SOL     OW29419   2.473   0.944   6.315  0.3397 -0.0628  0.0970
 5987SOL    HW129420   2.392   0.990   6.296  1.5602  1.6346 -1.0385
 5987SOL    HW229421   2.445   0.859   6.349  0.5693 -0.9380 -1.9579
 5988SOL     OW29422   2.233   3.073  10.743  0.6621  0.6376 -0.4019
 5988SOL    HW129423   2.201   3.116  10.664 -3.8449  0.5803  1.3623
 5988SOL    HW229424   2.166   3.091  10.810  0.7663 -0.9147  0.1156
 5989SOL     OW29425   3.358   1.362   3.229 -0.1697 -0.5612 -0.5222
 5989SOL    HW129426   3.445   1.325   3.220 -0.1874 -0.4246 -1.2089
 5989SOL    HW229427   3.356   1.370   3.325 -0.2975  0.0971 -0.5798
 5990SOL     OW29428   3.036   1.612  12.053  0.1770 -0.0582 -0.2593
 5990SOL    HW129429   3.023   1.544  11.986 -0.2607  0.0375 -0.2692
 5990SOL    HW229430   3.131   1.601  12.054  0.1635 -0.3530 -1.5238
 5991SOL     OW29431   2.671   3.052  11.110 -0.3069  0.4035  0.5157
 5991SOL    HW129432   2.598   3.011  11.156 -0.3770  0.3145  0.3224
 5991SOL    HW229433   2.741   2.991  11.132 -1.7364 -0.7591  1.8688
 5992SOL     OW29434   2.964   2.521  11.848 -0.3081  0.0692  0.0924
 5992SOL    HW129435   2.901   2.582  11.886  0.5486  1.1729 -0.2597
 5992SOL    HW229436   3.040   2.523  11.905  0.4801  2.4751 -1.0324
 5993SOL     OW29437   0.913   0.739   9.293  0.2719  0.3846  0.4836
 5993SOL    HW129438   0.865   0.725   9.212  0.6767 -0.8404  0.4515
 5993SOL    HW229439   0.937   0.647   9.307  0.6332  0.4892  0.5713
 5994SOL     OW29440   3.594   3.704   3.997  0.7933 -0.5503  0.0701
 5994SOL    HW129441   3.651   3.653   3.940  1.0676 -2.3856  1.9941
 5994SOL    HW229442   3.632   3.691   4.084  1.8509 -1.0738 -0.4751
 5995SOL     OW29443   3.747   2.429   6.035  0.2431  0.2299 -0.0109
 5995SOL    HW129444   3.813   2.476   6.087  1.3785 -1.2655 -0.1041
 5995SOL    HW229445   3.773   2.338   6.052 -0.8123 -0.5135 -2.3813
 5996SOL     OW29446   2.030   1.138   7.027 -0.2047  0.1763 -0.6427
 5996SOL    HW129447   2.123   1.158   7.017  0.1670 -2.1989 -1.9406
 5996SOL    HW229448   1.997   1.126   6.938 -1.3387  0.4394 -0.2476
 5997SOL     OW29449   3.986   2.454   3.056 -0.3974  0.4334 -0.1893
 5997SOL    HW129450   4.011   2.407   3.136 -0.5401 -0.9747 -0.9685
 5997SOL    HW229451   3.966   2.382   2.996  0.7837  0.2531 -0.3678
 5998SOL     OW29452   2.973   3.898  15.327  0.4338  0.5818 -0.6759
 5998SOL    HW129453   2.945   3.988  15.307 -0.3850  0.2138 -1.1526
 5998SOL    HW229454   3.060   3.898  15.288 -0.0342 -1.7509 -1.7022
 5999SOL     OW29455   0.752   4.072   1.331 -1.3172  0.1066  0.4535
 5999SOL    HW129456   0.679   4.012   1.319 -0.1420 -1.5710  1.7979
 5999SOL    HW229457   0.765   4.041   1.420 -0.9742 -1.6834 -0.2175
 6000SOL     OW29458   1.031   3.808   8.279 -0.4614  0.0741  0.7137
 6000SOL    HW129459   0.954   3.780   8.229  0.3585  0.8466 -0.9592
 6000SOL    HW229460   1.095   3.789   8.210 -1.9933  1.1585 -0.9809
 6001SOL     OW29461   1.573   0.872   5.666 -0.4378  0.0025  0.0910
 6001SOL    HW129462   1.523   0.932   5.721 -0.3276 -0.4948  0.7265
 6001SOL    HW229463   1.603   0.808   5.730 -0.4403 -1.7720 -1.6805
 6002SOL     OW29464   4.149   4.200   6.417  0.2950 -0.7375 -0.2875
 6002SOL    HW129465   4.133   4.286   6.458  2.1426  0.3563 -1.8578
 6002SOL    HW229466   4.083   4.147   6.461 -0.7307 -0.4304 -1.4600
 6003SOL     OW29467   3.801   1.304  14.357  0.1942 -0.3472  0.0849
 6003SOL    HW129468   3.896   1.297  14.350  0.2643 -2.1982  2.7814
 6003SOL    HW229469   3.792   1.324  14.450 -0.2711  0.1618 -0.0711
 6004SOL     OW29470   1.874   2.713  17.216  0.0360  0.6928 -0.0957
 6004SOL    HW129471   1.915   2.651  17.155 -1.9356  0.4499 -1.1763
 6004SOL    HW229472   1.808   2.737  17.151  0.6209 -0.5494 -1.1523
 6005SOL     OW29473   0.579   2.971   9.951 -0.3118 -0.3508 -0.4815
 6005SOL    HW129474   0.600   2.921  10.030 -0.2030 -0.1807 -0.4040
 6005SOL    HW229475   0.499   2.932   9.916 -0.8482 -0.4196  0.8159
 6006SOL     OW29476   4.130   3.740  15.767 -0.8114  0.5601 -0.2138
 6006SOL    HW129477   4.157   3.652  15.794 -0.8504  0.8817  0.8440
 6006SOL    HW229478   4.204   3.785  15.806  0.3772 -2.1130  0.5716
 6007SOL     OW29479   1.057   3.394  16.474  0.7673 -0.0059  0.0201
 6007SOL    HW129480   1.004   3.471  16.454 -0.7054 -0.4524  2.1672
 6007SOL    HW229481   0.985   3.332  16.485  1.0329 -0.3864 -0.3848
 6008SOL     OW29482   0.504   4.340  14.882  0.6270 -0.0845 -0.5289
 6008SOL    HW129483   0.494   4.361  14.789 -0.1291 -3.1761 -1.1529
 6008SOL    HW229484   0.430   4.280  14.890  0.4370  0.2811  0.3560
 6009SOL     OW29485   3.248   3.716   3.178  0.5780 -0.4831  0.0496
 6009SOL    HW129486   3.226   3.683   3.091 -1.0520 -1.4893  0.8460
 6009SOL    HW229487   3.194   3.794   3.180  1.0890 -0.1413  0.4068
 6010SOL     OW29488   3.655   4.533   7.201 -0.0723 -0.2306  0.2486
 6010SOL    HW129489   3.602   4.556   7.277 -3.3403  0.5659 -2.2718
 6010SOL    HW229490   3.711   4.610   7.188 -0.0583 -0.3842 -0.6105
 6011SOL     OW29491   3.520   2.125   5.532 -0.0122  0.3958  0.0839
 6011SOL    HW129492   3.612   2.137   5.511 -0.3651 -0.3852 -1.9423
 6011SOL    HW229493   3.486   2.210   5.503 -1.4107  0.1646  1.0319
 6012SOL     OW29494   2.804   0.082  16.668  0.3169 -0.1234 -0.6781
 6012SOL    HW129495   2.733   0.055  16.609 -1.8083  0.0071  1.8555
 6012SOL    HW229496   2.761   0.087  16.753 -1.4614  0.5359 -1.6040
 6013SOL     OW29497   0.458   4.281   3.149  0.2421  0.5331  0.4543
 6013SOL    HW129498   0.548   4.313   3.145  0.5450 -0.4252 -0.3028
 6013SOL    HW229499   0.466   4.207   3.089  0.0388 -0.1867  1.3123
 6014SOL     OW29500   2.966   0.662  13.270 -0.0610 -0.6058 -0.3975
 6014SOL    HW129501   2.995   0.733  13.327 -0.2799 -1.1986  0.4476
 6014SOL    HW229502   3.027   0.593  13.297 -1.1521 -1.2641  0.3507
 6015SOL     OW29503   4.146   1.368   1.119  0.2981  0.4444  0.0006
 6015SOL    HW129504   4.218   1.429   1.126  1.3129 -0.4315 -2.5476
 6015SOL    HW229505   4.102   1.388   1.036 -0.2702  0.8083  0.3948
 6016SOL     OW29506   2.474   1.798   6.892 -0.0826 -0.3000  0.1328
 6016SOL    HW129507   2.463   1.855   6.967 -1.1940 -0.5267  0.1547
 6016SOL    HW229508   2.548   1.831   6.841  0.2259  0.6264  1.2101
 6017SOL     OW29509   1.434   4.461   4.366  0.2071 -0.2183 -0.2636
 6017SOL    HW129510   1.347   4.489   4.338  0.3834  1.4827  0.8821
 6017SOL    HW229511   1.446   4.524   4.437 -0.9197  0.6529 -0.8563
 6018SOL     OW29512   2.298   2.706   5.604  0.7890  0.1418 -0.1330
 6018SOL    HW129513   2.227   2.770   5.610 -0.1631 -0.9931  0.4306
 6018SOL    HW229514   2.279   2.645   5.675 -0.6683 -0.5654 -1.1272
 6019SOL     OW29515   3.014   0.592  15.629 -0.8418  0.2450  0.1275
 6019SOL    HW129516   3.014   0.497  15.638  0.6685  0.0763 -1.7700
 6019SOL    HW229517   3.073   0.622  15.699  0.4161 -2.1170  0.0705
 6020SOL     OW29518   0.383   1.131  10.988  0.3588  0.6008 -0.1853
 6020SOL    HW129519   0.403   1.204  10.931 -0.6678 -1.5492 -3.3053
 6020SOL    HW229520   0.345   1.184  11.059  0.8856 -1.7188  1.8418
 6021SOL     OW29521   2.740   3.962  11.053  0.1062 -1.1464  0.3921
 6021SOL    HW129522   2.755   3.878  11.010 -1.1069 -0.3026 -1.6903
 6021SOL    HW229523   2.673   3.994  10.992  0.4942 -0.6309  0.2290
 6022SOL     OW29524   0.151   0.983  11.058  0.1254  0.4693  0.3405
 6022SOL    HW129525   0.240   1.001  11.028  0.4526 -0.4500  0.7472
 6022SOL    HW229526   0.158   0.990  11.153 -3.9991 -1.0216  0.7621
 6023SOL     OW29527   2.093   0.754   1.906 -0.0954 -0.6426 -0.1188
 6023SOL    HW129528   2.082   0.681   1.845 -0.0915 -0.4227 -0.3822
 6023SOL    HW229529   2.185   0.755   1.930  0.5565 -1.5093 -2.5471
 6024SOL     OW29530   1.307   4.547   2.608 -0.4852  0.3469  0.4689
 6024SOL    HW129531   1.316   4.566   2.702  2.0271 -0.2000  0.3278
 6024SOL    HW229532   1.376   4.482   2.594  0.4916  2.0793 -2.6637
 6025SOL     OW29533   0.185   2.198   4.334 -0.0242 -0.6171  0.0300
 6025SOL    HW129534   0.118   2.239   4.279 -0.2554  1.5323  1.9117
 6025SOL    HW229535   0.222   2.133   4.274 -1.4628 -1.8233  0.4792
 6026SOL     OW29536   2.348   4.034   7.215  0.1447 -0.1359 -0.1980
 6026SOL    HW129537   2.427   3.996   7.253  0.3072 -0.0525 -0.4566
 6026SOL    HW229538   2.320   4.069   7.300  3.2270  3.7447 -0.8105
 6027SOL     OW29539   0.823   1.483  15.735 -0.2572  0.0333  0.1257
 6027SOL    HW129540   0.872   1.549  15.685  3.1593 -3.6329 -1.3256
 6027SOL    HW229541   0.851   1.399  15.700  0.4654  0.7391 -0.9863
 6028SOL     OW29542   4.102   1.960   6.490  0.2837 -0.3335 -0.4624
 6028SOL    HW129543   4.188   1.998   6.504  0.3363 -0.1017 -1.4480
 6028SOL    HW229544   4.066   1.962   6.579  0.9336 -0.8352 -0.1849
 6029SOL     OW29545   0.750   2.961   7.694  0.2766 -0.3357 -0.1770
 6029SOL    HW129546   0.827   2.932   7.743  1.1219 -0.4485 -1.5900
 6029SOL    HW229547   0.789   3.006   7.619  2.1123 -0.2696  0.8110
 6030SOL     OW29548   4.288   4.443   9.483 -0.3018 -0.0819  0.2582
 6030SOL    HW129549   4.228   4.426   9.410 -1.0899 -0.7254  1.0546
 6030SOL    HW229550   4.362   4.385   9.465  0.9036  1.7252 -0.6408
 6031SOL     OW29551   4.504   3.206   0.430 -0.4793 -0.7375  0.4313
 6031SOL    HW129552   4.524   3.295   0.398 -2.7927  0.2038  1.5925
 6031SOL    HW229553   4.498   3.214   0.525  3.1237 -0.4373  0.6537
 6032SOL     OW29554   2.866   3.286  11.401 -0.6683 -0.1423  0.0891
 6032SOL    HW129555   2.839   3.197  11.423 -0.2294  0.0864  1.5538
 6032SOL    HW229556   2.796   3.336  11.444 -1.1823 -0.2398 -0.6459
 6033SOL     OW29557   0.094   1.783   2.413 -0.0081 -0.4562 -0.2282
 6033SOL    HW129558   0.168   1.726   2.432 -0.5499 -0.6135  1.4269
 6033SOL    HW229559   0.131   1.834   2.341  1.7989  1.5866  2.1151
 6034SOL     OW29560   1.831   0.734  16.954  0.1900  0.2997 -0.0523
 6034SOL    HW129561   1.798   0.733  16.864 -0.7308 -0.7209  0.3147
 6034SOL    HW229562   1.781   0.663  16.993  1.1346 -2.0785 -3.2427
 6035SOL     OW29563   4.450   3.148   2.484  0.7399 -0.6102  0.1884
 6035SOL    HW129564   4.531   3.153   2.534 -0.6635 -1.4794  2.6050
 6035SOL    HW229565   4.392   3.198   2.542 -0.1892 -0.4740 -0.8651
 6036SOL     OW29566   1.586   1.687   6.637  0.3806 -0.0700 -0.4786
 6036SOL    HW129567   1.532   1.636   6.697  2.9150  1.1775  2.9297
 6036SOL    HW229568   1.615   1.755   6.697 -1.8741 -1.8438  2.6362
 6037SOL     OW29569   3.858   0.316  15.224  0.6438 -0.0419  0.0248
 6037SOL    HW129570   3.861   0.378  15.297  1.6742  0.8457 -0.7714
 6037SOL    HW229571   3.887   0.238  15.272  0.7801  0.4049  0.6763
 6038SOL     OW29572   3.301   0.695   2.022  0.2733  0.1091 -0.2264
 6038SOL    HW129573   3.328   0.783   2.049  1.2220  0.3562 -1.9957
 6038SOL    HW229574   3.371   0.677   1.959 -1.4050 -0.3786 -1.9625
 6039SOL     OW29575   0.372   3.982   8.913 -0.1594  0.1307  0.1141
 6039SOL    HW129576   0.359   3.921   8.840  4.6943 -1.5694  0.6726
 6039SOL    HW229577   0.398   4.056   8.859  1.3088  0.5559  1.3939
 6040SOL     OW29578   2.449   3.792   9.267  0.2592 -0.4533 -0.6487
 6040SOL    HW129579   2.439   3.706   9.307  1.6514  0.5090  1.8066
 6040SOL    HW229580   2.518   3.765   9.207 -0.1039  0.7324 -1.5836
 6041SOL     OW29581   1.083   4.205   5.699  0.5698 -0.0282  0.1668
 6041SOL    HW129582   1.144   4.137   5.727  0.8805 -0.2804 -1.1254
 6041SOL    HW229583   1.010   4.144   5.688 -0.3254  1.1637 -0.4807
 6042SOL     OW29584   4.200   4.558  15.591 -0.2987  0.5695 -0.2025
 6042SOL    HW129585   4.211   4.524  15.502 -1.0706  1.5855 -0.6880
 6042SOL    HW229586   4.252   4.638  15.582  0.4203  0.1288  0.0078
 6043SOL     OW29587   2.397   3.954   8.439  0.2886  0.0507 -0.1122
 6043SOL    HW129588   2.320   3.974   8.385 -0.4806  1.6618  1.6007
 6043SOL    HW229589   2.464   3.986   8.379 -1.4227  1.1849 -1.4307
 6044SOL     OW29590   1.584   2.823   6.997  0.6553 -0.0665  0.3480
 6044SOL    HW129591   1.502   2.848   6.955 -0.6333 -2.7923  1.2113
 6044SOL    HW229592   1.587   2.738   6.953 -1.4691 -0.6819  1.3878
 6045SOL     OW29593   2.711   4.029  15.712 -0.8225 -0.3534  0.1710
 6045SOL    HW129594   2.791   4.062  15.670  0.0773  0.3194  2.4074
 6045SOL    HW229595   2.653   4.019  15.637  0.5797 -2.4861 -0.6284
 6046SOL     OW29596   2.090   0.333   3.639 -0.5124 -0.1716  0.0601
 6046SOL    HW129597   2.120   0.397   3.574  0.0665 -1.1797 -0.6690
 6046SOL    HW229598   2.040   0.282   3.575  0.1566 -1.9703  0.9593
 6047SOL     OW29599   0.655   3.323   2.793 -0.4003  0.3239  0.4422
 6047SOL    HW129600   0.738   3.282   2.771  0.3284  1.8899  0.2614
 6047SOL    HW229601   0.596   3.305   2.720 -2.7087 -0.4943  2.5209
 6048SOL     OW29602   3.006   2.022   2.478  0.0620 -0.0368 -0.2656
 6048SOL    HW129603   3.002   1.958   2.407 -0.4355  0.7016 -0.9009
 6048SOL    HW229604   3.027   2.104   2.432 -0.6454  0.4338  0.2632
 6049SOL     OW29605   0.382   2.732  12.065  0.0942 -0.3207 -0.0958
 6049SOL    HW129606   0.350   2.813  12.105  0.7479 -1.3451  2.4901
 6049SOL    HW229607   0.303   2.683  12.087  0.2406 -1.0793 -1.2315
 6050SOL     OW29608   4.475   0.117   4.045 -0.5870 -0.1143 -0.0228
 6050SOL    HW129609   4.517   0.181   3.988 -1.9695  0.6915 -0.1092
 6050SOL    HW229610   4.523   0.138   4.125 -0.7573 -1.4324  0.4329
 6051SOL     OW29611   4.559   1.879   3.981 -0.1424 -0.6115  0.1165
 6051SOL    HW129612   4.588   1.808   4.040  0.4014  0.9797  1.7590
 6051SOL    HW229613   4.520   1.937   4.046  0.4151  0.3133 -0.3772
 6052SOL     OW29614   3.236   4.479  12.560 -0.3912  0.1109 -0.2372
 6052SOL    HW129615   3.162   4.419  12.548  0.3000 -0.5280 -1.3317
 6052SOL    HW229616   3.240   4.481  12.655  2.1030 -1.3180 -0.3062
 6053SOL     OW29617   3.628   0.916   3.596 -0.4858  0.5588 -0.3452
 6053SOL    HW129618   3.599   1.006   3.579 -0.5904  0.3100 -1.5113
 6053SOL    HW229619   3.542   0.875   3.591 -0.8448  1.1415  1.0246
 6054SOL     OW29620   3.384   3.999   2.149 -0.1489 -0.5993  0.1357
 6054SOL    HW129621   3.346   3.911   2.154  1.4133 -1.0937  3.7608
 6054SOL    HW229622   3.410   4.009   2.241 -0.1771 -0.2316  0.1028
 6055SOL     OW29623   1.053   3.496  12.968 -0.5741 -0.1085 -0.4874
 6055SOL    HW129624   1.023   3.405  12.972 -1.1427  0.0736 -0.6553
 6055SOL    HW229625   1.135   3.491  13.019  0.0045 -2.6617 -1.6528
 6056SOL     OW29626   1.354   0.879  14.828 -0.0201  0.6622 -0.1362
 6056SOL    HW129627   1.293   0.844  14.762 -0.2846  0.4665  0.2099
 6056SOL    HW229628   1.433   0.866  14.775 -1.0372  2.2338 -2.0519
 6057SOL     OW29629   0.986   4.615   6.366  0.4084  0.1022  0.2668
 6057SOL    HW129630   1.007   4.522   6.375  0.6376  0.1311  0.0292
 6057SOL    HW229631   0.947   4.610   6.279  1.1141  1.0440 -0.0988
 6058SOL     OW29632   3.061   3.399   9.917  0.2962  0.0066  0.1474
 6058SOL    HW129633   3.110   3.473   9.882  0.6265  1.8622  4.5864
 6058SOL    HW229634   2.983   3.391   9.861 -1.4189  2.8439  2.1622
 6059SOL     OW29635   0.235   3.013  11.520  0.7096  0.7305 -0.3779
 6059SOL    HW129636   0.282   3.060  11.451  0.8857 -1.9351 -2.0846
 6059SOL    HW229637   0.282   3.038  11.599  0.5507 -0.1279 -0.0148
 6060SOL     OW29638   3.553   2.975  15.312 -0.3687 -0.1820 -0.2862
 6060SOL    HW129639   3.609   2.919  15.258 -1.4617 -3.1797  1.7303
 6060SOL    HW229640   3.616   3.041  15.340  0.6663 -2.2656  2.2718
 6061SOL     OW29641   1.388   0.671   3.306  0.6589  0.4734  0.0615
 6061SOL    HW129642   1.376   0.722   3.386 -1.6226 -0.7695  0.4952
 6061SOL    HW229643   1.483   0.660   3.310  0.5521  0.4046  2.2194
 6062SOL     OW29644   2.983   4.663   8.880 -0.0875  0.1721  0.2292
 6062SOL    HW129645   3.053   4.609   8.844  0.1383 -0.2156  1.2597
 6062SOL    HW229646   3.002   0.019   8.828  1.1797  0.4728  1.1738
 6063SOL     OW29647   2.671   3.438  13.588  0.0891 -0.6850  0.8141
 6063SOL    HW129648   2.687   3.435  13.682 -0.6680 -0.2365  0.9542
 6063SOL    HW229649   2.584   3.477  13.593 -0.4049 -1.7054  0.1132
 6064SOL     OW29650   3.253   1.218   3.948 -0.4141  0.2193  0.3408
 6064SOL    HW129651   3.301   1.295   3.980  0.6421 -0.4551  0.3876
 6064SOL    HW229652   3.312   1.175   3.886  1.0447  1.0669  1.1342
 6065SOL     OW29653   3.118   3.315   2.034  0.1768  0.1812  0.0373
 6065SOL    HW129654   3.112   3.220   2.022  1.7571  0.0519  0.2005
 6065SOL    HW229655   3.078   3.343   1.952 -2.6050 -0.5821  1.1500
 6066SOL     OW29656   0.028   3.391  16.049 -0.8196 -0.5478  0.5861
 6066SOL    HW129657   0.051   3.314  16.100  1.8653 -0.1658 -0.0550
 6066SOL    HW229658   0.006   3.358  15.962 -0.0382 -0.5307  0.3794
 6067SOL     OW29659   4.721   2.599   8.924 -0.5785  0.2581 -0.1686
 6067SOL    HW129660   4.687   2.520   8.966  0.2256  0.0331  0.0586
 6067SOL    HW229661   0.082   2.610   8.969 -0.5848 -2.3830  0.4659
 6068SOL     OW29662   3.478   3.362  10.106  0.2342  0.1612 -0.1062
 6068SOL    HW129663   3.552   3.309  10.136 -1.2238 -1.1141  1.2893
 6068SOL    HW229664   3.489   3.450  10.142 -1.1274  0.7504 -1.1211
 6069SOL     OW29665   1.280   2.106   1.786  0.2333  0.0840  0.1889
 6069SOL    HW129666   1.277   2.201   1.788 -2.5316  0.0282 -0.9991
 6069SOL    HW229667   1.369   2.084   1.757  0.0802 -0.5851  0.2069
 6070SOL     OW29668   2.285   0.456  15.308 -0.0311  0.1134 -0.1922
 6070SOL    HW129669   2.279   0.527  15.243 -1.7353 -0.2322 -0.4086
 6070SOL    HW229670   2.244   0.384  15.261 -3.3966  1.9076 -0.0652
 6071SOL     OW29671   3.351   4.513   7.796  0.6490  0.3440 -1.0996
 6071SOL    HW129672   3.262   4.480   7.801  0.6735  0.4599 -0.0820
 6071SOL    HW229673   3.346   4.589   7.854  3.6588 -2.4003  2.7055
 6072SOL     OW29674   3.652   0.791  15.235  0.2167 -0.0864  0.3773
 6072SOL    HW129675   3.657   0.769  15.328  1.2658 -2.7566 -0.2993
 6072SOL    HW229676   3.707   0.869  15.239  0.1261 -0.0751  1.4600
 6073SOL     OW29677   0.725   4.010  13.033  0.0948  0.1999 -0.5369
 6073SOL    HW129678   0.707   3.916  13.032  1.5910 -0.0749 -1.2825
 6073SOL    HW229679   0.767   4.019  12.948  1.3444 -2.1977 -0.1974
 6074SOL     OW29680   4.081   3.051   1.925  0.3776 -0.0290 -0.2663
 6074SOL    HW129681   4.118   3.096   1.849 -0.3539  0.3177 -0.4114
 6074SOL    HW229682   4.085   2.956   1.914  0.8346  0.0500 -0.7699
 6075SOL     OW29683   3.073   2.787   5.540 -0.6307  0.5196 -0.5157
 6075SOL    HW129684   3.034   2.827   5.618  0.1444 -1.2225  0.7836
 6075SOL    HW229685   3.159   2.763   5.576 -1.2409 -0.9524 -0.0399
 6076SOL     OW29686   4.056   0.241   9.976  0.5970  0.1654 -0.1635
 6076SOL    HW129687   3.988   0.307   9.961  0.1771 -0.9571 -3.0902
 6076SOL    HW229688   4.024   0.215  10.062 -1.9117 -1.5711 -1.6243
 6077SOL     OW29689   3.219   1.252   3.019  0.2037  0.6297 -0.4602
 6077SOL    HW129690   3.272   1.267   3.098 -1.3761  0.8781  0.5475
 6077SOL    HW229691   3.141   1.302   3.045  0.6862  1.0388  0.2136
 6078SOL     OW29692   3.690   4.379   8.546 -0.0625  0.2851  0.0046
 6078SOL    HW129693   3.761   4.429   8.587  0.0304  0.8328 -0.8113
 6078SOL    HW229694   3.719   4.289   8.560 -1.2848 -0.0721  0.2341
 6079SOL     OW29695   0.539   2.558   7.459 -0.1563  0.2470 -0.1241
 6079SOL    HW129696   0.523   2.490   7.524  0.9992  1.4282  1.3881
 6079SOL    HW229697   0.604   2.520   7.400 -1.3092 -1.0902 -0.5330
 6080SOL     OW29698   0.622   4.250   9.899  0.1854 -0.3639  0.0466
 6080SOL    HW129699   0.608   4.344   9.892 -1.9209 -0.5958  1.4524
 6080SOL    HW229700   0.718   4.260   9.902  0.0818  0.9000 -1.1139
 6081SOL     OW29701   1.685   1.883   7.355  0.2559 -0.4385 -0.1593
 6081SOL    HW129702   1.689   1.975   7.384  0.2139 -0.4526 -0.1079
 6081SOL    HW229703   1.739   1.889   7.276  0.0001  0.6368 -0.2588
 6082SOL     OW29704   2.752   4.645   3.981 -0.3618  0.1532 -0.2653
 6082SOL    HW129705   2.772   0.012   4.006 -1.2139  0.1905  0.2726
 6082SOL    HW229706   2.677   4.616   4.034 -0.0960  1.0455  0.5979
 6083SOL     OW29707   0.684   3.941   6.561  0.6117 -0.0521  0.1055
 6083SOL    HW129708   0.740   3.983   6.626 -1.0343 -0.6467  1.9289
 6083SOL    HW229709   0.688   3.850   6.589  1.8124 -0.2097 -0.5742
 6084SOL     OW29710   4.582   2.838   9.670 -0.6868  0.1347  0.3102
 6084SOL    HW129711   4.639   2.793   9.732 -1.7947  0.1143  1.3052
 6084SOL    HW229712   4.580   2.931   9.692  3.3458  0.3283 -0.1592
 6085SOL     OW29713   0.157   3.059   2.777 -0.3406  0.2818  0.2891
 6085SOL    HW129714   0.126   2.969   2.773 -0.5000  0.4084 -1.1087
 6085SOL    HW229715   0.251   3.047   2.762 -0.9525 -2.0503 -1.7458
 6086SOL     OW29716   1.481   4.202  17.110 -0.4320 -0.0529  0.5247
 6086SOL    HW129717   1.481   4.297  17.117 -0.5407  0.0286 -0.6767
 6086SOL    HW229718   1.547   4.196  17.042 -0.7000  0.8515  0.1892
 6087SOL     OW29719   2.294   0.362   2.540  0.2572 -0.1741 -0.2504
 6087SOL    HW129720   2.295   0.451   2.576 -0.5894 -1.0500  1.9433
 6087SOL    HW229721   2.207   0.339   2.575 -0.2115  2.7497  0.5920
 6088SOL     OW29722   3.851   3.226  11.805  0.0945  0.0295  0.2733
 6088SOL    HW129723   3.903   3.188  11.733  0.8049 -1.4689  1.5677
 6088SOL    HW229724   3.877   3.317  11.791  0.5123 -0.3350 -1.3777
 6089SOL     OW29725   2.440   1.003  10.344  0.4756  0.3711 -0.1747
 6089SOL    HW129726   2.351   1.024  10.313  1.7027  0.6566 -3.5229
 6089SOL    HW229727   2.491   1.026  10.267 -1.0840 -1.1372 -1.6831
 6090SOL     OW29728   3.203   1.510   5.297  0.3255 -0.4975  0.1196
 6090SOL    HW129729   3.120   1.485   5.337 -0.4427 -0.8623 -1.7038
 6090SOL    HW229730   3.175   1.586   5.247  1.0858 -0.7919 -0.7449
 6091SOL     OW29731   1.184   1.692   1.253 -0.0847 -0.8662  0.0435
 6091SOL    HW129732   1.163   1.766   1.196 -0.1211 -0.0900  1.0746
 6091SOL    HW229733   1.239   1.646   1.189  0.3112 -2.2311  1.3601
 6092SOL     OW29734   1.516   0.687  13.674 -0.0049 -0.0719  0.4035
 6092SOL    HW129735   1.530   0.745  13.749  0.3854 -0.6467  0.7767
 6092SOL    HW229736   1.561   0.604  13.692  1.1201  0.4396 -0.0241
 6093SOL     OW29737   1.722   1.492  15.635 -0.3061  0.3534 -0.1889
 6093SOL    HW129738   1.787   1.482  15.565 -0.7069 -1.6523 -0.2818
 6093SOL    HW229739   1.779   1.512  15.710 -2.8443  1.1602  1.5150
 6094SOL     OW29740   4.061   1.753   6.069  0.8841 -0.4917  0.5687
 6094SOL    HW129741   4.027   1.728   6.155 -1.9741  0.1666 -0.3767
 6094SOL    HW229742   4.151   1.719   6.066  0.3236 -1.9658  0.4951
 6095SOL     OW29743   1.411   4.281  15.186  0.1378 -0.1072  0.1068
 6095SOL    HW129744   1.353   4.344  15.144  1.6477 -0.4515 -2.4819
 6095SOL    HW229745   1.383   4.192  15.167  1.0054 -0.2999 -0.2293
 6096SOL     OW29746   2.929   3.518   7.868  0.1798 -0.7241  0.1386
 6096SOL    HW129747   2.939   3.463   7.790 -0.4283  0.2804 -0.6497
 6096SOL    HW229748   2.898   3.458   7.936  1.5244 -0.0863  1.3189
 6097SOL     OW29749   0.369   1.920   3.326 -0.0919  0.6273 -0.1279
 6097SOL    HW129750   0.456   1.911   3.287  0.8704 -0.4627  2.2734
 6097SOL    HW229751   0.383   1.990   3.389  0.5743 -2.3902  3.0459
 6098SOL     OW29752   3.008   0.706  13.009  0.1305 -0.2291 -0.5999
 6098SOL    HW129753   2.954   0.695  13.087 -0.5549  0.3734 -0.9976
 6098SOL    HW229754   3.090   0.700  13.059 -1.5771 -1.4890  2.0064
 6099SOL     OW29755   2.927   1.410   4.413 -0.5518 -0.2908 -0.2367
 6099SOL    HW129756   2.973   1.373   4.488  0.4386  1.4381 -0.0132
 6099SOL    HW229757   2.841   1.367   4.416  0.4561 -2.3008  0.0427
 6100SOL     OW29758   2.687   4.322  12.441 -0.2758 -0.8769  0.5795
 6100SOL    HW129759   2.633   4.245  12.461 -0.7481 -1.0289 -1.2985
 6100SOL    HW229760   2.742   4.330  12.519 -0.2639 -0.7096  0.5530
 6101SOL     OW29761   3.709   0.987   2.154  0.7639 -0.0746  0.2290
 6101SOL    HW129762   3.737   0.917   2.213 -0.5296  0.9288  2.0184
 6101SOL    HW229763   3.743   1.067   2.194  0.5106  0.6341 -0.9639
 6102SOL     OW29764   3.382   1.718   5.063  0.7688  0.1733 -0.0959
 6102SOL    HW129765   3.344   1.676   4.986  0.0884  1.6483 -0.5751
 6102SOL    HW229766   3.438   1.780   5.015 -1.4276  1.1244 -1.4157
 6103SOL     OW29767   3.647   2.608   5.160  0.0244  0.2614  0.2460
 6103SOL    HW129768   3.646   2.518   5.128 -2.2236 -0.0003  1.0158
 6103SOL    HW229769   3.649   2.654   5.076  2.1017 -0.2888  0.0031
 6104SOL     OW29770   1.981   4.693   5.435  0.8284 -0.4385 -0.8035
 6104SOL    HW129771   2.036   4.625   5.395  0.7443 -1.3497  0.6510
 6104SOL    HW229772   1.908   4.637   5.460  0.1152  0.8735  0.0220
 6105SOL     OW29773   3.307   4.443  17.678  0.2247 -0.0159 -0.3488
 6105SOL    HW129774   3.260   4.406   0.058 -3.9047  1.2421 -2.3066
 6105SOL    HW229775   3.274   4.533  17.687 -0.1635 -0.1823 -0.0846
 6106SOL     OW29776   1.130   0.567  10.124 -0.0072  0.0502  0.0828
 6106SOL    HW129777   1.142   0.539  10.033 -1.0786  1.8293 -0.6105
 6106SOL    HW229778   1.221   0.554  10.150 -0.5203  1.0902  2.3937
 6107SOL     OW29779   4.463   3.095   5.444 -0.1664 -0.0172  0.5105
 6107SOL    HW129780   4.525   3.145   5.391  0.4154  0.5497  1.7130
 6107SOL    HW229781   4.403   3.061   5.378  1.0467  0.7154 -0.9933
 6108SOL     OW29782   2.094   4.645  12.243 -0.2913 -0.4113  0.0662
 6108SOL    HW129783   2.049   0.003  12.220  0.2257 -0.5580 -1.4304
 6108SOL    HW229784   2.015   4.599  12.274 -1.1242  1.2756  0.4600
 6109SOL     OW29785   3.147   2.921   6.165  0.0669 -0.4990 -0.2103
 6109SOL    HW129786   3.112   2.891   6.249 -0.4716 -2.0019 -0.9606
 6109SOL    HW229787   3.229   2.958   6.199 -1.6538  0.2381  3.1310
 6110SOL     OW29788   1.995   2.685  14.970 -0.3032  0.1433  0.1341
 6110SOL    HW129789   1.972   2.698  14.879 -3.0706  0.1504  0.8482
 6110SOL    HW229790   1.931   2.747  15.006 -0.6310  0.0826 -0.3609
 6111SOL     OW29791   0.591   1.796   2.665  0.2628 -0.1086  0.2286
 6111SOL    HW129792   0.635   1.735   2.605 -0.4160 -1.4820  1.1218
 6111SOL    HW229793   0.655   1.866   2.659  0.7361 -0.7492 -2.4194
 6112SOL     OW29794   0.413   1.844   6.915  0.0699  0.5282  0.2008
 6112SOL    HW129795   0.503   1.825   6.941  0.0397 -1.2191 -1.0279
 6112SOL    HW229796   0.361   1.805   6.985  1.3832 -0.9129  0.3744
 6113SOL     OW29797   4.412   4.641  10.837  0.5059  0.4905 -0.0899
 6113SOL    HW129798   4.399   4.546  10.839 -0.1601  0.5045 -2.6737
 6113SOL    HW229799   4.392   4.657  10.744  1.5760 -1.0730 -0.5943
 6114SOL     OW29800   2.194   4.480   3.467  0.0657 -0.1154  0.9484
 6114SOL    HW129801   2.214   4.574   3.466  3.6385 -0.8945 -0.5159
 6114SOL    HW229802   2.245   4.451   3.392 -0.2525 -0.0761  0.7147
 6115SOL     OW29803   2.211   1.563   3.865 -0.0171 -0.4743  0.7576
 6115SOL    HW129804   2.284   1.579   3.925  0.2462  1.2914 -0.0436
 6115SOL    HW229805   2.266   1.512   3.806  0.7373  0.4948  0.6291
 6116SOL     OW29806   3.787   3.800   6.825  0.4187 -0.1230 -0.5895
 6116SOL    HW129807   3.752   3.821   6.912  0.5495  0.8256 -0.7676
 6116SOL    HW229808   3.708   3.806   6.772  0.7117  1.9718 -0.7838
 6117SOL     OW29809   2.596   2.283  16.797  0.2707 -0.6926  0.1352
 6117SOL    HW129810   2.515   2.239  16.825 -0.0693 -0.3158 -0.2494
 6117SOL    HW229811   2.656   2.257  16.867  1.0888  0.4665 -0.1485
 6118SOL     OW29812   2.161   3.307   4.983 -0.4121  0.1225 -0.0890
 6118SOL    HW129813   2.133   3.266   5.065  2.9248 -0.0361  1.0026
 6118SOL    HW229814   2.248   3.341   5.005 -1.3625  2.6776 -0.1809
 6119SOL     OW29815   0.376   1.892   3.691 -0.2692 -0.7207  0.7394
 6119SOL    HW129816   0.380   1.968   3.634 -1.9241 -0.9364  0.3439
 6119SOL    HW229817   0.287   1.897   3.728  0.5903 -3.4514  3.2181
 6120SOL     OW29818   2.586   1.313   6.441  0.1823  0.4182  0.1624
 6120SOL    HW129819   2.659   1.295   6.500 -0.6502 -0.9000  0.7673
 6120SOL    HW229820   2.619   1.291   6.354 -1.0378 -2.1217  0.3599
 6121SOL     OW29821   4.587   1.944   5.214 -0.1865 -0.2327 -0.0838
 6121SOL    HW129822   4.656   1.998   5.174  0.5576  1.0736  2.9097
 6121SOL    HW229823   4.516   1.943   5.150 -1.6839  1.7036  1.5623
 6122SOL     OW29824   1.433   4.439   5.953  0.0997  0.3501  0.3225
 6122SOL    HW129825   1.489   4.361   5.958 -1.1496 -0.5202  0.5907
 6122SOL    HW229826   1.506   4.496   5.927  0.8547 -0.3722  0.8578
 6123SOL     OW29827   2.952   1.344   3.096 -0.6861  0.5891 -0.4439
 6123SOL    HW129828   2.949   1.435   3.068  0.5653  1.1040  1.1317
 6123SOL    HW229829   2.891   1.352   3.170  0.0651 -0.3181  0.2725
 6124SOL     OW29830   1.448   2.986  10.674  0.1473  0.0576 -0.1246
 6124SOL    HW129831   1.352   2.981  10.673  0.2366 -1.6163  0.6856
 6124SOL    HW229832   1.459   3.011  10.765  1.5744  2.6654 -1.0125
 6125SOL     OW29833   0.635   1.715  15.960 -0.4176  0.0288  0.5213
 6125SOL    HW129834   0.700   1.728  15.891 -1.1085 -4.6145 -0.9743
 6125SOL    HW229835   0.660   1.624  15.972 -0.5999 -0.1744 -0.6892
 6126SOL     OW29836   2.259   1.125  10.645 -0.1921 -0.1935  0.2988
 6126SOL    HW129837   2.224   1.129  10.734  0.3117 -1.1952  0.5457
 6126SOL    HW229838   2.194   1.181  10.602 -0.5894  1.6236  3.3251
 6127SOL     OW29839   2.565   3.891   7.265 -0.0968 -0.2385 -0.0116
 6127SOL    HW129840   2.611   3.974   7.264  1.2386 -1.0258 -2.1447
 6127SOL    HW229841   2.629   3.835   7.309  0.2489  2.0183  2.3240
 6128SOL     OW29842   3.761   1.405   6.746 -0.6044 -0.5561 -0.4569
 6128SOL    HW129843   3.758   1.309   6.752  1.4307 -0.8045 -3.4211
 6128SOL    HW229844   3.845   1.419   6.788 -1.2336  0.8242  0.3430
 6129SOL     OW29845   3.016   1.244   7.094  0.1924  0.7680 -0.3633
 6129SOL    HW129846   3.002   1.171   7.154 -1.9898 -0.1877 -2.0457
 6129SOL    HW229847   3.063   1.311   7.144  1.6072  0.6673 -1.5640
 6130SOL     OW29848   0.842   0.915   2.568  0.2011 -0.3365  0.8405
 6130SOL    HW129849   0.755   0.924   2.606  0.8007  2.6471  1.5359
 6130SOL    HW229850   0.890   0.981   2.618 -0.1643  0.3019  0.3501
 6131SOL     OW29851   4.708   1.414   6.019 -0.1695  0.2357  0.2272
 6131SOL    HW129852   4.628   1.361   6.025  0.6599 -1.0335 -0.1339
 6131SOL    HW229853   4.705   1.454   6.106  0.4840 -1.0015  0.8058
 6132SOL     OW29854   1.508   0.689  17.260 -0.2925 -0.0260 -0.1288
 6132SOL    HW129855   1.419   0.658  17.278 -0.3814 -0.5776 -1.5586
 6132SOL    HW229856   1.532   0.615  17.205 -2.8877  0.1782 -1.5370
 6133SOL     OW29857   2.471   2.575   2.255  0.2758 -0.0711  0.0099
 6133SOL    HW129858   2.399   2.514   2.270  0.9896 -0.9630 -0.2116
 6133SOL    HW229859   2.495   2.567   2.163 -1.4415  1.6582 -0.6001
 6134SOL     OW29860   3.731   3.909   3.642 -0.0158 -0.2531  0.4487
 6134SOL    HW129861   3.697   3.876   3.559 -3.1874 -1.6472  2.3374
 6134SOL    HW229862   3.702   3.999   3.630 -0.7487 -0.6749 -1.0440
 6135SOL     OW29863   0.417   0.522   4.274 -0.5793 -0.5117 -0.2121
 6135SOL    HW129864   0.485   0.576   4.234 -1.0852 -0.5430 -1.1058
 6135SOL    HW229865   0.363   0.597   4.298  1.0184  0.4830  0.3443
 6136SOL     OW29866   0.098   1.192   4.212  0.0856  0.1465 -0.3336
 6136SOL    HW129867   0.124   1.122   4.152 -0.6476  0.2423 -0.7553
 6136SOL    HW229868   0.100   1.268   4.154 -0.9538  1.0542  0.8366
 6137SOL     OW29869   3.450   3.582   3.762  0.4348 -0.4933  0.5418
 6137SOL    HW129870   3.390   3.541   3.823  0.5901 -2.0198 -0.3256
 6137SOL    HW229871   3.426   3.673   3.779 -1.7403 -0.8608 -0.4742
 6138SOL     OW29872   0.057   2.090   1.403  0.0598 -0.1463 -0.2868
 6138SOL    HW129873   0.145   2.057   1.415 -0.3915 -1.8503 -1.7153
 6138SOL    HW229874   0.021   2.036   1.333 -0.0397 -3.2682  2.1699
 6139SOL     OW29875   2.553   0.406  15.416 -0.1988  0.5405  0.2547
 6139SOL    HW129876   2.465   0.441  15.403 -0.8163 -1.5824 -1.2178
 6139SOL    HW229877   2.587   0.414  15.327 -1.6547  1.3661 -0.2142
 6140SOL     OW29878   0.158   0.639   7.226 -0.1007  0.4897  0.0041
 6140SOL    HW129879   0.187   0.731   7.223  0.4328  0.2915 -0.7581
 6140SOL    HW229880   0.234   0.602   7.271  1.2581  1.1488 -1.7475
 6141SOL     OW29881   2.324   3.411   2.667 -0.0952 -0.1371 -0.2770
 6141SOL    HW129882   2.349   3.354   2.740 -1.1963 -0.2701 -0.0140
 6141SOL    HW229883   2.231   3.392   2.665 -0.5474  1.9078  1.5826
 6142SOL     OW29884   1.936   2.657   6.390  0.3074 -0.7354  0.4255
 6142SOL    HW129885   1.844   2.677   6.374  0.9803  0.6371 -1.7354
 6142SOL    HW229886   1.965   2.623   6.306 -0.5539 -0.7407  0.1318
 6143SOL     OW29887   2.133   1.952   9.555  0.5538  0.0433  0.1887
 6143SOL    HW129888   2.041   1.939   9.530 -0.2693 -0.6774  3.5739
 6143SOL    HW229889   2.133   2.046   9.570  0.5068 -0.0677  0.8927
 6144SOL     OW29890   3.845   4.687   9.801 -0.3308 -0.7618  0.3547
 6144SOL    HW129891   3.777   0.024   9.771 -0.1052 -0.4335  0.4966
 6144SOL    HW229892   3.846   4.626   9.727 -2.6381 -1.5809  0.9926
 6145SOL     OW29893   2.798   1.438  10.988  0.0344  0.1097 -0.2279
 6145SOL    HW129894   2.797   1.466  11.080 -0.7455  0.8937 -0.4722
 6145SOL    HW229895   2.813   1.523  10.946 -2.1259 -0.2655 -1.7354
 6146SOL     OW29896   3.037   1.129   7.336  0.7279  0.2496  0.1910
 6146SOL    HW129897   3.131   1.144   7.323  0.4686  0.5005 -1.2815
 6146SOL    HW229898   3.034   1.082   7.420 -0.3561 -0.8428 -0.4691
 6147SOL     OW29899   4.616   0.771  10.467  0.1526  0.4080  0.4306
 6147SOL    HW129900   4.687   0.708  10.454  0.6207  0.9177  0.5086
 6147SOL    HW229901   4.662   0.850  10.440  0.3197 -0.7308 -2.6186
 6148SOL     OW29902   4.141   3.718   3.046  0.1522 -0.4793 -0.2909
 6148SOL    HW129903   4.172   3.778   3.114 -0.4344 -0.0413 -0.3993
 6148SOL    HW229904   4.057   3.693   3.085 -0.1921 -1.5442 -1.7087
 6149SOL     OW29905   0.011   2.839  15.368 -0.2390  0.3735 -0.6467
 6149SOL    HW129906   4.680   2.802  15.437 -1.1235  1.8474 -0.5465
 6149SOL    HW229907   4.700   2.928  15.365 -1.0813 -0.0144 -2.7202
 6150SOL     OW29908   2.258   3.383  10.396 -0.5515 -0.1683  0.2186
 6150SOL    HW129909   2.346   3.381  10.360 -0.4782 -0.4907  0.4219
 6150SOL    HW229910   2.212   3.403  10.314  0.2144 -0.0386 -0.1790
 6151SOL     OW29911   0.428   3.321   2.967 -0.0033 -0.1343  0.0774
 6151SOL    HW129912   0.382   3.371   2.900  0.9798  1.4534  0.5785
 6151SOL    HW229913   0.515   3.310   2.929 -0.6133 -1.4683 -0.9305
 6152SOL     OW29914   3.600   2.399   7.949 -0.6892  0.9092 -0.2253
 6152SOL    HW129915   3.574   2.411   7.858 -1.8703 -0.7019 -0.1199
 6152SOL    HW229916   3.518   2.389   7.997 -0.1082  1.5409  0.8982
 6153SOL     OW29917   2.908   1.911   0.560 -0.1220 -0.2285 -0.5869
 6153SOL    HW129918   2.818   1.883   0.545 -0.6199  0.4059  1.2097
 6153SOL    HW229919   2.947   1.879   0.478  1.4056  1.4025 -0.5073
 6154SOL     OW29920   4.280   2.924   0.072 -0.6846  0.1764 -0.3571
 6154SOL    HW129921   4.189   2.943   0.095 -0.8362  0.3372 -1.0610
 6154SOL    HW229922   4.277   2.890  17.677  0.4879 -0.9374  0.0317
 6155SOL     OW29923   0.209   2.397   7.730 -0.3498  0.1194 -0.4860
 6155SOL    HW129924   0.298   2.392   7.765  0.9068 -1.2512 -3.8823
 6155SOL    HW229925   0.188   2.490   7.737  1.0185  0.1825  3.1537
 6156SOL     OW29926   1.214   3.209   8.778  0.8495 -0.2329  0.0935
 6156SOL    HW129927   1.167   3.150   8.720 -1.8012 -0.1421  2.1626
 6156SOL    HW229928   1.276   3.229   8.707  1.2358  2.0685  1.0907
 6157SOL     OW29929   1.236   3.118  16.858 -0.3595 -0.0668  0.7873
 6157SOL    HW129930   1.250   3.023  16.856  1.1879  0.1848  0.2175
 6157SOL    HW229931   1.226   3.134  16.765  0.6677  2.1905  1.0793
 6158SOL     OW29932   1.245   1.440   6.733 -0.1234 -0.3201  0.2395
 6158SOL    HW129933   1.236   1.530   6.702 -0.8093  0.4472  2.6051
 6158SOL    HW229934   1.173   1.389   6.696  0.4288 -1.8892  1.3259
 6159SOL     OW29935   0.868   4.567   1.019  0.1562 -0.6688 -0.4002
 6159SOL    HW129936   0.845   4.637   0.959 -0.2992  0.8149  1.4823
 6159SOL    HW229937   0.942   4.608   1.066 -2.0113  0.7422  1.7917
 6160SOL     OW29938   3.956   2.776   2.151 -0.5298 -0.2597  0.2374
 6160SOL    HW129939   4.027   2.767   2.088  0.1280 -1.3499  1.1425
 6160SOL    HW229940   3.882   2.733   2.110 -0.8716  1.6517 -1.1482
 6161SOL     OW29941   2.901   3.536   4.576 -0.6031  0.1561  0.7314
 6161SOL    HW129942   2.877   3.496   4.492 -0.1412  1.6983 -0.1503
 6161SOL    HW229943   2.897   3.457   4.629 -0.4687 -0.3909 -0.0704
 6162SOL     OW29944   4.332   2.732   5.104  0.7555  0.1233  0.7416
 6162SOL    HW129945   4.404   2.733   5.041 -1.2432 -0.3952 -1.5322
 6162SOL    HW229946   4.371   2.719   5.191  1.8698 -2.8384 -0.2085
 6163SOL     OW29947   3.699   4.506   6.251  0.2786  0.2603  0.1272
 6163SOL    HW129948   3.739   4.524   6.336 -1.1647  4.0123 -0.0162
 6163SOL    HW229949   3.609   4.530   6.276 -0.3573 -1.4742 -0.5005
 6164SOL     OW29950   4.231   1.228   3.782 -0.0166  0.8737 -0.2572
 6164SOL    HW129951   4.138   1.211   3.797  0.1042 -0.4916 -1.0751
 6164SOL    HW229952   4.225   1.301   3.721 -0.5907  0.0491 -1.1822
 6165SOL     OW29953   4.713   1.704   5.036  0.3789  0.4099  0.0315
 6165SOL    HW129954   4.645   1.769   5.016 -0.9300 -1.8895 -2.9687
 6165SOL    HW229955   0.061   1.727   4.977 -0.5195  1.8877 -0.4897
 6166SOL     OW29956   0.576   0.002   8.362  0.1403 -0.2644  0.0368
 6166SOL    HW129957   0.512   0.052   8.312 -0.1032 -0.0894  0.5152
 6166SOL    HW229958   0.589   0.061   8.437 -0.4634  0.2868 -0.2950
 6167SOL     OW29959   1.321   3.327   6.441  0.4760  0.2772 -0.1863
 6167SOL    HW129960   1.235   3.339   6.481 -0.4094 -0.2860 -1.9005
 6167SOL    HW229961   1.345   3.236   6.459  0.5305  0.5778  1.2999
 6168SOL     OW29962   1.530   3.361   7.008  0.1052  0.1487 -0.3470
 6168SOL    HW129963   1.465   3.305   6.967  1.1050 -1.1637 -0.1272
 6168SOL    HW229964   1.602   3.308   6.974  0.4737  0.3757  0.0806
 6169SOL     OW29965   1.036   2.044   7.843 -0.2763 -0.1477 -0.5981
 6169SOL    HW129966   1.009   2.050   7.935  0.2045 -1.8073 -0.3486
 6169SOL    HW229967   1.006   2.124   7.799  0.7632 -1.0597 -2.9931
 6170SOL     OW29968   0.224   2.986  13.513 -0.4110 -0.4979 -0.6173
 6170SOL    HW129969   0.144   2.947  13.476 -0.1273  0.1078 -1.8492
 6170SOL    HW229970   0.287   2.918  13.489  0.6154 -0.7075  2.5952
 6171SOL     OW29971   1.180   0.532  16.891  0.3923  0.2573 -0.0869
 6171SOL    HW129972   1.128   0.588  16.948 -2.8738  0.9945 -3.7167
 6171SOL    HW229973   1.178   0.585  16.811  1.8948  0.0310 -0.2725
 6172SOL     OW29974   3.467   4.128   2.855 -0.4131 -0.0277 -0.4389
 6172SOL    HW129975   3.440   4.067   2.924  0.2690 -1.2888 -1.2913
 6172SOL    HW229976   3.496   4.075   2.781  1.9442  0.7003 -0.0382
 6173SOL     OW29977   0.155   1.667   5.661  0.4036  0.6405 -0.3344
 6173SOL    HW129978   0.100   1.595   5.691  1.3124 -0.5044 -1.4244
 6173SOL    HW229979   0.233   1.619   5.633 -0.2527 -0.4931 -0.2095
 6174SOL     OW29980   2.144   4.341  16.676  0.0422 -0.2471  0.5915
 6174SOL    HW129981   2.077   4.273  16.676 -0.0546 -0.1572 -1.5543
 6174SOL    HW229982   2.121   4.382  16.759 -0.1144 -0.6686  0.7560
 6175SOL     OW29983   1.933   2.517   7.317 -0.5682  0.7138 -0.2766
 6175SOL    HW129984   1.960   2.464   7.242  0.4764 -0.6697  1.0695
 6175SOL    HW229985   2.018   2.545   7.352 -1.4988  0.2020  2.4056
 6176SOL     OW29986   2.674   0.961   3.068 -0.7035  0.1202  0.5632
 6176SOL    HW129987   2.726   0.880   3.062 -1.9499 -0.4467 -2.5780
 6176SOL    HW229988   2.718   1.016   3.003 -0.9110 -1.0882 -0.6135
 6177SOL     OW29989   2.934   1.207  17.137  0.5107 -0.4206 -0.7262
 6177SOL    HW129990   3.000   1.206  17.067  2.7678 -0.0064  1.3998
 6177SOL    HW229991   2.850   1.182  17.100 -0.1286  1.0156 -0.2253
 6178SOL     OW29992   4.140   0.135   1.309  0.2757  0.2670 -0.1610
 6178SOL    HW129993   4.081   0.153   1.382  0.5381 -2.0866  0.6439
 6178SOL    HW229994   4.200   0.076   1.354 -1.7526 -0.8684  1.1083
 6179SOL     OW29995   2.676   3.173   1.826  0.4634 -0.7451  0.4680
 6179SOL    HW129996   2.614   3.103   1.802  0.5147  0.0169 -1.8643
 6179SOL    HW229997   2.760   3.129   1.818  0.5527 -0.4555 -0.1294
 6180SOL     OW29998   3.955   4.025   9.919 -0.5170 -0.1412  0.0942
 6180SOL    HW129999   3.978   4.104   9.968 -0.2433 -0.4478  0.4541
 6180SOL    HW230000   3.875   3.999   9.964  1.1548 -3.1532  1.2753
 6181SOL     OW30001   3.733   1.513  10.402 -0.3075 -0.2771 -0.4292
 6181SOL    HW130002   3.697   1.486  10.318 -0.7155 -1.3417  0.0801
 6181SOL    HW230003   3.825   1.489  10.392 -0.4672 -1.3042  0.4765
 6182SOL     OW30004   3.848   3.948  17.642 -0.4661  0.4768  0.1763
 6182SOL    HW130005   3.813   4.010   0.011 -3.1825  0.1476 -0.9735
 6182SOL    HW230006   3.770   3.946  17.586 -0.0182  2.8361 -0.5342
 6183SOL     OW30007   2.314   3.679   1.432 -0.3180  0.2155  0.0439
 6183SOL    HW130008   2.362   3.619   1.374 -1.9672 -0.3945 -0.6732
 6183SOL    HW230009   2.232   3.700   1.388 -0.9796  0.3366  1.3382
 6184SOL     OW30010   3.896   3.317   5.422  0.4672  0.4288  0.5814
 6184SOL    HW130011   3.989   3.295   5.425  0.9089  2.2590  0.5611
 6184SOL    HW230012   3.889   3.391   5.483  1.1122 -0.2419  1.4681
 6185SOL     OW30013   3.048   4.514   6.075  0.0261 -0.1866  0.5179
 6185SOL    HW130014   3.109   4.529   6.003 -0.3451  2.4085  0.7588
 6185SOL    HW230015   2.997   4.595   6.069 -1.4157 -1.2579 -1.6858
 6186SOL     OW30016   3.897   2.864   2.490 -0.0815  0.0983 -0.6433
 6186SOL    HW130017   3.867   2.833   2.405 -0.3987 -0.2508 -0.4021
 6186SOL    HW230018   3.817   2.858   2.541 -0.4149  1.0990 -1.0530
 6187SOL     OW30019   2.360   2.330   6.023  0.3221 -0.3083 -0.3137
 6187SOL    HW130020   2.450   2.329   5.992  0.7282  0.1526  0.8461
 6187SOL    HW230021   2.349   2.417   6.062  1.2691 -0.2217 -0.2512
 6188SOL     OW30022   2.828   2.596   9.479 -0.1323 -0.1451 -0.0403
 6188SOL    HW130023   2.760   2.578   9.545  0.2308  1.0311  0.6485
 6188SOL    HW230024   2.779   2.609   9.397  0.6597  0.8182 -0.3577
 6189SOL     OW30025   3.664   0.885   4.158 -0.1306  0.6095  0.0002
 6189SOL    HW130026   3.643   0.976   4.136 -0.3940  0.3753 -0.6992
 6189SOL    HW230027   3.744   0.881   4.105 -0.0636  0.4208  0.1167
 6190SOL     OW30028   3.103   3.802   6.024 -0.0519 -0.0890 -0.1496
 6190SOL    HW130029   3.035   3.801   5.957 -1.4019 -0.3897  1.2201
 6190SOL    HW230030   3.059   3.734   6.076 -0.3462  0.1377 -0.0974
 6191SOL     OW30031   1.889   0.175  17.506  0.0766  0.0127  0.1808
 6191SOL    HW130032   1.875   0.081  17.520 -0.2049 -0.5193 -3.6694
 6191SOL    HW230033   1.977   0.173  17.469  0.3882  4.8476  0.5976
 6192SOL     OW30034   0.671   1.605  10.170  0.1188 -0.3955 -0.3312
 6192SOL    HW130035   0.668   1.677  10.233 -2.6067  2.5646 -3.9030
 6192SOL    HW230036   0.582   1.603  10.136  0.4198 -3.1428 -0.9931
 6193SOL     OW30037   2.871   3.111  10.156 -0.9153 -0.8462 -0.6486
 6193SOL    HW130038   2.849   3.092  10.065  0.7878  0.3915 -1.3050
 6193SOL    HW230039   2.966   3.111  10.149 -0.4558  1.4552  5.0014
 6194SOL     OW30040   4.388   3.888   9.899  0.3236 -1.0096 -0.2127
 6194SOL    HW130041   4.387   3.896   9.995 -0.2313 -0.6554 -0.2527
 6194SOL    HW230042   4.374   3.793   9.892 -0.7412 -1.0122  1.8839
 6195SOL     OW30043   0.371   2.115   3.557 -0.2844  0.1457 -0.1080
 6195SOL    HW130044   0.305   2.138   3.492 -0.2858  1.2426  0.2842
 6195SOL    HW230045   0.449   2.160   3.525 -0.0725 -1.8906 -2.5052
 6196SOL     OW30046   4.452   2.391   4.103 -0.1651  0.3334 -0.2475
 6196SOL    HW130047   4.445   2.426   4.192  0.4379 -2.5467  0.9198
 6196SOL    HW230048   4.361   2.375   4.077  0.6193  0.0678 -2.8123
 6197SOL     OW30049   2.636   1.790   0.552 -0.6603  0.0230  0.2226
 6197SOL    HW130050   2.578   1.810   0.478 -1.1284  0.6699  0.7752
 6197SOL    HW230051   2.573   1.785   0.624  0.9208  2.1045  1.7472
 6198SOL     OW30052   0.319   3.977   3.474 -0.5791  0.0096  0.1245
 6198SOL    HW130053   0.408   3.950   3.495 -0.6777 -0.4107 -0.0006
 6198SOL    HW230054   0.334   4.062   3.431  0.2559  0.0576  0.5100
 6199SOL     OW30055   3.365   4.021  14.001 -1.1495 -0.5279  0.4860
 6199SOL    HW130056   3.285   3.969  14.009 -0.3614 -1.6186  1.2653
 6199SOL    HW230057   3.430   3.966  14.044 -0.7127  0.5672  1.2390
 6200SOL     OW30058   2.354   0.276   2.931  0.0368  0.0113 -0.5891
 6200SOL    HW130059   2.291   0.252   2.864 -3.5388  2.6557  1.8306
 6200SOL    HW230060   2.358   0.198   2.986  2.1781 -0.1647 -0.9968
 6201SOL     OW30061   3.512   3.403  13.821 -0.2419  0.5932 -0.1266
 6201SOL    HW130062   3.482   3.474  13.877 -2.0079  0.1347 -0.4748
 6201SOL    HW230063   3.595   3.441  13.793  0.1714  0.1170  0.4348
 6202SOL     OW30064   0.177   0.620   8.387  0.0245  0.0825  0.1774
 6202SOL    HW130065   0.139   0.669   8.460 -0.0833 -0.8393  0.7467
 6202SOL    HW230066   0.145   0.536   8.420  1.5276 -0.1257  1.0952
 6203SOL     OW30067   3.074   0.917   5.704  0.2293 -0.1815  0.3002
 6203SOL    HW130068   3.107   0.831   5.730  0.9084  0.2183  0.7305
 6203SOL    HW230069   2.985   0.888   5.681 -0.3153  2.5819 -1.0348
 6204SOL     OW30070   0.335   2.040  10.304  0.0496  0.5119 -0.3223
 6204SOL    HW130071   0.304   2.035  10.395  1.6425  0.0754  0.2132
 6204SOL    HW230072   0.263   2.099  10.282  0.0318  0.0519 -1.4673
 6205SOL     OW30073   4.004   4.589   8.338 -0.1298  0.1832 -0.8508
 6205SOL    HW130074   4.042   4.535   8.268 -2.5985 -1.8559 -0.6196
 6205SOL    HW230075   4.005   4.520   8.405  2.8530 -0.4825 -1.5643
 6206SOL     OW30076   2.335   1.089  11.463 -0.3610 -0.2778 -0.1073
 6206SOL    HW130077   2.382   1.171  11.448  2.3646 -2.1941 -2.0386
 6206SOL    HW230078   2.361   1.058  11.550 -1.8311  1.2202  0.8624
 6207SOL     OW30079   4.030   2.950   9.342 -0.8236  0.3902  0.0914
 6207SOL    HW130080   4.087   3.015   9.382 -1.2947  1.0257 -0.2586
 6207SOL    HW230081   3.971   2.920   9.411  0.7966 -0.8808  0.9060
 6208SOL     OW30082   2.799   2.065   2.762  0.1782 -0.4807 -0.1959
 6208SOL    HW130083   2.817   2.147   2.715 -1.7106  1.5158  2.5565
 6208SOL    HW230084   2.863   2.062   2.833  1.3750 -0.8796 -1.2874
 6209SOL     OW30085   3.461   2.807   4.817 -0.8269  0.1231 -0.4254
 6209SOL    HW130086   3.515   2.886   4.817 -1.3030  0.4465 -0.9855
 6209SOL    HW230087   3.369   2.826   4.838 -0.2673  1.1823  1.1095
 6210SOL     OW30088   2.707   1.891  12.898 -0.0138  0.1650  0.3066
 6210SOL    HW130089   2.749   1.917  12.816  0.3171 -2.0078 -0.2088
 6210SOL    HW230090   2.616   1.879  12.869 -0.4799  0.4693  1.6469
 6211SOL     OW30091   3.936   1.778  11.584 -0.4498  0.3462  0.4521
 6211SOL    HW130092   3.966   1.712  11.647 -1.5895 -2.0903 -1.5384
 6211SOL    HW230093   3.893   1.844  11.638  0.2405  1.7154 -0.6641
 6212SOL     OW30094   2.320   1.119   3.472  0.1040  0.1987 -0.3354
 6212SOL    HW130095   2.296   1.043   3.525  0.4264  0.1265 -0.2919
 6212SOL    HW230096   2.245   1.175   3.490  0.1371 -0.0411  0.5329
 6213SOL     OW30097   1.316   3.791   0.717  0.0307  0.1846 -0.0462
 6213SOL    HW130098   1.393   3.833   0.754  0.0420  0.9209 -0.9376
 6213SOL    HW230099   1.260   3.833   0.782  0.4676  0.9613 -0.1837
 6214SOL     OW30100   2.913   2.997  17.109 -0.0499  0.2422 -0.9106
 6214SOL    HW130101   2.837   3.049  17.137  1.5445  1.2615  1.5208
 6214SOL    HW230102   2.929   2.943  17.186 -4.0854 -0.0080 -0.2247
 6215SOL     OW30103   2.944   3.371   2.675 -0.3411  0.1964 -0.0948
 6215SOL    HW130104   2.866   3.386   2.729 -0.7374 -0.1280 -0.5830
 6215SOL    HW230105   3.001   3.418   2.737 -0.8137 -0.5596  0.9157
 6216SOL     OW30106   1.930   4.238   1.435 -0.5496 -0.2287 -0.0074
 6216SOL    HW130107   2.019   4.204   1.438 -0.1170  0.8271 -0.5372
 6216SOL    HW230108   1.915   4.271   1.524 -1.6891  0.2175 -0.3642
 6217SOL     OW30109   1.594   0.121  14.450 -0.1357 -0.0130 -0.8816
 6217SOL    HW130110   1.562   0.164  14.529  2.4893 -1.4229  0.9155
 6217SOL    HW230111   1.512   0.094  14.407  0.6338 -1.8192 -1.2131
 6218SOL     OW30112   4.640   4.234   6.805 -0.1871  0.1310  0.4985
 6218SOL    HW130113   4.553   4.266   6.781  0.9090  1.7833 -1.2598
 6218SOL    HW230114   4.691   4.313   6.824  1.0213 -0.3775 -0.6930
 6219SOL     OW30115   0.932   3.337   3.500 -0.4994 -0.3920  0.1068
 6219SOL    HW130116   0.985   3.417   3.498 -3.3092  1.4936  2.7625
 6219SOL    HW230117   0.849   3.367   3.464 -1.6522 -2.4204  1.0929
 6220SOL     OW30118   4.355   0.010  14.145 -0.4313 -0.1335 -0.2415
 6220SOL    HW130119   4.417   0.008  14.218 -1.3490 -1.2253  0.5112
 6220SOL    HW230120   4.291   0.076  14.173  1.0592  0.1620  2.4957
 6221SOL     OW30121   0.655   3.252   4.111  0.6114 -0.2995 -0.2280
 6221SOL    HW130122   0.651   3.245   4.016  0.0734  3.9632 -0.5231
 6221SOL    HW230123   0.751   3.246   4.120  0.3186  0.0431  3.2555
 6222SOL     OW30124   0.027   2.080   6.133  0.0901  0.4250  0.7375
 6222SOL    HW130125   4.677   2.098   6.074  0.8446 -0.7243 -0.5394
 6222SOL    HW230126   0.019   2.161   6.183 -1.7575  0.1036  0.9741
 6223SOL     OW30127   3.755   0.890   6.828  0.4743  0.0120  0.0586
 6223SOL    HW130128   3.730   0.872   6.919  0.2666  0.6190  0.1275
 6223SOL    HW230129   3.765   0.800   6.797  0.0078 -0.6034  1.6863
 6224SOL     OW30130   4.471   0.406  10.379  0.2119 -0.3242 -0.1899
 6224SOL    HW130131   4.483   0.313  10.398  0.1346 -0.8807 -2.9253
 6224SOL    HW230132   4.393   0.419  10.433  0.9744 -1.0374  1.0718
 6225SOL     OW30133   1.498   0.274   9.336  0.0603  0.1308  0.2364
 6225SOL    HW130134   1.508   0.197   9.392 -0.7675 -0.5044 -0.4903
 6225SOL    HW230135   1.551   0.338   9.384 -0.3149  0.7695 -0.2019
 6226SOL     OW30136   0.269   0.097  11.636  0.2179  0.4972 -0.3838
 6226SOL    HW130137   0.339   0.120  11.697 -0.3422 -0.0380  0.4654
 6226SOL    HW230138   0.231   0.019  11.676 -0.4910  1.1462  0.2133
 6227SOL     OW30139   1.817   2.232   3.391  0.1832  0.1153  0.4091
 6227SOL    HW130140   1.872   2.186   3.455  2.3157  3.3638  0.9335
 6227SOL    HW230141   1.876   2.307   3.382  0.7425 -0.1641  1.8634
 6228SOL     OW30142   4.242   1.201   6.741 -0.0122  0.6628 -0.2069
 6228SOL    HW130143   4.303   1.266   6.705  2.4102 -1.6000 -0.2167
 6228SOL    HW230144   4.284   1.121   6.711 -1.1497  0.3305 -0.9097
 6229SOL     OW30145   1.320   1.444   7.231 -0.2747  0.0189 -0.2709
 6229SOL    HW130146   1.341   1.368   7.177 -0.5614 -1.5007  1.7599
 6229SOL    HW230147   1.320   1.502   7.155  1.5516 -0.5641 -0.7177
 6230SOL     OW30148   1.018   2.128   6.957 -0.4189  0.1648 -0.5113
 6230SOL    HW130149   0.938   2.089   6.922  0.6268 -0.2077 -2.5086
 6230SOL    HW230150   1.083   2.116   6.887  1.3864  1.4826  0.9449
 6231SOL     OW30151   3.739   2.586   5.619 -0.0984  0.4037 -0.0864
 6231SOL    HW130152   3.774   2.641   5.548 -1.8067 -0.5752 -1.6937
 6231SOL    HW230153   3.703   2.517   5.563 -1.3229  1.2120 -0.2831
 6232SOL     OW30154   0.791   0.586   4.379  0.0094  0.3837 -0.0537
 6232SOL    HW130155   0.745   0.667   4.357 -1.2247 -0.8062 -1.8573
 6232SOL    HW230156   0.830   0.567   4.294 -0.4403 -2.4957  0.3686
 6233SOL     OW30157   1.991   0.506   6.621 -0.1124  0.1283  0.1348
 6233SOL    HW130158   1.961   0.422   6.586 -1.4128  1.6069 -2.2395
 6233SOL    HW230159   1.930   0.562   6.573  1.4208  0.0624 -1.8666
 6234SOL     OW30160   1.597   4.709   0.811 -0.2777  0.0565 -0.0632
 6234SOL    HW130161   1.601   0.081   0.802 -1.6802  0.0022 -1.1057
 6234SOL    HW230162   1.594   4.693   0.717  1.3961  0.8146 -0.2556
 6235SOL     OW30163   2.716   3.339  11.650  0.0079 -0.1030 -0.0747
 6235SOL    HW130164   2.790   3.280  11.666 -0.7362 -1.0281 -0.0577
 6235SOL    HW230165   2.737   3.412  11.709  1.3069 -0.2994 -0.3062
 6236SOL     OW30166   0.770   1.751   8.157  0.6552 -0.2633 -0.2334
 6236SOL    HW130167   0.683   1.756   8.196  1.1142  0.8541  0.6626
 6236SOL    HW230168   0.824   1.775   8.233  0.0139 -0.8675  0.4202
 6237SOL     OW30169   2.624   0.259   7.722  0.4312 -0.1859  0.5752
 6237SOL    HW130170   2.624   0.352   7.745  1.2309 -0.3847  1.3936
 6237SOL    HW230171   2.709   0.265   7.678 -1.4845  0.6392 -3.0009
 6238SOL     OW30172   0.982   2.507  12.803 -0.4167 -0.3264 -0.1433
 6238SOL    HW130173   0.998   2.453  12.881 -0.7204  2.6778  2.0257
 6238SOL    HW230174   1.023   2.461  12.730  0.5945  0.8152 -0.3059
 6239SOL     OW30175   2.649   4.291   7.671 -0.2085 -0.0462 -0.1174
 6239SOL    HW130176   2.635   4.299   7.765  0.0583  0.5301 -0.1265
 6239SOL    HW230177   2.724   4.232   7.671 -2.1254 -2.4535 -1.4119
 6240SOL     OW30178   3.989   3.687   4.519 -0.1411 -0.0492  0.1852
 6240SOL    HW130179   3.986   3.730   4.604 -1.8447 -0.5808  0.3919
 6240SOL    HW230180   3.922   3.746   4.484 -0.6931 -0.7360  0.0691
 6241SOL     OW30181   4.680   3.965   2.517  0.3180  0.1275 -0.5455
 6241SOL    HW130182   4.610   3.903   2.497  1.3862 -0.6797 -1.7461
 6241SOL    HW230183   4.705   3.990   2.428  1.6042 -1.0503 -0.4980
 6242SOL     OW30184   0.426   0.885  14.165 -0.1006  0.2176  0.7442
 6242SOL    HW130185   0.335   0.873  14.136 -0.1286  0.7339  0.6237
 6242SOL    HW230186   0.433   0.832  14.245  2.1216 -0.4883  0.0741
 6243SOL     OW30187   0.499   3.065   8.761  0.2080  0.0359 -0.0342
 6243SOL    HW130188   0.548   3.036   8.684  0.7302  2.6264 -0.6651
 6243SOL    HW230189   0.571   3.095   8.816 -0.7783  0.2099  1.1614
 6244SOL     OW30190   0.650   0.176   6.159 -0.2089 -0.7091 -0.0809
 6244SOL    HW130191   0.744   0.181   6.145  0.0766 -1.6957  1.6063
 6244SOL    HW230192   0.637   0.085   6.187 -0.2217 -1.1841 -1.6130
 6245SOL     OW30193   4.315   3.349   7.083  0.3656  0.1093 -0.2496
 6245SOL    HW130194   4.388   3.298   7.048  0.2554 -0.8916  0.9903
 6245SOL    HW230195   4.355   3.435   7.092  0.3686  0.0447  0.3259
 6246SOL     OW30196   2.609   0.702  12.459  0.6548  0.0934 -0.7356
 6246SOL    HW130197   2.569   0.643  12.523  1.9604 -1.6978 -1.5944
 6246SOL    HW230198   2.607   0.784  12.508  0.6776 -0.3190 -0.0423
 6247SOL     OW30199   1.401   2.584  13.931 -0.8717  0.4124  0.1370
 6247SOL    HW130200   1.333   2.565  13.866  1.2536 -3.0739 -1.0397
 6247SOL    HW230201   1.479   2.549  13.889 -0.4442  2.4219 -0.7607
 6248SOL     OW30202   3.125   4.427   4.814  0.0132 -0.2377  0.5296
 6248SOL    HW130203   3.091   4.351   4.861 -1.4868 -0.5984 -1.1541
 6248SOL    HW230204   3.167   4.477   4.884  1.3244  1.5925 -1.5596
 6249SOL     OW30205   4.390   3.224   4.642  0.1371  0.1224 -0.1212
 6249SOL    HW130206   4.425   3.307   4.674  3.4312 -1.0849 -0.5515
 6249SOL    HW230207   4.437   3.158   4.694 -1.8346 -0.7241  0.5609
 6250SOL     OW30208   3.326   4.494   2.494 -0.1459  0.1268 -0.1956
 6250SOL    HW130209   3.395   4.489   2.560 -2.3284 -3.2960  1.8257
 6250SOL    HW230210   3.280   4.575   2.515 -1.8312 -1.2213  1.2403
 6251SOL     OW30211   1.428   1.996   8.313 -0.2399 -0.5964 -0.9484
 6251SOL    HW130212   1.429   1.936   8.388  0.5550  0.9624  0.2893
 6251SOL    HW230213   1.345   1.969   8.274 -2.7296  1.0936  3.1577
 6252SOL     OW30214   2.123   1.073   3.058 -0.1095 -0.0048  0.2254
 6252SOL    HW130215   2.211   1.037   3.053 -0.5663 -0.7517 -2.4941
 6252SOL    HW230216   2.130   1.115   2.972 -0.2285  1.6011  0.9942
 6253SOL     OW30217   3.335   2.878   2.111  0.2233  0.2899 -0.5920
 6253SOL    HW130218   3.418   2.890   2.065  0.0125 -0.2954 -1.1292
 6253SOL    HW230219   3.356   2.790   2.141  2.0905  0.3310 -1.7643
 6254SOL     OW30220   0.642   3.927   5.905 -0.7214  0.3518 -0.3045
 6254SOL    HW130221   0.600   3.999   5.952  0.8866 -0.5640  2.5229
 6254SOL    HW230222   0.735   3.948   5.915 -0.0831 -1.9312 -1.4460
 6255SOL     OW30223   4.455   2.390   9.943 -0.2832 -0.3193 -0.0930
 6255SOL    HW130224   4.527   2.447   9.967  0.5027 -1.7118  0.8844
 6255SOL    HW230225   4.447   2.397   9.848 -0.5898 -1.6625 -0.1657
 6256SOL     OW30226   0.016   3.042   7.540 -0.0125 -0.0708  0.1350
 6256SOL    HW130227   0.103   3.004   7.527 -0.1511 -0.4365  0.2733
 6256SOL    HW230228   0.039   3.130   7.568  1.4456 -0.6122  0.6754
 6257SOL     OW30229   0.895   1.426   6.263  0.6294  0.0682 -0.1378
 6257SOL    HW130230   0.844   1.404   6.341  1.2263 -2.6075 -0.4828
 6257SOL    HW230231   0.911   1.520   6.276  1.2554  0.0243 -0.5578
 6258SOL     OW30232   1.697   2.287   2.795  0.1530 -0.1655 -0.4707
 6258SOL    HW130233   1.658   2.268   2.709 -0.7493 -1.3078  0.1905
 6258SOL    HW230234   1.677   2.381   2.802  0.2607 -0.0129 -2.2832
 6259SOL     OW30235   0.102   2.208  10.328 -0.1183  0.0800  0.0901
 6259SOL    HW130236   0.008   2.222  10.339 -0.6460 -1.6120 -2.2352
 6259SOL    HW230237   0.135   2.164  10.407  0.7624  2.8135  1.2305
 6260SOL     OW30238   0.582   4.116  14.548 -0.4009  0.1614 -0.7851
 6260SOL    HW130239   0.658   4.070  14.514  0.8991  1.7351 -0.0162
 6260SOL    HW230240   0.515   4.072  14.495 -0.0419 -0.6329 -0.5814
 6261SOL     OW30241   4.322   3.158  16.675  0.3001  0.3985 -0.1234
 6261SOL    HW130242   4.384   3.200  16.615 -0.0321  0.0173 -0.7305
 6261SOL    HW230243   4.308   3.070  16.641 -0.3660  0.5726 -0.2860
 6262SOL     OW30244   3.274   2.777  14.214 -0.0553  0.1311 -0.3338
 6262SOL    HW130245   3.369   2.775  14.207  0.0187 -0.5837  0.8468
 6262SOL    HW230246   3.245   2.840  14.148  1.0343  2.9146  1.8575
 6263SOL     OW30247   2.139   1.653   6.618 -0.3653  0.7048  0.8821
 6263SOL    HW130248   2.054   1.642   6.573  1.2391  3.4608 -2.8280
 6263SOL    HW230249   2.143   1.565   6.655  0.1399  0.8057  1.0575
 6264SOL     OW30250   0.958   1.495   8.329  0.3111  0.6049 -0.2512
 6264SOL    HW130251   0.968   1.584   8.363 -1.1410  0.4941  0.4754
 6264SOL    HW230252   1.043   1.470   8.291  0.6068  0.5878  0.4155
 6265SOL     OW30253   1.440   1.519   5.774  0.0210 -0.1691 -0.7224
 6265SOL    HW130254   1.381   1.594   5.778  0.5820  0.2437 -0.0433
 6265SOL    HW230255   1.408   1.484   5.691 -1.9984 -1.7410  0.7231
 6266SOL     OW30256   4.044   1.846   2.405 -0.4454  0.0555  0.4535
 6266SOL    HW130257   4.059   1.940   2.396 -1.9080  0.4545  2.2622
 6266SOL    HW230258   4.118   1.818   2.459  0.8461 -0.1426 -1.3902
 6267SOL     OW30259   0.288   1.607   2.484  0.4986 -0.3869 -0.3626
 6267SOL    HW130260   0.337   1.550   2.424 -1.3297 -2.1849 -0.1581
 6267SOL    HW230261   0.262   1.554   2.560 -0.6615  0.1087 -0.4163
 6268SOL     OW30262   1.560   0.658   4.326 -0.5036 -0.1698 -0.5368
 6268SOL    HW130263   1.614   0.667   4.404 -1.1320 -1.2587  0.0323
 6268SOL    HW230264   1.499   0.590   4.356 -0.3940 -0.0920 -0.1432
 6269SOL     OW30265   0.281   0.925   0.777 -0.4318 -0.2168 -0.1514
 6269SOL    HW130266   0.351   0.874   0.735 -1.5075 -0.1331 -2.0847
 6269SOL    HW230267   0.209   0.892   0.722 -0.2521  0.8300 -1.0233
 6270SOL     OW30268   4.253   0.717   3.096  0.1570  1.0756  0.0431
 6270SOL    HW130269   4.198   0.639   3.089  0.0140  1.3348 -1.7232
 6270SOL    HW230270   4.311   0.705   3.020  0.2831  0.4873  0.2382
 6271SOL     OW30271   1.324   2.946   7.534 -0.3524  0.1004 -0.0141
 6271SOL    HW130272   1.263   2.878   7.505  2.0254 -2.1989  0.3671
 6271SOL    HW230273   1.259   3.016   7.547 -0.6229 -0.1623  0.0673
 6272SOL     OW30274   0.056   1.347   3.705 -0.3927 -0.3115  0.4259
 6272SOL    HW130275   0.102   1.284   3.759 -3.5391 -2.1502  0.9655
 6272SOL    HW230276   0.130   1.399   3.674  0.2604 -0.6792  1.4110
 6273SOL     OW30277   4.423   1.195   3.285  0.0680 -0.2639  0.4205
 6273SOL    HW130278   4.501   1.150   3.252 -0.7324 -1.2991 -0.0719
 6273SOL    HW230279   4.452   1.279   3.318  0.6477  0.9384 -3.1737
 6274SOL     OW30280   3.593   2.335   2.270 -0.3555  0.4392 -0.0031
 6274SOL    HW130281   3.630   2.363   2.187 -1.3842  1.8687  0.0130
 6274SOL    HW230282   3.580   2.245   2.239  1.3826  0.6137 -1.2154
 6275SOL     OW30283   0.986   3.614  11.142 -0.2018  0.5721  0.1624
 6275SOL    HW130284   0.971   3.702  11.107  0.1043  0.5781  0.0439
 6275SOL    HW230285   1.081   3.606  11.130 -0.3594 -0.1751 -0.6380
 6276SOL     OW30286   2.697   2.777  15.306  0.2823 -0.5414 -0.4881
 6276SOL    HW130287   2.706   2.789  15.401  0.6845 -2.4934 -0.2945
 6276SOL    HW230288   2.660   2.860  15.274 -0.4496 -0.5377  0.3581
 6277SOL     OW30289   3.683   4.429   8.847  0.1053 -0.2013 -0.3577
 6277SOL    HW130290   3.732   4.473   8.917 -0.9745 -0.1986  0.4021
 6277SOL    HW230291   3.749   4.451   8.782  1.3119  1.2548  1.3542
 6278SOL     OW30292   3.003   1.376  11.909  0.4660 -0.2324  0.1376
 6278SOL    HW130293   2.957   1.303  11.951 -0.2715  1.1600  1.7666
 6278SOL    HW230294   2.971   1.364  11.820  2.2958  0.5371 -0.6188
 6279SOL     OW30295   1.289   4.448  12.615  0.2198  0.1987 -0.4092
 6279SOL    HW130296   1.288   4.510  12.542 -1.9304  1.3432  0.5942
 6279SOL    HW230297   1.299   4.367  12.564 -1.6279  0.5983 -1.4301
 6280SOL     OW30298   4.284   0.416   8.485  0.4061  0.1658 -0.1398
 6280SOL    HW130299   4.357   0.367   8.446 -0.5171  0.4126 -2.1986
 6280SOL    HW230300   4.216   0.395   8.420  0.8637 -0.3726 -0.4517
 6281SOL     OW30301   1.126   4.543   8.700  0.0929 -0.4209  0.4289
 6281SOL    HW130302   1.170   4.620   8.737  2.0677 -1.3952  0.1240
 6281SOL    HW230303   1.193   4.475   8.700 -0.5446 -1.0188 -2.3247
 6282SOL     OW30304   3.929   3.561  12.918  0.1791 -0.2138 -0.1983
 6282SOL    HW130305   3.864   3.508  12.965 -0.5941  0.1245 -0.8837
 6282SOL    HW230306   4.013   3.529  12.951  0.4473  1.3898  0.6390
 6283SOL     OW30307   3.684   4.545  15.374  0.0978 -0.2752 -0.0653
 6283SOL    HW130308   3.662   4.574  15.285 -2.2408  0.8471  0.8559
 6283SOL    HW230309   3.779   4.543  15.384 -0.1216  0.3835  2.3876
 6284SOL     OW30310   4.711   0.500  12.554  0.0748 -0.3561  0.0939
 6284SOL    HW130311   0.009   0.553  12.477  1.4914 -1.0723 -0.0059
 6284SOL    HW230312   4.719   0.408  12.526 -0.4836 -0.2803 -0.3180
 6285SOL     OW30313   0.431   2.051   8.213 -0.0479 -0.4984 -0.2614
 6285SOL    HW130314   0.407   2.069   8.123  0.4371 -3.3869 -0.9490
 6285SOL    HW230315   0.476   2.131   8.241 -0.9372 -0.3197  0.6426
 6286SOL     OW30316   3.307   1.881   6.851  0.3489 -0.0059  0.2338
 6286SOL    HW130317   3.301   1.973   6.824  1.3758 -0.3085 -1.0003
 6286SOL    HW230318   3.285   1.842   6.766 -0.3662  0.1579  0.3434
 6287SOL     OW30319   0.290   2.632  13.654 -0.7094 -0.3912  0.2376
 6287SOL    HW130320   0.206   2.637  13.608 -1.2684 -1.4200  1.1589
 6287SOL    HW230321   0.327   2.552  13.617  0.7853 -0.3255  1.5485
 6288SOL     OW30322   2.586   1.415   2.067  0.2695  0.1267  0.1298
 6288SOL    HW130323   2.615   1.419   1.975  0.0582  1.0124  0.1008
 6288SOL    HW230324   2.644   1.347   2.102  0.7309  0.3337 -0.2196
 6289SOL     OW30325   4.386   1.243   2.778  0.5080 -0.2696  0.0181
 6289SOL    HW130326   4.336   1.300   2.720 -0.5853 -1.6299 -0.3798
 6289SOL    HW230327   4.347   1.263   2.864 -0.2749 -1.3508 -0.0696
 6290SOL     OW30328   3.330   0.299   7.634  0.0440  0.0765 -0.0991
 6290SOL    HW130329   3.287   0.251   7.705  0.2554  0.4767  0.3045
 6290SOL    HW230330   3.258   0.340   7.586 -0.2618  2.8186  2.6823
 6291SOL     OW30331   3.286   3.268   2.997  0.1626  0.3433 -0.6226
 6291SOL    HW130332   3.369   3.265   3.045 -0.7761  1.0537  1.0453
 6291SOL    HW230333   3.290   3.182   2.956  0.5848  0.8520 -1.6342
 6292SOL     OW30334   4.290   3.782   4.261 -0.2596 -0.3971 -0.2871
 6292SOL    HW130335   4.255   3.859   4.217 -0.4424 -0.1067  0.3701
 6292SOL    HW230336   4.255   3.796   4.349 -0.2036 -1.3285 -0.1179
 6293SOL     OW30337   4.338   3.118   8.202  0.0955 -0.1184 -0.2648
 6293SOL    HW130338   4.314   3.142   8.113  1.3604  0.3997 -0.4701
 6293SOL    HW230339   4.407   3.181   8.225 -0.7095  1.0969 -1.2382
 6294SOL     OW30340   3.062   1.027   5.953  0.4860 -0.1992  0.4533
 6294SOL    HW130341   3.146   1.011   5.997 -0.2440 -2.6512  0.9512
 6294SOL    HW230342   3.080   0.993   5.865  0.0115 -1.0240  0.6733
 6295SOL     OW30343   0.812   1.551  13.075  0.1997 -0.0826  0.4452
 6295SOL    HW130344   0.792   1.461  13.047  3.9606 -1.3183  1.7727
 6295SOL    HW230345   0.739   1.564  13.136  1.2892  1.7535  1.3425
 6296SOL     OW30346   3.452   0.839   5.444  0.2345 -0.0404 -0.0720
 6296SOL    HW130347   3.362   0.873   5.444 -0.1053 -0.8718 -2.9670
 6296SOL    HW230348   3.502   0.918   5.463 -0.2127 -0.0396  1.0673
 6297SOL     OW30349   2.356   1.694   7.552 -0.1930  0.2910  0.1445
 6297SOL    HW130350   2.358   1.780   7.594  0.1998 -0.8877  2.5031
 6297SOL    HW230351   2.419   1.712   7.482 -0.0037 -0.7355  0.0572
 6298SOL     OW30352   2.575   3.833  12.432  0.3186  0.3600  0.1096
 6298SOL    HW130353   2.565   3.920  12.394  2.9327  0.0765 -1.2547
 6298SOL    HW230354   2.648   3.857  12.489  0.2855 -0.7826  0.6240
 6299SOL     OW30355   1.122   3.515   1.495  0.0748  0.4280  0.0141
 6299SOL    HW130356   1.164   3.450   1.439 -0.1457 -0.7939  1.2722
 6299SOL    HW230357   1.186   3.586   1.493  0.8536 -0.2226  2.0345
 6300SOL     OW30358   3.407   4.460   8.835  0.0358 -0.1027 -0.5918
 6300SOL    HW130359   3.374   4.370   8.844  0.6688 -0.1431  1.4122
 6300SOL    HW230360   3.498   4.444   8.858  0.2320  0.7470 -0.7823
 6301SOL     OW30361   3.304   2.540  11.606  0.5956 -1.0503  0.5105
 6301SOL    HW130362   3.264   2.501  11.528  1.2872 -1.8646  0.5568
 6301SOL    HW230363   3.280   2.479  11.675  1.3338  2.2621  3.7031
 6302SOL     OW30364   1.530   3.033   1.757  0.6718 -0.8528 -0.6128
 6302SOL    HW130365   1.472   3.083   1.700 -1.3167  0.3848  2.5059
 6302SOL    HW230366   1.582   3.092   1.812  0.6125 -0.7244 -0.6966
 6303SOL     OW30367   0.773   2.949   1.809  0.4325 -0.0078  0.5829
 6303SOL    HW130368   0.787   2.854   1.818 -2.3572 -0.5340 -0.5319
 6303SOL    HW230369   0.822   2.975   1.732  0.3326  2.0670  1.2103
 6304SOL     OW30370   0.708   2.482   2.050 -0.3754  0.2357  0.5189
 6304SOL    HW130371   0.623   2.509   2.085 -0.6180 -0.5773  0.5466
 6304SOL    HW230372   0.759   2.548   2.098 -0.5384 -1.0759  2.4623
 6305SOL     OW30373   3.785   1.947   8.281  0.7406 -0.4414  0.3336
 6305SOL    HW130374   3.742   1.937   8.366 -1.2064 -2.9277 -0.9637
 6305SOL    HW230375   3.821   1.859   8.275 -0.8259 -0.9435 -1.8744
 6306SOL     OW30376   1.480   1.506   6.136 -0.1323  0.5090 -0.5174
 6306SOL    HW130377   1.461   1.539   6.224  1.2386  1.1103 -0.4422
 6306SOL    HW230378   1.427   1.427   6.138  0.6353  0.1031  3.5741
 6307SOL     OW30379   4.364   1.214   0.154 -0.0920  0.0296 -0.0041
 6307SOL    HW130380   4.428   1.285   0.160  0.7941 -0.8405  0.8485
 6307SOL    HW230381   4.306   1.257   0.091  0.1046 -0.3771 -0.4533
 6308SOL     OW30382   1.307   4.418   0.552 -0.3510 -0.4491  0.1429
 6308SOL    HW130383   1.277   4.484   0.489 -1.8219 -0.2257  1.0723
 6308SOL    HW230384   1.235   4.359   0.568 -0.4013 -0.1513  1.0081
 6309SOL     OW30385   1.769   0.500   9.721 -0.1379  0.3098 -0.0821
 6309SOL    HW130386   1.741   0.500   9.630  3.1376  1.9906 -1.0966
 6309SOL    HW230387   1.682   0.515   9.758 -0.0619 -0.5631  0.4579
 6310SOL     OW30388   0.578   2.230   7.308  0.4259  0.0217  0.3188
 6310SOL    HW130389   0.484   2.215   7.321 -0.0121  2.1306 -0.5362
 6310SOL    HW230390   0.604   2.244   7.399  1.7336 -1.0458  0.1120
 6311SOL     OW30391   3.871   0.825  12.532  0.4039  0.7317 -0.0162
 6311SOL    HW130392   3.785   0.861  12.552 -1.5411 -2.2998 -2.8964
 6311SOL    HW230393   3.929   0.874  12.592  1.4656  0.3992 -0.7663
 6312SOL     OW30394   0.122   4.278   5.956  0.2927 -0.2836  0.0745
 6312SOL    HW130395   0.186   4.219   5.997 -0.9238 -0.6874  1.3522
 6312SOL    HW230396   0.102   4.234   5.873  1.8034  0.5922 -0.7719
 6313SOL     OW30397   4.408   1.370  11.116 -0.3576  0.3127 -0.3345
 6313SOL    HW130398   4.395   1.281  11.084  2.0189  0.3865 -1.4936
 6313SOL    HW230399   4.323   1.410  11.098 -0.9541 -1.3196 -1.1391
 6314SOL     OW30400   1.348   2.842   0.682  0.2273 -0.1585  0.2169
 6314SOL    HW130401   1.351   2.754   0.646  1.5737 -0.5248  1.2691
 6314SOL    HW230402   1.270   2.871   0.634  0.4041 -2.5050 -1.4898
 6315SOL     OW30403   4.236   3.364   9.997  0.1855  0.1273  0.0034
 6315SOL    HW130404   4.315   3.345  10.047  2.3669  0.7136 -3.2278
 6315SOL    HW230405   4.162   3.347  10.056  1.0295  1.9518  1.5756
 6316SOL     OW30406   1.495   1.476   1.779 -0.0781 -0.3013 -0.3064
 6316SOL    HW130407   1.467   1.560   1.815  1.2636  0.7067 -1.5680
 6316SOL    HW230408   1.412   1.430   1.770  0.5958 -1.3701 -1.1557
 6317SOL     OW30409   2.291   3.383   8.405 -0.4323  0.2367 -0.6206
 6317SOL    HW130410   2.196   3.378   8.400 -0.3394 -1.2948 -0.8316
 6317SOL    HW230411   2.307   3.478   8.404  0.1734  0.1362 -0.4349
 6318SOL     OW30412   3.255   2.988  13.246 -0.8574 -0.1711  0.5814
 6318SOL    HW130413   3.199   2.966  13.172  0.4623 -1.5237 -0.0097
 6318SOL    HW230414   3.179   3.010  13.300 -1.0203 -1.2332  0.7802
 6319SOL     OW30415   2.187   0.993  16.928  0.0646 -0.0299 -0.6242
 6319SOL    HW130416   2.243   0.935  16.978 -0.4819  0.9960  1.1725
 6319SOL    HW230417   2.154   0.928  16.865 -1.5487 -0.8163  1.0315
 6320SOL     OW30418   4.679   2.214   2.948 -0.1856  0.3269  0.1876
 6320SOL    HW130419   4.629   2.246   2.872  0.4726  0.4352 -0.2045
 6320SOL    HW230420   0.040   2.195   2.906 -0.3005 -1.9380  0.9855
 6321SOL     OW30421   2.309   2.531  12.157 -0.3239  0.4205  0.4181
 6321SOL    HW130422   2.394   2.487  12.155 -1.2807 -1.4706  0.9561
 6321SOL    HW230423   2.325   2.586  12.234  2.6228  0.5333 -0.2912
 6322SOL     OW30424   1.349   0.526   6.304 -0.2137  0.3464 -0.0615
 6322SOL    HW130425   1.336   0.447   6.251  0.0578  0.3797 -0.1747
 6322SOL    HW230426   1.443   0.542   6.302 -0.2966  0.6689 -1.5339
 6323SOL     OW30427   4.304   4.031  13.199  0.5571 -0.3447 -0.0820
 6323SOL    HW130428   4.321   4.018  13.106  3.5252 -0.3399  0.4659
 6323SOL    HW230429   4.363   3.963  13.231  1.1221  0.1061 -0.1725
 6324SOL     OW30430   2.925   4.383   1.841  0.0603 -0.0987 -0.2871
 6324SOL    HW130431   2.891   4.296   1.860  2.4832 -0.5169  2.0316
 6324SOL    HW230432   2.856   4.446   1.863  3.5273  2.9325  1.7117
 6325SOL     OW30433   2.273   2.550  13.863 -0.1119  0.0361 -0.2575
 6325SOL    HW130434   2.339   2.512  13.921 -0.1414 -0.3816 -0.4907
 6325SOL    HW230435   2.243   2.623  13.916  0.0998  0.4331 -0.6837
 6326SOL     OW30436   4.540   0.876   1.183 -0.4077  0.2660  0.6064
 6326SOL    HW130437   4.514   0.795   1.139  3.2275 -0.4186 -0.2458
 6326SOL    HW230438   4.495   0.931   1.118  0.6025 -1.7118 -1.7809
 6327SOL     OW30439   3.428   3.851   7.159  0.6044  0.1479  0.6302
 6327SOL    HW130440   3.395   3.912   7.094 -0.5560  0.2368  1.3091
 6327SOL    HW230441   3.469   3.915   7.217  1.6649  0.9049 -0.9425
 6328SOL     OW30442   3.815   4.080   9.566 -0.1672  0.0584 -0.6034
 6328SOL    HW130443   3.908   4.057   9.565  0.1222  1.1609  0.4615
 6328SOL    HW230444   3.821   4.174   9.552  0.1241  0.4428  2.1077
 6329SOL     OW30445   3.961   0.680   7.691 -0.2285  0.1803 -0.9012
 6329SOL    HW130446   3.941   0.757   7.745  1.3927  0.2425 -0.3644
 6329SOL    HW230447   4.009   0.634   7.760 -0.5608 -0.5127 -1.1378
 6330SOL     OW30448   1.307   3.037   3.006  0.3211 -0.1248  0.1143
 6330SOL    HW130449   1.399   3.064   3.000  0.0469  0.5403 -1.3533
 6330SOL    HW230450   1.288   3.000   2.919 -1.1584 -1.2071  0.9011
 6331SOL     OW30451   1.671   0.086   6.911  0.5719 -0.3697 -0.2543
 6331SOL    HW130452   1.724   0.006   6.912  1.0768 -0.0405 -0.6451
 6331SOL    HW230453   1.636   0.085   7.000  0.7577 -3.4645 -0.2027
 6332SOL     OW30454   3.242   4.250  17.184  0.1854 -0.3586 -0.0070
 6332SOL    HW130455   3.248   4.232  17.278 -2.2524  1.6505  0.5339
 6332SOL    HW230456   3.163   4.304  17.180  0.1881 -0.3512  0.0362
 6333SOL     OW30457   0.958   3.597  12.716 -0.5926 -0.5948 -0.3582
 6333SOL    HW130458   1.016   3.673  12.723 -2.0303  0.3303  1.6282
 6333SOL    HW230459   0.962   3.574  12.809 -0.1383  0.7664 -0.0345
 6334SOL     OW30460   2.885   1.548   2.941 -0.0811 -0.2766 -0.1534
 6334SOL    HW130461   2.915   1.543   2.850 -0.2751  1.5194 -0.3310
 6334SOL    HW230462   2.793   1.530   2.922  0.7289 -1.5805 -2.8112
 6335SOL     OW30463   2.991   2.748   8.416  0.6912 -0.1547 -0.0050
 6335SOL    HW130464   3.040   2.666   8.426  0.3501 -0.1558  1.6603
 6335SOL    HW230465   3.020   2.788   8.334  0.3728  0.4206  0.1613
 6336SOL     OW30466   3.117   1.366   0.584  0.1551 -0.2535  0.0755
 6336SOL    HW130467   3.047   1.386   0.646  1.7716  1.5256  1.3159
 6336SOL    HW230468   3.078   1.298   0.529 -0.9095 -0.5439  1.1728
 6337SOL     OW30469   3.541   0.334   8.227 -0.2809 -0.2743 -0.3134
 6337SOL    HW130470   3.460   0.311   8.183 -1.2717  0.6749  1.0099
 6337SOL    HW230471   3.513   0.402   8.289  0.4995  1.0829 -1.4458
 6338SOL     OW30472   0.406   4.636   8.640 -0.0775  0.1528  0.4673
 6338SOL    HW130473   0.349   4.651   8.565  0.5009 -2.1771 -0.4563
 6338SOL    HW230474   0.477   4.592   8.594  0.4908 -0.2069  1.6789
 6339SOL     OW30475   2.528   3.400   5.336  0.2903  0.0643  0.1608
 6339SOL    HW130476   2.614   3.423   5.302 -0.0394 -0.6856 -1.1602
 6339SOL    HW230477   2.543   3.440   5.422 -0.1295  0.3086  0.1193
 6340SOL     OW30478   1.775   3.513  13.068 -0.4165  0.1769  0.1870
 6340SOL    HW130479   1.832   3.455  13.118 -0.7050  0.0213  0.3383
 6340SOL    HW230480   1.691   3.506  13.114  0.0189 -0.3027  0.9110
 6341SOL     OW30481   2.512   2.112   6.264  0.0473 -0.2979 -0.3229
 6341SOL    HW130482   2.492   2.186   6.208 -0.6874  0.2784  0.7101
 6341SOL    HW230483   2.530   2.152   6.349  0.9830 -0.3859 -0.4889
 6342SOL     OW30484   1.922   2.476   7.825  0.3168 -0.1858  0.4924
 6342SOL    HW130485   1.964   2.407   7.875  0.3729 -1.5142 -1.3897
 6342SOL    HW230486   1.833   2.448   7.847  0.4581 -1.1477 -0.1784
 6343SOL     OW30487   2.426   3.310  10.658  0.1148  0.0711  0.0256
 6343SOL    HW130488   2.468   3.396  10.662 -0.4147  0.3651 -0.7833
 6343SOL    HW230489   2.385   3.306  10.572  0.2377 -1.0357  0.0154
 6344SOL     OW30490   2.257   3.230   6.984 -0.4268 -1.1371 -0.0488
 6344SOL    HW130491   2.331   3.176   6.960  0.7211  1.5482 -2.5197
 6344SOL    HW230492   2.215   3.156   7.027 -1.4185 -1.8827 -2.3186
 6345SOL     OW30493   1.995   2.065   8.983 -0.3530  0.4437  0.1199
 6345SOL    HW130494   2.014   1.976   9.013 -1.2072  0.4366  0.6309
 6345SOL    HW230495   1.979   2.099   9.071  0.1229 -2.2417  1.2321
 6346SOL     OW30496   3.660   1.265  15.134 -0.2990 -0.4709 -0.1745
 6346SOL    HW130497   3.588   1.203  15.132  0.7731 -1.7446  1.3695
 6346SOL    HW230498   3.610   1.345  15.153 -0.2486 -0.4720 -0.0398
 6347SOL     OW30499   0.996   1.476   8.882  0.0688  0.2075  0.3738
 6347SOL    HW130500   0.935   1.411   8.916 -0.6264  0.2584 -0.7979
 6347SOL    HW230501   1.080   1.455   8.925  0.1071 -0.8673 -0.2358
 6348SOL     OW30502   3.613   3.696  13.666  0.4734  0.4358 -0.2914
 6348SOL    HW130503   3.556   3.681  13.591 -1.4441 -1.6686  1.6191
 6348SOL    HW230504   3.673   3.623  13.647  1.8158  1.1461  1.2341
 6349SOL     OW30505   0.673   1.661   6.080 -0.1237 -0.1820 -0.3184
 6349SOL    HW130506   0.587   1.628   6.108 -1.1516  2.2184 -0.6189
 6349SOL    HW230507   0.712   1.588   6.033  1.2689  1.7407 -2.1409
 6350SOL     OW30508   2.730   0.122   8.737 -0.4794 -0.1867  0.4386
 6350SOL    HW130509   2.662   0.160   8.681 -0.1770 -1.8171 -1.0538
 6350SOL    HW230510   2.727   0.180   8.813 -1.2900  0.9244 -0.4388
 6351SOL     OW30511   3.196   3.405   5.012  0.1389  0.3197  0.0975
 6351SOL    HW130512   3.184   3.404   4.917 -0.5082  0.8425  0.1749
 6351SOL    HW230513   3.122   3.349   5.032 -0.4376  2.1978  3.1885
 6352SOL     OW30514   1.802   3.801   6.535 -0.5516  0.1707 -0.0191
 6352SOL    HW130515   1.708   3.803   6.515 -0.6290  1.3072  0.4497
 6352SOL    HW230516   1.811   3.744   6.611  1.4211 -1.7289 -1.6873
 6353SOL     OW30517   3.535   4.074   1.236  0.0495  0.2691 -0.2301
 6353SOL    HW130518   3.551   4.077   1.142  1.8852 -1.4220  0.0217
 6353SOL    HW230519   3.513   3.983   1.252  2.3771 -0.4147 -0.8039
 6354SOL     OW30520   1.344   4.094   8.388  0.1844  0.4285  0.5621
 6354SOL    HW130521   1.358   4.171   8.334 -2.0435  1.3868  1.3436
 6354SOL    HW230522   1.417   4.036   8.369  0.0405  0.1011  1.0065
 6355SOL     OW30523   0.518   0.625   8.075  0.2929 -0.0442 -0.2049
 6355SOL    HW130524   0.523   0.625   8.171 -1.4188 -0.2477 -0.1104
 6355SOL    HW230525   0.565   0.545   8.051  0.4982  0.2910 -0.9219
 6356SOL     OW30526   3.253   4.114  15.322  0.1184  0.1755  0.4934
 6356SOL    HW130527   3.228   4.137  15.412 -0.7258 -0.9495  0.5393
 6356SOL    HW230528   3.256   4.203  15.285 -0.2444  0.2434  0.6237
 6357SOL     OW30529   3.927   1.867   8.592  0.4182  0.2581 -1.0818
 6357SOL    HW130530   3.932   1.943   8.649  1.7998 -1.0910  0.6103
 6357SOL    HW230531   3.841   1.884   8.554 -0.5869 -1.3634  0.4695
 6358SOL     OW30532   2.358   4.240   8.539 -0.0647  0.4576 -0.0545
 6358SOL    HW130533   2.263   4.231   8.550 -0.1583 -0.2153 -1.3642
 6358SOL    HW230534   2.379   4.167   8.598  0.8519 -0.9001 -2.0687
 6359SOL     OW30535   1.486   3.610  12.113  0.9953  0.3912 -0.2818
 6359SOL    HW130536   1.432   3.575  12.184  1.8679 -0.6145 -0.1133
 6359SOL    HW230537   1.561   3.555  12.134  1.4442  0.8603 -0.6614
 6360SOL     OW30538   1.849   0.160   8.229  0.1248 -0.1123  0.2071
 6360SOL    HW130539   1.850   0.241   8.280 -0.2239 -0.8552  1.4052
 6360SOL    HW230540   1.773   0.171   8.172 -0.6616  0.2210  1.3266
 6361SOL     OW30541   3.977   2.596   7.253  0.4911 -0.7887  0.1637
 6361SOL    HW130542   3.892   2.555   7.271 -1.3517  3.2389  0.4816
 6361SOL    HW230543   4.014   2.587   7.341 -1.2859  1.6288  1.1430
 6362SOL     OW30544   2.427   4.010  16.265 -0.4274  0.0876  0.0272
 6362SOL    HW130545   2.491   4.059  16.317 -0.7537 -1.0682  1.5056
 6362SOL    HW230546   2.448   3.920  16.289 -2.3857 -0.5326 -0.5468
 6363SOL     OW30547   1.783   4.215  17.387 -0.6037 -0.3281 -0.3605
 6363SOL    HW130548   1.791   4.120  17.398 -1.9498 -0.4131 -0.0778
 6363SOL    HW230549   1.690   4.223  17.409 -0.4947 -1.7213  0.6434
 6364SOL     OW30550   3.050   2.511   8.951 -0.2813  0.0988  0.2572
 6364SOL    HW130551   3.122   2.510   9.014  0.4955  1.7333 -0.5824
 6364SOL    HW230552   3.000   2.437   8.985  0.3468 -0.7069 -0.6007
 6365SOL     OW30553   1.282   0.193  15.504  0.2596  1.1570 -0.5378
 6365SOL    HW130554   1.315   0.111  15.541 -2.3638  1.3666  2.3027
 6365SOL    HW230555   1.189   0.173  15.515  0.5372  0.4143  0.5054
 6366SOL     OW30556   2.978   1.251   6.076 -0.1277 -0.7343  0.1037
 6366SOL    HW130557   2.977   1.276   5.984 -1.3391  2.1010  0.9080
 6366SOL    HW230558   2.977   1.156   6.062 -1.3287 -0.5638 -0.9684
 6367SOL     OW30559   1.187   0.607   7.840  0.3504  0.3487  0.0961
 6367SOL    HW130560   1.277   0.611   7.874  0.4867 -1.7052 -0.0180
 6367SOL    HW230561   1.209   0.576   7.753  2.4521 -0.0894  0.7734
 6368SOL     OW30562   0.136   2.737   1.395 -0.4365  0.6049 -0.6292
 6368SOL    HW130563   0.047   2.710   1.371 -0.7375  0.5245  0.6188
 6368SOL    HW230564   0.129   2.737   1.490 -0.9031  0.3878 -0.6608
 6369SOL     OW30565   1.691   3.438   5.830 -0.9308 -0.2871 -0.6597
 6369SOL    HW130566   1.741   3.403   5.757  0.0189 -0.6463  0.1629
 6369SOL    HW230567   1.624   3.369   5.833 -0.4401 -0.6471  2.5778
 6370SOL     OW30568   2.520   1.516   3.903 -0.4695 -0.1185  0.4468
 6370SOL    HW130569   2.472   1.450   3.953  0.0020 -0.2302  0.7577
 6370SOL    HW230570   2.571   1.566   3.967 -1.6783  0.2481  1.1104
 6371SOL     OW30571   1.345   1.960   2.980  0.0890  0.9824 -0.0502
 6371SOL    HW130572   1.425   2.006   2.956  0.6332  0.0317 -0.0961
 6371SOL    HW230573   1.351   1.882   2.925  3.8556  1.5072 -0.3858
 6372SOL     OW30574   1.458   3.078  13.114  0.2681 -0.1258 -0.1055
 6372SOL    HW130575   1.388   3.119  13.063 -0.7376  3.0855  3.9200
 6372SOL    HW230576   1.431   3.080  13.206 -3.5013  0.2827 -1.2216
 6373SOL     OW30577   1.827   4.593   9.874  0.0416  0.2505  0.5709
 6373SOL    HW130578   1.748   4.594   9.819  2.0795  0.6507 -2.3375
 6373SOL    HW230579   1.893   4.599   9.805 -0.9161 -1.2346 -0.4737
 6374SOL     OW30580   2.588   2.259   7.513  0.7414 -0.1269 -0.0660
 6374SOL    HW130581   2.603   2.222   7.600 -1.9721  0.1047  0.5137
 6374SOL    HW230582   2.513   2.313   7.540 -0.1010 -1.0894 -0.4554
 6375SOL     OW30583   1.069   3.243   0.068  0.6077 -0.1592  0.3344
 6375SOL    HW130584   1.002   3.312   0.072  0.6549 -0.1756  1.4983
 6375SOL    HW230585   1.127   3.288   0.130 -0.0488  0.6798  0.3439
 6376SOL     OW30586   0.206   4.014   9.386  0.2011  0.1556 -0.1639
 6376SOL    HW130587   0.242   3.944   9.441 -1.7143 -0.5418  0.1917
 6376SOL    HW230588   0.239   3.982   9.302  1.4383 -0.4896  0.5595
 6377SOL     OW30589   4.151   2.050   8.416 -0.2929  0.6736 -0.7630
 6377SOL    HW130590   4.095   2.117   8.376 -0.5118  0.2175 -1.2146
 6377SOL    HW230591   4.152   2.092   8.502  3.3703  0.6699 -0.8093
 6378SOL     OW30592   1.521   2.769   8.874  0.5383  0.0621 -0.1296
 6378SOL    HW130593   1.444   2.738   8.922 -0.4168  0.8356 -1.1373
 6378SOL    HW230594   1.587   2.711   8.912 -0.7399 -1.6154 -0.4928
 6379SOL     OW30595   2.443   4.598   5.595  0.0984 -0.7296  0.1938
 6379SOL    HW130596   2.518   4.657   5.597  0.8461 -1.6300 -1.6510
 6379SOL    HW230597   2.406   4.605   5.507  1.0083  1.3147 -0.0219
 6380SOL     OW30598   2.435   1.661  15.630  0.0018  0.5658 -0.5925
 6380SOL    HW130599   2.351   1.623  15.603  0.2318 -1.1944  1.2064
 6380SOL    HW230600   2.488   1.640  15.554 -0.2392  0.6420 -0.7839
 6381SOL     OW30601   0.643   3.271   7.707  0.7398  0.2420 -0.1256
 6381SOL    HW130602   0.577   3.270   7.777  2.7696  4.4688  1.7859
 6381SOL    HW230603   0.721   3.253   7.759  1.0536  2.8244  0.2518
 6382SOL     OW30604   4.384   3.947   6.015  0.0187 -0.1383  0.0231
 6382SOL    HW130605   4.325   3.996   6.073 -0.7195 -0.7193 -0.2441
 6382SOL    HW230606   4.321   3.898   5.963  1.2160  0.4708 -1.9719
 6383SOL     OW30607   3.770   1.425  11.064 -0.1047  0.0741  0.0870
 6383SOL    HW130608   3.848   1.472  11.092 -1.4062  1.1439  1.9552
 6383SOL    HW230609   3.704   1.492  11.044 -1.4667 -0.9680  1.0239
 6384SOL     OW30610   1.351   4.434   0.184 -0.4158 -0.6554  0.7085
 6384SOL    HW130611   1.275   4.465   0.232 -0.7809 -1.8881  0.9314
 6384SOL    HW230612   1.397   4.518   0.174 -5.3091  1.7840 -1.0846
 6385SOL     OW30613   2.540   4.523   2.263 -0.0501  0.5434  0.6057
 6385SOL    HW130614   2.619   4.469   2.265  0.4893  1.2649 -1.4809
 6385SOL    HW230615   2.500   4.496   2.181 -1.4397 -1.2179  1.8633
 6386SOL     OW30616   4.236   0.286  14.955 -0.0871 -0.5648 -0.1672
 6386SOL    HW130617   4.144   0.308  14.969  0.0089 -1.0987  1.3056
 6386SOL    HW230618   4.241   0.219  15.023  1.1440  1.2816  1.5161
 6387SOL     OW30619   2.737   3.511   3.890 -0.0834 -0.2421 -0.2381
 6387SOL    HW130620   2.751   3.605   3.902  1.1691 -0.5458  0.5944
 6387SOL    HW230621   2.642   3.496   3.894  0.3550 -2.6630  0.9753
 6388SOL     OW30622   1.703   2.582   9.013  0.2721 -0.1817 -0.5738
 6388SOL    HW130623   1.747   2.531   8.944  1.6634 -2.6080  2.0852
 6388SOL    HW230624   1.691   2.517   9.083  0.0916  0.8698  0.3697
 6389SOL     OW30625   2.176   3.253   9.742  0.1887 -0.1542 -0.1096
 6389SOL    HW130626   2.140   3.165   9.752 -1.1949  0.4137 -0.0471
 6389SOL    HW230627   2.213   3.272   9.829 -1.7124 -1.0130  0.8850
 6390SOL     OW30628   1.858   0.301   6.326 -0.5164 -0.4802 -0.5384
 6390SOL    HW130629   1.917   0.259   6.388  1.0371  3.1841  0.4644
 6390SOL    HW230630   1.805   0.228   6.294 -2.9536  0.3653  1.5668
 6391SOL     OW30631   0.841   4.196  13.221 -0.1382  0.3991  0.1993
 6391SOL    HW130632   0.804   4.151  13.297  2.0305 -2.0335 -0.1766
 6391SOL    HW230633   0.839   4.123  13.158 -1.4705 -0.7930  1.6254
 6392SOL     OW30634   0.257   3.060   6.706  0.2546  0.2116  0.3800
 6392SOL    HW130635   0.172   3.044   6.747  0.4429  0.8559  1.0157
 6392SOL    HW230636   0.270   2.980   6.655  1.5296  0.0122  1.0111
 6393SOL     OW30637   0.167   2.439   1.906  0.2123 -0.4363 -0.1565
 6393SOL    HW130638   0.151   2.403   1.818 -0.1092 -0.0005 -0.2809
 6393SOL    HW230639   0.235   2.375   1.923  0.3601 -0.4884 -0.9549
 6394SOL     OW30640   2.023   1.830  17.594  0.5914 -0.2281  0.1195
 6394SOL    HW130641   2.065   1.815  17.679  0.9696 -0.7672 -0.1670
 6394SOL    HW230642   2.019   1.742  17.557  1.8056  0.0240 -0.6313
 6395SOL     OW30643   2.944   3.630  10.827 -0.1629  0.6781 -0.1232
 6395SOL    HW130644   2.884   3.559  10.806  0.7766  0.3966 -1.8250
 6395SOL    HW230645   2.877   3.699  10.825 -1.0126 -0.0432  2.7565
 6396SOL     OW30646   0.359   4.569  14.672 -0.5339  0.3109  0.4033
 6396SOL    HW130647   0.335   4.548  14.581  0.1698 -1.4986  0.6317
 6396SOL    HW230648   0.452   4.550  14.661 -0.7453 -1.1327  1.0956
 6397SOL     OW30649   1.962   0.042  17.155 -0.1230 -0.5567 -0.1341
 6397SOL    HW130650   1.986   4.673  17.155  1.2861 -0.2011 -1.0877
 6397SOL    HW230651   2.010   0.071  17.232 -0.1921 -1.7587  0.3483
 6398SOL     OW30652   4.079   3.072   2.470  0.1369  0.1108 -1.2408
 6398SOL    HW130653   4.061   3.115   2.553  1.6272 -0.7519 -0.4718
 6398SOL    HW230654   4.017   3.000   2.475  0.1255  0.1803 -0.4383
 6399SOL     OW30655   1.707   4.105   0.335  0.1187 -0.5962  0.0073
 6399SOL    HW130656   1.690   4.156   0.414  0.3743 -1.7902  0.8385
 6399SOL    HW230657   1.659   4.151   0.266 -0.5319 -1.0801  0.1389
 6400SOL     OW30658   0.881   1.988   5.871  0.0131 -0.2037  0.2064
 6400SOL    HW130659   0.913   1.900   5.888 -1.0828 -0.6606 -0.1139
 6400SOL    HW230660   0.791   1.964   5.847 -0.2317  0.8842  0.0010
 6401SOL     OW30661   0.052   1.297   4.836  0.0444  0.5437  0.0018
 6401SOL    HW130662   0.089   1.325   4.919 -1.0754  1.4264  0.1945
 6401SOL    HW230663   0.048   1.202   4.849  1.0605  0.6615  1.2211
 6402SOL     OW30664   1.698   0.080   1.195  0.1769  0.3391  0.2123
 6402SOL    HW130665   1.634   0.130   1.245  2.8926  1.1966  2.8087
 6402SOL    HW230666   1.779   0.132   1.201 -0.4609  1.1902  1.5456
 6403SOL     OW30667   0.786   3.808   9.057 -0.5299 -0.1222 -0.0545
 6403SOL    HW130668   0.722   3.830   9.123 -0.4815  2.6045 -0.9012
 6403SOL    HW230669   0.791   3.715   9.078 -1.5630 -0.2139 -0.2244
 6404SOL     OW30670   1.486   3.835  11.737  0.5595  0.1198  0.0972
 6404SOL    HW130671   1.529   3.914  11.703  2.8982  0.1324  3.1150
 6404SOL    HW230672   1.394   3.863  11.736  0.2742 -0.8827 -0.9350
 6405SOL     OW30673   4.561   0.153   8.533  0.1413  0.8004 -0.2849
 6405SOL    HW130674   4.627   0.220   8.516  0.8634  0.4034  0.9324
 6405SOL    HW230675   4.602   0.067   8.523  0.1649  0.7500  0.2329
 6406SOL     OW30676   3.092   0.837  13.434 -0.3215 -0.8630  0.0027
 6406SOL    HW130677   3.087   0.926  13.470  0.1707 -1.4213  1.4795
 6406SOL    HW230678   3.186   0.829  13.418 -0.5799 -0.2271 -1.8011
 6407SOL     OW30679   2.401   1.030   7.302  0.1851  0.3804  0.0271
 6407SOL    HW130680   2.440   1.105   7.258 -0.8914  0.8549 -0.1207
 6407SOL    HW230681   2.423   1.047   7.394 -2.2656 -0.7086  0.7977
 6408SOL     OW30682   3.864   1.299   9.553 -0.1822  0.2271  0.1055
 6408SOL    HW130683   3.856   1.252   9.470  0.7030 -0.0125  0.1472
 6408SOL    HW230684   3.938   1.251   9.591 -0.6799 -0.5047  0.1706
 6409SOL     OW30685   3.289   2.318  11.756 -0.1787  0.4983 -0.2071
 6409SOL    HW130686   3.359   2.318  11.821 -0.2471  2.0883 -0.1330
 6409SOL    HW230687   3.317   2.265  11.681 -1.3865 -1.0758  0.4657
 6410SOL     OW30688   3.100   1.987   2.211 -0.0490  0.1406 -0.1379
 6410SOL    HW130689   3.139   1.912   2.167 -0.5847 -0.7762  0.9388
 6410SOL    HW230690   3.009   1.970   2.187 -0.6054 -0.4041  2.3399
 6411SOL     OW30691   4.702   0.681   5.300 -0.1345 -0.7060 -0.4604
 6411SOL    HW130692   0.051   0.697   5.361 -0.7553 -0.8493  0.3193
 6411SOL    HW230693   0.009   0.717   5.217 -1.2884  0.1395 -0.5089
 6412SOL     OW30694   1.769   2.303  16.212  0.2587 -0.0117 -0.2141
 6412SOL    HW130695   1.696   2.364  16.222 -0.1604 -0.3994 -0.9267
 6412SOL    HW230696   1.774   2.288  16.118  0.1287 -1.9509  0.0795
 6413SOL     OW30697   4.281   3.966  11.287 -0.0072  0.0808  0.3404
 6413SOL    HW130698   4.242   3.886  11.254  0.2975 -0.6327  1.7163
 6413SOL    HW230699   4.209   4.029  11.294 -0.3038  0.0310 -2.1368
 6414SOL     OW30700   0.433   3.885  15.466  0.1391  0.0372 -0.5972
 6414SOL    HW130701   0.407   3.924  15.550 -0.2635  0.9258 -1.1433
 6414SOL    HW230702   0.494   3.946  15.426 -0.8352  0.0564 -2.0483
 6415SOL     OW30703   3.268   0.151   8.844 -0.0077  0.6770 -0.7034
 6415SOL    HW130704   3.218   0.228   8.871 -0.3240 -0.3250  1.5650
 6415SOL    HW230705   3.345   0.170   8.898 -0.1314 -0.7491 -0.0388
 6416SOL     OW30706   1.964   0.726   3.214 -0.0552 -0.1162  0.1937
 6416SOL    HW130707   1.987   0.698   3.303  0.5435 -1.8572 -0.4864
 6416SOL    HW230708   1.931   0.644   3.176  1.3438  1.2552 -4.0210
 6417SOL     OW30709   4.570   1.924  16.115 -0.2425  0.0598  0.4916
 6417SOL    HW130710   4.618   1.878  16.185 -1.4043 -2.0205 -0.0693
 6417SOL    HW230711   4.611   2.010  16.115 -1.7100  0.7424  0.8527
 6418SOL     OW30712   4.302   0.135   3.652 -0.7242  0.0354 -0.3382
 6418SOL    HW130713   4.388   0.176   3.650  0.4295 -2.3425 -0.0155
 6418SOL    HW230714   4.318   0.076   3.726 -2.0478 -2.6145 -2.1503
 6419SOL     OW30715   3.676   0.257   5.309  0.0438  0.4660  0.4972
 6419SOL    HW130716   3.655   0.342   5.347 -0.4884  2.3966 -4.1242
 6419SOL    HW230717   3.764   0.251   5.345  0.7720 -1.1668 -1.5229
 6420SOL     OW30718   0.313   3.334  17.142  0.4660  0.2255  0.7797
 6420SOL    HW130719   0.248   3.265  17.157 -1.1035  1.3344 -1.0035
 6420SOL    HW230720   0.377   3.310  17.210  1.8455 -0.2348 -0.6854
 6421SOL     OW30721   2.483   3.255  10.310 -0.1598 -0.0279 -0.4528
 6421SOL    HW130722   2.467   3.166  10.340 -0.5661 -0.2105 -1.2193
 6421SOL    HW230723   2.527   3.248  10.225 -0.7522  0.2129 -0.7815
 6422SOL     OW30724   2.654   2.562   7.063 -0.5240 -0.1126  0.3981
 6422SOL    HW130725   2.744   2.542   7.089 -0.0940  1.1343 -0.1079
 6422SOL    HW230726   2.615   2.529   7.144  2.5922  0.9050  2.3096
 6423SOL     OW30727   2.422   1.143  17.026 -0.0522 -0.3648 -0.0106
 6423SOL    HW130728   2.373   1.101  17.097  3.6157 -0.8356  2.2163
 6423SOL    HW230729   2.419   1.070  16.964  0.3556  0.7019 -1.2840
 6424SOL     OW30730   4.066   2.100  13.281  0.1764 -0.4870 -0.3483
 6424SOL    HW130731   4.066   2.012  13.244 -1.7204  0.7409 -3.2906
 6424SOL    HW230732   3.973   2.121  13.294  1.1318  2.2699  2.0304
 6425SOL     OW30733   1.993   0.314   5.596 -0.5653 -0.3654  0.0813
 6425SOL    HW130734   1.998   0.359   5.681 -0.6829 -1.7918  0.8351
 6425SOL    HW230735   1.921   0.374   5.574 -2.4359 -2.3660  0.7220
 6426SOL     OW30736   0.924   0.494   7.659  0.2342  0.0260  0.2250
 6426SOL    HW130737   0.942   0.587   7.675 -1.9747  0.2403  1.3972
 6426SOL    HW230738   0.962   0.449   7.735  0.3648  2.9484  1.9180
 6427SOL     OW30739   0.005   4.409   5.110 -0.2525  0.5867 -0.1701
 6427SOL    HW130740   0.033   4.464   5.184 -0.9090  1.3058 -0.4521
 6427SOL    HW230741   0.030   4.455   5.030 -1.1639  1.2780 -0.0575
 6428SOL     OW30742   4.615   4.099   0.522 -0.1808  0.6670 -0.2565
 6428SOL    HW130743   4.662   4.107   0.605 -0.9482  0.5949  0.1821
 6428SOL    HW230744   4.638   4.188   0.496  2.0629  0.7561  2.0533
 6429SOL     OW30745   2.190   1.639   5.161  0.9334  0.4220 -0.3364
 6429SOL    HW130746   2.159   1.631   5.251  1.4275  2.4899  0.0226
 6429SOL    HW230747   2.275   1.598   5.179  0.4957 -1.2106 -1.9840
 6430SOL     OW30748   4.579   0.945   4.536  0.0450  0.2280 -0.1754
 6430SOL    HW130749   4.650   0.917   4.479  1.5959  1.8959  0.9173
 6430SOL    HW230750   4.586   0.882   4.608 -0.5765  1.3685  0.9143
 6431SOL     OW30751   1.870   0.698   4.824  0.2773  0.6297  0.0054
 6431SOL    HW130752   1.839   0.669   4.909  1.1969 -0.1487  0.0847
 6431SOL    HW230753   1.842   0.789   4.824 -3.7520 -0.5793 -2.9243
 6432SOL     OW30754   3.509   0.481  11.025 -0.2449  0.2221 -0.4376
 6432SOL    HW130755   3.497   0.455  11.116 -1.5091  1.8706 -0.1129
 6432SOL    HW230756   3.589   0.436  10.999 -0.4547  0.0575 -0.8017
 6433SOL     OW30757   3.048   0.662   4.425  0.1371 -0.6438 -0.1400
 6433SOL    HW130758   3.088   0.575   4.425  1.8249  0.1293  0.5152
 6433SOL    HW230759   3.121   0.720   4.447  0.2532 -0.4377 -1.0519
 6434SOL     OW30760   3.751   0.511   5.568  0.2712 -0.3044  0.4864
 6434SOL    HW130761   3.779   0.601   5.551  1.0065 -0.2824  1.8406
 6434SOL    HW230762   3.833   0.466   5.586  1.4130  1.7011  0.3205
 6435SOL     OW30763   0.247   1.293   5.056  0.5795  0.3303 -0.2085
 6435SOL    HW130764   0.316   1.334   5.004  0.7189  0.3207 -0.0301
 6435SOL    HW230765   0.278   1.203   5.048 -0.7260 -0.3068  1.9795
 6436SOL     OW30766   4.343   4.672   1.835  0.0787  0.0339 -0.2903
 6436SOL    HW130767   4.381   0.000   1.763  0.8952  1.7541  1.3673
 6436SOL    HW230768   4.367   4.586   1.800 -0.6715  0.0575 -0.8735
 6437SOL     OW30769   1.962   2.433  10.752  0.1318  0.4764 -0.8745
 6437SOL    HW130770   1.980   2.385  10.672 -1.8296 -0.2109 -0.8996
 6437SOL    HW230771   1.873   2.464  10.738 -0.7006 -1.7229 -0.3984
 6438SOL     OW30772   3.895   4.526   8.685 -0.1740 -0.1231 -0.1598
 6438SOL    HW130773   3.960   4.475   8.636 -1.6258 -0.2927 -1.9258
 6438SOL    HW230774   3.950   4.593   8.724  0.5372 -0.5883 -0.3558
 6439SOL     OW30775   4.668   4.555   3.509 -0.0748  0.5256 -0.0359
 6439SOL    HW130776   4.575   4.576   3.517  0.2499  0.6397  3.6777
 6439SOL    HW230777   4.687   4.494   3.580  0.0734  1.1150  0.4353
 6440SOL     OW30778   0.628   3.023   7.921 -0.5274 -0.5632 -0.2963
 6440SOL    HW130779   0.662   2.940   7.955  0.6375  0.5351  1.2242
 6440SOL    HW230780   0.650   3.005   7.830  0.2839 -1.3269  0.0533
 6441SOL     OW30781   2.555   3.098  17.636 -0.1260 -0.1646  0.0005
 6441SOL    HW130782   2.473   3.128  17.678  0.6895  1.3855  0.4923
 6441SOL    HW230783   2.600   3.183  17.634 -1.6989  0.6028 -2.8008
 6442SOL     OW30784   1.577   4.635   6.484 -0.0159  0.3984  0.1673
 6442SOL    HW130785   1.670   4.653   6.490  0.1548 -0.6831  0.7310
 6442SOL    HW230786   1.536   4.721   6.485 -0.8187  0.0336 -1.0512
 6443SOL     OW30787   2.042   1.692  16.120  1.0986 -0.2539 -0.0425
 6443SOL    HW130788   2.027   1.746  16.198  0.3850 -0.2360 -0.1911
 6443SOL    HW230789   2.132   1.665  16.138  1.5826  2.1890  1.2810
 6444SOL     OW30790   3.194   3.289   5.853  0.3077  0.1500 -0.1617
 6444SOL    HW130791   3.192   3.194   5.851  0.9890  0.1163  0.9581
 6444SOL    HW230792   3.246   3.299   5.932  0.2151  1.5342 -0.2639
 6445SOL     OW30793   0.763   3.468  12.576  0.2033  0.2409 -0.4741
 6445SOL    HW130794   0.805   3.399  12.523  0.4645  0.5154 -0.6231
 6445SOL    HW230795   0.828   3.526  12.616 -0.4715  0.1914  0.6804
 6446SOL     OW30796   0.271   0.544   7.983  0.1574 -0.4177  0.1429
 6446SOL    HW130797   0.339   0.597   8.024  0.6279  0.9697 -2.3766
 6446SOL    HW230798   0.188   0.589   7.996  0.9302  1.1734 -0.4087
 6447SOL     OW30799   0.852   0.390   2.259 -0.1560  0.0461  0.1695
 6447SOL    HW130800   0.915   0.457   2.286 -0.3940 -0.0053  0.8580
 6447SOL    HW230801   0.854   0.344   2.344  1.9085  1.4389  0.8910
 6448SOL     OW30802   0.021   0.769  17.516  0.4788 -0.3752  0.5432
 6448SOL    HW130803   4.696   0.852  17.527  1.6847  0.4568 -0.5214
 6448SOL    HW230804   0.047   0.756  17.607 -1.1172  0.8714  1.1967
 6449SOL     OW30805   4.658   1.469  13.234  0.0361 -0.5285  0.4960
 6449SOL    HW130806   0.023   1.497  13.261  1.0158 -1.2072 -2.0014
 6449SOL    HW230807   4.673   1.465  13.140 -2.3312  0.2143  0.0898
 6450SOL     OW30808   2.137   3.598  14.827  0.5266 -0.0348  0.3229
 6450SOL    HW130809   2.090   3.611  14.744 -1.0942 -2.0088  0.9396
 6450SOL    HW230810   2.226   3.576  14.801 -0.0479 -1.2856 -0.5625
 6451SOL     OW30811   1.432   2.296   6.838 -0.2186  0.2347  0.0108
 6451SOL    HW130812   1.349   2.334   6.867 -0.3468  1.2003 -1.6372
 6451SOL    HW230813   1.417   2.303   6.744 -0.6602  0.8666  0.1255
 6452SOL     OW30814   1.824   0.001  11.683  0.2116  0.3322  0.1240
 6452SOL    HW130815   1.778   0.063  11.739  0.6432  1.0704 -0.3335
 6452SOL    HW230816   1.912   4.704  11.716 -0.4154 -0.2679  1.4463
 6453SOL     OW30817   2.909   3.118   7.010 -0.0180 -0.3247 -0.0701
 6453SOL    HW130818   2.913   3.199   7.061  1.3683 -0.3828 -0.1059
 6453SOL    HW230819   2.993   3.120   6.964 -0.0423 -0.6401 -0.1306
 6454SOL     OW30820   2.512   4.020   5.250  0.6484  0.1561 -0.1429
 6454SOL    HW130821   2.563   3.942   5.227 -1.0650 -0.3896 -2.1005
 6454SOL    HW230822   2.528   4.073   5.172 -0.1728 -1.1629 -1.2089
 6455SOL     OW30823   3.228   1.035   5.526  0.3535  0.5271  0.1572
 6455SOL    HW130824   3.168   1.109   5.533  0.9520  1.0836 -0.6215
 6455SOL    HW230825   3.184   0.985   5.595  1.2819 -0.5700 -0.0391
 6456SOL     OW30826   1.599   0.202   5.563  0.1773 -0.1750  0.3288
 6456SOL    HW130827   1.596   0.174   5.471 -1.6518  2.6231 -0.4582
 6456SOL    HW230828   1.512   0.241   5.573 -0.6105 -1.4950 -1.4218
 6457SOL     OW30829   2.330   0.730   7.607  0.2075 -0.1867 -0.3255
 6457SOL    HW130830   2.283   0.654   7.574  3.2274 -1.2078 -2.2305
 6457SOL    HW230831   2.364   0.755   7.521 -2.4536 -0.2020 -1.3846
 6458SOL     OW30832   0.070   0.131   8.706 -0.4215 -0.0670 -0.2689
 6458SOL    HW130833   0.137   0.074   8.744 -0.6251 -0.0028  0.1937
 6458SOL    HW230834   0.001   0.069   8.682  0.7576 -1.4274 -0.1431
 6459SOL     OW30835   0.327   2.108   3.859 -0.1526 -0.2125 -0.6471
 6459SOL    HW130836   0.249   2.165   3.858  0.5187  0.7272  0.8785
 6459SOL    HW230837   0.359   2.122   3.770  1.3349  0.2632 -0.0346
 6460SOL     OW30838   3.238   0.604  11.650 -0.7072  0.2558  0.1735
 6460SOL    HW130839   3.287   0.526  11.623 -1.2561 -0.2548  0.6220
 6460SOL    HW230840   3.314   0.661  11.651  0.2463 -1.0011  0.0493
 6461SOL     OW30841   2.952   2.702   1.248  0.1383 -0.0867  0.1303
 6461SOL    HW130842   2.943   2.685   1.154  1.6894 -0.4236  0.0444
 6461SOL    HW230843   3.015   2.633   1.270 -0.7679 -1.4618 -1.5718
 6462SOL     OW30844   1.641   1.583   7.026  0.3519 -0.3851  0.7404
 6462SOL    HW130845   1.720   1.532   7.046  0.5015 -0.1801  0.6762
 6462SOL    HW230846   1.603   1.539   6.950  2.2050  1.0482 -1.0403
 6463SOL     OW30847   4.658   1.634   3.273 -0.4402  0.9311  0.2157
 6463SOL    HW130848   4.634   1.709   3.219 -3.2359 -0.0755  0.0953
 6463SOL    HW230849   4.696   1.671   3.353 -1.2805 -0.8763  1.4353
 6464SOL     OW30850   2.556   1.245   5.700  0.2263  0.6002 -0.2167
 6464SOL    HW130851   2.520   1.164   5.664  1.7482  0.1890 -0.8368
 6464SOL    HW230852   2.580   1.215   5.788 -0.0852 -3.5945 -1.5292
 6465SOL     OW30853   0.819   2.944  11.469  0.0574  0.2150 -0.7832
 6465SOL    HW130854   0.745   2.924  11.526  0.4312 -1.2195 -0.8127
 6465SOL    HW230855   0.796   3.021  11.417  1.6044 -0.2251 -2.0995
 6466SOL     OW30856   2.386   3.285  12.831  0.5388 -0.2533 -0.5689
 6466SOL    HW130857   2.295   3.312  12.843  0.2177 -1.5511 -0.1253
 6466SOL    HW230858   2.372   3.214  12.769  0.3471 -2.2537  1.7637
 6467SOL     OW30859   0.718   0.053   5.437  0.2940  0.4029 -0.2530
 6467SOL    HW130860   0.708   0.100   5.521 -1.6070  1.1597 -0.9006
 6467SOL    HW230861   0.810   0.029   5.444  0.9813  3.0558  0.0475
 6468SOL     OW30862   3.458   2.921   5.245 -0.2438 -0.1941  0.2236
 6468SOL    HW130863   3.440   3.012   5.271  1.0979  0.5364 -1.4245
 6468SOL    HW230864   3.546   2.923   5.208  0.2594  1.9666  1.5083
 6469SOL     OW30865   2.538   1.261   8.141  0.4566 -0.2668  0.8946
 6469SOL    HW130866   2.455   1.213   8.137  1.5938 -2.0617 -0.9307
 6469SOL    HW230867   2.549   1.305   8.057  1.9395 -0.0925  1.1774
 6470SOL     OW30868   0.451   3.076   6.063  0.3025 -0.4670  0.0586
 6470SOL    HW130869   0.363   3.113   6.056 -0.6761 -2.4795  1.4414
 6470SOL    HW230870   0.492   3.088   5.978 -2.5788  1.1615 -1.0819
 6471SOL     OW30871   0.215   2.984  16.256 -0.2049  0.0299 -0.6765
 6471SOL    HW130872   0.136   2.955  16.211 -0.7145 -1.2910  1.1069
 6471SOL    HW230873   0.289   2.941  16.213  0.9056 -0.3533  1.6260
 6472SOL     OW30874   0.019   1.754   2.865  0.4554  0.3041 -0.0316
 6472SOL    HW130875   4.697   1.802   2.935 -0.0810 -1.2407  0.6924
 6472SOL    HW230876   0.079   1.705   2.922  0.7812 -0.5627 -1.1100
 6473SOL     OW30877   0.604   3.202  13.618  0.1487 -0.7026  0.1655
 6473SOL    HW130878   0.582   3.250  13.539  3.7270 -2.1740 -1.7205
 6473SOL    HW230879   0.698   3.214  13.614  0.0263  0.3755  0.6026
 6474SOL     OW30880   2.320   2.465   6.323 -0.2034  0.3426 -0.2579
 6474SOL    HW130881   2.303   2.408   6.398  1.4148 -0.5139 -0.5368
 6474SOL    HW230882   2.415   2.473   6.333 -0.2228  0.0888  0.1043
 6475SOL     OW30883   1.345   4.485   6.404  0.0027 -0.2988 -0.1095
 6475SOL    HW130884   1.303   4.569   6.421  0.5056  0.0150 -0.4351
 6475SOL    HW230885   1.425   4.503   6.452  0.0243  1.2908 -0.7319
 6476SOL     OW30886   0.812   0.653   1.588  0.0804 -0.3686  0.2488
 6476SOL    HW130887   0.775   0.742   1.595  0.3614 -0.1702 -0.8607
 6476SOL    HW230888   0.895   0.672   1.544  0.6137 -1.6593  0.7164
 6477SOL     OW30889   1.008   3.689  10.624 -0.0355 -0.5644 -0.6566
 6477SOL    HW130890   1.073   3.662  10.558 -0.3159 -0.8030 -0.8346
 6477SOL    HW230891   1.019   3.627  10.696 -2.4792 -0.7943 -0.4715
 6478SOL     OW30892   0.377   0.797   7.552 -0.2224  0.4324  0.2200
 6478SOL    HW130893   0.391   0.708   7.520  1.5904  0.3251  1.3146
 6478SOL    HW230894   0.296   0.778   7.599 -0.0863 -0.1209  0.2341
 6479SOL     OW30895   2.051   3.765   5.929 -0.2352  0.1440  0.5769
 6479SOL    HW130896   1.981   3.756   5.864 -0.6162  1.2011  0.8345
 6479SOL    HW230897   2.041   3.858   5.952  1.6136  0.2537  0.8750
 6480SOL     OW30898   3.959   2.943  17.512 -0.1268 -0.1677 -0.0470
 6480SOL    HW130899   3.961   2.849  17.526 -2.2644 -0.3606 -1.0569
 6480SOL    HW230900   3.982   2.982  17.596 -0.9043 -0.1615  0.1616
 6481SOL     OW30901   3.914   2.247   5.143  0.3432  0.5257 -0.3802
 6481SOL    HW130902   3.911   2.336   5.109  0.7109  0.5114 -0.4546
 6481SOL    HW230903   3.837   2.252   5.199  0.3577  0.8552 -0.3935
 6482SOL     OW30904   0.292   3.806   5.653  0.2153 -0.1560  0.1520
 6482SOL    HW130905   0.210   3.765   5.680  1.2762 -1.3842  1.4724
 6482SOL    HW230906   0.340   3.732   5.617 -0.3631  0.3169 -1.5921
 6483SOL     OW30907   1.935   2.220   2.432  0.3615  0.1274  0.2169
 6483SOL    HW130908   2.010   2.185   2.479  1.1143  1.9099  0.3152
 6483SOL    HW230909   1.859   2.198   2.486  1.0537  0.6588  1.4095
 6484SOL     OW30910   4.064   3.154   0.518  0.3539  0.4962 -0.2178
 6484SOL    HW130911   4.026   3.088   0.577  0.8745  1.6407  1.4040
 6484SOL    HW230912   4.137   3.183   0.573 -1.2889 -0.2949  2.4131
 6485SOL     OW30913   1.942   3.865   6.918  0.1847 -0.1327  0.1018
 6485SOL    HW130914   1.859   3.903   6.890  1.0283 -0.6644 -3.1155
 6485SOL    HW230915   1.913   3.784   6.961 -2.1791  0.6721  0.0042
 6486SOL     OW30916   0.980   1.975   3.868 -0.3232  0.0683 -0.1157
 6486SOL    HW130917   0.887   1.992   3.886 -0.5864 -0.2452 -1.1828
 6486SOL    HW230918   1.014   1.998   3.954 -0.8834  4.4990 -1.0804
 6487SOL     OW30919   1.336   4.307   8.786 -0.2951  0.0570  0.7072
 6487SOL    HW130920   1.291   4.226   8.808  0.5649 -0.4980  0.4297
 6487SOL    HW230921   1.380   4.335   8.866 -0.4686  0.8912  0.5115
 6488SOL     OW30922   0.432   2.873   7.021  0.0491  0.2344 -0.3116
 6488SOL    HW130923   0.440   2.939   7.089 -0.0649  2.2513 -2.2571
 6488SOL    HW230924   0.339   2.881   7.003  0.0392  1.4123  0.2479
 6489SOL     OW30925   1.719   0.267   5.237  0.2837  0.1317 -0.0538
 6489SOL    HW130926   1.812   0.250   5.252 -0.4341 -2.9305  0.8350
 6489SOL    HW230927   1.700   0.202   5.169  1.9243 -0.7854  0.3628
 6490SOL     OW30928   2.609   1.655   6.126  0.0839 -0.1909  0.3404
 6490SOL    HW130929   2.625   1.748   6.108 -1.0148 -0.0957 -0.1368
 6490SOL    HW230930   2.525   1.655   6.172 -0.4670  0.6546 -0.6675
 6491SOL     OW30931   2.689   2.389   0.020  0.5629  0.3082  0.2693
 6491SOL    HW130932   2.776   2.382  17.675  1.4441 -0.5019  2.3338
 6491SOL    HW230933   2.709   2.349   0.105  0.5882 -1.4361 -0.5649
 6492SOL     OW30934   1.565   0.916   4.993 -0.1033 -0.1895  0.2971
 6492SOL    HW130935   1.571   1.007   4.963  1.8549 -0.0381  1.1269
 6492SOL    HW230936   1.626   0.918   5.067 -0.8638  2.9146  0.8629
 6493SOL     OW30937   0.861   1.869  13.155 -0.4295 -0.6479 -0.1344
 6493SOL    HW130938   0.817   1.865  13.240 -0.1488 -0.3170  0.0266
 6493SOL    HW230939   0.857   1.775  13.135  1.1416 -0.7155 -0.1487
 6494SOL     OW30940   1.377   1.083   3.767  0.3287 -0.0556  0.4194
 6494SOL    HW130941   1.285   1.100   3.748  0.3110  0.6622  1.1604
 6494SOL    HW230942   1.428   1.149   3.721  0.5214  0.4516  1.3574
 6495SOL     OW30943   4.575   1.116   1.550  0.0947 -0.3330 -0.4268
 6495SOL    HW130944   4.511   1.066   1.601  0.1853 -0.7722 -0.7442
 6495SOL    HW230945   4.540   1.130   1.463  0.8603 -1.6638 -0.9626
 6496SOL     OW30946   1.376   3.454   9.477  0.0611 -0.6802  0.4037
 6496SOL    HW130947   1.413   3.376   9.520 -0.4894 -0.5136  1.1750
 6496SOL    HW230948   1.366   3.505   9.557  0.2114 -2.9506  1.8607
 6497SOL     OW30949   4.051   0.588   5.760 -0.2476 -0.2351  0.2808
 6497SOL    HW130950   4.037   0.528   5.686 -1.6556 -0.5927  0.8344
 6497SOL    HW230951   3.986   0.656   5.741 -1.8750 -2.1234 -1.0194
 6498SOL     OW30952   4.158   1.890   1.792  0.7622 -0.5891 -0.3279
 6498SOL    HW130953   4.199   1.957   1.736 -0.2887  1.5417  1.4683
 6498SOL    HW230954   4.191   1.807   1.758  1.8935  0.1984 -1.1640
 6499SOL     OW30955   0.336   1.107  16.451 -0.0810  0.2016 -0.1303
 6499SOL    HW130956   0.333   1.012  16.439 -1.2257  0.3415 -0.9092
 6499SOL    HW230957   0.377   1.136  16.370 -1.1485  2.1792  0.0344
 6500SOL     OW30958   0.918   3.226   2.833 -0.2739  0.2792  0.0061
 6500SOL    HW130959   0.926   3.264   2.920  1.0436  1.0829 -0.4638
 6500SOL    HW230960   0.999   3.256   2.790 -0.6629  1.7739  0.2993
 6501SOL     OW30961   4.233   3.923   2.483 -0.0961 -0.2428  0.1592
 6501SOL    HW130962   4.143   3.934   2.513 -1.0410 -0.3961 -2.6109
 6501SOL    HW230963   4.228   3.832   2.452  1.4503 -0.0276 -0.7378
 6502SOL     OW30964   0.712   2.890   4.579  0.0462  0.1963  0.0602
 6502SOL    HW130965   0.800   2.885   4.617  0.0110  1.0269  0.2486
 6502SOL    HW230966   0.724   2.956   4.511  0.2323 -1.0238 -1.1035
 6503SOL     OW30967   2.035   3.547   8.045 -0.3179  0.4739  0.7322
 6503SOL    HW130968   1.953   3.514   8.083 -1.2239 -1.5456 -2.8883
 6503SOL    HW230969   2.032   3.527   7.951 -0.7247  0.6850  0.6974
 6504SOL     OW30970   2.708   4.462  15.306 -0.0270  0.0631  0.7251
 6504SOL    HW130971   2.796   4.499  15.297  1.4979 -3.4384  1.5926
 6504SOL    HW230972   2.650   4.533  15.277  0.9475 -0.3627 -2.2244
 6505SOL     OW30973   2.777   0.972   7.461 -0.0929  0.4170 -0.4862
 6505SOL    HW130974   2.848   1.017   7.507  0.1536  0.1321 -0.5861
 6505SOL    HW230975   2.706   1.032   7.483 -0.0057 -0.1782  1.3617
 6506SOL     OW30976   2.450   0.191   6.325 -0.1504 -0.0004  0.0954
 6506SOL    HW130977   2.445   0.250   6.401 -1.1240 -0.8353  0.6706
 6506SOL    HW230978   2.376   0.130   6.328  0.0061 -0.3758 -3.6938
 6507SOL     OW30979   0.994   3.700   2.214  0.2491 -0.2360 -0.3043
 6507SOL    HW130980   1.076   3.651   2.223  0.6278  0.3660 -0.4392
 6507SOL    HW230981   0.922   3.639   2.225 -1.6360  1.6304 -2.2223
 6508SOL     OW30982   3.167   2.592   3.200 -0.2343  0.0149  0.2488
 6508SOL    HW130983   3.205   2.591   3.112  1.3353 -0.4433  0.9215
 6508SOL    HW230984   3.247   2.571   3.248  1.0033 -1.1803 -2.3299
 6509SOL     OW30985   1.137   0.770   5.612 -0.7455 -0.0720 -0.5010
 6509SOL    HW130986   1.152   0.809   5.525 -0.7460  0.1074 -0.4220
 6509SOL    HW230987   1.041   0.771   5.617 -0.7276 -0.9646 -0.0378
 6510SOL     OW30988   4.145   1.976   3.364  0.5598 -0.1361  0.0408
 6510SOL    HW130989   4.069   1.990   3.307  1.9463  0.5340 -1.6360
 6510SOL    HW230990   4.097   1.936   3.437 -1.5223 -1.6236 -2.1173
 6511SOL     OW30991   0.733   0.332  14.255 -0.8926 -0.2245 -0.0906
 6511SOL    HW130992   0.734   0.292  14.342 -0.4789 -1.1529 -0.5123
 6511SOL    HW230993   0.761   0.423  14.264 -3.0104  0.5849 -1.6612
 6512SOL     OW30994   1.493   2.758   8.600  0.4918  0.2687 -0.2622
 6512SOL    HW130995   1.516   2.755   8.693  1.3475  0.2200 -0.4739
 6512SOL    HW230996   1.399   2.775   8.606  0.8150  1.6080  0.9509
 6513SOL     OW30997   3.214   0.657   9.059  0.4611 -0.0409 -0.0064
 6513SOL    HW130998   3.186   0.738   9.101  0.6438  0.0251 -0.0121
 6513SOL    HW230999   3.258   0.610   9.130 -0.7934 -0.8517  0.2263
 6514SOL     OW31000   0.056   2.388   0.496 -0.1816  0.3624 -0.1390
 6514SOL    HW131001   0.147   2.417   0.506  0.5252 -1.9831  0.2003
 6514SOL    HW231002   0.025   2.453   0.433 -0.3207 -0.3234 -0.7731
 6515SOL     OW31003   4.179   3.018   5.615 -0.4580 -0.4564  0.4243
 6515SOL    HW131004   4.238   2.942   5.610  1.0241  0.6891  0.5103
 6515SOL    HW231005   4.109   2.998   5.552 -0.2733  2.0196 -0.5688
 6516SOL     OW31006   0.354   2.647   4.734 -0.0422 -0.2536 -0.1817
 6516SOL    HW131007   0.273   2.647   4.682 -0.5706  2.9595  0.6554
 6516SOL    HW231008   0.405   2.706   4.679 -2.0691  0.5545 -1.1976
 6517SOL     OW31009   3.054   4.080   7.246  0.0662 -0.2485 -0.4800
 6517SOL    HW131010   3.046   3.995   7.203  3.8839 -0.7230 -0.2641
 6517SOL    HW231011   3.138   4.114   7.216 -0.3183  0.4588 -0.7430
 6518SOL     OW31012   2.747   0.474  17.561 -0.1793  0.2216  0.2185
 6518SOL    HW131013   2.694   0.412  17.512 -0.7955  1.6107 -0.8857
 6518SOL    HW231014   2.688   0.549  17.565  0.2898  0.6925 -1.5173
 6519SOL     OW31015   2.458   3.547   4.615 -0.0402 -0.6538  0.2207
 6519SOL    HW131016   2.507   3.556   4.696 -0.0402  2.0815 -0.0847
 6519SOL    HW231017   2.371   3.576   4.641  1.1217  1.8158  1.2739
 6520SOL     OW31018   2.148   0.990   7.830  0.1546  0.3534 -0.1266
 6520SOL    HW131019   2.184   0.916   7.879  2.1580  1.8767  0.7181
 6520SOL    HW231020   2.146   0.959   7.740  0.6034  2.4473 -0.8681
 6521SOL     OW31021   4.193   2.193  15.251 -0.0426 -0.0039 -0.2963
 6521SOL    HW131022   4.259   2.182  15.183  0.2952 -1.4130  0.2570
 6521SOL    HW231023   4.241   2.241  15.319  1.6311 -1.4585 -0.4622
 6522SOL     OW31024   1.230   4.337   2.358 -0.6741  0.3401  0.6050
 6522SOL    HW131025   1.162   4.360   2.421  0.0385 -2.7057  2.5155
 6522SOL    HW231026   1.307   4.317   2.412 -0.7192 -0.7355  0.2738
 6523SOL     OW31027   4.551   1.451   4.825 -0.0801  0.2581  0.2374
 6523SOL    HW131028   4.619   1.384   4.825 -0.2336  0.0815  3.0610
 6523SOL    HW231029   4.528   1.453   4.732 -1.5902  0.7071  0.6112
 6524SOL     OW31030   2.603   2.692   5.059  0.8490  0.5175  0.6096
 6524SOL    HW131031   2.649   2.611   5.040  0.0614  0.2762 -0.2709
 6524SOL    HW231032   2.518   2.657   5.084  1.8581 -2.7496 -0.5327
 6525SOL     OW31033   1.472   2.585   6.364  0.3337  0.2420  0.6208
 6525SOL    HW131034   1.423   2.624   6.291 -1.7254 -2.2282  0.6668
 6525SOL    HW231035   1.532   2.525   6.320 -0.6779 -1.0870  1.0437
 6526SOL     OW31036   3.360   3.631   5.897  0.4705 -0.0159 -0.5003
 6526SOL    HW131037   3.345   3.701   5.833 -0.5615  0.1711 -0.0560
 6526SOL    HW231038   3.291   3.643   5.961 -1.9116 -0.0733 -3.0653
 6527SOL     OW31039   3.988   0.377   3.662  0.2882  0.7448 -0.2097
 6527SOL    HW131040   3.958   0.331   3.740 -0.9886  1.7226 -0.1205
 6527SOL    HW231041   3.904   0.392   3.618  0.5250  1.9600 -0.2451
 6528SOL     OW31042   0.423   3.069   4.086 -0.5132  0.1650  0.1765
 6528SOL    HW131043   0.511   3.082   4.123  0.4994 -0.0421 -2.1622
 6528SOL    HW231044   0.424   2.974   4.081  1.1486  0.1886  0.1266
 6529SOL     OW31045   2.179   1.320   5.377  0.6871  0.1932  0.0893
 6529SOL    HW131046   2.188   1.324   5.282  3.2145 -2.2281  0.2329
 6529SOL    HW231047   2.201   1.228   5.389  0.2005  0.1094  0.3439
 6530SOL     OW31048   3.410   1.794   9.594 -0.6920 -0.6167 -0.0261
 6530SOL    HW131049   3.421   1.699   9.586 -1.3119 -0.8619  1.8735
 6530SOL    HW231050   3.501   1.821   9.583 -0.2541 -2.1598 -0.1786
 6531SOL     OW31051   1.454   0.025   8.329 -0.3300 -0.3076  0.5054
 6531SOL    HW131052   1.513   4.677   8.355  0.5733  0.5293  0.7290
 6531SOL    HW231053   1.371   4.705   8.310 -0.6538  0.7410 -0.4738
 6532SOL     OW31054   0.393   3.931   1.880 -0.3475 -0.2095 -0.6957
 6532SOL    HW131055   0.298   3.927   1.889 -0.3865 -0.7516 -1.2821
 6532SOL    HW231056   0.407   3.858   1.820  0.3249  0.2264 -1.0629
 6533SOL     OW31057   4.041   3.590   7.634  0.0819 -0.0066  0.5468
 6533SOL    HW131058   4.044   3.560   7.725 -1.4582 -0.1308  0.5649
 6533SOL    HW231059   3.958   3.550   7.608 -1.0981  2.0535  1.1334
 6534SOL     OW31060   1.207   4.248   3.708 -0.0333  0.5310 -0.2764
 6534SOL    HW131061   1.189   4.158   3.682  1.2723  0.0314  0.5593
 6534SOL    HW231062   1.253   4.234   3.790 -0.0894  1.6701 -0.0436
 6535SOL     OW31063   2.819   0.798  11.636 -0.2513 -0.2294  1.4950
 6535SOL    HW131064   2.839   0.713  11.596 -0.1587  0.7980 -0.6395
 6535SOL    HW231065   2.867   0.789  11.718 -0.3832 -3.0857  1.2677
 6536SOL     OW31066   1.333   1.579  12.928 -0.3859 -0.5312  0.0995
 6536SOL    HW131067   1.301   1.633  13.000 -0.8569  0.8196 -1.1280
 6536SOL    HW231068   1.427   1.590  12.944 -0.3926  0.7343 -0.7439
 6537SOL     OW31069   1.846   3.357  11.140  0.3234 -0.5652 -0.3557
 6537SOL    HW131070   1.833   3.336  11.047  1.6259 -0.9954 -0.4411
 6537SOL    HW231071   1.880   3.278  11.184 -4.0500 -1.8819  0.6760
 6538SOL     OW31072   2.436   4.132   3.233  0.0242 -0.3378  0.4215
 6538SOL    HW131073   2.461   4.076   3.159  2.1585  2.1836 -0.7406
 6538SOL    HW231074   2.367   4.078   3.272  1.0779 -1.5056  0.6766
 6539SOL     OW31075   1.087   0.212  11.994 -0.1449 -0.2079  0.2471
 6539SOL    HW131076   0.996   0.189  12.011  0.4409 -0.9936  2.3720
 6539SOL    HW231077   1.079   0.199  11.900  1.8590 -1.0511  0.1787
 6540SOL     OW31078   2.388   4.519   7.465  0.0263  0.0803 -0.0202
 6540SOL    HW131079   2.478   4.523   7.431 -0.1372 -2.1812 -0.7364
 6540SOL    HW231080   2.385   4.600   7.515 -1.5017 -1.0632  1.7581
 6541SOL     OW31081   0.870   0.092   3.134 -0.5856 -0.0468  0.2379
 6541SOL    HW131082   0.839   0.102   3.224  0.1414 -1.6970  0.6685
 6541SOL    HW231083   0.808   0.150   3.089 -0.2769  0.1383  0.0512
 6542SOL     OW31084   4.503   2.963   0.197  0.0849  0.5083  0.3680
 6542SOL    HW131085   4.419   2.943   0.156  0.4202 -0.1683  0.0111
 6542SOL    HW231086   4.490   3.045   0.244  0.8880  0.6606  0.3278
 6543SOL     OW31087   0.547   2.283   5.866 -0.1789  0.4623 -0.6840
 6543SOL    HW131088   0.509   2.220   5.927 -0.5488  3.4572  2.2008
 6543SOL    HW231089   0.638   2.278   5.896 -0.5912  1.5940  0.8022
 6544SOL     OW31090   3.453   2.303  11.979  0.6106 -0.0593 -0.2257
 6544SOL    HW131091   3.532   2.250  11.978 -0.8434 -2.2350 -0.5065
 6544SOL    HW231092   3.496   2.388  11.970 -0.0084  0.4389  1.4896
 6545SOL     OW31093   0.903   0.953   9.450  0.1753  0.1094  0.3425
 6545SOL    HW131094   0.894   0.875   9.396  4.0441 -0.1492  0.0212
 6545SOL    HW231095   0.992   0.985   9.431  0.1310 -1.2278 -2.0506
 6546SOL     OW31096   1.884   0.347  10.576  0.3382  0.1621  0.1873
 6546SOL    HW131097   1.924   0.310  10.498  1.7519  2.4257 -0.1392
 6546SOL    HW231098   1.860   0.435  10.546  1.6987 -0.0764 -1.6006
 6547SOL     OW31099   1.494   4.349   0.968  0.4554 -0.0905 -0.1802
 6547SOL    HW131100   1.472   4.382   0.881  2.8269 -0.1773 -0.8121
 6547SOL    HW231101   1.572   4.399   0.990  1.2937 -1.3636 -0.2504
 6548SOL     OW31102   4.483   3.768   9.633 -0.4730  0.3015 -0.0289
 6548SOL    HW131103   4.483   3.833   9.703 -0.0282 -0.7115  0.9051
 6548SOL    HW231104   4.456   3.813   9.552  0.9777  2.3595  0.6081
 6549SOL     OW31105   1.120   3.098  13.424  0.2480  0.1388 -0.0770
 6549SOL    HW131106   1.200   3.052  13.399  0.5053  0.1036  0.8028
 6549SOL    HW231107   1.076   3.051  13.494 -0.7779  1.9676  0.5189
 6550SOL     OW31108   2.591   4.156  16.462 -0.3261  0.1302 -0.1502
 6550SOL    HW131109   2.661   4.162  16.527  0.2226  1.0978 -0.8392
 6550SOL    HW231110   2.525   4.212  16.503  0.6673 -0.1458  1.8064
 6551SOL     OW31111   2.641   3.213   0.572  0.4478  0.0446 -0.5413
 6551SOL    HW131112   2.584   3.281   0.608  2.3945  0.8374  1.0811
 6551SOL    HW231113   2.728   3.249   0.591  1.6600 -2.6648 -0.9479
 6552SOL     OW31114   0.763   4.220   9.560  0.1636  0.5182  0.3205
 6552SOL    HW131115   0.767   4.305   9.515 -1.2795  1.0241  1.1445
 6552SOL    HW231116   0.792   4.160   9.491 -2.6363 -0.9405  0.3803
 6553SOL     OW31117   1.858   3.966   5.765  0.6944 -0.1003 -0.1014
 6553SOL    HW131118   1.813   3.884   5.784 -1.0228  1.1082  1.1295
 6553SOL    HW231119   1.844   3.962   5.670  1.3230 -2.9077 -0.0738
 6554SOL     OW31120   4.702   1.255   3.456 -0.5543 -0.3196  0.2261
 6554SOL    HW131121   4.609   1.277   3.465 -0.3770  0.7696 -0.6307
 6554SOL    HW231122   0.009   1.274   3.545  3.1793 -4.1494 -0.2108
 6555SOL     OW31123   4.472   4.405   5.288  0.5306  0.1370  0.6614
 6555SOL    HW131124   4.507   4.367   5.208  0.7139  0.3139  0.6553
 6555SOL    HW231125   4.428   4.332   5.330  0.4073 -0.7911 -1.1232
 6556SOL     OW31126   0.450   0.579   7.768 -0.0014  0.1377  0.1638
 6556SOL    HW131127   0.495   0.537   7.841 -0.4513  3.2869  2.2608
 6556SOL    HW231128   0.357   0.566   7.789 -0.3586 -1.0353 -2.2510
 6557SOL     OW31129   3.672   3.210   4.198 -0.2478  0.0341 -0.9027
 6557SOL    HW131130   3.728   3.287   4.186 -0.8681  0.7407  0.8626
 6557SOL    HW231131   3.672   3.213   4.293  2.0991 -1.9996 -0.8335
 6558SOL     OW31132   4.514   0.228   6.151  0.2907  0.6875 -0.3942
 6558SOL    HW131133   4.435   0.272   6.119 -0.4656 -0.5977 -0.3002
 6558SOL    HW231134   4.473   0.189   6.228 -1.6045 -2.0094 -2.7451
 6559SOL     OW31135   4.377   0.859   4.181 -0.2261 -0.0318 -0.1387
 6559SOL    HW131136   4.369   0.904   4.097 -0.2792  2.2904  1.1151
 6559SOL    HW231137   4.471   0.851   4.199 -0.4915 -0.6912  0.9471
 6560SOL     OW31138   3.431   2.405   5.017 -0.0684  0.4404  0.2119
 6560SOL    HW131139   3.435   2.404   4.921 -0.9645 -1.6243  0.1941
 6560SOL    HW231140   3.347   2.449   5.029 -0.2079  0.8936 -2.2983
 6561SOL     OW31141   3.920   1.262  16.866  0.1644  0.2076 -0.0032
 6561SOL    HW131142   3.950   1.284  16.954  2.3290  1.8348 -1.1326
 6561SOL    HW231143   3.990   1.298  16.811  0.7137 -3.3194 -1.6206
 6562SOL     OW31144   4.301   1.750   9.010  0.2949 -0.0168 -0.0033
 6562SOL    HW131145   4.209   1.762   8.987  0.6175 -1.9221 -2.2282
 6562SOL    HW231146   4.340   1.762   8.924  2.6350 -0.4867  0.9927
 6563SOL     OW31147   0.208   1.810   1.137 -0.4336 -0.0011  0.3939
 6563SOL    HW131148   0.258   1.850   1.066  0.9014 -0.6503  0.9771
 6563SOL    HW231149   0.178   1.729   1.096  0.3651  0.1272 -0.4498
 6564SOL     OW31150   2.816   2.042  17.533  1.0349  0.3129 -0.4339
 6564SOL    HW131151   2.810   1.946  17.540 -1.9523  0.6249  0.9963
 6564SOL    HW231152   2.899   2.053  17.578  1.6195 -0.7278 -1.2341
 6565SOL     OW31153   0.428   4.546  15.148 -0.4996  0.1814  0.4675
 6565SOL    HW131154   0.349   4.495  15.167 -1.6744  1.6833 -0.4252
 6565SOL    HW231155   0.392   4.634  15.152 -1.7716 -0.3430  0.5502
 6566SOL     OW31156   1.622   3.340   8.947 -0.1091 -0.0248 -0.7139
 6566SOL    HW131157   1.715   3.338   8.922 -0.4174  1.1529 -1.9778
 6566SOL    HW231158   1.622   3.248   8.975  0.4028  0.1773 -0.0493
 6567SOL     OW31159   2.403   1.737   1.679  0.3831  0.4141  0.0665
 6567SOL    HW131160   2.469   1.706   1.742 -1.6937  0.9066  2.4807
 6567SOL    HW231161   2.332   1.712   1.738 -0.5531  0.3971 -1.0984
 6568SOL     OW31162   4.365   3.507   4.092 -0.1928  0.0409 -0.0970
 6568SOL    HW131163   4.375   3.592   4.135 -0.1448 -1.1771  2.2804
 6568SOL    HW231164   4.405   3.523   4.006  2.3960 -1.3534  0.8613
 6569SOL     OW31165   0.054   0.724  11.149 -0.6802 -0.2393  0.0789
 6569SOL    HW131166   0.101   0.793  11.103  0.3846 -1.4911 -0.7253
 6569SOL    HW231167   0.130   0.680  11.187  0.2629 -0.7705 -2.4249
 6570SOL     OW31168   1.986   1.297   8.150 -0.4352 -0.0382 -0.1075
 6570SOL    HW131169   2.025   1.303   8.063 -0.6152  3.5241  0.0432
 6570SOL    HW231170   1.944   1.383   8.155  0.6244  0.5207 -0.5995
 6571SOL     OW31171   2.362   0.238   7.454 -0.0557  0.0031  0.0098
 6571SOL    HW131172   2.406   0.169   7.505 -0.2406 -0.0904  0.0445
 6571SOL    HW231173   2.278   0.192   7.453  0.2520 -0.4680 -2.9075
 6572SOL     OW31174   1.849   4.242   8.711  0.6886 -0.0347 -0.3901
 6572SOL    HW131175   1.887   4.268   8.794 -2.3756  0.8402  0.7274
 6572SOL    HW231176   1.767   4.208   8.745 -0.7263  0.5139 -3.2273
 6573SOL     OW31177   2.519   2.680   3.689  0.2096  0.0318  0.4655
 6573SOL    HW131178   2.531   2.614   3.757 -1.3026  0.8912  1.5656
 6573SOL    HW231179   2.466   2.747   3.732  0.0193  0.4642 -0.4376
 6574SOL     OW31180   2.170   0.089  14.515  0.3593 -0.5125 -0.3838
 6574SOL    HW131181   2.217   0.148  14.455  0.1490 -0.0009 -0.0515
 6574SOL    HW231182   2.081   0.078  14.483 -1.0833  1.4790  2.8988
 6575SOL     OW31183   4.206   1.479   5.948 -0.4481  0.2517 -0.7894
 6575SOL    HW131184   4.219   1.539   5.875  0.3142 -1.1126 -1.7830
 6575SOL    HW231185   4.129   1.429   5.922 -0.4751 -1.4328  2.4861
 6576SOL     OW31186   0.038   1.718   5.355 -0.5790 -0.0339  0.0883
 6576SOL    HW131187   4.685   1.733   5.298 -0.8066  0.9225  0.6481
 6576SOL    HW231188   0.079   1.642   5.312  1.8617  0.3994  1.6363
 6577SOL     OW31189   4.348   2.677   8.655 -0.1349 -0.4603 -0.1782
 6577SOL    HW131190   4.338   2.749   8.718  1.8232 -0.3366  0.0115
 6577SOL    HW231191   4.277   2.703   8.597 -1.1195 -0.5365  0.9786
 6578SOL     OW31192   3.006   2.014   6.884  0.1324 -0.3687 -0.3920
 6578SOL    HW131193   2.960   2.093   6.913 -2.2809 -2.0444  0.3120
 6578SOL    HW231194   3.022   1.979   6.972  2.3753 -1.1174 -1.1088
 6579SOL     OW31195   4.199   4.599  13.234 -0.0656  0.4022 -0.1043
 6579SOL    HW131196   4.264   4.539  13.200  0.5136  2.1953 -2.1310
 6579SOL    HW231197   4.124   4.540  13.241 -0.0098  0.3860  0.4290
 6580SOL     OW31198   1.883   3.135   5.086 -0.1081 -0.6326 -0.2344
 6580SOL    HW131199   1.933   3.053   5.077  0.4313 -0.3865  0.5602
 6580SOL    HW231200   1.937   3.175   5.153  1.2608 -1.3288 -0.9080
 6581SOL     OW31201   2.683   3.017   6.413  0.8006 -0.2598  0.0620
 6581SOL    HW131202   2.666   3.100   6.458  2.1577  0.1757 -0.2424
 6581SOL    HW231203   2.778   3.020   6.406  0.7811  1.1369  0.3940
 6582SOL     OW31204   2.718   2.610   9.229  0.4172 -0.0268  0.5701
 6582SOL    HW131205   2.767   2.616   9.147  0.5468 -1.9453  0.5105
 6582SOL    HW231206   2.632   2.581   9.201  1.3328 -1.2459 -0.9541
 6583SOL     OW31207   2.764   1.215   6.958 -0.5092  0.3434  0.2830
 6583SOL    HW131208   2.849   1.181   6.986 -1.1810 -0.0639  1.8281
 6583SOL    HW231209   2.741   1.284   7.020 -1.1316  0.7316 -0.3727
 6584SOL     OW31210   1.369   4.695   5.250  0.1343 -0.2199 -0.4694
 6584SOL    HW131211   1.337   4.640   5.322  1.1781 -1.0003 -0.5943
 6584SOL    HW231212   1.457   4.712   5.284 -0.7775  0.0247  1.7633
 6585SOL     OW31213   2.595   1.161  11.316  0.4815  0.3048  0.3763
 6585SOL    HW131214   2.644   1.108  11.378  1.8661  0.1358 -0.8831
 6585SOL    HW231215   2.643   1.237  11.284  1.8449 -0.1648  1.3211
 6586SOL     OW31216   0.787   3.291   6.005  0.2632  0.8629 -0.1179
 6586SOL    HW131217   0.838   3.248   5.936 -0.2233 -0.8293  0.5752
 6586SOL    HW231218   0.697   3.287   5.975  0.3985 -0.5494 -0.3362
 6587SOL     OW31219   0.893   4.597   6.642 -0.4972 -0.0821 -0.8043
 6587SOL    HW131220   0.868   4.611   6.551  0.1024  1.9292 -0.6642
 6587SOL    HW231221   0.909   4.503   6.639 -3.0106 -0.4771 -1.7332
 6588SOL     OW31222   1.674   1.513   5.393  0.7311 -0.0123  0.0695
 6588SOL    HW131223   1.650   1.441   5.451  1.3091 -0.7175 -0.5614
 6588SOL    HW231224   1.677   1.469   5.308 -1.1616 -2.2189  1.1570
 6589SOL     OW31225   3.772   4.654  11.756 -0.1017  0.1658 -0.3027
 6589SOL    HW131226   3.854   4.610  11.779  0.8368  2.6947  1.1717
 6589SOL    HW231227   3.807   0.006  11.709  0.3519  0.1387 -0.0155
 6590SOL     OW31228   2.098   2.422   1.983 -0.0749 -0.1422 -0.1566
 6590SOL    HW131229   2.051   2.358   2.037 -3.0736  0.2289 -2.3331
 6590SOL    HW231230   2.189   2.396   1.995 -0.7127 -2.5022 -0.4141
 6591SOL     OW31231   2.519   4.522   9.164  0.2844 -1.1147 -0.1192
 6591SOL    HW131232   2.583   4.590   9.142  0.3572 -0.9687  0.5524
 6591SOL    HW231233   2.502   4.484   9.077 -1.1735  0.6125 -0.5865
 6592SOL     OW31234   2.680   3.994   7.748  0.1965 -0.2040 -0.1657
 6592SOL    HW131235   2.707   3.909   7.784  0.3267 -0.4587 -0.8521
 6592SOL    HW231236   2.764   4.028   7.716 -0.8184  0.2689 -2.2947
 6593SOL     OW31237   0.898   0.117   1.357  0.2595 -0.0578  0.4843
 6593SOL    HW131238   0.844   0.078   1.425  0.9017 -2.4480 -0.3797
 6593SOL    HW231239   0.847   0.102   1.278  0.0425 -0.4858  0.7071
 6594SOL     OW31240   3.666   2.757  12.738 -0.9339 -0.1454  0.1009
 6594SOL    HW131241   3.675   2.852  12.737  1.6528 -0.3965 -0.1472
 6594SOL    HW231242   3.585   2.747  12.788  1.0908 -0.7008  3.2879
 6595SOL     OW31243   1.180   2.198   4.726  0.3561  0.1174 -0.3053
 6595SOL    HW131244   1.190   2.171   4.635  0.3070  1.0585 -0.5863
 6595SOL    HW231245   1.121   2.135   4.767  1.3917 -1.4333 -1.2234
 6596SOL     OW31246   2.485   1.578   8.601 -0.2479  0.1035 -0.4957
 6596SOL    HW131247   2.415   1.548   8.544 -0.8429 -0.0716  0.3312
 6596SOL    HW231248   2.556   1.527   8.560  0.8127  1.5533 -0.4863
 6597SOL     OW31249   2.217   1.063   5.349  0.6215 -0.0252 -0.2079
 6597SOL    HW131250   2.219   1.050   5.254 -0.9623  2.1531 -0.5529
 6597SOL    HW231251   2.251   0.978   5.375 -0.4632 -1.0302 -2.0419
 6598SOL     OW31252   2.590   0.555  10.692  0.0739 -0.4042 -0.0370
 6598SOL    HW131253   2.566   0.614  10.621  1.2191  1.6684  1.2889
 6598SOL    HW231254   2.565   0.468  10.661  0.2363  0.4447 -2.5409
 6599SOL     OW31255   3.764   0.748   5.304  0.7675 -0.6594  0.4531
 6599SOL    HW131256   3.845   0.738   5.255  0.4275  0.8016 -0.4118
 6599SOL    HW231257   3.767   0.840   5.332  2.9311 -0.3972 -0.6639
 6600SOL     OW31258   4.130   1.495   2.041 -0.4459  0.2898 -0.0433
 6600SOL    HW131259   4.146   1.430   2.110  2.0447  0.7458 -0.1859
 6600SOL    HW231260   4.198   1.554   2.072 -0.6543  0.7070 -0.3884
 6601SOL     OW31261   2.121   4.404   6.471  0.6013  0.3026 -0.2023
 6601SOL    HW131262   2.040   4.455   6.462  1.4455  1.5910 -0.3995
 6601SOL    HW231263   2.101   4.337   6.405 -1.8296 -0.4911  1.3116
 6602SOL     OW31264   0.753   2.082   9.432 -0.2339  0.3070  0.5306
 6602SOL    HW131265   0.755   1.987   9.416 -2.8975  0.0965  1.5074
 6602SOL    HW231266   0.763   2.118   9.344  3.3493  0.9204  1.1989
 6603SOL     OW31267   3.548   0.945   5.167  0.0304  0.2131 -0.1467
 6603SOL    HW131268   3.619   0.991   5.212 -0.3684 -0.2407  0.9403
 6603SOL    HW231269   3.478   1.003   5.199 -0.0230 -0.2148  0.5114
 6604SOL     OW31270   0.831   3.909  16.384  0.1936  0.2086  0.5674
 6604SOL    HW131271   0.747   3.933  16.346  0.4209 -0.8176 -0.5782
 6604SOL    HW231272   0.853   3.990  16.430  0.2178  0.3378  0.3284
 6605SOL     OW31273   2.794   1.771  10.903  0.5868 -0.5093  0.5741
 6605SOL    HW131274   2.838   1.759  10.987 -0.5884 -3.4537  0.7614
 6605SOL    HW231275   2.871   1.800  10.853 -0.7312 -1.3638 -1.9287
 6606SOL     OW31276   0.384   2.523  10.000  0.6088  0.0102 -0.1391
 6606SOL    HW131277   0.363   2.572  10.079  0.4175 -0.6094  0.1985
 6606SOL    HW231278   0.341   2.439  10.018 -0.0106  0.4705  0.5357
 6607SOL     OW31279   1.969   2.173   6.920 -0.0313  0.7314 -0.8575
 6607SOL    HW131280   1.985   2.209   6.833 -0.1943  1.4837 -0.5767
 6607SOL    HW231281   1.893   2.115   6.907 -0.5870  1.8856 -2.6447
 6608SOL     OW31282   2.324   2.289   1.986  0.6274  0.3558  0.3898
 6608SOL    HW131283   2.329   2.252   2.074  1.3273 -0.7348 -0.1044
 6608SOL    HW231284   2.320   2.205   1.940  0.7634 -0.2875  1.5437
 6609SOL     OW31285   4.447   0.934   9.567  0.5378  0.4900 -0.4403
 6609SOL    HW131286   4.451   0.995   9.493  0.5592  1.4207  0.3424
 6609SOL    HW231287   4.447   1.003   9.633 -1.8141  0.3539 -0.3003
 6610SOL     OW31288   3.593   4.711   5.616 -0.9244  0.4689  0.2702
 6610SOL    HW131289   3.618   4.690   5.526 -2.2880  3.6313 -0.8623
 6610SOL    HW231290   3.657   0.057   5.637 -1.6358  0.7611  1.4404
 6611SOL     OW31291   3.862   3.374   8.374 -0.1043 -0.0098  0.5615
 6611SOL    HW131292   3.901   3.317   8.441  1.7276  0.8070  0.1874
 6611SOL    HW231293   3.870   3.460   8.415  0.9874  1.2139 -2.1798
 6612SOL     OW31294   1.866   3.380   1.090 -0.4049 -0.2558  0.7505
 6612SOL    HW131295   1.811   3.375   1.168 -0.0358  2.9239  1.2499
 6612SOL    HW231296   1.843   3.298   1.047 -1.4775 -0.4716  1.7354
 6613SOL     OW31297   3.035   4.328  14.336  0.3597 -0.1296 -0.4300
 6613SOL    HW131298   2.963   4.264  14.334  1.8945 -1.8764  0.0982
 6613SOL    HW231299   3.077   4.316  14.251 -0.3220 -1.2224 -0.6092
 6614SOL     OW31300   0.339   0.592   6.286  0.4629  0.3969  0.2054
 6614SOL    HW131301   0.408   0.531   6.260  0.8664  0.9510 -0.0178
 6614SOL    HW231302   0.395   0.667   6.308 -0.4624  0.9479  0.6737
 6615SOL     OW31303   0.464   3.024   5.097 -0.3363 -0.2692 -0.2512
 6615SOL    HW131304   0.398   2.980   5.042  1.9503 -4.7550  0.6345
 6615SOL    HW231305   0.534   2.960   5.088 -0.6579 -1.3086  4.7372
 6616SOL     OW31306   2.507   2.754   4.143 -1.1139  0.1895  0.3933
 6616SOL    HW131307   2.417   2.782   4.125 -0.6623  1.1346 -0.3424
 6616SOL    HW231308   2.546   2.831   4.182 -0.1691 -0.0482 -0.0852
 6617SOL     OW31309   1.953   0.391   5.862 -0.0537  0.4287  0.9413
 6617SOL    HW131310   1.952   0.439   5.944 -2.8052  1.1782  0.4776
 6617SOL    HW231311   1.969   0.303   5.895 -1.3669 -0.0789  0.2639
 6618SOL     OW31312   2.475   3.346   3.234  0.1612 -0.5436  0.1478
 6618SOL    HW131313   2.449   3.349   3.326  1.8149 -3.0368  0.7040
 6618SOL    HW231314   2.455   3.257   3.206 -0.1077 -0.2639 -0.5512
 6619SOL     OW31315   3.935   0.104  12.346 -0.3140 -0.2920  0.2366
 6619SOL    HW131316   3.928   0.171  12.415  1.1628  1.5957 -1.4538
 6619SOL    HW231317   3.900   0.153  12.272 -0.4349  1.3123  1.3284
 6620SOL     OW31318   3.479   4.024  16.881 -0.9319 -0.2585  0.3285
 6620SOL    HW131319   3.530   4.089  16.832  0.1652 -0.9765  0.5176
 6620SOL    HW231320   3.403   3.999  16.829 -0.6243 -0.1545 -0.1656
 6621SOL     OW31321   0.443   2.172   6.679  0.4618  0.4323  0.1588
 6621SOL    HW131322   0.431   2.262   6.647 -0.6001 -0.0865 -0.8743
 6621SOL    HW231323   0.533   2.183   6.712  1.0800 -2.7192 -0.5085
 6622SOL     OW31324   0.333   3.387  14.002  0.2085 -0.1443 -0.1770
 6622SOL    HW131325   0.244   3.362  14.025 -0.7959  4.0621  0.5652
 6622SOL    HW231326   0.371   3.401  14.089  0.7039 -0.2035 -0.3828
 6623SOL     OW31327   4.155   1.721  16.974  0.1507 -0.3109 -0.1976
 6623SOL    HW131328   4.116   1.651  16.921 -2.7941  1.7909 -0.7875
 6623SOL    HW231329   4.082   1.747  17.031 -1.7493  0.6225 -3.0250
 6624SOL     OW31330   3.558   1.298   9.190 -0.0103 -0.1194  0.0093
 6624SOL    HW131331   3.584   1.298   9.282  0.3332  0.5899 -0.0865
 6624SOL    HW231332   3.645   1.311   9.152  0.4294 -3.1172 -0.0545
 6625SOL     OW31333   0.620   4.553   1.870  0.1845 -0.0202 -0.0553
 6625SOL    HW131334   0.671   4.547   1.790  3.1690  0.0216  1.8615
 6625SOL    HW231335   0.681   4.590   1.934  0.9580 -0.4676 -0.5422
 6626SOL     OW31336   0.951   1.489   3.635 -0.0763 -0.3874 -0.1245
 6626SOL    HW131337   0.895   1.419   3.667 -0.7998 -0.2832 -1.1394
 6626SOL    HW231338   0.922   1.560   3.692  0.1079 -1.1082  0.8507
 6627SOL     OW31339   2.776   1.510   7.763 -0.0604  0.4538  0.0893
 6627SOL    HW131340   2.860   1.555   7.772  0.8149 -0.8284 -1.5287
 6627SOL    HW231341   2.767   1.535   7.671 -0.5160  1.7678  0.4928
 6628SOL     OW31342   2.596   1.592   0.204  0.0264 -0.2603 -0.1223
 6628SOL    HW131343   2.599   1.616   0.111 -1.7404 -0.2789 -0.1786
 6628SOL    HW231344   2.671   1.534   0.217  1.2408  0.8270 -2.3146
 6629SOL     OW31345   4.066   2.646   7.925  0.6045 -0.1942 -0.1125
 6629SOL    HW131346   4.101   2.626   7.838  0.7286 -3.2611  0.6315
 6629SOL    HW231347   4.137   2.702   7.954 -0.6133 -0.0345  2.5351
 6630SOL     OW31348   0.232   4.295   2.008  0.0079 -0.2501 -0.2963
 6630SOL    HW131349   0.199   4.346   1.934  0.1638 -2.7054 -2.0498
 6630SOL    HW231350   0.323   4.271   1.990 -0.5509 -2.3049 -0.3062
 6631SOL     OW31351   1.508   3.939   2.380  0.3428  0.2124 -0.2065
 6631SOL    HW131352   1.547   3.882   2.314 -0.1830 -1.1451  0.6632
 6631SOL    HW231353   1.582   3.990   2.414 -1.1521  0.7076  2.2830
 6632SOL     OW31354   1.805   0.417   3.534  0.2197  0.7990 -0.3367
 6632SOL    HW131355   1.781   0.462   3.615 -1.4990 -0.4360 -0.1504
 6632SOL    HW231356   1.736   0.350   3.529 -0.1488  1.1370  0.1718
 6633SOL     OW31357   3.649   1.589   8.567  0.5197 -0.0090 -0.3688
 6633SOL    HW131358   3.581   1.546   8.619  1.5679  1.5156  2.2374
 6633SOL    HW231359   3.715   1.562   8.630  1.9919  2.6191 -0.7921
 6634SOL     OW31360   2.720   0.284   8.153 -0.8546  0.0632  0.1583
 6634SOL    HW131361   2.649   0.266   8.091 -2.7175 -0.7363  2.5120
 6634SOL    HW231362   2.774   0.212   8.123 -0.8686 -1.0341  2.7457
 6635SOL     OW31363   3.868   0.788  15.858  0.0108 -0.0500  0.2502
 6635SOL    HW131364   3.781   0.769  15.823  0.1040  1.2034 -0.6664
 6635SOL    HW231365   3.893   0.859  15.799  1.9071  0.8873  2.2007
 6636SOL     OW31366   2.339   0.932   3.769 -0.5664 -0.1797  0.1117
 6636SOL    HW131367   2.326   0.856   3.712 -0.6542  0.2990 -0.5044
 6636SOL    HW231368   2.370   0.895   3.852  3.8116  0.9050 -1.0377
 6637SOL     OW31369   2.223   2.511   5.769  0.2781  0.1623 -0.1638
 6637SOL    HW131370   2.268   2.453   5.708  1.4104 -0.1197  0.9543
 6637SOL    HW231371   2.210   2.445   5.837  1.6352  0.0758 -0.0019
 6638SOL     OW31372   4.204   0.818   7.528  0.0886  1.2749 -0.4827
 6638SOL    HW131373   4.178   0.807   7.437  1.0076 -4.5345 -0.0711
 6638SOL    HW231374   4.122   0.818   7.577  0.8440 -1.7263  0.7961
 6639SOL     OW31375   0.085   2.552   0.014  0.0969 -0.2921 -0.3078
 6639SOL    HW131376   0.077   2.587  17.620 -0.6911 -0.9339 -0.4926
 6639SOL    HW231377   0.018   2.599   0.063  1.9722  1.7787  0.2647
 6640SOL     OW31378   0.675   0.432   7.542 -0.1800  0.2482 -0.3378
 6640SOL    HW131379   0.649   0.511   7.495 -0.2208 -0.6515 -1.8526
 6640SOL    HW231380   0.750   0.468   7.589  1.7323 -2.9969 -0.9037
 6641SOL     OW31381   4.318   3.696   9.329 -0.3033  0.4379  0.4116
 6641SOL    HW131382   4.280   3.758   9.391  0.9438  1.5084  0.1079
 6641SOL    HW231383   4.290   3.743   9.250  0.5163 -1.8561 -1.2645
 6642SOL     OW31384   1.407   0.509   2.409  0.2877 -0.7654 -0.0313
 6642SOL    HW131385   1.476   0.503   2.342  0.6952 -0.1968  0.3389
 6642SOL    HW231386   1.464   0.510   2.486 -1.3318  1.4920  1.1400
 6643SOL     OW31387   3.851   2.214   3.882 -0.0277 -0.0829  0.3266
 6643SOL    HW131388   3.789   2.279   3.849  1.1632  1.0993  0.4071
 6643SOL    HW231389   3.841   2.241   3.973 -0.4767 -0.5043  0.3979
 6644SOL     OW31390   2.314   1.986   1.707 -0.2477  0.2656  0.0318
 6644SOL    HW131391   2.351   1.912   1.659  1.4096 -0.3209  2.2537
 6644SOL    HW231392   2.313   1.956   1.798  0.6513  2.5471  0.8086
 6645SOL     OW31393   1.897   1.793   7.167 -0.1935  0.1347 -0.3688
 6645SOL    HW131394   1.847   1.712   7.164  0.6117 -0.3643 -0.2964
 6645SOL    HW231395   1.899   1.804   7.072  1.1004 -1.2659 -0.5036
 6646SOL     OW31396   4.484   1.643   5.638  0.7712  0.2582  0.3425
 6646SOL    HW131397   4.558   1.588   5.611  1.5491  1.3995  0.1222
 6646SOL    HW231398   4.516   1.658   5.727  0.3814  0.0382  0.5171
 6647SOL     OW31399   0.353   3.407   3.228  0.0627 -0.4090  0.5043
 6647SOL    HW131400   0.400   3.486   3.203 -1.7212  1.0920  1.9024
 6647SOL    HW231401   0.351   3.365   3.142  0.5721 -1.0882  0.8219
 6648SOL     OW31402   4.442   0.453   9.139 -0.0679 -0.0830  0.8382
 6648SOL    HW131403   4.439   0.537   9.093 -0.5301 -0.5344  0.0444
 6648SOL    HW231404   4.462   0.480   9.229 -0.8420  3.5488 -0.0591
 6649SOL     OW31405   0.252   0.582  11.259 -0.6072  0.4145  0.2547
 6649SOL    HW131406   0.311   0.522  11.213  0.6691 -0.1932  2.6727
 6649SOL    HW231407   0.258   0.550  11.350  0.4366  1.4422  0.5420
 6650SOL     OW31408   1.719   3.274   2.416 -0.3107  0.0961  0.1382
 6650SOL    HW131409   1.629   3.293   2.442  0.0588  1.2162  0.5910
 6650SOL    HW231410   1.730   3.331   2.339  2.3667 -1.6252 -0.7371
 6651SOL     OW31411   2.602   3.033   5.365 -0.2466 -0.2276  0.3318
 6651SOL    HW131412   2.690   3.052   5.400 -0.1945  0.0215  0.0555
 6651SOL    HW231413   2.613   3.033   5.270 -0.5094  0.3856  0.3020
 6652SOL     OW31414   3.202   0.952   9.806 -0.1715  0.0303  0.2931
 6652SOL    HW131415   3.296   0.960   9.819  0.2001 -1.6501 -1.4024
 6652SOL    HW231416   3.179   0.931   9.897 -1.2775  1.1129  0.2690
 6653SOL     OW31417   3.827   1.870   3.271  0.0838 -0.4009  0.3058
 6653SOL    HW131418   3.879   1.941   3.233  0.4746 -0.6426  0.3852
 6653SOL    HW231419   3.846   1.793   3.217 -1.0474 -0.4834  0.0148
 6654SOL     OW31420   0.472   1.813   8.025 -0.0240 -0.4023  0.2194
 6654SOL    HW131421   0.510   1.806   8.113  0.0151 -0.2195  0.2181
 6654SOL    HW231422   0.386   1.775   8.042  0.8927 -1.7381  1.8286
 6655SOL     OW31423   0.472   4.371   6.463 -0.4079  0.4993 -0.4888
 6655SOL    HW131424   0.509   4.283   6.462  0.1353  0.7333 -1.0060
 6655SOL    HW231425   0.503   4.395   6.376  0.1872  1.1110 -0.1128
 6656SOL     OW31426   1.637   2.536   1.128  0.1669  0.3196 -0.3710
 6656SOL    HW131427   1.657   2.578   1.212 -1.6476  0.0687  0.2024
 6656SOL    HW231428   1.693   2.460   1.142  1.4129  0.8090 -2.6876
 6657SOL     OW31429   2.399   1.574  13.252  0.5070  0.0142  0.2675
 6657SOL    HW131430   2.489   1.602  13.267  0.4167 -0.2945  1.3769
 6657SOL    HW231431   2.354   1.632  13.314  0.0850 -1.2997  1.1842
 6658SOL     OW31432   2.254   4.342   0.732 -0.3539 -0.1844  0.2268
 6658SOL    HW131433   2.244   4.294   0.814  1.9598 -0.2210  0.4639
 6658SOL    HW231434   2.167   4.335   0.692 -0.8620  0.1830  1.2646
 6659SOL     OW31435   4.036   1.757   4.348 -0.6620  0.7594  0.1428
 6659SOL    HW131436   4.081   1.772   4.265 -0.4221 -0.8024  0.0025
 6659SOL    HW231437   4.110   1.749   4.408 -1.4824  0.6852  1.1489
 6660SOL     OW31438   2.201   4.437   7.243  0.2770  0.1970 -0.1137
 6660SOL    HW131439   2.272   4.450   7.306 -0.1663 -0.2996  0.4962
 6660SOL    HW231440   2.130   4.473   7.296  0.5170 -2.1013  1.7801
 6661SOL     OW31441   3.408   2.159   8.393 -0.0315 -0.1930  0.0173
 6661SOL    HW131442   3.364   2.173   8.477  0.3330  1.3848 -0.0513
 6661SOL    HW231443   3.345   2.185   8.327 -0.7951 -2.4030 -0.1293
 6662SOL     OW31444   0.484   1.526   7.605 -0.4648 -0.5716  0.8548
 6662SOL    HW131445   0.492   1.540   7.699  1.1594  1.6438  0.3868
 6662SOL    HW231446   0.416   1.591   7.584  0.2664 -0.4388 -1.1371
 6663SOL     OW31447   2.577   3.304   2.575  0.7331 -0.0169 -0.1105
 6663SOL    HW131448   2.490   3.341   2.563  0.0384 -2.0075 -1.2085
 6663SOL    HW231449   2.561   3.214   2.547  1.2471  0.9061 -3.4263
 6664SOL     OW31450   3.481   0.855   4.912  0.7068 -0.2335  0.0862
 6664SOL    HW131451   3.394   0.830   4.945  1.2999  0.3912  2.1461
 6664SOL    HW231452   3.532   0.872   4.992  0.5208  0.6183  0.0215
 6665SOL     OW31453   1.465   3.838   7.825  0.1821  0.1005  0.0714
 6665SOL    HW131454   1.448   3.933   7.825  2.7274  0.5505 -1.1631
 6665SOL    HW231455   1.433   3.810   7.739 -1.2979 -4.5571  2.1909
 6666SOL     OW31456   3.834   3.838  17.155  0.3987  0.4167 -0.1122
 6666SOL    HW131457   3.924   3.814  17.176 -0.4659  0.0284  3.1313
 6666SOL    HW231458   3.788   3.784  17.219  0.6241  0.7467  0.3283
 6667SOL     OW31459   3.397   4.591   6.326  0.2045 -0.4273  0.1822
 6667SOL    HW131460   3.325   4.614   6.384  1.0616  1.8245  0.3493
 6667SOL    HW231461   3.461   4.559   6.390 -2.0946 -2.0650  1.6832
 6668SOL     OW31462   2.343   3.010   9.143 -0.2824 -1.2275 -1.0537
 6668SOL    HW131463   2.317   3.035   9.055 -1.3077  0.9996 -0.1086
 6668SOL    HW231464   2.383   3.085   9.187 -2.0871  0.0619 -1.6262
 6669SOL     OW31465   4.699   2.851  13.424 -0.0496  0.4127 -0.1232
 6669SOL    HW131466   4.652   2.900  13.492  0.5642  1.5022 -0.4867
 6669SOL    HW231467   4.628   2.836  13.361  0.6074  1.6582 -1.1493
 6670SOL     OW31468   2.990   1.183   5.547 -0.0780 -0.0452 -0.0550
 6670SOL    HW131469   2.919   1.119   5.548 -0.9748  0.9318 -0.5956
 6670SOL    HW231470   2.974   1.239   5.623  0.1488  0.5553 -0.4427
 6671SOL     OW31471   1.482   4.162   6.052 -0.3122  0.3346  0.0053
 6671SOL    HW131472   1.467   4.109   6.131  1.4446  0.8246  0.6703
 6671SOL    HW231473   1.458   4.093   5.990  1.9840  0.4812 -1.0522
 6672SOL     OW31474   4.096   4.375   5.609 -0.0263 -0.1481 -0.1189
 6672SOL    HW131475   4.074   4.401   5.698  1.9009  1.0545 -0.0015
 6672SOL    HW231476   4.158   4.443   5.585 -1.1919 -0.3675 -3.9226
 6673SOL     OW31477   4.567   3.680   1.897 -0.2300  0.7094 -0.3618
 6673SOL    HW131478   4.609   3.746   1.841  0.1303 -0.0256 -0.9695
 6673SOL    HW231479   4.490   3.734   1.913 -0.6045  0.3827 -1.0515
 6674SOL     OW31480   1.977   2.855   7.509 -0.4254  0.1669 -0.2791
 6674SOL    HW131481   1.924   2.935   7.507  1.4605  1.4324  0.1746
 6674SOL    HW231482   1.961   2.828   7.600  0.4226  0.2017 -0.1183
 6675SOL     OW31483   4.019   2.732  13.204 -0.2538  0.2351  0.1580
 6675SOL    HW131484   3.934   2.700  13.172  0.3406  1.6983 -2.9047
 6675SOL    HW231485   3.998   2.826  13.203 -1.0672  0.0559  0.0520
 6676SOL     OW31486   2.080   3.171  10.959 -0.2510 -0.9436 -0.4283
 6676SOL    HW131487   2.024   3.218  10.898  0.6542 -0.6197 -1.0053
 6676SOL    HW231488   2.019   3.109  10.998 -2.0613  1.2250  0.2062
 6677SOL     OW31489   1.776   0.173  16.594 -0.3024  0.2477  0.6899
 6677SOL    HW131490   1.709   0.162  16.661 -1.5398 -0.9650 -0.7711
 6677SOL    HW231491   1.760   0.104  16.531  1.7223  0.6472 -0.2806
 6678SOL     OW31492   2.732   1.434   3.275  0.1600 -0.3727 -0.0601
 6678SOL    HW131493   2.660   1.498   3.272  0.8401  0.3531 -0.8977
 6678SOL    HW231494   2.674   1.358   3.277  0.6442 -0.8168 -3.6850
 6679SOL     OW31495   0.348   1.800   7.358  0.3939 -0.4086  0.1374
 6679SOL    HW131496   0.315   1.748   7.432 -1.8481 -0.8053 -1.1420
 6679SOL    HW231497   0.268   1.836   7.321  0.0899  0.4016  1.5783
 6680SOL     OW31498   0.493   3.902   3.770 -0.1091  0.2150 -0.6066
 6680SOL    HW131499   0.557   3.958   3.813  0.8106 -3.3863  2.6925
 6680SOL    HW231500   0.509   3.922   3.677 -0.1468  2.1312 -0.1923
 6681SOL     OW31501   1.735   2.437   6.751 -0.1489 -0.2175  0.4920
 6681SOL    HW131502   1.826   2.468   6.747 -0.8201  1.5542 -1.1124
 6681SOL    HW231503   1.717   2.454   6.658 -2.5431 -0.7655  0.8569
 6682SOL     OW31504   4.440   2.907   2.838 -0.2750  0.8260 -0.6353
 6682SOL    HW131505   4.468   2.824   2.876  1.0725  1.5082 -0.1103
 6682SOL    HW231506   4.412   2.870   2.754 -0.4114  1.2549 -0.7819
 6683SOL     OW31507   2.121   3.790   0.294  0.0921  0.2637 -0.0732
 6683SOL    HW131508   2.153   3.817   0.208  0.4561  0.1103  0.0154
 6683SOL    HW231509   2.094   3.873   0.333  0.6944 -0.4049  1.7437
 6684SOL     OW31510   0.205   2.942   7.794  0.2327  0.3362  0.0388
 6684SOL    HW131511   0.148   3.019   7.799 -0.0599  0.2614 -2.2983
 6684SOL    HW231512   0.182   2.888   7.870 -0.5848 -1.0744 -1.2209
 6685SOL     OW31513   3.648   3.964   9.370  0.5701 -0.1240 -0.2693
 6685SOL    HW131514   3.710   4.021   9.415  0.1411  2.0088 -2.3681
 6685SOL    HW231515   3.592   4.032   9.332  0.3347 -0.1237  0.0712
 6686SOL     OW31516   2.159   0.023   3.432  0.2238 -0.0073 -0.1219
 6686SOL    HW131517   2.078   0.072   3.417 -0.3392 -1.1262 -0.7577
 6686SOL    HW231518   2.226   0.090   3.423 -1.1030  0.9191 -2.9705
 6687SOL     OW31519   1.873   3.349  10.407  0.1936  0.3200 -0.3152
 6687SOL    HW131520   1.956   3.304  10.422 -0.5260 -1.0329 -0.2926
 6687SOL    HW231521   1.875   3.370  10.314  0.8318 -0.3996 -0.4602
 6688SOL     OW31522   3.202   1.576   5.997 -0.0890  0.4395  0.0818
 6688SOL    HW131523   3.285   1.528   6.000 -0.7970 -0.7826  0.3319
 6688SOL    HW231524   3.236   1.663   6.018 -1.3614  1.6331 -2.9160
 6689SOL     OW31525   4.545   2.559  14.695 -0.3055  0.1034  0.3780
 6689SOL    HW131526   4.466   2.610  14.713  0.8062  1.6321  0.9430
 6689SOL    HW231527   4.584   2.544  14.782 -1.4948 -2.8277  0.3799
 6690SOL     OW31528   0.918   0.098   4.473 -0.0857 -0.6913 -1.5441
 6690SOL    HW131529   0.991   0.155   4.497 -2.0350  2.6196 -3.4571
 6690SOL    HW231530   0.847   0.160   4.488  0.1538 -0.9622  0.8163
 6691SOL     OW31531   3.201   1.794   8.661 -0.0503  0.2227  0.2646
 6691SOL    HW131532   3.119   1.751   8.639 -1.2173  1.2996  2.5407
 6691SOL    HW231533   3.183   1.871   8.608  0.6473  0.3296  0.1843
 6692SOL     OW31534   2.077   4.351   2.001 -0.3962 -0.4628 -0.1817
 6692SOL    HW131535   2.021   4.300   2.059  0.0425  2.0479  2.4877
 6692SOL    HW231536   2.011   4.401   1.954 -0.3723  0.8060  1.1245
 6693SOL     OW31537   3.104   3.225  17.586  0.3142  0.0335 -0.5048
 6693SOL    HW131538   3.061   3.167  17.649  0.5291 -0.1841 -0.5601
 6693SOL    HW231539   3.108   3.303  17.641 -0.8316 -1.3990  1.6333
 6694SOL     OW31540   3.084   1.251   2.061 -0.2842 -0.5940 -0.2737
 6694SOL    HW131541   3.179   1.246   2.065 -0.2112 -0.0137 -1.3987
 6694SOL    HW231542   3.083   1.301   2.142  1.5776  0.2040 -0.7404
 6695SOL     OW31543   2.264   2.467   8.064  0.4182 -0.7331  1.0155
 6695SOL    HW131544   2.197   2.501   8.124 -0.0341  0.2872 -0.0822
 6695SOL    HW231545   2.336   2.468   8.128 -0.2199  2.8498  1.7025
 6696SOL     OW31546   2.411   0.855  16.190  0.2733  0.0313 -0.5376
 6696SOL    HW131547   2.449   0.936  16.155 -3.9536  2.2937  0.0699
 6696SOL    HW231548   2.317   0.871  16.199 -0.2551 -2.5631 -1.3792
 6697SOL     OW31549   0.863   3.965  10.538  0.7550  0.6327 -0.1608
 6697SOL    HW131550   0.945   3.991  10.579  0.6738  1.2052 -0.3566
 6697SOL    HW231551   0.834   4.053  10.514 -3.1376 -1.1040 -1.8082
 6698SOL     OW31552   1.652   4.131   1.089  0.0185 -0.4871  0.2176
 6698SOL    HW131553   1.589   4.069   1.053 -0.4079  0.6472 -0.9472
 6698SOL    HW231554   1.624   4.212   1.046  1.0408 -0.7136 -0.8874
 6699SOL     OW31555   2.989   4.122   6.884  0.6818 -0.2271 -0.4370
 6699SOL    HW131556   2.961   4.140   6.794 -2.3337 -1.2787  0.3028
 6699SOL    HW231557   3.024   4.204   6.920 -0.8894  0.2162  0.0687
 6700SOL     OW31558   0.635   4.060   2.663  0.6533  0.0462  0.1981
 6700SOL    HW131559   0.730   4.058   2.649  0.5818 -0.9716 -0.1755
 6700SOL    HW231560   0.611   4.145   2.626 -0.4107  0.3580  1.5823
 6701SOL     OW31561   0.610   1.340   9.027  0.0885  0.6550  0.3732
 6701SOL    HW131562   0.637   1.345   8.936 -0.4752  0.7268  0.2084
 6701SOL    HW231563   0.517   1.360   9.018  0.1792  0.4095 -1.1651
 6702SOL     OW31564   1.566   2.584   1.792  0.4667 -0.1419 -0.2677
 6702SOL    HW131565   1.554   2.539   1.708  1.2418 -2.0417  0.6234
 6702SOL    HW231566   1.661   2.591   1.782  0.1935  1.1479 -1.9063
 6703SOL     OW31567   2.010   3.929   7.834  0.1079 -0.0126  0.1750
 6703SOL    HW131568   2.051   4.016   7.830  0.4132 -0.1061  1.2363
 6703SOL    HW231569   1.922   3.938   7.797 -0.7643 -0.7813  2.0564
 6704SOL     OW31570   4.303   0.002   8.592  0.2496  0.2308 -0.3041
 6704SOL    HW131571   4.398   4.720   8.581  0.3450  2.7374 -0.6450
 6704SOL    HW231572   4.277   0.044   8.510 -1.5049  0.9339  0.6061
 6705SOL     OW31573   4.544   3.524   9.076 -0.1735  0.0699  0.1225
 6705SOL    HW131574   4.571   3.544   9.166  0.3842  1.5800 -0.3767
 6705SOL    HW231575   4.493   3.444   9.087 -0.9658  0.4838 -0.5335
 6706SOL     OW31576   2.612   2.235  11.147  0.6525  0.3074  0.1290
 6706SOL    HW131577   2.658   2.319  11.154  0.5942  0.2830  0.7571
 6706SOL    HW231578   2.542   2.259  11.085  0.3447  0.7682  0.6551
 6707SOL     OW31579   3.758   1.966  11.677  0.5883 -0.1663  0.6938
 6707SOL    HW131580   3.765   2.061  11.683  0.7671 -0.2170  1.3088
 6707SOL    HW231581   3.763   1.936  11.768 -0.6545  1.6398  1.3689
 6708SOL     OW31582   0.307   3.452   6.793  0.1882 -0.3549 -0.3023
 6708SOL    HW131583   0.368   3.488   6.728 -0.3514  0.5707 -0.2963
 6708SOL    HW231584   0.361   3.392   6.844 -0.2864 -0.5293 -0.0133
 6709SOL     OW31585   1.250   0.595   0.660  0.9184  0.2744 -0.2545
 6709SOL    HW131586   1.256   0.539   0.583  0.8529 -0.3921  0.2197
 6709SOL    HW231587   1.234   0.679   0.617 -1.1574  0.3843  0.7356
 6710SOL     OW31588   1.382   3.505   2.308 -0.2093 -0.2555  0.2111
 6710SOL    HW131589   1.475   3.486   2.299 -0.0161  1.2481 -0.9912
 6710SOL    HW231590   1.358   3.459   2.228  0.3757 -1.3343  0.6602
 6711SOL     OW31591   4.162   3.234  14.757  0.0300  0.1969  0.0913
 6711SOL    HW131592   4.215   3.303  14.717 -0.2677 -1.5144 -3.2003
 6711SOL    HW231593   4.117   3.197  14.681 -0.2450  0.5762  0.0666
 6712SOL     OW31594   1.934   0.300   9.806 -0.4222 -0.3931 -0.4033
 6712SOL    HW131595   1.865   0.362   9.781 -0.7570 -0.6161 -0.0346
 6712SOL    HW231596   1.938   0.237   9.734 -2.3095 -1.2985  0.2652
 6713SOL     OW31597   1.840   4.452   0.720 -0.5285  0.2577 -0.1757
 6713SOL    HW131598   1.879   4.526   0.766  1.0503 -0.9204  0.3891
 6713SOL    HW231599   1.908   4.386   0.713 -0.5923  0.2574 -0.7666
 6714SOL     OW31600   2.098   0.444   3.905  0.0747  0.0498 -0.3711
 6714SOL    HW131601   2.072   0.532   3.878  0.2036  0.7237  1.6273
 6714SOL    HW231602   2.076   0.397   3.825  0.3479 -1.1882  0.2822
 6715SOL     OW31603   4.308   1.576   1.820  0.0851 -0.2097  0.4938
 6715SOL    HW131604   4.230   1.556   1.872 -0.0229 -0.1637  0.3476
 6715SOL    HW231605   4.355   1.493   1.825  0.3106 -0.0714  0.7180
 6716SOL     OW31606   0.975   4.229   7.626 -0.0749 -0.3076 -0.1016
 6716SOL    HW131607   0.922   4.172   7.570 -0.9364  1.5704 -1.1934
 6716SOL    HW231608   0.931   4.312   7.612 -2.0383 -1.3781 -0.2934
 6717SOL     OW31609   3.930   3.088   3.396 -0.2960  0.6697 -0.3395
 6717SOL    HW131610   3.941   3.060   3.486 -0.2323  0.4943 -0.4017
 6717SOL    HW231611   3.950   3.181   3.400  0.2966  0.5134  0.2595
 6718SOL     OW31612   3.525   0.132   6.479 -0.5198 -0.2184  0.1537
 6718SOL    HW131613   3.475   0.192   6.424  0.3182 -0.1085 -0.4909
 6718SOL    HW231614   3.601   0.123   6.421 -1.2489  0.7963 -0.9429
 6719SOL     OW31615   3.180   4.313   5.531 -0.0544  0.1265  0.2056
 6719SOL    HW131616   3.136   4.399   5.529  0.7011  0.5320  1.2031
 6719SOL    HW231617   3.240   4.324   5.605 -1.9755 -0.8185  1.9118
 6720SOL     OW31618   3.117   2.918   5.264  0.0380  0.2820 -0.2843
 6720SOL    HW131619   3.167   2.987   5.308 -0.2058  0.0604  0.3452
 6720SOL    HW231620   3.124   2.850   5.332 -0.6714 -0.0195 -0.5155
 6721SOL     OW31621   2.678   1.135   2.701  0.3401  0.0050 -0.6073
 6721SOL    HW131622   2.729   1.125   2.782  0.7136 -1.0196 -0.9734
 6721SOL    HW231623   2.749   1.156   2.641 -0.4140  0.6120 -1.2839
 6722SOL     OW31624   3.707   4.087   7.054  0.3194 -0.3336 -0.7253
 6722SOL    HW131625   3.701   4.113   6.962  1.7673 -1.3015 -1.0945
 6722SOL    HW231626   3.702   3.992   7.054 -1.1935 -0.2665 -3.8174
 6723SOL     OW31627   0.177   0.291   6.277  0.6355  0.5190  0.4965
 6723SOL    HW131628   0.104   0.246   6.320 -0.9896  0.1936 -2.5470
 6723SOL    HW231629   0.242   0.221   6.271  0.7684  0.7591 -0.9008
 6724SOL     OW31630   0.750   1.943  14.398 -0.5036 -0.2229 -0.5400
 6724SOL    HW131631   0.819   1.904  14.344  0.9419 -0.1559  1.2599
 6724SOL    HW231632   0.728   2.014  14.337 -1.1153 -0.5984 -0.7601
 6725SOL     OW31633   0.059   2.212  13.460  0.4586 -0.4935 -0.1584
 6725SOL    HW131634   4.700   2.261  13.459 -0.7078 -2.3711  2.8888
 6725SOL    HW231635   0.107   2.266  13.397 -1.3799  0.4938 -0.6978
 6726SOL     OW31636   4.476   3.564   7.092  0.5391  0.2475  0.1421
 6726SOL    HW131637   4.492   3.601   7.179  1.9649 -0.7044  0.2759
 6726SOL    HW231638   4.556   3.596   7.051  0.6206 -1.7937 -1.2735
 6727SOL     OW31639   1.309   3.953   5.469 -0.3381  0.0333  0.1243
 6727SOL    HW131640   1.349   4.035   5.497  0.2779  0.6445 -2.5813
 6727SOL    HW231641   1.378   3.887   5.461  0.1938  0.2122  3.3616
 6728SOL     OW31642   1.434   1.905   6.174 -0.0080  0.2569  0.1592
 6728SOL    HW131643   1.496   1.860   6.116 -1.7657 -2.0361  0.0617
 6728SOL    HW231644   1.432   1.842   6.246 -1.5992  0.0178 -0.0881
 6729SOL     OW31645   3.797   1.414   7.833  0.0555 -0.2167 -0.0145
 6729SOL    HW131646   3.881   1.391   7.794 -0.2928 -1.0857 -0.2408
 6729SOL    HW231647   3.832   1.481   7.892 -1.9546 -0.8476  1.8930
 6730SOL     OW31648   2.022   3.158  12.101  0.5272 -0.4039 -0.9172
 6730SOL    HW131649   2.057   3.192  12.183 -1.6031  2.1413 -1.0504
 6730SOL    HW231650   2.091   3.194  12.045  0.7538 -3.5149 -2.6338
 6731SOL     OW31651   0.709   2.192   8.824 -0.2286  0.6408  0.4875
 6731SOL    HW131652   0.640   2.126   8.834  0.3423  0.2467  1.8136
 6731SOL    HW231653   0.714   2.233   8.910  1.7836  2.5208 -0.5177
 6732SOL     OW31654   3.263   4.190   2.482 -0.1909  0.3360 -0.5312
 6732SOL    HW131655   3.357   4.177   2.469 -0.1176  0.6423 -0.3178
 6732SOL    HW231656   3.274   4.281   2.509  0.1755 -1.2013  4.3856
 6733SOL     OW31657   1.604   0.498   2.599 -0.2869  0.3134 -0.4197
 6733SOL    HW131658   1.637   0.433   2.538  2.8136  1.0347  0.4867
 6733SOL    HW231659   1.645   0.474   2.683 -1.2783 -0.6530 -0.2129
 6734SOL     OW31660   1.747   0.416   2.292  0.2755  0.1995 -0.6790
 6734SOL    HW131661   1.770   0.337   2.341 -2.9058  1.6338  3.0889
 6734SOL    HW231662   1.754   0.488   2.354  0.8383  0.2512 -0.8098
 6735SOL     OW31663   1.536   3.287   3.232 -0.2901  0.5249 -0.4262
 6735SOL    HW131664   1.553   3.194   3.218 -3.7033 -0.1585 -0.0457
 6735SOL    HW231665   1.596   3.300   3.305  1.2757  2.0503 -1.9877
 6736SOL     OW31666   0.322   4.234  14.319 -0.3248  0.5682 -0.0665
 6736SOL    HW131667   0.350   4.144  14.337 -2.5693  0.1775  1.4412
 6736SOL    HW231668   0.250   4.230  14.256  0.3809 -0.9165 -0.7870
 6737SOL     OW31669   0.152   2.845  11.843 -0.0041 -0.5329 -0.5141
 6737SOL    HW131670   0.089   2.902  11.887 -0.6175 -3.7167  2.7576
 6737SOL    HW231671   0.150   2.766  11.897  1.3420 -0.2936 -0.1072
 6738SOL     OW31672   0.369   1.861   4.056 -0.4991 -0.2165 -0.2252
 6738SOL    HW131673   0.301   1.816   4.006  0.7250 -0.6380 -1.5475
 6738SOL    HW231674   0.382   1.934   3.995 -1.3779 -0.0170 -0.1644
 6739SOL     OW31675   2.138   1.701  17.043  0.3279 -0.0689  0.4631
 6739SOL    HW131676   2.162   1.671  17.131  0.8095 -1.3601 -0.1112
 6739SOL    HW231677   2.149   1.623  16.989 -2.6369  0.3262 -0.7435
 6740SOL     OW31678   1.496   3.452   4.224  0.3108  0.2897  0.3409
 6740SOL    HW131679   1.541   3.536   4.221  0.1350  0.4797  3.1605
 6740SOL    HW231680   1.491   3.437   4.130  0.5319  0.1267  0.3561
 6741SOL     OW31681   0.175   3.487  12.068  0.0243 -0.3797 -0.4028
 6741SOL    HW131682   0.246   3.545  12.095 -0.7827  0.7616 -0.7492
 6741SOL    HW231683   0.179   3.496  11.973  1.0004  1.3591 -0.1974
 6742SOL     OW31684   1.476   3.420  12.486  0.0658  0.4892 -0.4133
 6742SOL    HW131685   1.490   3.439  12.579 -1.7159 -1.9348  0.3475
 6742SOL    HW231686   1.547   3.480  12.465  1.2459 -0.5192  0.7251
 6743SOL     OW31687   0.278   3.561  10.161 -0.2094 -0.3754 -0.1903
 6743SOL    HW131688   0.266   3.607  10.078 -0.2889 -3.6046 -1.9788
 6743SOL    HW231689   0.262   3.472  10.130  0.0665 -0.5480  0.1688
 6744SOL     OW31690   2.335   2.301   2.755 -0.0306  0.3696  0.0395
 6744SOL    HW131691   2.324   2.229   2.818  2.5251 -1.3738 -1.5152
 6744SOL    HW231692   2.404   2.265   2.699 -0.7780 -1.2042  0.1078
 6745SOL     OW31693   2.442   0.840   5.375  0.0609 -1.0067 -0.2086
 6745SOL    HW131694   2.483   0.904   5.316  1.8413 -2.1638 -0.2203
 6745SOL    HW231695   2.505   0.768   5.367  0.7380 -0.6653  2.2131
 6746SOL     OW31696   0.667   3.629   4.591 -0.2152  0.1237 -0.2850
 6746SOL    HW131697   0.644   3.629   4.499  0.3488  0.5051 -0.4301
 6746SOL    HW231698   0.676   3.535   4.603 -0.0927  0.0853 -0.6733
 6747SOL     OW31699   0.602   3.954   7.940  0.1673  0.3695 -0.3872
 6747SOL    HW131700   0.532   4.017   7.960 -1.5160 -1.3052 -1.0976
 6747SOL    HW231701   0.650   3.973   8.022  1.0355  1.6022 -1.1659
 6748SOL     OW31702   1.033   3.751   5.974 -1.1748 -0.4795  0.8813
 6748SOL    HW131703   1.006   3.663   6.002 -0.7818 -1.4219 -1.6790
 6748SOL    HW231704   1.078   3.719   5.895 -1.4165 -1.2126  1.0406
 6749SOL     OW31705   4.271   1.060   7.030  0.4076 -0.4765  0.1899
 6749SOL    HW131706   4.196   1.100   6.986  1.3046  2.4384  1.2827
 6749SOL    HW231707   4.304   1.135   7.079  0.7625 -1.8941  2.0947
 6750SOL     OW31708   0.705   2.293   9.060 -0.3512 -0.6280  0.0322
 6750SOL    HW131709   0.750   2.320   9.139 -1.4538  3.9805 -0.9143
 6750SOL    HW231710   0.627   2.258   9.103  0.2990 -1.3705  0.5998
 6751SOL     OW31711   4.682   3.514   4.961 -0.0200 -0.3340 -0.1852
 6751SOL    HW131712   0.045   3.526   4.923  1.0556 -2.4268  1.5961
 6751SOL    HW231713   4.638   3.598   4.951 -1.5395 -1.2434 -1.1602
 6752SOL     OW31714   0.148   3.990  14.538  0.2156 -0.2557 -0.2468
 6752SOL    HW131715   0.193   3.916  14.578  1.9493  0.2751 -1.2449
 6752SOL    HW231716   0.065   3.999  14.585  0.7070  0.9721  0.3876
 6753SOL     OW31717   0.964   1.819  14.288 -0.0890 -0.3428  0.2319
 6753SOL    HW131718   1.038   1.792  14.234  0.7103 -0.6120  1.4540
 6753SOL    HW231719   0.944   1.742  14.341  1.6841  0.1255  1.5568
 6754SOL     OW31720   2.038   3.328   6.822 -0.4466 -0.4073  0.0974
 6754SOL    HW131721   2.090   3.277   6.884  0.2398  0.3326  0.1223
 6754SOL    HW231722   2.099   3.400   6.807  0.4141 -0.3634  3.8107
 6755SOL     OW31723   4.376   4.278   3.553  0.0796 -0.2990 -0.5811
 6755SOL    HW131724   4.312   4.346   3.577  2.2491  0.9752  1.6484
 6755SOL    HW231725   4.389   4.297   3.460 -1.0291  1.1367 -0.4397
 6756SOL     OW31726   0.711   2.013   7.911 -0.1635 -0.1174 -0.1939
 6756SOL    HW131727   0.629   1.979   7.945  1.1956 -1.5207  1.7090
 6756SOL    HW231728   0.715   2.000   7.816 -2.1318  1.5668 -0.5093
 6757SOL     OW31729   2.514   0.959   8.847 -0.3510 -0.5405 -0.3314
 6757SOL    HW131730   2.581   0.912   8.798  0.6142  0.5599 -0.0438
 6757SOL    HW231731   2.491   1.027   8.784 -1.6571 -1.0922 -0.4488
 6758SOL     OW31732   4.670   3.947   7.548  0.2052 -0.2051  0.3960
 6758SOL    HW131733   4.589   3.904   7.576  1.2186 -1.1143  2.0256
 6758SOL    HW231734   4.673   4.020   7.610  0.4219  1.0692 -1.1375
 6759SOL     OW31735   0.505   2.194   9.212  0.2357 -0.0189 -0.3102
 6759SOL    HW131736   0.440   2.126   9.228  0.4142  0.2111  1.3545
 6759SOL    HW231737   0.494   2.247   9.291 -0.7439  0.0690 -0.5053
 6760SOL     OW31738   0.439   1.892   6.628 -0.4627  0.1507  0.1882
 6760SOL    HW131739   0.469   1.860   6.713  0.4091  3.6781  1.1906
 6760SOL    HW231740   0.444   1.987   6.635  0.4532  0.1971 -1.2027
 6761SOL     OW31741   2.610   3.018   3.831  0.8324 -0.4030  0.1789
 6761SOL    HW131742   2.555   2.951   3.791  0.4889 -0.8289  1.3426
 6761SOL    HW231743   2.691   2.975   3.859 -0.1022 -1.1276  1.8305
 6762SOL     OW31744   0.044   3.420   7.197 -0.3272  0.4032 -0.2910
 6762SOL    HW131745   0.093   3.502   7.189  1.2963 -0.3848  1.6237
 6762SOL    HW231746   4.719   3.430   7.279 -1.1102  0.6370 -0.7732
 6763SOL     OW31747   4.374   2.574  13.410  0.3820 -0.1897 -0.4100
 6763SOL    HW131748   4.383   2.659  13.453  0.1848  0.0559 -0.8522
 6763SOL    HW231749   4.288   2.580  13.367 -0.1034  0.1677  0.6141
 6764SOL     OW31750   2.594   0.120  15.315  0.2505  0.1209  0.2992
 6764SOL    HW131751   2.577   0.198  15.367  1.4236  1.2483 -1.0231
 6764SOL    HW231752   2.668   0.088  15.366  0.6434 -1.5196 -1.2654
 6765SOL     OW31753   0.053   3.125   0.444 -0.3030 -0.0970  0.7451
 6765SOL    HW131754   4.686   3.141   0.473 -1.0194 -1.4261 -0.7410
 6765SOL    HW231755   0.080   3.051   0.498  1.5630 -0.2764 -0.4218
 6766SOL     OW31756   3.895   3.842  10.862 -0.3533  0.2425 -0.3775
 6766SOL    HW131757   3.979   3.823  10.821 -0.5161 -1.4324  0.0698
 6766SOL    HW231758   3.868   3.915  10.807 -1.9350  1.1514  1.6092
 6767SOL     OW31759   4.154   3.713  13.183  0.0342 -0.2419  0.2418
 6767SOL    HW131760   4.138   3.619  13.185 -1.5220  0.0009 -0.2208
 6767SOL    HW231761   4.243   3.726  13.215 -0.0154 -0.7416  0.5795
 6768SOL     OW31762   0.253   0.442  12.405 -0.3603 -0.0721  0.5460
 6768SOL    HW131763   0.274   0.349  12.410  2.1411  0.3502 -2.1506
 6768SOL    HW231764   0.261   0.464  12.498 -1.0821 -0.5364  0.7197
 6769SOL     OW31765   0.756   0.407   1.701  0.4706 -0.0257 -0.4595
 6769SOL    HW131766   0.728   0.430   1.789  2.3155  0.9888 -0.1423
 6769SOL    HW231767   0.759   0.486   1.646 -1.0946  0.9997  0.9206
 6770SOL     OW31768   2.052   4.223   6.282 -0.3110  0.2770  0.4231
 6770SOL    HW131769   1.957   4.237   6.276 -0.1502  0.9778 -0.5119
 6770SOL    HW231770   2.067   4.147   6.225  1.2341  2.6885 -2.3635
 6771SOL     OW31771   3.000   3.868   0.045  0.0209 -0.2873 -0.1685
 6771SOL    HW131772   3.082   3.838   0.086  0.4242 -1.6900 -1.9874
 6771SOL    HW231773   2.987   3.786  17.691  3.6387 -0.2161 -1.3014
 6772SOL     OW31774   0.719   2.190   3.991  0.0463 -0.3048 -0.4920
 6772SOL    HW131775   0.778   2.253   3.949 -0.2852  1.2384  1.3620
 6772SOL    HW231776   0.656   2.247   4.035  0.1862 -0.7620  0.3192
 6773SOL     OW31777   2.143   1.228   8.370 -0.0994  0.2818  0.2492
 6773SOL    HW131778   2.091   1.283   8.311  1.2859  0.5878 -0.7050
 6773SOL    HW231779   2.207   1.202   8.304 -0.6080 -1.3416  0.3914
 6774SOL     OW31780   1.799   4.106   4.230  0.1366  0.3722  0.3004
 6774SOL    HW131781   1.727   4.140   4.283  0.0152  1.3201 -0.4795
 6774SOL    HW231782   1.840   4.182   4.188  1.4634 -1.0723 -1.0224
 6775SOL     OW31783   1.290   2.886   3.640  0.4600 -0.0405 -0.0057
 6775SOL    HW131784   1.273   2.909   3.549  1.8990 -0.8523 -0.4706
 6775SOL    HW231785   1.235   2.955   3.677 -1.4601 -1.6300  0.1495
 6776SOL     OW31786   4.449   3.589   6.617  0.4051 -0.6508 -0.2925
 6776SOL    HW131787   4.428   3.634   6.698  1.0637  1.8318 -1.5076
 6776SOL    HW231788   4.449   3.656   6.549 -1.3588  0.8812  1.2449
 6777SOL     OW31789   4.538   1.679  14.575  0.0357 -0.5113  0.1092
 6777SOL    HW131790   4.577   1.761  14.606 -0.4273 -1.6560  3.6898
 6777SOL    HW231791   4.464   1.653  14.630  0.5368 -1.6266  0.2663
 6778SOL     OW31792   4.442   1.009   6.702 -0.8456  0.2518 -0.2641
 6778SOL    HW131793   4.496   0.950   6.650 -0.3275  1.6997 -1.3877
 6778SOL    HW231794   4.429   0.946   6.772 -0.2343 -2.7622 -2.8433
 6779SOL     OW31795   2.744   0.558   9.033 -0.1083 -0.2807  0.1689
 6779SOL    HW131796   2.714   0.649   9.037  1.1263  0.1801 -0.8662
 6779SOL    HW231797   2.803   0.564   9.107  1.0147  0.4454 -0.7896
 6780SOL     OW31798   3.348   0.856  17.436 -0.1617 -0.3202 -0.0189
 6780SOL    HW131799   3.394   0.866  17.353  0.4052  0.9279  0.4522
 6780SOL    HW231800   3.279   0.919  17.418  0.9598  0.8151 -0.3312
 6781SOL     OW31801   1.541   3.515   8.517  0.2107  0.1154 -1.0422
 6781SOL    HW131802   1.587   3.432   8.512 -2.3525 -1.3550 -0.0527
 6781SOL    HW231803   1.539   3.547   8.427  0.9039 -0.4584 -1.2566
 6782SOL     OW31804   3.907   1.539   9.637 -0.5362  0.0021 -0.0317
 6782SOL    HW131805   3.889   1.451   9.602  0.0040  1.0176 -2.8147
 6782SOL    HW231806   3.992   1.556   9.598 -0.3978 -0.1380  0.2104
 6783SOL     OW31807   1.466   2.775  10.922 -0.0002 -0.3135 -0.3708
 6783SOL    HW131808   1.372   2.756  10.927 -0.0064 -0.6096 -1.7213
 6783SOL    HW231809   1.482   2.823  11.004 -1.9953 -1.0399  0.4484
 6784SOL     OW31810   1.117   2.401   1.949  0.0822 -0.1364 -0.0990
 6784SOL    HW131811   1.109   2.491   1.917  0.4821  0.3393  1.1207
 6784SOL    HW231812   1.201   2.380   1.910  0.3521  1.1246 -0.2206
 6785SOL     OW31813   3.864   1.618   7.994  0.0391 -0.4127 -0.1487
 6785SOL    HW131814   3.899   1.621   8.084  1.0832  3.0873 -0.6709
 6785SOL    HW231815   3.941   1.638   7.941 -0.3606 -1.2653 -1.0332
 6786SOL     OW31816   3.541   0.131  12.691  0.1195  0.1481 -0.0469
 6786SOL    HW131817   3.607   0.195  12.663 -1.2334  1.0729 -1.1458
 6786SOL    HW231818   3.480   0.181  12.745 -0.4725  0.8081 -1.3125
 6787SOL     OW31819   0.367   0.437   3.472  0.3722  0.2279  0.3090
 6787SOL    HW131820   0.297   0.378   3.444  0.8957 -0.0389 -0.4289
 6787SOL    HW231821   0.396   0.460   3.384  0.9209  1.2022  0.7428
 6788SOL     OW31822   4.596   1.479   8.200  0.4585 -0.1989  0.2447
 6788SOL    HW131823   4.588   1.558   8.145  1.7577  0.3334  0.8363
 6788SOL    HW231824   4.518   1.497   8.253 -1.3670 -1.7957 -1.8381
 6789SOL     OW31825   2.287   0.040   5.909  0.8056  0.2287 -0.1843
 6789SOL    HW131826   2.294   4.670   5.891  0.6385  0.5745 -2.0451
 6789SOL    HW231827   2.368   0.050   5.958  1.0407  0.4196 -0.6080
 6790SOL     OW31828   1.373   2.393   7.895 -0.2694  0.1355 -0.0671
 6790SOL    HW131829   1.391   2.329   7.964 -0.1616 -2.7776 -2.8121
 6790SOL    HW231830   1.423   2.469   7.925  1.7141 -0.6459 -1.3986
 6791SOL     OW31831   0.716   3.016   8.268  0.4628 -0.3702 -0.0371
 6791SOL    HW131832   0.724   2.938   8.213  0.9181 -2.5707  3.1412
 6791SOL    HW231833   0.625   3.035   8.290 -0.0885 -0.6323 -2.0682
 6792SOL     OW31834   4.557   4.234   6.234 -0.0150 -0.5013 -0.5022
 6792SOL    HW131835   4.651   4.222   6.249 -0.6720 -1.4614  2.8447
 6792SOL    HW231836   4.514   4.150   6.253  0.4619 -0.2544  1.6452
 6793SOL     OW31837   4.549   1.099   9.309  0.0568  0.7436 -0.1501
 6793SOL    HW131838   4.616   1.135   9.366  0.2255 -0.9292  0.6919
 6793SOL    HW231839   4.588   1.012   9.310  0.8574  1.1185  1.0371
 6794SOL     OW31840   0.867   1.882   4.985  0.0885  0.0342 -0.2847
 6794SOL    HW131841   0.790   1.939   4.979 -1.0624 -1.4088  0.6804
 6794SOL    HW231842   0.828   1.799   5.015  1.9938 -0.6013  0.4336
 6795SOL     OW31843   2.455   1.499  15.373  0.4982  0.0608  0.5749
 6795SOL    HW131844   2.527   1.561  15.355  0.9823 -1.0412 -1.2774
 6795SOL    HW231845   2.405   1.512  15.292 -0.8595  3.1051  1.9232
 6796SOL     OW31846   2.284   1.212  16.686  0.1675 -0.0852 -0.2362
 6796SOL    HW131847   2.251   1.151  16.752  0.0201  1.2603  0.9466
 6796SOL    HW231848   2.221   1.283  16.697 -0.3926 -0.7746  1.0739
 6797SOL     OW31849   0.681   0.946   3.247 -0.3567 -0.0488  0.5473
 6797SOL    HW131850   0.692   1.023   3.192 -1.3514  0.8973  1.6707
 6797SOL    HW231851   0.710   0.878   3.186 -1.2813 -0.0935  0.1471
 6798SOL     OW31852   1.063   2.568   2.203  0.6343  0.5655 -0.0354
 6798SOL    HW131853   1.081   2.485   2.159  0.4139 -0.7344  2.3048
 6798SOL    HW231854   1.151   2.589   2.234  0.8399  1.7106 -1.3975
 6799SOL     OW31855   2.455   2.123  13.682  0.5205  0.1857 -0.2069
 6799SOL    HW131856   2.451   2.183  13.607 -1.6569  0.4280  0.0918
 6799SOL    HW231857   2.397   2.052  13.653  0.1799  0.7499 -0.9165
 6800SOL     OW31858   2.904   2.889   8.072 -0.0658  0.4062  0.5607
 6800SOL    HW131859   2.814   2.922   8.066  0.5908  2.0371 -0.3106
 6800SOL    HW231860   2.950   2.973   8.072  1.4386 -0.4082 -0.2840
 6801SOL     OW31861   0.553   3.322   7.100  0.1198 -0.9593  0.2693
 6801SOL    HW131862   0.538   3.263   7.026 -0.4588  0.6737 -0.9079
 6801SOL    HW231863   0.503   3.400   7.075 -1.6704 -1.7700  1.3059
 6802SOL     OW31864   3.158   3.946  14.940  0.2438  0.0538 -0.0065
 6802SOL    HW131865   3.185   3.900  15.020 -3.7991  0.5117  1.6522
 6802SOL    HW231866   3.228   4.011  14.940  1.1125 -0.8793 -0.9184
 6803SOL     OW31867   2.184   3.931   4.820 -0.2307  0.2233 -0.5609
 6803SOL    HW131868   2.170   4.023   4.845 -1.1434 -0.2691  0.7079
 6803SOL    HW231869   2.160   3.931   4.727 -1.1655 -1.2334 -0.3051
 6804SOL     OW31870   2.661   3.454  17.479 -0.4797 -0.1693 -0.1052
 6804SOL    HW131871   2.622   3.411  17.403  1.0004 -1.6209 -0.0512
 6804SOL    HW231872   2.736   3.395  17.487 -0.3110 -0.2254 -1.9800
 6805SOL     OW31873   4.085   1.431   7.308  0.3959 -0.1114 -0.5658
 6805SOL    HW131874   4.075   1.339   7.333  0.1735 -0.1399 -0.7629
 6805SOL    HW231875   4.106   1.422   7.215 -2.1772 -3.0440 -0.8684
 6806SOL     OW31876   0.303   4.684  16.105  0.4119 -0.9851 -0.3370
 6806SOL    HW131877   0.297   0.053  16.083  0.7872 -0.7310  0.6566
 6806SOL    HW231878   0.309   4.692  16.200  1.8298  0.5623 -0.5712
 6807SOL     OW31879   0.279   4.183  10.932  0.1636  0.1708 -0.4642
 6807SOL    HW131880   0.265   4.115  10.999  0.1015  1.8161  1.1939
 6807SOL    HW231881   0.367   4.210  10.957  0.5529 -0.7676 -0.8267
 6808SOL     OW31882   2.373   1.957   5.995 -0.1558 -0.2982 -0.1537
 6808SOL    HW131883   2.288   1.999   5.983 -0.5755 -0.7745  1.1018
 6808SOL    HW231884   2.405   1.961   5.905  1.3990 -1.5925  0.3409
 6809SOL     OW31885   1.391   2.694  10.382  0.3953  0.5697  0.1486
 6809SOL    HW131886   1.409   2.787  10.368 -0.7446  1.1047  2.3528
 6809SOL    HW231887   1.477   2.654  10.394 -0.1131  0.2683  2.7905
 6810SOL     OW31888   3.106   2.748  11.600  0.4948  0.0750  0.2086
 6810SOL    HW131889   3.132   2.765  11.691 -0.9282  3.6533 -0.0418
 6810SOL    HW231890   3.156   2.670  11.576  3.3455  1.7887  0.5492
 6811SOL     OW31891   0.573   2.943   1.602 -0.4412  0.6060 -0.2576
 6811SOL    HW131892   0.638   2.924   1.669  0.9387  0.9237 -1.5019
 6811SOL    HW231893   0.594   3.033   1.578  1.7100  0.5350  1.3048
 6812SOL     OW31894   3.355   1.177   4.922  0.3875 -0.7479  0.7316
 6812SOL    HW131895   3.353   1.250   4.984 -0.1305 -0.7900  0.7615
 6812SOL    HW231896   3.435   1.200   4.875 -0.2194 -0.2358 -0.0703
 6813SOL     OW31897   0.704   4.054   8.584 -0.2171 -0.2506 -0.5776
 6813SOL    HW131898   0.656   4.133   8.611  2.1710  0.7689  0.6948
 6813SOL    HW231899   0.797   4.073   8.595 -0.4582  0.5805  0.0263
 6814SOL     OW31900   3.880   3.508   9.109  0.5868  0.4047  1.3006
 6814SOL    HW131901   3.837   3.462   9.181 -0.1249  1.6291  1.6511
 6814SOL    HW231902   3.816   3.574   9.080  0.0225 -0.3922  0.7196
 6815SOL     OW31903   0.233   0.631   2.680 -0.3209 -0.2405  0.2506
 6815SOL    HW131904   0.172   0.611   2.609  2.7757  1.0023 -2.7216
 6815SOL    HW231905   0.170   0.631   2.753  0.9194  0.3747  1.3189
 6816SOL     OW31906   3.754   4.628   7.726  0.1834  0.0747 -0.2948
 6816SOL    HW131907   3.722   4.700   7.780  0.6862  1.6651 -2.0901
 6816SOL    HW231908   3.793   4.678   7.654  1.0437  0.5929  0.5288
 6817SOL     OW31909   4.354   3.642   6.070  0.4504 -0.0103 -0.0643
 6817SOL    HW131910   4.326   3.551   6.059 -0.4841  0.0050  2.1558
 6817SOL    HW231911   4.282   3.683   6.022  1.2508  1.0181 -0.3740
 6818SOL     OW31912   0.681   1.476  15.037  0.1336 -0.4719  0.1039
 6818SOL    HW131913   0.753   1.532  15.008 -0.3421 -0.2842 -0.7236
 6818SOL    HW231914   0.707   1.390  15.004 -3.2699 -1.8591  1.0347
 6819SOL     OW31915   0.042   3.747  13.440  0.6304 -0.0465  0.1634
 6819SOL    HW131916   4.683   3.794  13.428  1.5906  0.7712 -3.2696
 6819SOL    HW231917   0.096   3.804  13.385  0.0606  0.2857 -0.0538
 6820SOL     OW31918   0.419   2.564   2.562 -0.5106 -0.2790 -0.0941
 6820SOL    HW131919   0.498   2.587   2.610 -0.6160 -0.5792  0.2225
 6820SOL    HW231920   0.387   2.507   2.632 -0.0750 -0.8668 -0.3685
 6821SOL     OW31921   0.004   0.758   6.245  0.1214 -0.5106 -0.2270
 6821SOL    HW131922   0.041   0.683   6.199  0.3825 -0.3500 -0.2787
 6821SOL    HW231923   0.024   0.735   6.336 -2.1231 -2.9259 -0.3293
 6822SOL     OW31924   1.745   0.781  17.329 -0.1248 -0.1281 -0.3373
 6822SOL    HW131925   1.660   0.746  17.304 -0.0894 -1.2488  1.0590
 6822SOL    HW231926   1.744   0.855  17.268 -1.8981  1.8877  2.1465
 6823SOL     OW31927   3.300   3.525   1.661 -0.6050 -0.4093  0.3251
 6823SOL    HW131928   3.305   3.600   1.721 -0.6468 -1.4477  1.6162
 6823SOL    HW231929   3.327   3.457   1.722 -0.0295 -0.0108  0.5069
 6824SOL     OW31930   2.445   1.159   7.786 -0.1171  0.3944  0.3786
 6824SOL    HW131931   2.377   1.098   7.816  0.6398 -0.8371 -0.4044
 6824SOL    HW231932   2.409   1.239   7.823  1.1117  0.0304  2.3760
 6825SOL     OW31933   3.357   3.255  10.889  0.4971  0.0553  0.0665
 6825SOL    HW131934   3.364   3.338  10.843  0.8708  0.3229  0.6109
 6825SOL    HW231935   3.389   3.193  10.823  0.5814 -0.9415  1.0436
 6826SOL     OW31936   1.102   3.156  10.769  0.1239 -0.2707  0.0963
 6826SOL    HW131937   1.038   3.086  10.782 -0.8381  0.5049 -0.4385
 6826SOL    HW231938   1.182   3.117  10.805  0.6099  0.1142 -0.5560
 6827SOL     OW31939   1.359   2.837   2.385  0.0841  0.3196  0.0490
 6827SOL    HW131940   1.277   2.884   2.370 -0.1689 -0.7249 -1.9052
 6827SOL    HW231941   1.326   2.752   2.355 -1.4371  1.2254 -0.8637
 6828SOL     OW31942   0.153   0.944   7.847  0.1619  0.0748 -0.6371
 6828SOL    HW131943   0.087   0.928   7.780 -0.7084 -2.9563  0.9176
 6828SOL    HW231944   0.177   1.030   7.814  1.8859  0.2007  0.9086
 6829SOL     OW31945   3.590   1.408   3.673  0.1574  0.2205 -0.8730
 6829SOL    HW131946   3.665   1.428   3.615  0.9436 -0.2892 -0.0361
 6829SOL    HW231947   3.632   1.386   3.756 -1.5533 -0.8653 -0.3164
 6830SOL     OW31948   1.153   0.672   3.019  0.5308 -0.9589  0.0713
 6830SOL    HW131949   1.110   0.594   2.986  1.9372 -1.7457  0.0918
 6830SOL    HW231950   1.193   0.696   2.935 -0.5543 -0.5156 -0.3151
 6831SOL     OW31951   2.156   2.222   9.391  0.0664 -0.4323  0.2057
 6831SOL    HW131952   2.161   2.311   9.426 -0.9185 -0.4375  0.3539
 6831SOL    HW231953   2.243   2.206   9.353 -0.8581 -1.9223 -1.2882
 6832SOL     OW31954   4.418   1.199   5.053 -0.2253 -0.3376  0.7640
 6832SOL    HW131955   4.364   1.170   5.127 -0.3343 -2.0486  0.0191
 6832SOL    HW231956   4.494   1.249   5.084 -1.5042  2.1364 -0.0998
 6833SOL     OW31957   1.267   3.312   1.385  0.4777  0.0627  0.5746
 6833SOL    HW131958   1.331   3.372   1.347  0.2400 -1.6065 -2.4641
 6833SOL    HW231959   1.271   3.231   1.334  0.8131  0.4420  0.0020
 6834SOL     OW31960   3.068   2.457   2.879  0.1231 -0.1180  0.0014
 6834SOL    HW131961   3.030   2.419   2.959 -2.5711  0.8815 -0.8002
 6834SOL    HW231962   3.155   2.420   2.890 -0.0932  0.2149  2.9690
 6835SOL     OW31963   2.851   0.765   6.254  0.5687 -0.4206  0.1690
 6835SOL    HW131964   2.943   0.778   6.279  0.6027  0.1992 -0.2919
 6835SOL    HW231965   2.841   0.670   6.268 -1.1062 -0.4163 -0.9806
 6836SOL     OW31966   1.609   4.375   1.998  0.0923  0.2592  0.0936
 6836SOL    HW131967   1.563   4.409   2.075 -0.3268 -1.5466  0.6421
 6836SOL    HW231968   1.539   4.370   1.933 -1.2709 -0.5796  1.6200
 6837SOL     OW31969   3.577   1.102   6.334 -0.6123  0.4109 -0.0016
 6837SOL    HW131970   3.618   1.183   6.365 -2.2146  1.5957 -1.0193
 6837SOL    HW231971   3.488   1.129   6.357 -0.2687  0.7263  0.9487
 6838SOL     OW31972   2.507   2.504   7.279  0.2423  0.1859 -0.5534
 6838SOL    HW131973   2.430   2.469   7.233 -0.6496  0.4767  0.7013
 6838SOL    HW231974   2.503   2.447   7.356  1.7341 -0.4480 -0.9492
 6839SOL     OW31975   1.808   0.231   2.476  0.2587  0.0533  0.2172
 6839SOL    HW131976   1.785   0.199   2.563 -1.5155  1.8287  0.4179
 6839SOL    HW231977   1.862   0.157   2.450 -3.0784 -1.6031 -1.9313
 6840SOL     OW31978   1.491   2.824   7.727  0.8323  0.2175 -0.4258
 6840SOL    HW131979   1.434   2.809   7.651 -1.2505 -0.6117  1.3032
 6840SOL    HW231980   1.487   2.920   7.727  0.1447  0.1859 -0.3623
 6841SOL     OW31981   4.246   1.024   9.318  0.0676 -0.3910 -0.3357
 6841SOL    HW131982   4.247   0.929   9.330 -1.1297 -0.3895 -0.2518
 6841SOL    HW231983   4.337   1.045   9.296 -0.2695 -1.1847 -2.4940
 6842SOL     OW31984   1.820   2.006   3.700  0.0744 -0.3210 -0.3075
 6842SOL    HW131985   1.815   1.912   3.684  2.3274 -0.5653  0.4577
 6842SOL    HW231986   1.896   2.027   3.646 -1.0619  1.4434 -1.2059
 6843SOL     OW31987   1.783   1.586  15.944  0.6152  0.5268 -0.5240
 6843SOL    HW131988   1.851   1.596  15.878  1.4492 -3.9100 -0.3455
 6843SOL    HW231989   1.765   1.679  15.960 -2.2820  0.4722 -3.2619
 6844SOL     OW31990   0.822   0.558   2.634 -1.3534 -0.1582  0.0751
 6844SOL    HW131991   0.743   0.605   2.609 -0.1710  1.2803 -0.9127
 6844SOL    HW231992   0.815   0.523   2.723  0.9313  0.6349  0.5811
 6845SOL     OW31993   0.780   4.299  17.572 -0.2992 -0.7196 -0.1536
 6845SOL    HW131994   0.720   4.277  17.643 -0.0505 -3.0900 -0.6547
 6845SOL    HW231995   0.862   4.304  17.622 -1.4644 -0.1733  1.6932
 6846SOL     OW31996   3.718   2.643  11.628 -0.2369  0.6252  0.3904
 6846SOL    HW131997   3.755   2.556  11.616 -1.9277 -0.4191  2.7228
 6846SOL    HW231998   3.656   2.649  11.555 -0.9940 -2.5713  0.7671
 6847SOL     OW31999   0.076   4.097   1.087  0.3938  0.1738 -0.3229
 6847SOL    HW132000   0.014   4.158   1.047 -2.4544 -2.8839 -0.6196
 6847SOL    HW232001   0.048   4.083   1.177 -1.6404 -1.4712 -1.2023
 6848SOL     OW32002   4.248   0.657   9.999 -0.1321 -0.1201  0.3127
 6848SOL    HW132003   4.281   0.740   9.967  0.6156 -1.3562 -2.1080
 6848SOL    HW232004   4.304   0.663  10.077  0.8118 -4.0204 -0.0407
 6849SOL     OW32005   4.543   1.556   9.457  0.0112 -0.2482 -0.0478
 6849SOL    HW132006   4.630   1.524   9.481  1.6691  2.4795 -2.4049
 6849SOL    HW232007   4.497   1.556   9.541 -1.6570 -0.5416 -0.9756
 6850SOL     OW32008   2.005   2.551   3.789  0.1179 -0.2877  0.2545
 6850SOL    HW132009   1.939   2.556   3.859  1.4976  1.3452  1.4615
 6850SOL    HW232010   2.056   2.487   3.838  0.9053 -0.0720 -0.2852
 6851SOL     OW32011   3.092   4.477   7.872 -0.1967  0.3026 -0.1725
 6851SOL    HW132012   3.079   4.390   7.908 -2.0370 -0.4346 -2.6043
 6851SOL    HW232013   3.075   4.531   7.950 -0.3690  0.1910 -0.1324
 6852SOL     OW32014   1.023   4.085   6.807  0.7961 -0.2090 -1.1623
 6852SOL    HW132015   1.023   3.992   6.788 -4.7931 -0.6799  1.2653
 6852SOL    HW232016   0.957   4.110   6.743 -0.5390  1.8875  1.0397
 6853SOL     OW32017   3.594   3.177   6.560 -0.1934  0.5224  0.2488
 6853SOL    HW132018   3.647   3.107   6.598 -1.9415 -0.8566  0.1639
 6853SOL    HW232019   3.660   3.212   6.500 -0.5994 -1.2034 -1.1835
 6854SOL     OW32020   2.753   3.472   5.192  0.1974 -0.3789 -0.1968
 6854SOL    HW132021   2.801   3.553   5.177  0.4304 -0.6209 -0.7996
 6854SOL    HW232022   2.829   3.413   5.190 -0.0936 -0.6671 -2.6822
 6855SOL     OW32023   0.502   3.975   0.018 -0.2377  0.0367  0.5264
 6855SOL    HW132024   0.537   3.894  17.675 -1.0106 -1.3167  2.7841
 6855SOL    HW232025   0.460   4.012  17.635  0.5287  1.6163  0.8611
 6856SOL     OW32026   3.695   2.665   4.901  0.3767 -0.2942 -0.3771
 6856SOL    HW132027   3.602   2.688   4.893  0.3267 -0.2913  0.2094
 6856SOL    HW232028   3.726   2.683   4.812 -1.2856 -0.4566 -0.9910
 6857SOL     OW32029   1.066   4.401   2.562  0.7555  0.6926  0.0979
 6857SOL    HW132030   1.152   4.444   2.557  0.9182  0.2415 -0.9583
 6857SOL    HW232031   1.000   4.467   2.540  0.9373  0.3441 -1.4885
 6858SOL     OW32032   4.594   4.247  10.732 -0.0279  0.4204 -0.4934
 6858SOL    HW132033   4.687   4.249  10.712  0.5194 -0.5266  1.9411
 6858SOL    HW232034   4.579   4.276  10.822  1.2568 -1.9178  0.4697
 6859SOL     OW32035   1.519   1.996   3.518  0.1541  0.1694  0.3631
 6859SOL    HW132036   1.596   2.044   3.488 -1.2218  2.4033  0.4567
 6859SOL    HW232037   1.553   1.906   3.516 -3.2204 -1.0744 -0.3458
 6860SOL     OW32038   4.370   3.346   6.691  0.3944  0.5528 -0.1116
 6860SOL    HW132039   4.303   3.370   6.754  0.1088  0.3583 -0.3418
 6860SOL    HW232040   4.399   3.436   6.677  1.5499  0.0735 -0.8368
 6861SOL     OW32041   3.896   1.021   8.333 -0.4256 -0.0140 -0.0918
 6861SOL    HW132042   3.819   1.016   8.276 -0.5276 -1.1284  0.1436
 6861SOL    HW232043   3.895   1.111   8.364 -1.8438 -0.7221  1.9396
 6862SOL     OW32044   4.424   2.604   7.263  0.4407  0.7990  0.3485
 6862SOL    HW132045   4.446   2.643   7.179  1.3051 -0.0016  0.2043
 6862SOL    HW232046   4.347   2.554   7.234  0.8295  1.4148 -1.7466
 6863SOL     OW32047   2.621   2.139   3.851 -0.2295 -0.1428  0.6245
 6863SOL    HW132048   2.693   2.199   3.870  1.7600 -2.1870 -0.5138
 6863SOL    HW232049   2.672   2.080   3.796 -0.8383  0.8052 -0.9628
 6864SOL     OW32050   3.601   1.948   4.070  0.0600  0.3537 -0.1222
 6864SOL    HW132051   3.592   1.873   4.129  2.6757  0.9794  1.0673
 6864SOL    HW232052   3.518   1.950   4.022  0.9263 -3.8001 -1.8237
 6865SOL     OW32053   1.993   2.206   4.650 -0.4567  0.3113  0.3051
 6865SOL    HW132054   1.971   2.213   4.743  1.5204 -3.4924  1.0640
 6865SOL    HW232055   2.088   2.218   4.660 -0.1805 -0.9301 -0.8904
 6866SOL     OW32056   1.784   2.877   4.315  0.1823  0.3461 -0.0408
 6866SOL    HW132057   1.716   2.890   4.381 -0.4195 -0.4575 -0.5010
 6866SOL    HW232058   1.830   2.798   4.345 -0.3820  1.2241  3.1625
 6867SOL     OW32059   3.168   0.337   1.853 -0.2185  0.6941 -0.1039
 6867SOL    HW132060   3.162   0.385   1.770 -1.5295  0.1393 -0.3439
 6867SOL    HW232061   3.254   0.366   1.882  0.5027 -0.9766 -0.5394
 6868SOL     OW32062   2.704   3.599   5.866  0.5593  0.6929 -0.2107
 6868SOL    HW132063   2.785   3.549   5.873 -0.2627 -0.9297 -2.2718
 6868SOL    HW232064   2.645   3.529   5.836 -1.0156  1.8755  0.1234
 6869SOL     OW32065   1.857   1.961  14.731  0.4727 -0.7073  0.1270
 6869SOL    HW132066   1.838   1.867  14.722 -3.1262 -0.2039  2.8080
 6869SOL    HW232067   1.937   1.974  14.679  0.8213  0.1100  0.8694
 6870SOL     OW32068   2.927   1.256  13.769  0.2346  0.0562 -0.2014
 6870SOL    HW132069   2.860   1.286  13.708 -0.1060  0.5927  0.4478
 6870SOL    HW232070   2.975   1.337  13.787 -0.3989  0.2599  0.5449
 6871SOL     OW32071   1.389   0.006   0.994 -0.0308  0.0206 -0.4915
 6871SOL    HW132072   1.462   4.719   0.933  0.1594 -2.8688  0.2300
 6871SOL    HW232073   1.401   0.089   1.040 -3.2397  0.8862 -1.2159
 6872SOL     OW32074   1.122   1.042   3.665  0.5275 -0.4925 -0.0815
 6872SOL    HW132075   1.046   1.030   3.608  2.0808 -0.6858 -2.0858
 6872SOL    HW232076   1.132   1.136   3.650  2.7235 -0.8990 -1.0494
 6873SOL     OW32077   0.207   4.361   5.349  0.0528 -0.1796  0.2266
 6873SOL    HW132078   0.166   4.446   5.363 -1.9758 -0.5337 -3.6318
 6873SOL    HW232079   0.172   4.326   5.267 -0.4717  0.9093 -0.0222
 6874SOL     OW32080   4.517   0.223   5.297 -0.2038 -0.1319 -0.2393
 6874SOL    HW132081   4.521   0.204   5.391  1.0198 -1.3407 -0.5257
 6874SOL    HW232082   4.591   0.175   5.259 -0.2946 -0.3979 -0.0834
 6875SOL     OW32083   3.419   1.210  17.561  0.8690  0.3346  0.3133
 6875SOL    HW132084   3.402   1.223  17.468  0.4675 -1.5303  0.1170
 6875SOL    HW232085   3.512   1.188  17.562  1.7905  4.3157  1.1271
 6876SOL     OW32086   1.347   4.193   7.508  0.2176 -0.8862  0.2701
 6876SOL    HW132087   1.412   4.264   7.513 -1.5619  0.7544  0.1309
 6876SOL    HW232088   1.293   4.235   7.441  0.4126  0.0703  0.7133
 6877SOL     OW32089   2.882   2.372   4.039 -0.6384  0.1180  0.6176
 6877SOL    HW132090   2.817   2.359   4.107  1.0989  0.1096  2.2748
 6877SOL    HW232091   2.941   2.433   4.084 -0.8385 -1.7702  3.4035
 6878SOL     OW32092   3.902   2.855  15.417 -0.5553  0.1431 -0.5232
 6878SOL    HW132093   3.962   2.918  15.377  0.4727 -0.8262 -0.5229
 6878SOL    HW232094   3.834   2.857  15.350 -0.7406  3.1345 -0.2519
 6879SOL     OW32095   0.660   1.207   3.869 -0.3301 -0.3309 -0.3157
 6879SOL    HW132096   0.684   1.286   3.917 -2.7592  0.2766 -0.0879
 6879SOL    HW232097   0.598   1.243   3.805 -0.9674  0.8326  0.9487
 6880SOL     OW32098   2.459   0.523   4.919  0.3650  0.6026  0.5306
 6880SOL    HW132099   2.531   0.563   4.968  1.9930  0.1605 -1.4928
 6880SOL    HW232100   2.513   0.483   4.851  1.3999 -0.0172  1.7204
 6881SOL     OW32101   2.697   3.011   3.115  0.3412  0.0299 -0.4072
 6881SOL    HW132102   2.676   3.095   3.155  1.2792 -0.4302  1.0724
 6881SOL    HW232103   2.675   3.042   3.028 -2.0851 -0.9461 -0.1511
 6882SOL     OW32104   0.310   3.122   9.644  0.1735  0.1671  0.0490
 6882SOL    HW132105   0.405   3.113   9.656  0.1218  2.3618  2.0902
 6882SOL    HW232106   0.298   3.163   9.558  1.0141 -0.0259 -0.1572
 6883SOL     OW32107   2.501   1.827   3.715 -0.7088 -0.3728 -0.4965
 6883SOL    HW132108   2.588   1.865   3.727 -0.5104 -0.9829  0.0100
 6883SOL    HW232109   2.530   1.783   3.634  0.2209 -1.4462  0.4174
 6884SOL     OW32110   1.284   0.247   4.888 -0.0840 -0.1568 -0.4098
 6884SOL    HW132111   1.320   0.257   4.976 -0.4376  2.3620 -0.5533
 6884SOL    HW232112   1.224   0.322   4.886  2.8330  2.2019 -0.4919
 6885SOL     OW32113   3.110   4.121   4.943 -0.5772 -0.0114 -0.0037
 6885SOL    HW132114   3.031   4.124   4.997 -0.8487  0.4840 -0.4304
 6885SOL    HW232115   3.166   4.065   4.997  0.7561  1.7813  0.4674
 6886SOL     OW32116   0.945   1.751   5.984 -0.0606 -0.3024  0.1138
 6886SOL    HW132117   1.025   1.732   6.033 -1.8360  0.0630  3.1296
 6886SOL    HW232118   0.912   1.662   5.976 -0.7951 -0.0937  0.8169
 6887SOL     OW32119   2.143   3.377  14.414 -0.1237 -0.1883 -0.5801
 6887SOL    HW132120   2.052   3.393  14.440 -0.1463 -2.4084  0.7054
 6887SOL    HW232121   2.164   3.465  14.382  4.2856  0.4296  4.1179
 6888SOL     OW32122   3.517   2.048   3.583  0.2274  0.7930  0.1429
 6888SOL    HW132123   3.460   2.041   3.659  1.4096 -1.1840  0.8245
 6888SOL    HW232124   3.452   2.032   3.514  2.7976 -0.8509 -1.9004
 6889SOL     OW32125   4.060   0.587   6.719  0.2055  0.1134 -0.1327
 6889SOL    HW132126   4.024   0.503   6.690  1.5949  0.3856 -2.6380
 6889SOL    HW232127   4.119   0.598   6.644 -0.6184 -2.8341 -1.2044
 6890SOL     OW32128   0.115   3.261   9.014  0.1057  0.4966 -0.0084
 6890SOL    HW132129   0.199   3.306   9.007  0.5104 -0.4621 -1.1934
 6890SOL    HW232130   0.066   3.312   8.949  0.0394  1.2410  0.6215
 6891SOL     OW32131   4.649   0.191  10.687 -0.2068  0.6124  0.2017
 6891SOL    HW132132   4.666   0.130  10.759 -2.0010  0.2964  0.3500
 6891SOL    HW232133   4.555   0.206  10.684 -0.2404  0.1956 -0.6776
 6892SOL     OW32134   1.548   2.181   4.627  0.0828  0.3492 -0.1634
 6892SOL    HW132135   1.573   2.156   4.716 -0.2673 -0.7255 -0.3641
 6892SOL    HW232136   1.496   2.259   4.648 -2.4778 -0.8513 -2.0286
 6893SOL     OW32137   0.561   4.487   1.236  0.7208 -0.0737 -0.3306
 6893SOL    HW132138   0.577   4.488   1.330 -2.5226  0.9480  0.2013
 6893SOL    HW232139   0.611   4.414   1.199 -0.3192 -1.4511  1.0069
 6894SOL     OW32140   0.723   3.520  17.086  0.6256 -0.4664  0.7091
 6894SOL    HW132141   0.633   3.520  17.055  0.2866  1.0060  1.6638
 6894SOL    HW232142   0.760   3.587  17.029 -0.7922 -0.9747 -0.7723
 6895SOL     OW32143   2.469   0.066  13.748  0.1076 -0.2953 -0.1352
 6895SOL    HW132144   2.418   0.145  13.765  1.9810  0.6629  1.0722
 6895SOL    HW232145   2.401   0.015  13.704  1.1401  0.1511 -2.2540
 6896SOL     OW32146   4.404   4.138   5.360  0.1935  0.0802  0.6091
 6896SOL    HW132147   4.425   4.045   5.350  0.8964  0.2718  0.2491
 6896SOL    HW232148   4.394   4.159   5.267  0.1997 -0.7674  0.4145
 6897SOL     OW32149   3.635   2.181  17.476 -0.5922 -0.7803  0.8541
 6897SOL    HW132150   3.703   2.191  17.542 -1.4797 -0.7272  1.7559
 6897SOL    HW232151   3.640   2.264  17.428  1.4989 -1.6866 -0.4803
 6898SOL     OW32152   2.739   3.769   3.556 -0.1871 -0.2657 -0.4623
 6898SOL    HW132153   2.660   3.818   3.578  0.5699  0.9709 -0.4769
 6898SOL    HW232154   2.748   3.799   3.465  3.6118  0.8901  0.2960
 6899SOL     OW32155   2.027   2.647   9.823  0.0856 -0.0710  0.1673
 6899SOL    HW132156   1.987   2.733   9.835  0.3839  0.0134  0.5457
 6899SOL    HW232157   1.955   2.597   9.862 -0.0775  0.9155  1.1094
 6900SOL     OW32158   1.930   2.917  12.255  0.5705  0.5333  0.6571
 6900SOL    HW132159   1.849   2.873  12.233  0.3053  2.3229 -1.8783
 6900SOL    HW232160   1.943   2.983  12.187  0.7057  0.8238  0.9647
 6901SOL     OW32161   0.314   2.996  12.077  0.0857  0.7339  0.3127
 6901SOL    HW132162   0.244   3.059  12.059  0.5674  1.6693  1.6964
 6901SOL    HW232163   0.346   2.982  11.988  0.3439 -0.0669  0.5275
 6902SOL     OW32164   3.425   4.488   5.591 -0.3199  0.4437 -0.0944
 6902SOL    HW132165   3.384   4.511   5.508 -0.6435  2.2196  0.5641
 6902SOL    HW232166   3.481   4.565   5.603  2.0069 -1.6171  2.4888
 6903SOL     OW32167   1.599   1.433  13.368 -0.2442 -0.4616 -0.4277
 6903SOL    HW132168   1.582   1.517  13.324 -0.4763  0.5407  1.5584
 6903SOL    HW232169   1.640   1.382  13.298 -0.6001  0.8180 -1.5905
 6904SOL     OW32170   0.731   2.186  16.023  0.0019  0.4184 -0.1001
 6904SOL    HW132171   0.727   2.267  15.971  0.9675  1.3858  1.3152
 6904SOL    HW232172   0.733   2.226  16.110 -0.2593  0.6371 -0.1962
 6905SOL     OW32173   3.571   1.294   9.465  0.4204  0.0538 -0.1755
 6905SOL    HW132174   3.655   1.337   9.478  0.0075  1.8024 -3.2278
 6905SOL    HW232175   3.518   1.364   9.503  0.0797 -0.3199  0.0477
 6906SOL     OW32176   2.007   2.506   2.542  0.2143  0.0026 -0.1121
 6906SOL    HW132177   1.967   2.425   2.509  1.9577 -1.9414  2.5422
 6906SOL    HW232178   1.946   2.530   2.611  1.5142 -2.1578  1.7955
 6907SOL     OW32179   3.371   2.128  11.044 -0.1138  0.2186  0.4789
 6907SOL    HW132180   3.437   2.119  10.976 -0.0501 -4.3272  1.1620
 6907SOL    HW232181   3.331   2.041  11.045 -0.7167  0.5118  1.9412
 6908SOL     OW32182   0.243   2.555   9.058  0.0051 -0.5559 -0.2110
 6908SOL    HW132183   0.286   2.472   9.038 -0.6301 -0.4891 -1.8487
 6908SOL    HW232184   0.298   2.621   9.018 -0.5259  0.0177 -0.0017
 6909SOL     OW32185   3.698   3.856   9.635 -0.0142 -0.2722 -0.1479
 6909SOL    HW132186   3.753   3.932   9.618  0.5381 -1.0087 -1.7287
 6909SOL    HW232187   3.708   3.820   9.547 -2.2101  0.7162 -0.8090
 6910SOL     OW32188   3.886   0.619  11.359 -0.9691  0.5236 -0.0130
 6910SOL    HW132189   3.960   0.559  11.373  1.3344  2.8095 -2.2111
 6910SOL    HW232190   3.914   0.702  11.397  0.6343  0.5834 -1.2786
 6911SOL     OW32191   0.591   0.952   0.105  0.8834  0.1199  0.2203
 6911SOL    HW132192   0.661   0.899   0.142  0.1909 -0.2930  0.9392
 6911SOL    HW232193   0.627   0.969   0.018 -0.2723 -0.3826 -0.3642
 6912SOL     OW32194   1.385   0.242  15.003 -0.0453  0.2263  0.5619
 6912SOL    HW132195   1.384   0.172  15.069 -0.2718 -0.4319 -0.1480
 6912SOL    HW232196   1.477   0.240  14.979  0.3647 -1.7630  2.3235
 6913SOL     OW32197   0.006   4.320   1.612 -0.2089 -0.5797  0.2984
 6913SOL    HW132198   4.647   4.354   1.578  0.0512  1.2045  1.4530
 6913SOL    HW232199   0.063   4.330   1.536 -0.2826 -2.8716 -0.0391
 6914SOL     OW32200   2.608   1.782   8.144  0.0198  0.4355  0.2029
 6914SOL    HW132201   2.577   1.792   8.053  1.9681 -3.5163 -0.8951
 6914SOL    HW232202   2.663   1.859   8.154 -1.1311  1.3814 -0.7093
 6915SOL     OW32203   0.889   1.494   4.158  0.4214  0.1874 -0.7232
 6915SOL    HW132204   0.976   1.527   4.139  1.3106  0.1912  3.2086
 6915SOL    HW232205   0.847   1.482   4.073 -0.6563 -1.8184  0.0749
 6916SOL     OW32206   0.592   4.486   4.200 -0.0799 -0.8275 -0.5547
 6916SOL    HW132207   0.535   4.558   4.225  1.2182  0.0666 -0.2014
 6916SOL    HW232208   0.536   4.411   4.222 -0.3130 -0.8694 -1.2826
 6917SOL     OW32209   1.858   4.113   3.364  0.4619  0.7038  0.1487
 6917SOL    HW132210   1.785   4.121   3.303  1.7703  2.4634 -1.1783
 6917SOL    HW232211   1.913   4.064   3.303 -1.1954 -0.8267 -0.1062
 6918SOL     OW32212   4.230   4.339   2.220 -0.3818  0.0942 -0.0484
 6918SOL    HW132213   4.300   4.280   2.191  0.3507  1.0912 -0.3043
 6918SOL    HW232214   4.163   4.318   2.155 -1.8741  1.4921  1.0515
 6919SOL     OW32215   4.190   3.256   5.427 -0.1678 -0.1299  0.3538
 6919SOL    HW132216   4.235   3.287   5.348  1.9180  0.1337  1.6679
 6919SOL    HW232217   4.219   3.166   5.418 -1.1198 -0.4259  0.2927
 6920SOL     OW32218   2.754   2.519  15.170  0.3947  0.1378 -0.1793
 6920SOL    HW132219   2.702   2.525  15.090  0.5370  1.8170 -0.1314
 6920SOL    HW232220   2.756   2.610  15.199 -2.0833 -0.4647  1.9038
 6921SOL     OW32221   3.637   2.726   8.462 -0.0392 -0.1154  0.8141
 6921SOL    HW132222   3.672   2.657   8.518  0.8123  0.4186  0.9340
 6921SOL    HW232223   3.703   2.735   8.393  1.3381  0.4490  2.2230
 6922SOL     OW32224   0.492   2.553   9.754  0.1523 -0.5923 -0.1669
 6922SOL    HW132225   0.452   2.532   9.838 -0.8400 -0.4805 -0.6141
 6922SOL    HW232226   0.415   2.543   9.698  0.2774 -0.9740 -0.2679
 6923SOL     OW32227   2.513   2.414   3.161 -0.0317 -0.0287  0.2602
 6923SOL    HW132228   2.535   2.347   3.226  0.9259 -0.1513 -0.1993
 6923SOL    HW232229   2.489   2.355   3.089  1.8323 -0.7040  0.2116
 6924SOL     OW32230   0.924   1.671   0.424  0.4679  0.7213 -0.0246
 6924SOL    HW132231   0.862   1.634   0.361  1.0856  2.1346 -1.4559
 6924SOL    HW232232   0.875   1.737   0.474 -0.5436 -1.0353  1.3148
 6925SOL     OW32233   3.167   1.776   8.362 -0.1245 -0.4664 -0.5897
 6925SOL    HW132234   3.225   1.812   8.295 -0.9415 -0.2968 -1.2071
 6925SOL    HW232235   3.125   1.852   8.402 -1.4902 -0.5440 -1.8803
 6926SOL     OW32236   1.845   2.893  15.068 -0.4192 -0.4913  0.0934
 6926SOL    HW132237   1.770   2.842  15.038 -0.7581  0.1716 -0.1774
 6926SOL    HW232238   1.837   2.879  15.162 -1.3173 -1.5038 -0.1378
 6927SOL     OW32239   2.658   1.814   4.900 -0.2794 -0.1562  0.0491
 6927SOL    HW132240   2.678   1.878   4.968  1.3650 -2.3970  1.6666
 6927SOL    HW232241   2.635   1.883   4.837  0.2799  0.6001  0.6825
 6928SOL     OW32242   4.582   0.178   9.664 -0.2444  0.0613 -0.5150
 6928SOL    HW132243   4.556   0.261   9.624  0.3706  0.6550  0.3171
 6928SOL    HW232244   4.673   0.201   9.686 -0.3151  2.0884 -2.3244
 6929SOL     OW32245   0.206   3.866  11.926 -0.6579 -0.1847  0.2107
 6929SOL    HW132246   0.147   3.852  11.999 -2.4649  0.4728 -1.1319
 6929SOL    HW232247   0.256   3.785  11.916 -0.8541  0.0679 -2.8352
 6930SOL     OW32248   1.791   0.892  16.653 -0.0913  0.2847  0.8135
 6930SOL    HW132249   1.838   0.941  16.584  0.5244  0.4541  1.3510
 6930SOL    HW232250   1.812   0.801  16.634 -0.1991  0.3148  0.5404
 6931SOL     OW32251   3.656   2.372   5.446  0.4320  0.0776 -0.6942
 6931SOL    HW132252   3.621   2.377   5.357 -0.2322 -2.7614 -0.5954
 6931SOL    HW232253   3.735   2.322   5.423  0.2747 -1.0397  1.1895
 6932SOL     OW32254   4.579   0.813   3.708  0.4180  0.2947 -0.1155
 6932SOL    HW132255   4.501   0.759   3.721  1.0620 -0.2788  1.3350
 6932SOL    HW232256   4.553   0.889   3.655 -0.1789  0.6108  0.6325
 6933SOL     OW32257   0.292   1.516   3.560 -0.1480 -0.0528  0.0970
 6933SOL    HW132258   0.247   1.558   3.487 -0.8528 -0.2445  0.4198
 6933SOL    HW232259   0.376   1.561   3.553  1.0079 -2.6917 -2.9567
 6934SOL     OW32260   2.404   1.318   4.908 -0.3053  0.1852  0.4955
 6934SOL    HW132261   2.423   1.403   4.867  2.6734 -0.9325 -0.4309
 6934SOL    HW232262   2.492   1.291   4.935 -0.6070  0.5398  1.8502
 6935SOL     OW32263   0.083   2.889   0.564  0.2037 -0.5033 -0.6271
 6935SOL    HW132264   0.168   2.865   0.602  0.7709  2.2772 -0.1160
 6935SOL    HW232265   0.028   2.811   0.568  1.6464 -1.5274 -0.6529
 6936SOL     OW32266   3.541   3.125   6.109  0.3296  0.0489 -0.3292
 6936SOL    HW132267   3.517   3.036   6.134 -2.5799  0.9659  0.2190
 6936SOL    HW232268   3.517   3.129   6.017  0.1084  0.8814 -0.2373
 6937SOL     OW32269   4.472   1.169  11.354 -0.0096  0.4587  0.0750
 6937SOL    HW132270   4.548   1.225  11.336 -0.3016  0.6417 -0.5684
 6937SOL    HW232271   4.429   1.175  11.269  0.2132 -1.0276 -0.1498
 6938SOL     OW32272   0.165   0.376   8.500  0.3430 -0.1816  0.0763
 6938SOL    HW132273   0.139   0.348   8.588 -1.1598 -0.3971 -0.4355
 6938SOL    HW232274   0.251   0.412   8.523  1.2580 -2.2997 -0.0648
 6939SOL     OW32275   3.471   4.013   5.817  0.9031  0.0860 -0.7437
 6939SOL    HW132276   3.555   4.055   5.802  1.3483 -0.6120 -0.1728
 6939SOL    HW232277   3.426   4.084   5.863 -0.2203  0.1104 -1.8709
 6940SOL     OW32278   4.292   0.972   1.505  0.5006  0.1853  0.5054
 6940SOL    HW132279   4.309   1.011   1.419 -3.4327 -0.4061 -0.5477
 6940SOL    HW232280   4.197   0.968   1.503  0.4841  0.7675  0.2483
 6941SOL     OW32281   2.794   1.873   0.118 -0.2239 -0.0768 -0.0999
 6941SOL    HW132282   2.856   1.800   0.111  0.9092  0.8419  0.2568
 6941SOL    HW232283   2.859   1.944   0.121  0.7271 -0.8412 -2.9841
 6942SOL     OW32284   4.082   1.650   0.808  0.0070 -0.3064  0.2708
 6942SOL    HW132285   4.014   1.704   0.766 -2.2665 -1.9067  1.8563
 6942SOL    HW232286   4.032   1.571   0.829  0.4949 -0.5754  0.3919
 6943SOL     OW32287   3.281   1.516   9.352  0.6102  0.0022  0.1947
 6943SOL    HW132288   3.275   1.422   9.333  2.3307 -0.2955  1.0777
 6943SOL    HW232289   3.217   1.565   9.301  1.7036 -1.6797 -2.8046
 6944SOL     OW32290   1.020   2.047   8.987 -0.4166  0.0237  0.4573
 6944SOL    HW132291   0.925   2.053   8.976 -0.2921 -1.7343 -1.6566
 6944SOL    HW232292   1.039   1.954   8.979 -0.7792 -0.0284  0.1834
 6945SOL     OW32293   0.506   2.041  12.023  0.3015 -0.4507  0.3633
 6945SOL    HW132294   0.491   2.101  11.950 -0.5188 -0.4692  0.5138
 6945SOL    HW232295   0.601   2.032  12.030  0.3668  0.4872  0.7584
 6946SOL     OW32296   1.076   3.089   1.839 -0.4186  0.2501  0.2623
 6946SOL    HW132297   1.010   3.136   1.890  1.1327  2.0420  0.6679
 6946SOL    HW232298   1.074   3.143   1.760  0.3726  1.0828  0.8094
 6947SOL     OW32299   3.238   0.511   5.055 -0.1191 -0.0612  0.1632
 6947SOL    HW132300   3.267   0.493   4.966  1.4820  2.9132  0.0620
 6947SOL    HW232301   3.281   0.443   5.106 -2.9591 -0.9761  1.2955
 6948SOL     OW32302   4.291   3.000   2.308  0.1985 -0.1384 -0.4478
 6948SOL    HW132303   4.219   3.021   2.366  1.0060  0.9307  0.1664
 6948SOL    HW232304   4.354   3.027   2.375 -0.2969 -0.7152  0.2475
 6949SOL     OW32305   2.037   0.726  12.454 -0.5395  0.1507 -0.0161
 6949SOL    HW132306   1.986   0.807  12.460 -1.7959 -0.5978 -0.6186
 6949SOL    HW232307   2.108   0.737  12.391  1.9123  0.1794  2.7389
 6950SOL     OW32308   1.325   3.836   2.609 -0.1968 -0.3971  0.1608
 6950SOL    HW132309   1.411   3.850   2.571  0.6580 -1.5155  1.6455
 6950SOL    HW232310   1.277   3.892   2.549 -0.6251 -0.1000  0.7769
 6951SOL     OW32311   1.685   4.333   0.512  0.1363 -0.0907  0.1151
 6951SOL    HW132312   1.656   4.412   0.466 -0.0278 -0.1078  0.1871
 6951SOL    HW232313   1.724   4.371   0.590  1.5476 -2.2296  0.4589
 6952SOL     OW32314   2.814   2.588   2.859  0.2320 -0.8108 -0.1751
 6952SOL    HW132315   2.867   2.590   2.780  0.9468  0.8456  0.3372
 6952SOL    HW232316   2.752   2.655   2.829  0.5844  0.2708  1.4515
 6953SOL     OW32317   1.211   0.129   5.505  0.2998 -0.0671  0.9910
 6953SOL    HW132318   1.231   0.038   5.488 -1.0272 -0.3193  0.7980
 6953SOL    HW232319   1.123   0.126   5.543  0.2490  0.0443  0.8819
 6954SOL     OW32320   3.965   1.471   5.655  0.0098  0.0637  0.7403
 6954SOL    HW132321   3.965   1.555   5.701 -1.0670  1.0103 -0.9434
 6954SOL    HW232322   3.962   1.498   5.563 -4.1176 -1.9562  0.2908
 6955SOL     OW32323   0.099   2.484  12.619 -0.0119 -0.0920  0.2007
 6955SOL    HW132324   0.028   2.533  12.577  1.3235  2.8882  1.4225
 6955SOL    HW232325   0.172   2.529  12.577 -1.8583  3.0233  0.3404
 6956SOL     OW32326   1.743   4.696   3.391 -0.8378 -0.1341  0.2253
 6956SOL    HW132327   1.665   4.669   3.440 -0.6809  0.1913  0.6499
 6956SOL    HW232328   1.807   4.643   3.438  1.0117  1.3881 -0.5611
 6957SOL     OW32329   4.243   0.958   8.406 -0.1813 -0.6147  0.0698
 6957SOL    HW132330   4.238   0.956   8.502  3.2269  0.6482  0.2777
 6957SOL    HW232331   4.182   0.889   8.379 -0.6819 -0.7852  1.6255
 6958SOL     OW32332   3.397   0.975   3.279 -0.8136 -0.0939  0.1455
 6958SOL    HW132333   3.493   0.980   3.271 -0.8739 -0.7033 -0.9099
 6958SOL    HW232334   3.382   0.976   3.374 -0.3421 -0.0623  0.2198
 6959SOL     OW32335   4.214   4.679  10.096 -0.2672  0.1073  0.6416
 6959SOL    HW132336   4.242   0.045  10.114 -0.7079  0.5735 -0.9799
 6959SOL    HW232337   4.168   4.692  10.014 -1.1266  0.3927  1.1722
 6960SOL     OW32338   1.047   0.183   8.179  0.3639  0.2464  0.2659
 6960SOL    HW132339   0.987   0.132   8.234  0.4053 -0.1642 -0.0646
 6960SOL    HW232340   1.084   0.107   8.133  0.4792 -0.0417  0.8390
 6961SOL     OW32341   1.223   1.686   8.125 -0.5940 -0.0204  0.0472
 6961SOL    HW132342   1.185   1.600   8.109 -0.6048  0.1880 -1.0171
 6961SOL    HW232343   1.251   1.717   8.039 -2.3083  1.3807 -0.0175
 6962SOL     OW32344   4.516   4.486   8.855  0.0760 -0.8489 -0.5342
 6962SOL    HW132345   4.429   4.525   8.841  0.0087 -1.0720 -0.7484
 6962SOL    HW232346   4.539   4.523   8.940  0.5192 -0.5537 -0.7790
 6963SOL     OW32347   4.444   0.326  11.611  0.2481  0.0325  0.7348
 6963SOL    HW132348   4.430   0.374  11.692  0.7542  1.0769  0.2024
 6963SOL    HW232349   4.414   0.392  11.549  0.6149  2.3585  3.0089
 6964SOL     OW32350   3.664   0.229  16.598 -0.8200 -0.2410 -0.1933
 6964SOL    HW132351   3.579   0.248  16.559 -0.8392  1.7252  0.8464
 6964SOL    HW232352   3.683   0.140  16.567 -2.3765 -1.1008  1.3369
 6965SOL     OW32353   2.306   1.268   6.946 -0.9263 -0.9019  0.6708
 6965SOL    HW132354   2.372   1.261   6.876  1.2172 -0.0235  2.5992
 6965SOL    HW232355   2.256   1.345   6.920  0.7803 -0.2810 -0.8017
 6966SOL     OW32356   0.967   4.026   3.094 -0.2463  0.1813 -0.3666
 6966SOL    HW132357   0.886   3.975   3.084 -1.1967  1.3905  1.2265
 6966SOL    HW232358   0.948   4.091   3.162 -3.1983 -2.5906  1.5038
 6967SOL     OW32359   3.337   0.961   2.144  0.0475 -0.4834 -0.3363
 6967SOL    HW132360   3.242   0.966   2.154  0.2679  3.3163 -0.1613
 6967SOL    HW232361   3.364   1.048   2.174 -1.9074 -1.0811  3.2403
 6968SOL     OW32362   0.425   3.593   6.101 -0.4222 -0.4397  0.0667
 6968SOL    HW132363   0.381   3.574   6.184  1.6505  0.1381  1.2856
 6968SOL    HW232364   0.515   3.609   6.126 -0.3650 -0.8082  0.0950
 6969SOL     OW32365   4.394   3.436   0.877 -0.0934  0.4843  0.1010
 6969SOL    HW132366   4.359   3.377   0.944  0.1826 -0.1333 -0.2957
 6969SOL    HW232367   4.465   3.380   0.846  1.0667  0.9977  1.8643
 6970SOL     OW32368   0.615   3.747  17.633  0.5171 -0.3437 -0.6522
 6970SOL    HW132369   0.667   3.705  17.564  0.8766  0.7361 -1.0382
 6970SOL    HW232370   0.554   3.677  17.652  0.4334 -0.5482 -1.6530
 6971SOL     OW32371   3.323   0.742  12.461  0.1332  0.3476 -0.5513
 6971SOL    HW132372   3.325   0.670  12.524  1.2149  0.5582 -0.3341
 6971SOL    HW232373   3.246   0.734  12.404  1.0434  1.0731 -1.9014
 6972SOL     OW32374   0.931   0.743  16.482 -0.2204  0.7745 -0.0009
 6972SOL    HW132375   0.903   0.830  16.455  1.6905  0.8907 -1.6735
 6972SOL    HW232376   0.872   0.682  16.438  1.1862 -1.0304  0.5951
 6973SOL     OW32377   1.474   4.672   3.462 -0.1565  0.2067 -0.2724
 6973SOL    HW132378   1.405   4.619   3.502 -0.0784  0.5628  0.3224
 6973SOL    HW232379   1.423   0.030   3.468 -1.3181 -0.2730 -3.5631
 6974SOL     OW32380   4.311   0.397   7.061  0.1433  0.0848 -0.1464
 6974SOL    HW132381   4.216   0.410   7.064  0.4516  2.3291 -0.0256
 6974SOL    HW232382   4.313   0.317   7.007 -0.2663 -0.6031  0.8505
 6975SOL     OW32383   2.021   0.455   8.087 -0.2439  0.5249 -0.1956
 6975SOL    HW132384   1.997   0.381   8.143 -0.2250  0.8474  0.2420
 6975SOL    HW232385   2.026   0.410   8.003  1.0119  1.5686 -0.6797
 6976SOL     OW32386   4.622   2.860   2.535  0.4621  0.8356  0.0318
 6976SOL    HW132387   4.542   2.816   2.508  0.8168  0.5444 -0.5593
 6976SOL    HW232388   4.655   2.901   2.455 -1.5909  2.6017  0.0897
 6977SOL     OW32389   3.136   0.608   9.407 -0.7410  0.3156 -0.5281
 6977SOL    HW132390   3.048   0.619   9.371 -0.6650 -0.9977 -1.1111
 6977SOL    HW232391   3.155   0.694   9.445  1.9844  0.2893 -1.7864
 6978SOL     OW32392   2.863   0.093  12.842  0.4625  0.1347 -0.0849
 6978SOL    HW132393   2.886   0.017  12.788 -0.0896  0.5208 -0.8603
 6978SOL    HW232394   2.820   0.151  12.779 -2.2297 -2.0475 -0.2467
 6979SOL     OW32395   1.500   0.167   9.625 -0.4986 -0.2290  0.5820
 6979SOL    HW132396   1.456   0.083   9.634 -1.1887  0.0099 -0.5763
 6979SOL    HW232397   1.592   0.152   9.644  0.1348  0.3067 -2.0007
 6980SOL     OW32398   1.061   0.041  15.779  0.0858 -0.4822 -0.4226
 6980SOL    HW132399   1.134   0.011  15.834 -0.2740 -1.4391 -0.4516
 6980SOL    HW232400   1.001   4.689  15.780 -0.1995 -0.2519  0.3800
 6981SOL     OW32401   1.641   3.079   8.682 -0.3210 -0.5853 -0.4976
 6981SOL    HW132402   1.662   2.986   8.671  1.7144  0.0192 -1.7586
 6981SOL    HW232403   1.682   3.095   8.768  0.8959  3.0042 -1.7259
 6982SOL     OW32404   0.289   3.908   7.644  0.1135 -0.0548  0.1128
 6982SOL    HW132405   0.297   3.996   7.679 -0.4872  0.5398 -1.2352
 6982SOL    HW232406   0.276   3.856   7.723 -0.9272  1.1518  0.7340
 6983SOL     OW32407   4.590   2.094   8.676  0.2699  0.0986  0.2301
 6983SOL    HW132408   4.561   2.121   8.763 -0.5295  1.8967 -0.6013
 6983SOL    HW232409   4.525   2.030   8.647  0.4664 -1.2688  2.8293
 6984SOL     OW32410   4.486   1.147   7.900  0.1867  0.2730  0.4380
 6984SOL    HW132411   4.495   1.232   7.857 -0.2593  0.6956  1.1881
 6984SOL    HW232412   4.526   1.089   7.835 -1.2813  0.1924 -0.3976
 6985SOL     OW32413   3.794   4.592   3.120 -0.2141 -0.0237  0.2657
 6985SOL    HW132414   3.805   4.632   3.206 -0.1927 -0.6349  0.5432
 6985SOL    HW232415   3.861   4.648   3.080 -1.0580  0.8123  0.0045
 6986SOL     OW32416   3.916   3.155   2.728 -0.2488  0.1054  0.2204
 6986SOL    HW132417   3.845   3.218   2.739 -1.1660 -0.8207 -0.3694
 6986SOL    HW232418   3.903   3.105   2.808 -0.3917  0.1742  0.2399
 6987SOL     OW32419   2.342   1.797   9.466 -0.2719  0.1609  0.1804
 6987SOL    HW132420   2.284   1.725   9.442 -1.4111  0.8359  0.9024
 6987SOL    HW232421   2.282   1.860   9.505 -1.9393 -0.8716 -0.6907
 6988SOL     OW32422   1.508   2.141   1.987 -0.0531  0.2947  0.2700
 6988SOL    HW132423   1.508   2.123   1.893  1.9724  1.3530  0.0720
 6988SOL    HW232424   1.467   2.062   2.023  0.9845 -0.0919  0.6050
 6989SOL     OW32425   0.250   4.277  14.833 -0.1364 -0.1093 -0.2571
 6989SOL    HW132426   0.302   4.283  14.753  1.3262 -1.6215  0.5696
 6989SOL    HW232427   0.230   4.183  14.826 -1.5148  0.1918 -0.2748
 6990SOL     OW32428   2.666   3.910   4.428 -0.0603 -0.1905 -0.0516
 6990SOL    HW132429   2.643   3.948   4.343  0.7767 -0.2592 -0.3102
 6990SOL    HW232430   2.620   3.827   4.413 -0.4211  0.1961 -1.0953
 6991SOL     OW32431   2.774   3.138  10.390 -0.0651  0.5938 -0.4046
 6991SOL    HW132432   2.759   3.231  10.402 -1.7768  0.1658  0.7277
 6991SOL    HW232433   2.807   3.142  10.301  0.3229  1.0102 -0.2391
 6992SOL     OW32434   4.473   3.952   3.092  0.3776 -0.1858 -0.2315
 6992SOL    HW132435   4.511   3.912   3.013  1.6287 -0.4275  0.4954
 6992SOL    HW232436   4.439   4.028   3.045 -1.0235  0.1915  1.4092
 6993SOL     OW32437   0.544   2.844   7.413 -0.1807  0.0702 -0.2387
 6993SOL    HW132438   0.627   2.877   7.377 -0.6019  0.6310 -0.6896
 6993SOL    HW232439   0.512   2.783   7.347 -1.5752 -0.6764  1.1440
 6994SOL     OW32440   3.979   0.006   5.485  0.2624  0.0011 -0.3211
 6994SOL    HW132441   3.986   0.101   5.473 -0.1319  0.2379  1.3197
 6994SOL    HW232442   3.886   4.710   5.474 -0.8513  2.8315  3.7616
 6995SOL     OW32443   2.779   3.408   4.854  0.2822  0.1501  0.4798
 6995SOL    HW132444   2.751   3.338   4.912  1.2942  1.1289  2.1499
 6995SOL    HW232445   2.703   3.466   4.861  0.0625 -0.0328 -0.2943
 6996SOL     OW32446   3.360   2.702   8.851 -0.5464  0.2723  0.0794
 6996SOL    HW132447   3.349   2.792   8.882  1.4056 -0.8012  3.8354
 6996SOL    HW232448   3.399   2.670   8.932 -0.9411  0.3674  0.3026
 6997SOL     OW32449   0.262   3.238   3.605  0.3446 -0.0443 -0.0082
 6997SOL    HW132450   0.195   3.305   3.621 -0.6579 -0.9376 -0.4438
 6997SOL    HW232451   0.275   3.207   3.695  4.5653 -1.0238 -0.9367
 6998SOL     OW32452   3.585   0.834  13.488 -0.3580  0.5071 -0.0074
 6998SOL    HW132453   3.525   0.762  13.467  1.7065 -1.8584  2.2341
 6998SOL    HW232454   3.652   0.803  13.427  1.0590 -1.0452  2.3710
 6999SOL     OW32455   1.795   1.153  10.781  0.1044 -0.2134  0.9665
 6999SOL    HW132456   1.840   1.090  10.724  1.5930 -0.5000  2.4564
 6999SOL    HW232457   1.762   1.210  10.712  1.5506 -1.9180 -1.1565
 7000SOL     OW32458   4.523   3.898   8.773  0.1839  0.5906 -0.0642
 7000SOL    HW132459   4.571   3.889   8.855 -0.8713  0.8450  0.5858
 7000SOL    HW232460   4.435   3.899   8.811  0.0255  0.6064 -0.4334
 7001SOL     OW32461   0.753   0.174   6.558 -0.3149  0.0002 -0.2546
 7001SOL    HW132462   0.726   0.093   6.514  1.6413 -0.9624  0.3034
 7001SOL    HW232463   0.670   0.213   6.584 -1.6603 -1.5238 -2.2123
 7002SOL     OW32464   3.857   0.713  10.884  0.8946 -0.2770  0.0727
 7002SOL    HW132465   3.786   0.777  10.879  0.3837 -0.9569 -1.2355
 7002SOL    HW232466   3.920   0.741  10.818 -1.5240  2.3258 -1.1032
 7003SOL     OW32467   2.309   4.058  11.866  0.3044 -0.7329 -0.7146
 7003SOL    HW132468   2.303   3.977  11.918 -3.7408  1.1015  1.6577
 7003SOL    HW232469   2.219   4.086  11.879 -0.0397 -1.6228 -1.1788
 7004SOL     OW32470   3.936   2.886   6.246 -0.1993  0.4958 -0.4405
 7004SOL    HW132471   3.906   2.957   6.189 -0.8350  0.1236 -0.5633
 7004SOL    HW232472   3.991   2.936   6.307 -0.2134 -1.5261  1.2255
 7005SOL     OW32473   4.037   4.577  13.545  0.1010  0.1756 -0.0235
 7005SOL    HW132474   4.033   4.670  13.521  2.5839 -0.4421 -2.8130
 7005SOL    HW232475   4.112   4.573  13.604 -2.4953 -0.3331  3.2109
 7006SOL     OW32476   2.235   3.695   4.660  0.1014 -0.0356 -0.5854
 7006SOL    HW132477   2.276   3.767   4.612 -0.4417  0.3360 -0.4827
 7006SOL    HW232478   2.228   3.728   4.750 -3.1914  0.6603 -1.1176
 7007SOL     OW32479   3.182   0.132  10.304  0.4374 -0.1042  0.3160
 7007SOL    HW132480   3.219   0.208  10.349  2.3435  0.8256 -2.7957
 7007SOL    HW232481   3.248   0.095  10.245 -0.9853 -1.2080 -0.5754
 7008SOL     OW32482   1.253   0.134   6.200 -0.1104  0.0948  0.4841
 7008SOL    HW132483   1.254   0.051   6.152 -2.2795  1.6192 -2.2430
 7008SOL    HW232484   1.264   0.197   6.129  2.1918 -2.1241 -1.0993
 7009SOL     OW32485   1.045   4.238   2.146 -0.8563 -0.5307 -0.0026
 7009SOL    HW132486   1.135   4.206   2.140 -0.7300 -0.2241  0.2488
 7009SOL    HW232487   1.005   4.151   2.148 -0.5157 -0.6474  1.7360
 7010SOL     OW32488   0.734   1.173  17.367  0.2732 -0.0863  0.3181
 7010SOL    HW132489   0.778   1.088  17.373 -1.0642 -0.7542  0.5913
 7010SOL    HW232490   0.792   1.228  17.419 -0.0513 -0.2992  0.9030
 7011SOL     OW32491   4.308   1.770   4.673 -0.4360  0.9714 -0.0198
 7011SOL    HW132492   4.347   1.763   4.586 -0.5164  0.7936 -0.0415
 7011SOL    HW232493   4.386   1.786   4.725 -1.2693 -2.4063  2.2299
 7012SOL     OW32494   3.377   2.615   8.176 -0.1720  0.0925  0.4128
 7012SOL    HW132495   3.365   2.701   8.216  0.6065  0.1162  0.5925
 7012SOL    HW232496   3.293   2.573   8.192  0.7198 -0.6654  3.0811
 7013SOL     OW32497   0.899   3.048  17.313  0.1662 -0.1416  0.2863
 7013SOL    HW132498   0.870   3.131  17.274  0.9697 -0.6166 -1.2930
 7013SOL    HW232499   0.982   3.065  17.358 -0.3875  1.4035  0.7392
 7014SOL     OW32500   0.058   1.158   1.740 -0.1224  0.4398  0.0138
 7014SOL    HW132501   0.063   1.065   1.763 -0.5951  0.9946  2.3282
 7014SOL    HW232502   4.709   1.151   1.677 -0.3620 -0.4292  0.3886
 7015SOL     OW32503   2.217   3.729   7.016  0.0580  0.1365 -0.5660
 7015SOL    HW132504   2.213   3.635   7.033 -2.7241  0.3707  0.0830
 7015SOL    HW232505   2.130   3.746   7.052  0.8451  1.4538  0.7426
 7016SOL     OW32506   0.753   1.213   1.498 -0.2895 -0.1216  0.6651
 7016SOL    HW132507   0.739   1.122   1.521 -1.3105 -0.8935 -2.8963
 7016SOL    HW232508   0.695   1.229   1.424 -1.0398  1.5993  1.6329
 7017SOL     OW32509   0.876   4.068   9.948 -0.2030 -0.0017  0.4242
 7017SOL    HW132510   0.813   4.028  10.008  0.0724 -1.4832 -0.2573
 7017SOL    HW232511   0.941   4.089  10.015  0.2655 -0.2999  0.0656
 7018SOL     OW32512   0.595   3.658   2.661  0.1112  0.1438 -0.3083
 7018SOL    HW132513   0.613   3.696   2.575  1.1990  0.5256  0.0856
 7018SOL    HW232514   0.562   3.573   2.632 -0.2278 -0.0097  0.5449
 7019SOL     OW32515   0.365   0.815  17.429 -0.2534  0.3101 -0.2290
 7019SOL    HW132516   0.355   0.818  17.524  1.0869  2.6918 -0.1568
 7019SOL    HW232517   0.276   0.838  17.402 -0.8502  1.4656  2.7317
 7020SOL     OW32518   0.772   0.663   2.167  0.5146  0.1879  0.2787
 7020SOL    HW132519   0.720   0.690   2.091 -1.0611 -0.0906  1.2443
 7020SOL    HW232520   0.768   0.743   2.220 -2.9160  0.2944 -0.1345
 7021SOL     OW32521   0.952   3.118   6.807  0.4984 -0.4709 -0.2970
 7021SOL    HW132522   0.887   3.065   6.853  0.9800  0.4391  1.4376
 7021SOL    HW232523   0.917   3.119   6.718  0.6309  1.8559 -0.3246
 7022SOL     OW32524   1.292   3.340   8.083 -0.1870  0.0679 -0.0685
 7022SOL    HW132525   1.214   3.390   8.105 -0.4329 -0.0706 -0.6265
 7022SOL    HW232526   1.284   3.256   8.128 -2.0541  0.8377  1.0250
 7023SOL     OW32527   1.487   1.430   9.252  0.2490 -0.3887 -0.0625
 7023SOL    HW132528   1.577   1.398   9.247 -1.3163 -4.6087 -1.3290
 7023SOL    HW232529   1.439   1.353   9.283 -0.7431  0.8665  1.5428
 7024SOL     OW32530   2.915   1.226   8.427 -0.2066 -0.1516  0.7719
 7024SOL    HW132531   2.933   1.320   8.424 -0.3034 -0.1678 -0.0937
 7024SOL    HW232532   2.853   1.220   8.500  0.2282 -0.7432  1.0896
 7025SOL     OW32533   2.865   1.284   2.559 -0.3084  0.3460  0.0666
 7025SOL    HW132534   2.823   1.351   2.506  1.3996  1.6246  0.3199
 7025SOL    HW232535   2.959   1.297   2.546 -0.7909  0.8062 -2.8653
 7026SOL     OW32536   1.256   1.033   4.147  0.1701  0.5941  0.7744
 7026SOL    HW132537   1.231   1.091   4.076 -3.3842 -0.8802  0.8463
 7026SOL    HW232538   1.331   0.986   4.110 -0.0629 -0.4945  1.6611
 7027SOL     OW32539   4.711   0.083   4.895  0.1733 -0.5004 -0.0641
 7027SOL    HW132540   0.034   0.033   4.962  0.9131 -1.0029 -0.9582
 7027SOL    HW232541   0.009   0.170   4.929  0.9269 -0.9710  0.6801
 7028SOL     OW32542   2.353   0.709   0.035 -0.1354  0.2537 -0.9551
 7028SOL    HW132543   2.346   0.770   0.109 -0.3487  0.7814 -1.4079
 7028SOL    HW232544   2.307   0.751  17.657  1.1459 -0.2703 -2.0873
 7029SOL     OW32545   2.396   1.050   3.019  0.0896  0.2582  0.5875
 7029SOL    HW132546   2.485   1.033   3.049  0.3830  1.2306  0.2832
 7029SOL    HW232547   2.420   1.036   2.928  2.4539  1.2079  1.0703
 7030SOL     OW32548   4.316   4.227  16.216 -0.2593 -0.4419 -0.8175
 7030SOL    HW132549   4.361   4.207  16.298  2.1681  0.3620 -1.9383
 7030SOL    HW232550   4.289   4.317  16.233 -1.2807 -0.9146  0.0456
 7031SOL     OW32551   1.229   0.498   4.162 -0.2708 -0.0781  0.2111
 7031SOL    HW132552   1.249   0.525   4.251  1.5321  1.0566 -0.5476
 7031SOL    HW232553   1.292   0.546   4.109 -0.1798  0.2725  0.6391
 7032SOL     OW32554   0.069   4.412   2.488  0.8753 -0.2544  1.2318
 7032SOL    HW132555   4.708   4.457   2.493  0.4734 -1.1514  2.4217
 7032SOL    HW232556   0.039   4.333   2.532  0.8985 -0.2806  1.1999
 7033SOL     OW32557   0.355   4.599   6.110 -0.0707 -0.7772 -0.2081
 7033SOL    HW132558   0.424   4.584   6.045 -0.6182 -1.7729 -0.5579
 7033SOL    HW232559   0.298   4.522   6.108  0.2714 -1.0296 -0.1775
 7034SOL     OW32560   4.487   2.087   1.884  0.0532 -0.4757  0.1234
 7034SOL    HW132561   4.467   1.994   1.896  2.6245 -1.1234 -0.7640
 7034SOL    HW232562   4.581   2.084   1.897 -0.0962 -1.4337  0.9624
 7035SOL     OW32563   0.545   2.636   6.987 -0.1852 -0.1175  0.7096
 7035SOL    HW132564   0.482   2.608   7.053  0.5042  0.8992  1.7896
 7035SOL    HW232565   0.512   2.725   6.976 -2.0227 -1.0853 -1.6780
 7036SOL     OW32566   0.644   4.634   0.175 -0.1769 -0.3407 -0.7470
 7036SOL    HW132567   0.589   4.701   0.135 -0.3846 -0.5854 -0.8687
 7036SOL    HW232568   0.695   4.686   0.237  0.3488  0.5926 -1.9647
 7037SOL     OW32569   0.521   0.301   2.903 -0.1988  0.2959  0.0846
 7037SOL    HW132570   0.473   0.236   2.852 -1.4165  0.8052  0.5919
 7037SOL    HW232571   0.494   0.376   2.850 -3.4320  0.3170  1.8225
 7038SOL     OW32572   4.346   3.686   6.892 -0.2162  0.2465 -0.5954
 7038SOL    HW132573   4.391   3.629   6.953 -0.3183 -0.1552 -0.8966
 7038SOL    HW232574   4.274   3.625   6.876  0.2318 -0.6702  0.8858
 7039SOL     OW32575   3.705   3.745   2.173 -0.3437 -0.0117  0.2347
 7039SOL    HW132576   3.728   3.743   2.081  1.9423 -1.3917  0.8288
 7039SOL    HW232577   3.735   3.659   2.205 -0.5046  0.1083  0.7080
 7040SOL     OW32578   4.354   2.491   1.549  0.3304  0.4470  0.3710
 7040SOL    HW132579   4.430   2.512   1.603  2.0028 -2.7971 -0.6910
 7040SOL    HW232580   4.369   2.397   1.548 -1.3355  0.1615  5.6978
 7041SOL     OW32581   2.222   2.436   2.358 -0.2624 -0.5727 -0.3427
 7041SOL    HW132582   2.134   2.464   2.384  0.6236  1.5947  0.3036
 7041SOL    HW232583   2.226   2.341   2.368 -0.2956 -0.2665  2.5952
 7042SOL     OW32584   4.422   0.178   8.102  0.7322 -0.3220  0.0223
 7042SOL    HW132585   4.417   0.203   8.010  0.2640  0.4109  0.2410
 7042SOL    HW232586   4.470   0.096   8.098 -1.7914 -1.7940 -0.1953
 7043SOL     OW32587   2.835   3.372   7.356  0.7006 -0.6763 -0.0921
 7043SOL    HW132588   2.843   3.378   7.261 -0.9966  1.1363 -0.1295
 7043SOL    HW232589   2.758   3.428   7.368  0.0501 -1.3642 -0.9716
 7044SOL     OW32590   3.114   4.665   4.037  0.2298 -1.0385  0.0171
 7044SOL    HW132591   3.106   4.570   4.028 -0.2754 -1.1425  1.6929
 7044SOL    HW232592   3.050   4.695   4.102 -1.9985 -0.7184 -2.3116
 7045SOL     OW32593   2.584   3.794  10.565 -0.0944  0.0681 -0.3227
 7045SOL    HW132594   2.660   3.851  10.565 -1.9168  2.4799 -0.9343
 7045SOL    HW232595   2.512   3.855  10.548 -1.0598 -0.6652  1.0706
 7046SOL     OW32596   3.396   1.316   7.446 -0.3387  0.3641  0.1028
 7046SOL    HW132597   3.486   1.325   7.476 -1.3788  0.5251  3.2751
 7046SOL    HW232598   3.381   1.406   7.418 -3.3352 -0.4969 -1.0389
 7047SOL     OW32599   2.861   2.279   1.819 -0.2366  0.0758  0.4733
 7047SOL    HW132600   2.794   2.345   1.841 -0.8530 -1.2368  2.5090
 7047SOL    HW232601   2.875   2.291   1.725  1.0019 -0.8951  0.5443
 7048SOL     OW32602   4.199   1.993   8.742  0.9868 -0.3754 -0.6621
 7048SOL    HW132603   4.105   1.997   8.760  0.9201  0.5795 -1.2661
 7048SOL    HW232604   4.229   2.055   8.808 -2.5272  0.7901 -0.1682
 7049SOL     OW32605   1.586   0.605   8.058 -0.0119  0.4024  0.2004
 7049SOL    HW132606   1.531   0.667   8.106 -1.6870  0.8927 -2.3868
 7049SOL    HW232607   1.548   0.596   7.971  2.1884 -1.5365 -0.5551
 7050SOL     OW32608   3.273   4.195   1.300 -0.2075  0.3134 -0.0263
 7050SOL    HW132609   3.360   4.164   1.274  0.7650  1.0447  2.3501
 7050SOL    HW232610   3.213   4.164   1.232 -2.4804  1.0466  1.6212
 7051SOL     OW32611   3.980   3.732   6.079  0.2553  0.5244 -0.5502
 7051SOL    HW132612   3.985   3.822   6.109  0.0508  0.9639 -1.8215
 7051SOL    HW232613   3.958   3.751   5.988 -0.1816  1.3428 -0.2714
 7052SOL     OW32614   3.867   0.848   2.336 -0.1310 -0.0082 -0.6036
 7052SOL    HW132615   3.885   0.902   2.413  2.1875  0.0794 -1.1782
 7052SOL    HW232616   3.955   0.823   2.306 -0.7051  0.2383 -2.5298
 7053SOL     OW32617   2.852   3.288   2.186 -0.1753  0.0626  0.1195
 7053SOL    HW132618   2.943   3.279   2.158  0.2364  2.0182  0.7946
 7053SOL    HW232619   2.858   3.342   2.265  0.6066 -2.0245  1.4613
 7054SOL     OW32620   2.942   1.502   8.380 -0.3442  0.1263 -0.1009
 7054SOL    HW132621   2.915   1.593   8.382 -0.0262  0.1799  1.3151
 7054SOL    HW232622   2.977   1.499   8.290  1.0796  1.3454  0.4084
 7055SOL     OW32623   4.245   1.125   0.800  0.2606  0.1203 -0.6939
 7055SOL    HW132624   4.184   1.189   0.762 -2.1967 -1.1555  1.0655
 7055SOL    HW232625   4.223   1.047   0.749  1.3342  0.9984 -2.5069
 7056SOL     OW32626   4.060   4.098  14.860  0.1238  0.4875 -0.6495
 7056SOL    HW132627   4.043   4.191  14.844  0.0893  0.7739  1.0322
 7056SOL    HW232628   4.155   4.091  14.866 -0.0223 -0.3989  0.7197
 7057SOL     OW32629   1.515   2.776   3.520 -0.0690  0.1415 -0.1798
 7057SOL    HW132630   1.458   2.843   3.556 -0.3765  0.2427 -0.8479
 7057SOL    HW232631   1.533   2.720   3.596 -2.5479  0.0322  0.3073
 7058SOL     OW32632   4.486   1.821   6.437  0.2054 -0.1264 -0.3703
 7058SOL    HW132633   4.413   1.816   6.376  0.5327  3.8539 -1.0568
 7058SOL    HW232634   4.562   1.818   6.379 -0.6956  3.2191 -1.7067
 7059SOL     OW32635   1.235   4.508   1.066 -0.7319  0.5886  0.3078
 7059SOL    HW132636   1.218   4.461   0.984  0.8760  1.1237 -0.3237
 7059SOL    HW232637   1.297   4.577   1.041  1.0419 -0.2593  2.2992
 7060SOL     OW32638   4.490   0.277   5.829 -0.1398 -0.1936 -0.9374
 7060SOL    HW132639   4.398   0.302   5.818 -0.7358 -2.6163 -1.5952
 7060SOL    HW232640   4.538   0.356   5.852 -0.7751 -0.0468 -0.1110
 7061SOL     OW32641   1.464   0.876   7.013 -0.4217 -0.1808  0.8743
 7061SOL    HW132642   1.515   0.796   7.020 -0.4300 -0.4106 -1.7934
 7061SOL    HW232643   1.504   0.911   6.933  0.2823  0.1217  1.3600
 7062SOL     OW32644   4.325   3.308  16.037  0.0272 -0.1142  0.1856
 7062SOL    HW132645   4.286   3.244  16.097  0.3320 -1.9063 -1.5205
 7062SOL    HW232646   4.400   3.338  16.088 -1.0403 -0.6893  2.0867
 7063SOL     OW32647   3.467   3.303  11.430  0.1354  0.1470  1.0938
 7063SOL    HW132648   3.558   3.314  11.402 -0.3476  0.8325 -0.1871
 7063SOL    HW232649   3.465   3.339  11.518 -0.7428 -1.8668  1.8973
 7064SOL     OW32650   1.392   3.025   2.720 -0.5044 -0.6735  0.0904
 7064SOL    HW132651   1.440   2.948   2.689 -0.5280 -0.3343 -0.7683
 7064SOL    HW232652   1.438   3.065   2.794 -0.0321 -0.7192 -0.1788
 7065SOL     OW32653   3.552   4.522   4.800 -0.0256  0.6528  0.4244
 7065SOL    HW132654   3.497   4.445   4.814 -0.0284  0.4410 -0.7483
 7065SOL    HW232655   3.534   4.560   4.713  0.4514  2.0547  0.9322
 7066SOL     OW32656   3.925   4.151  16.802 -0.3276  0.3197 -0.2986
 7066SOL    HW132657   3.851   4.116  16.752 -0.5349  0.5891 -0.1808
 7066SOL    HW232658   3.933   4.236  16.760  0.8468  0.6241  0.5569
 7067SOL     OW32659   3.819   1.719  11.087 -0.5556 -0.0239  0.3188
 7067SOL    HW132660   3.862   1.719  11.172 -2.7393  2.0256  1.4165
 7067SOL    HW232661   3.772   1.803  11.088  0.2068  0.4370 -1.7162
 7068SOL     OW32662   4.010   2.229   9.956 -0.1412 -0.1905  0.6014
 7068SOL    HW132663   4.091   2.255  10.000 -0.6837 -0.0301  1.4970
 7068SOL    HW232664   3.998   2.313   9.912  3.1289 -1.0243 -1.9026
 7069SOL     OW32665   1.025   4.697   5.001 -0.1064  0.3798  0.5246
 7069SOL    HW132666   0.970   4.627   4.966 -1.3423  1.0666  1.0825
 7069SOL    HW232667   1.114   4.664   4.991 -0.9450 -1.7117  0.0393
 7070SOL     OW32668   3.785   1.071   2.533 -0.3942  0.0306 -0.5371
 7070SOL    HW132669   3.850   1.044   2.599 -2.1772 -0.6639  0.9147
 7070SOL    HW232670   3.729   0.994   2.528 -0.9118  0.2428  1.9877
 7071SOL     OW32671   3.902   3.761   3.815 -0.0966 -0.1323 -0.0399
 7071SOL    HW132672   3.840   3.687   3.812 -2.0627  1.4877  0.3874
 7071SOL    HW232673   3.846   3.822   3.766  0.2370  1.5828  1.7067
 7072SOL     OW32674   0.089   0.108   7.563  1.2749  0.3381  0.2591
 7072SOL    HW132675   0.177   0.109   7.601  1.5241 -0.3691 -0.3110
 7072SOL    HW232676   0.115   0.059   7.486  1.0881  2.0038 -0.8562
 7073SOL     OW32677   1.468   2.383   8.838 -0.4394 -0.3562 -0.1769
 7073SOL    HW132678   1.537   2.373   8.772 -0.8608 -1.4731 -0.4538
 7073SOL    HW232679   1.392   2.385   8.780  0.3094 -0.4657 -1.1612
 7074SOL     OW32680   2.781   4.095   7.305 -0.4867 -0.1322  0.4965
 7074SOL    HW132681   2.871   4.093   7.273 -0.5826  2.3156  0.0320
 7074SOL    HW232682   2.770   4.188   7.327 -1.2985  0.1281 -0.9875
 7075SOL     OW32683   0.147   0.758   8.855  0.1882  0.4973  0.5634
 7075SOL    HW132684   0.239   0.737   8.869  0.3615  0.8743 -0.0148
 7075SOL    HW232685   0.101   0.706   8.921 -1.4161  1.4630  0.1989
 7076SOL     OW32686   1.726   1.868   3.356  0.6603  0.1652 -0.3925
 7076SOL    HW132687   1.683   1.782   3.361 -0.7703  0.7616 -2.7092
 7076SOL    HW232688   1.814   1.843   3.385  0.4085  0.7727  0.8674
 7077SOL     OW32689   1.227   1.959   7.447 -0.2279  0.7518 -0.2186
 7077SOL    HW132690   1.271   1.887   7.403 -0.1220  0.1279  0.9270
 7077SOL    HW232691   1.183   2.003   7.373  0.6498  1.9521 -0.0328
 7078SOL     OW32692   2.848   3.276   3.971  0.2147  0.5174 -0.4768
 7078SOL    HW132693   2.771   3.227   4.002  1.7971 -1.3444  0.4848
 7078SOL    HW232694   2.812   3.365   3.963  1.4095  1.1282  1.0623
 7079SOL     OW32695   2.718   3.635   1.498 -0.2075  0.1323 -0.0354
 7079SOL    HW132696   2.804   3.627   1.457  0.7823  0.1038  2.0066
 7079SOL    HW232697   2.680   3.703   1.443  0.6735 -0.2283 -1.0909
 7080SOL     OW32698   3.263   1.282  16.622 -0.0081  0.1718  0.0443
 7080SOL    HW132699   3.266   1.281  16.526 -1.6418  0.1417  0.0003
 7080SOL    HW232700   3.263   1.190  16.648 -4.2597 -0.7401 -3.3326
 7081SOL     OW32701   0.925   3.948   3.698 -0.2929  0.2609 -0.1297
 7081SOL    HW132702   0.953   3.965   3.788  3.1133  1.8390 -1.4880
 7081SOL    HW232703   0.890   3.859   3.699 -0.4968  0.3379 -0.3545
 7082SOL     OW32704   2.248   4.583  15.185  0.0102 -0.2393 -0.1486
 7082SOL    HW132705   2.193   4.660  15.175  0.3902  0.1183  0.5567
 7082SOL    HW232706   2.209   4.549  15.265  0.9382 -0.2758  0.2903
 7083SOL     OW32707   3.043   3.474   3.465 -0.3958 -0.1788 -0.2546
 7083SOL    HW132708   2.964   3.457   3.517  0.8059 -0.7682  1.3944
 7083SOL    HW232709   3.109   3.425   3.514  0.1246 -0.0972 -0.8865
 7084SOL     OW32710   3.202   1.811   3.755 -0.7531  0.4158  0.3509
 7084SOL    HW132711   3.121   1.821   3.806 -0.8945 -0.0915  0.2277
 7084SOL    HW232712   3.186   1.761   3.675 -1.2739 -0.7298  1.1736
 7085SOL     OW32713   0.181   3.593   4.037  0.2582 -0.1387 -0.1917
 7085SOL    HW132714   0.211   3.567   3.950 -1.4811 -0.4435 -0.6986
 7085SOL    HW232715   0.256   3.639   4.074  0.8726 -0.6388 -0.7937
 7086SOL     OW32716   0.855   3.097   7.115  0.3914 -0.2646 -0.2235
 7086SOL    HW132717   0.914   3.168   7.091  0.0284 -0.4008 -1.4945
 7086SOL    HW232718   0.781   3.153   7.137 -0.1034 -1.2662  0.6721
 7087SOL     OW32719   0.573   2.050  10.724 -0.1481 -0.1579  0.2613
 7087SOL    HW132720   0.595   1.977  10.667  0.0902 -0.4963  0.7863
 7087SOL    HW232721   0.652   2.084  10.766 -0.7952  1.2510  0.3518
 7088SOL     OW32722   4.137   0.399  14.495  0.1834 -0.7097 -0.2828
 7088SOL    HW132723   4.208   0.337  14.480  0.9472  0.2603 -0.6334
 7088SOL    HW232724   4.117   0.439  14.410 -0.3160 -1.0962 -0.3446
 7089SOL     OW32725   0.482   2.253   5.607  0.1959 -0.3584  0.3090
 7089SOL    HW132726   0.567   2.252   5.562  1.1063 -0.5699  2.0584
 7089SOL    HW232727   0.501   2.325   5.667  2.9776  1.8144 -3.1437
 7090SOL     OW32728   0.710   4.264   1.530 -0.4775 -0.6594  0.7988
 7090SOL    HW132729   0.692   4.214   1.450  0.1514  1.1664 -0.4711
 7090SOL    HW232730   0.686   4.206   1.602 -2.1158  0.5454  1.2202
 7091SOL     OW32731   1.833   1.970   2.288  0.0597 -0.2106  0.3147
 7091SOL    HW132732   1.829   1.970   2.192  0.7800 -1.8282  0.2923
 7091SOL    HW232733   1.862   2.057   2.314  0.2023 -0.0550 -0.3616
 7092SOL     OW32734   2.155   2.669   7.379  0.1354 -0.3032 -0.0704
 7092SOL    HW132735   2.241   2.676   7.421 -0.7827  0.0911  1.7757
 7092SOL    HW232736   2.107   2.740   7.422 -1.7764 -1.2523 -0.6637
 7093SOL     OW32737   2.893   2.312   9.069 -0.3991  0.1714 -0.5491
 7093SOL    HW132738   2.913   2.308   9.163  0.5917 -1.9373 -0.8409
 7093SOL    HW232739   2.865   2.222   9.055 -2.9092  1.0423 -1.1420
 7094SOL     OW32740   1.873   0.951   3.100  0.4329  0.2314  0.2390
 7094SOL    HW132741   1.956   0.997   3.090  1.4294 -1.6203  0.0789
 7094SOL    HW232742   1.907   0.888   3.163 -1.5099 -1.2232 -0.1774
 7095SOL     OW32743   4.300   0.777  11.209 -0.1330  0.3546  0.4402
 7095SOL    HW132744   4.360   0.782  11.135  0.8722  1.1997  1.3102
 7095SOL    HW232745   4.283   0.683  11.208  0.1567  0.3108 -0.2889
 7096SOL     OW32746   0.260   3.312   4.186  0.4756  0.3998  0.2881
 7096SOL    HW132747   0.199   3.350   4.124 -2.5098 -0.3793  2.7826
 7096SOL    HW232748   0.257   3.220   4.160 -2.9947  0.2905  1.1044
 7097SOL     OW32749   4.412   2.932   3.837 -0.4156  0.4688  0.4324
 7097SOL    HW132750   4.471   2.922   3.762  0.1200  1.5172  0.7055
 7097SOL    HW232751   4.444   3.018   3.866  0.9230  0.2522 -0.4077
 7098SOL     OW32752   0.937   2.867   4.738 -0.7460  0.1716 -0.4013
 7098SOL    HW132753   0.984   2.800   4.789 -0.9780  0.1992 -0.1492
 7098SOL    HW232754   1.013   2.921   4.717 -0.1911 -1.7112 -3.2813
 7099SOL     OW32755   0.314   3.714  12.259 -0.0114 -0.3376  0.5542
 7099SOL    HW132756   0.247   3.782  12.257  0.6771  0.3965  2.1217
 7099SOL    HW232757   0.285   3.668  12.338 -0.9553  0.4229  0.6518
 7100SOL     OW32758   1.595   2.825   5.732 -0.2376  0.1789 -0.6750
 7100SOL    HW132759   1.654   2.753   5.753 -3.4431 -1.8670  1.2563
 7100SOL    HW232760   1.652   2.891   5.772 -0.7326  0.0741  0.2103
 7101SOL     OW32761   2.859   2.325   4.322  0.0484  0.4374 -0.6523
 7101SOL    HW132762   2.870   2.417   4.348 -2.9804  0.8316 -0.7619
 7101SOL    HW232763   2.948   2.297   4.340  0.6661  2.5586 -0.3518
 7102SOL     OW32764   3.975   1.304   2.523  0.1718 -0.2589  0.2983
 7102SOL    HW132765   3.896   1.252   2.541  0.3063 -1.2282 -2.0065
 7102SOL    HW232766   4.024   1.300   2.605  1.2750 -1.5364 -0.4181
 7103SOL     OW32767   4.723   0.401   0.792  0.1157  0.7740  0.0411
 7103SOL    HW132768   0.035   0.489   0.798  1.1465  0.0835  4.0563
 7103SOL    HW232769   4.673   0.399   0.874  1.5728  0.7751  0.9209
 7104SOL     OW32770   4.270   1.214  14.542 -0.1014  0.1426 -0.2874
 7104SOL    HW132771   4.311   1.300  14.550 -0.2244  0.2698 -1.0177
 7104SOL    HW232772   4.216   1.218  14.463  0.9545  0.2185 -1.0103
 7105SOL     OW32773   0.462   3.856   0.263 -0.2398 -0.0554 -0.2487
 7105SOL    HW132774   0.459   3.886   0.172 -1.5269 -0.8020 -0.4535
 7105SOL    HW232775   0.511   3.923   0.311 -0.6032 -0.4938  0.7283
 7106SOL     OW32776   0.877   4.035   0.721  0.2829  0.0120 -0.4761
 7106SOL    HW132777   0.880   4.118   0.769  0.6173 -1.9114  2.7476
 7106SOL    HW232778   0.969   4.009   0.720  0.2318 -0.1858  0.1029
 7107SOL     OW32779   2.980   0.279   8.415  0.1511 -0.6418 -0.5605
 7107SOL    HW132780   3.007   0.278   8.506  0.5188  1.8182 -0.6387
 7107SOL    HW232781   2.947   0.189   8.410  0.4998 -0.7616 -0.6838
 7108SOL     OW32782   2.092   1.649   9.398 -0.5103  0.3021 -0.6779
 7108SOL    HW132783   2.089   1.579   9.333 -0.6063 -1.7382  1.5079
 7108SOL    HW232784   2.022   1.709   9.373 -2.3282 -2.4656 -2.2078
 7109SOL     OW32785   2.745   1.122   4.539 -0.0233  0.3127 -0.0976
 7109SOL    HW132786   2.705   1.128   4.452  1.0761  1.6394 -0.5214
 7109SOL    HW232787   2.798   1.044   4.523  1.0306  1.1711 -0.7892
 7110SOL     OW32788   4.066   2.554  13.415  0.1829 -0.2213  0.4963
 7110SOL    HW132789   4.081   2.598  13.332  1.9980 -2.3608 -0.3135
 7110SOL    HW232790   3.971   2.554  13.403  0.2631 -1.1777 -0.1784
 7111SOL     OW32791   1.467   0.172   7.755  0.5407  0.4337  0.4747
 7111SOL    HW132792   1.425   0.244   7.803 -0.0825  1.2722 -1.2911
 7111SOL    HW232793   1.390   0.118   7.737  0.7093  0.6415 -0.8836
 7112SOL     OW32794   1.162   4.183   0.569 -0.1162  0.2396 -0.0234
 7112SOL    HW132795   1.177   4.089   0.565 -1.5249  0.0999 -2.3541
 7112SOL    HW232796   1.087   4.196   0.511  0.2324  2.3178 -0.0304
 7113SOL     OW32797   2.944   1.764   2.316 -0.0692  0.0531  0.2301
 7113SOL    HW132798   2.863   1.714   2.325  0.0913 -0.6016 -1.8082
 7113SOL    HW232799   2.982   1.709   2.247  0.6469  0.1147  0.5757
 7114SOL     OW32800   4.279   1.216   4.705  0.2105 -0.1325 -0.3902
 7114SOL    HW132801   4.304   1.169   4.785  0.1442 -1.6305 -1.2379
 7114SOL    HW232802   4.310   1.306   4.709 -1.7320  0.5985 -1.4706
 7115SOL     OW32803   3.650   0.956   7.853 -0.0875 -0.3608 -0.5852
 7115SOL    HW132804   3.584   1.013   7.813 -0.1729  0.3085  0.4837
 7115SOL    HW232805   3.619   0.872   7.820  1.4076 -1.2233  0.2603
 7116SOL     OW32806   3.277   0.257   5.224  0.1682 -0.2098 -0.5307
 7116SOL    HW132807   3.270   0.329   5.287  0.9334 -0.3775 -0.2558
 7116SOL    HW232808   3.347   0.201   5.258  1.1233  0.5938 -1.1903
 7117SOL     OW32809   3.369   0.423   2.449 -0.7818  0.2104 -0.3613
 7117SOL    HW132810   3.363   0.408   2.354 -2.4182 -0.0076 -0.2254
 7117SOL    HW232811   3.456   0.460   2.465 -0.8220  0.0900  0.1233
 7118SOL     OW32812   0.044   2.221  14.850  0.6538 -0.3496  0.1303
 7118SOL    HW132813   0.072   2.311  14.871  1.3389 -0.6119  0.3352
 7118SOL    HW232814   0.117   2.173  14.887  1.7925 -0.3263 -2.0636
 7119SOL     OW32815   2.099   1.924   6.758 -0.5509 -0.5826 -0.4377
 7119SOL    HW132816   2.134   1.896   6.673 -1.7963 -0.4877 -0.9805
 7119SOL    HW232817   2.109   2.020   6.758 -1.7121 -0.4523  1.4652
 7120SOL     OW32818   3.265   3.957   0.912  0.0710  0.1729 -0.6378
 7120SOL    HW132819   3.285   4.006   0.831  2.7965  1.0764  0.5904
 7120SOL    HW232820   3.171   3.947   0.902  0.4691 -0.9260 -3.2799
 7121SOL     OW32821   2.719   3.646   0.679  0.0365 -0.2525  0.3761
 7121SOL    HW132822   2.793   3.610   0.729 -1.1949  0.6236  2.8196
 7121SOL    HW232823   2.766   3.641   0.596 -1.4926 -0.2764 -0.4682
 7122SOL     OW32824   1.943   3.041  14.772 -1.0808  0.1516 -0.1287
 7122SOL    HW132825   1.900   3.111  14.822 -0.4776 -0.8486  1.8088
 7122SOL    HW232826   2.035   3.062  14.792 -1.2875  1.5522 -0.6256
 7123SOL     OW32827   1.717   3.333   7.793 -1.2125 -0.4320 -0.5997
 7123SOL    HW132828   1.706   3.406   7.732  0.2790  1.1057  0.9601
 7123SOL    HW232829   1.794   3.349   7.847 -0.8336  0.5165 -1.4087
 7124SOL     OW32830   1.059   3.189  15.465 -0.2439  0.4268  0.1928
 7124SOL    HW132831   1.068   3.101  15.500  1.0573  0.7707  0.7345
 7124SOL    HW232832   0.995   3.176  15.395  1.2072 -1.1109 -0.8678
 7125SOL     OW32833   1.457   0.076  17.532  0.2433 -0.6105  0.3592
 7125SOL    HW132834   1.443   0.019  17.456  0.5889 -1.5443  0.9897
 7125SOL    HW232835   1.529   0.121  17.488  0.3497 -2.3194 -1.2052
 7126SOL     OW32836   2.985   1.590  15.867 -0.5317  0.0751 -0.5170
 7126SOL    HW132837   3.032   1.593  15.783  1.8246 -2.1719  0.7438
 7126SOL    HW232838   2.905   1.564  15.821  0.0426 -1.4993 -0.6244
 7127SOL     OW32839   0.445   1.913  15.953 -0.5894  0.6070  0.0714
 7127SOL    HW132840   0.392   1.883  15.879 -1.3167  0.1906  0.7600
 7127SOL    HW232841   0.514   1.847  15.958 -2.7929 -1.6466  1.0264
 7128SOL     OW32842   0.934   2.086   8.090  0.0218 -0.5430 -0.3057
 7128SOL    HW132843   0.855   2.091   8.036 -1.5435 -1.5750  1.8925
 7128SOL    HW232844   0.896   2.087   8.178 -2.0947 -2.1900 -1.2058
 7129SOL     OW32845   2.665   4.312   6.716  0.1620  0.3515  0.4294
 7129SOL    HW132846   2.750   4.339   6.679  1.2328 -0.6631  2.1885
 7129SOL    HW232847   2.693   4.221   6.723 -1.9592 -0.3139  0.2493
 7130SOL     OW32848   1.492   2.749   3.029  0.2254 -0.0776 -0.6055
 7130SOL    HW132849   1.414   2.752   3.084  0.9779 -3.9144  0.6964
 7130SOL    HW232850   1.562   2.784   3.084  0.6298 -1.1216 -0.4470
 7131SOL     OW32851   2.750   0.775   2.212  1.0800  0.2696  0.3913
 7131SOL    HW132852   2.816   0.711   2.239 -0.0501 -1.5123 -1.0686
 7131SOL    HW232853   2.807   0.852   2.212 -0.5469  1.4823  1.3494
 7132SOL     OW32854   4.205   2.641   8.258 -0.0028 -0.2036 -0.2037
 7132SOL    HW132855   4.162   2.561   8.228 -2.9371  1.1126  0.5041
 7132SOL    HW232856   4.126   2.676   8.298 -1.0462 -2.1402 -0.5455
 7133SOL     OW32857   0.844   2.193  10.171  0.1290  0.0542  0.4580
 7133SOL    HW132858   0.808   2.129  10.233 -0.1361 -1.0017 -0.8054
 7133SOL    HW232859   0.893   2.249  10.231 -1.0197  0.4420  1.0427
 7134SOL     OW32860   0.388   3.743   2.350 -0.2478  0.0179 -0.1171
 7134SOL    HW132861   0.401   3.837   2.368 -0.2785 -0.2284  1.1855
 7134SOL    HW232862   0.293   3.735   2.358 -0.1072 -0.3844  1.2223
 7135SOL     OW32863   1.996   3.468   8.451 -0.2231 -0.3153 -0.5641
 7135SOL    HW132864   1.991   3.459   8.356 -1.2105  3.0341 -0.8368
 7135SOL    HW232865   1.996   3.374   8.468 -4.2323  0.3247  3.0595
 7136SOL     OW32866   0.888   0.086   6.860 -0.6129 -0.0183  0.1717
 7136SOL    HW132867   0.979   0.060   6.879 -0.6507 -0.6031 -0.4561
 7136SOL    HW232868   0.872   0.043   6.776 -2.2052 -0.8826  0.9152
 7137SOL     OW32869   1.297   1.151   1.495  0.0830 -0.0363  0.2767
 7137SOL    HW132870   1.213   1.113   1.469  0.3808 -1.2533  1.1165
 7137SOL    HW232871   1.310   1.125   1.586  0.6833 -3.0376 -0.6604
 7138SOL     OW32872   0.592   0.382   5.411  0.6934  0.0528  0.1568
 7138SOL    HW132873   0.521   0.330   5.448  1.1257 -0.5042  0.2004
 7138SOL    HW232874   0.544   0.399   5.330 -1.2301 -0.3764  1.2119
 7139SOL     OW32875   3.411   0.677   6.713  0.1697 -0.4859  0.4332
 7139SOL    HW132876   3.441   0.767   6.719  1.8977 -0.9317 -1.4257
 7139SOL    HW232877   3.343   0.676   6.781  1.4795 -1.9841  1.7319
 7140SOL     OW32878   0.763   4.262   4.304  0.0778  0.2942  0.6755
 7140SOL    HW132879   0.715   4.340   4.276 -0.5324  0.0044  0.9138
 7140SOL    HW232880   0.800   4.292   4.386 -0.9126 -1.2493  1.6946
 7141SOL     OW32881   2.597   0.731   1.966  0.1813 -0.4167 -0.2201
 7141SOL    HW132882   2.670   0.764   1.914  1.6176 -2.0638  0.7219
 7141SOL    HW232883   2.642   0.730   2.051  3.3700 -0.5019 -1.8753
 7142SOL     OW32884   0.568   3.584  14.294 -0.2312 -0.1690  0.0263
 7142SOL    HW132885   0.506   3.512  14.282 -1.3360  0.8768 -0.5071
 7142SOL    HW232886   0.564   3.622  14.207 -0.2675 -1.3095 -0.4738
 7143SOL     OW32887   1.608   2.093   4.884 -0.2048 -0.3423  0.3835
 7143SOL    HW132888   1.543   2.141   4.935 -0.2159  0.7812 -0.6761
 7143SOL    HW232889   1.688   2.107   4.934 -1.5058  2.1815  1.7699
 7144SOL     OW32890   1.292   4.083   7.739 -0.4545 -0.3397  0.3521
 7144SOL    HW132891   1.200   4.055   7.744 -0.4886 -0.2599  0.1678
 7144SOL    HW232892   1.299   4.109   7.647  1.3375  2.2339  1.2248
 7145SOL     OW32893   3.444   2.441   7.718 -0.4790  0.2750  0.0161
 7145SOL    HW132894   3.384   2.396   7.778 -0.8630  0.7416 -0.0160
 7145SOL    HW232895   3.389   2.516   7.696 -3.2191 -1.5703  0.5325
 7146SOL     OW32896   4.013   2.591   5.403 -0.1269 -0.5436 -0.3902
 7146SOL    HW132897   4.024   2.520   5.339 -2.5819 -0.3836 -0.9770
 7146SOL    HW232898   4.073   2.576   5.477  2.5920  0.5324 -2.3801
 7147SOL     OW32899   3.859   4.193   6.231 -0.3144 -0.2176  0.1062
 7147SOL    HW132900   3.787   4.254   6.217 -0.0858  0.0703  0.1969
 7147SOL    HW232901   3.819   4.109   6.255  0.8749 -0.7424  0.2942
 7148SOL     OW32902   3.008   3.687   1.163  0.0597  0.6986 -0.3477
 7148SOL    HW132903   3.013   3.591   1.163 -0.8169  0.6539  0.0446
 7148SOL    HW232904   3.087   3.698   1.110  0.1371  1.7891 -0.0103
 7149SOL     OW32905   3.481   3.088   8.021  0.4513  0.0052  0.2445
 7149SOL    HW132906   3.414   3.144   7.983 -0.4225 -0.3410  1.2513
 7149SOL    HW232907   3.526   3.054   7.944  1.6561 -0.7867  1.2990
 7150SOL     OW32908   1.972   4.676   8.524  0.2937 -0.4354 -0.5088
 7150SOL    HW132909   1.982   0.029   8.581  2.0858 -1.4631  0.5340
 7150SOL    HW232910   2.031   4.608   8.554  2.2330  1.2294 -0.5315
 7151SOL     OW32911   0.404   3.538   9.677  0.3046 -0.1213  0.2691
 7151SOL    HW132912   0.324   3.494   9.649  0.6556 -0.5380 -0.0828
 7151SOL    HW232913   0.396   3.632   9.662  1.6184 -0.2001 -0.8563
 7152SOL     OW32914   3.429   1.461  10.366 -0.2628 -0.1865  0.5742
 7152SOL    HW132915   3.457   1.513  10.291 -0.2739  0.6559  1.1485
 7152SOL    HW232916   3.341   1.442  10.333  0.2754  0.4060 -1.1804
 7153SOL     OW32917   4.269   3.842   8.857  0.6047  0.2719  0.1903
 7153SOL    HW132918   4.228   3.852   8.771 -2.2228  1.1630  1.6522
 7153SOL    HW232919   4.275   3.746   8.864 -1.1822  0.0340 -1.8075
 7154SOL     OW32920   2.277   2.278   4.707  0.1103 -0.3323  0.3995
 7154SOL    HW132921   2.372   2.288   4.716  0.0772  0.7582 -0.5151
 7154SOL    HW232922   2.244   2.368   4.708 -1.8154 -1.0247 -0.6744
 7155SOL     OW32923   1.767   0.073   9.621  0.2519 -0.4393  0.2753
 7155SOL    HW132924   1.802   4.707   9.619 -0.1048 -0.5624 -0.4041
 7155SOL    HW232925   1.837   0.131   9.592 -1.7408  0.8330 -1.9163
 7156SOL     OW32926   3.183   1.343  16.875 -0.8338  0.3714  0.1460
 7156SOL    HW132927   3.242   1.339  16.800  1.1380 -0.6548  1.7350
 7156SOL    HW232928   3.107   1.312  16.826 -1.3752  1.9628 -0.0067
 7157SOL     OW32929   0.340   3.228   1.719 -0.2305  0.4432  0.3676
 7157SOL    HW132930   0.323   3.145   1.764  2.3214  0.6070  1.6001
 7157SOL    HW232931   0.382   3.198   1.639  0.2624  0.7230  0.5211
 7158SOL     OW32932   4.601   2.204   5.661  0.3224  1.1641  0.1419
 7158SOL    HW132933   4.548   2.186   5.584 -0.2792 -0.7619  0.9992
 7158SOL    HW232934   4.662   2.262   5.615  0.2301  1.7741  0.7810
 7159SOL     OW32935   1.451   1.201   2.450 -0.1079  0.7172 -0.2454
 7159SOL    HW132936   1.448   1.107   2.468  3.7510  0.7561  0.6149
 7159SOL    HW232937   1.516   1.193   2.380  0.0388  1.5547 -0.1991
 7160SOL     OW32938   0.323   4.457   8.026 -0.2045  0.2539  0.1270
 7160SOL    HW132939   0.378   4.491   8.097 -0.0101 -3.0593  1.5295
 7160SOL    HW232940   0.339   4.523   7.958  3.0288 -1.3455 -0.6577
 7161SOL     OW32941   2.377   4.364   4.907  0.2967  0.0427 -0.5038
 7161SOL    HW132942   2.422   4.411   4.837 -0.2735  0.7242 -0.4062
 7161SOL    HW232943   2.404   4.408   4.987 -1.0101  0.8934 -0.5364
 7162SOL     OW32944   4.161   1.874  11.843  0.2207  0.5895 -0.4450
 7162SOL    HW132945   4.210   1.921  11.777  0.7185  0.7742  0.0548
 7162SOL    HW232946   4.091   1.842  11.787  2.0690 -0.3468 -2.2043
 7163SOL     OW32947   3.265   2.918   3.871  0.1927  0.0411  0.6764
 7163SOL    HW132948   3.214   2.996   3.888  0.9649  0.8773 -0.7925
 7163SOL    HW232949   3.354   2.955   3.873  0.2419 -0.0636  0.5012
 7164SOL     OW32950   1.942   2.140   4.952  0.0731 -0.7718  0.1478
 7164SOL    HW132951   2.030   2.102   4.946  0.3071 -0.3567  1.0283
 7164SOL    HW232952   1.883   2.068   4.975 -0.8887 -0.4849 -1.3901
 7165SOL     OW32953   4.349   0.013   7.047  0.0518  0.1727  0.1008
 7165SOL    HW132954   4.312   4.670   7.106  2.9509 -2.4509 -1.0026
 7165SOL    HW232955   4.418   0.059   7.094  0.6430 -0.0034 -0.5995
 7166SOL     OW32956   4.179   3.635   2.124  0.1483  0.0840 -0.5793
 7166SOL    HW132957   4.178   3.550   2.079  0.8309 -0.0163 -0.4118
 7166SOL    HW232958   4.099   3.665   2.081  0.0283  1.7558  0.8376
 7167SOL     OW32959   1.327   2.766   8.123  0.3370  0.3377 -0.0995
 7167SOL    HW132960   1.377   2.739   8.045 -0.0330 -0.4085 -0.0843
 7167SOL    HW232961   1.399   2.761   8.186 -0.3822 -1.2643  0.5986
 7168SOL     OW32962   2.135   2.512   2.844  0.2494  0.4394  1.1098
 7168SOL    HW132963   2.077   2.440   2.866 -0.9344  0.6344 -1.2802
 7168SOL    HW232964   2.218   2.471   2.821 -0.5504 -0.8143  0.4811
 7169SOL     OW32965   1.770   3.723   5.833 -0.1264 -0.4867  0.5133
 7169SOL    HW132966   1.739   3.638   5.803  0.5705 -0.4930 -0.1924
 7169SOL    HW232967   1.758   3.728   5.928 -1.0984 -0.3106  0.3771
 7170SOL     OW32968   1.868   3.227  14.307  0.1368  0.1197  0.3241
 7170SOL    HW132969   1.841   3.315  14.335  0.3832 -0.0777  1.1546
 7170SOL    HW232970   1.827   3.170  14.372  2.0790 -1.9258 -0.2730
 7171SOL     OW32971   4.676   2.756   0.143 -0.0853 -0.1404  0.2384
 7171SOL    HW132972   0.015   2.821   0.175  0.1032 -0.5181  0.6513
 7171SOL    HW232973   4.593   2.801   0.162  0.5043 -0.2407  3.0281
 7172SOL     OW32974   3.444   4.392   4.094 -0.1766 -0.1364 -0.1251
 7172SOL    HW132975   3.390   4.383   4.173  1.6747 -0.5005  1.0933
 7172SOL    HW232976   3.382   4.359   4.029 -0.3185 -2.5503  1.2550
 7173SOL     OW32977   2.309   0.571   8.094 -0.2020 -0.0126  0.2176
 7173SOL    HW132978   2.277   0.631   8.027 -0.2610 -0.1933  0.0844
 7173SOL    HW232979   2.232   0.516   8.109  1.8894 -3.8618 -3.2169
 7174SOL     OW32980   3.294   1.281  17.329 -0.3956 -0.5680  0.3927
 7174SOL    HW132981   3.250   1.199  17.306 -0.1979 -0.1434 -1.4252
 7174SOL    HW232982   3.318   1.313  17.242  0.6402 -1.5207  0.3152
 7175SOL     OW32983   1.974   0.745  12.749  0.2803 -0.6271 -0.7198
 7175SOL    HW132984   1.966   0.651  12.767 -0.9752 -0.8177 -2.2421
 7175SOL    HW232985   1.975   0.751  12.653 -1.3621  1.6712 -0.5888
 7176SOL     OW32986   2.482   0.489   3.771  0.8189 -0.5362 -0.1055
 7176SOL    HW132987   2.542   0.534   3.712  0.5247  0.1747  0.1372
 7176SOL    HW232988   2.407   0.535   3.734  1.1357  0.5355  0.5873
 7177SOL     OW32989   0.076   4.148   5.145  0.0159 -0.6129  0.1650
 7177SOL    HW132990   0.021   4.108   5.078 -1.8835  0.7693  0.8743
 7177SOL    HW232991   0.047   4.239   5.137  0.1396 -0.6633 -0.8019
 7178SOL     OW32992   3.006   1.935   4.989 -0.4087  0.4577  0.0995
 7178SOL    HW132993   2.919   1.974   4.974  0.5008  2.5746  0.3855
 7178SOL    HW232994   3.061   2.013   4.992  0.0311  0.0939  1.3521
 7179SOL     OW32995   3.301   3.817   5.714  0.1718 -0.8556  1.1632
 7179SOL    HW132996   3.349   3.893   5.747  1.3039 -1.0168 -0.1251
 7179SOL    HW232997   3.246   3.849   5.643  2.6526  1.8915  0.4918
 7180SOL     OW32998   0.343   4.029  12.439 -0.0504 -0.3498 -0.4656
 7180SOL    HW132999   0.352   4.035  12.344 -1.3840 -1.1012 -0.6426
 7180SOL    HW233000   0.372   4.116  12.467 -4.5986  0.4094  1.8735
 7181SOL     OW33001   3.921   0.999  10.089 -0.6183  0.5436  0.0798
 7181SOL    HW133002   3.986   1.035  10.029 -1.0467 -0.1230 -0.7769
 7181SOL    HW233003   3.972   0.986  10.170 -0.1248  0.0158 -0.3174
 7182SOL     OW33004   1.560   0.603   5.453 -0.2664  0.1960 -0.0805
 7182SOL    HW133005   1.513   0.573   5.531  0.5761  4.3442  1.9916
 7182SOL    HW233006   1.511   0.683   5.436  0.4152  0.8772  1.1565
 7183SOL     OW33007   1.705   2.536   8.365 -0.3413  0.4513  0.6054
 7183SOL    HW133008   1.713   2.473   8.294  0.8104  0.4979  0.6930
 7183SOL    HW233009   1.785   2.522   8.417 -1.1473 -0.0208  1.7251
 7184SOL     OW33010   0.480   3.197   1.975  0.5901 -0.5628 -0.5580
 7184SOL    HW133011   0.446   3.246   1.900 -0.0773 -0.6756 -0.3308
 7184SOL    HW233012   0.419   3.124   1.984  1.0830 -0.7358  1.3089
 7185SOL     OW33013   1.004   2.957   7.859 -0.3075  0.6581  0.3692
 7185SOL    HW133014   0.989   2.872   7.901 -0.8974  0.6765  0.2001
 7185SOL    HW233015   0.988   3.014   7.934 -2.6511  1.2943 -0.6274
 7186SOL     OW33016   3.447   0.999  16.923  0.0913 -0.3752 -0.2591
 7186SOL    HW133017   3.537   1.017  16.899  0.3791 -1.3039  0.1321
 7186SOL    HW233018   3.457   0.930  16.989 -3.9367  0.2362  1.0187
 7187SOL     OW33019   4.265   0.766   9.338  0.0414  0.0331 -0.0561
 7187SOL    HW133020   4.180   0.723   9.350  0.8734 -1.5847 -0.0858
 7187SOL    HW233021   4.330   0.709   9.379 -0.2774  0.0985  0.5462
 7188SOL     OW33022   1.405   3.108   1.111  0.0832  0.0558 -0.0114
 7188SOL    HW133023   1.433   3.046   1.044  0.9694 -0.6891  1.0374
 7188SOL    HW233024   1.377   3.184   1.059  1.4456  1.5652  1.4565
 7189SOL     OW33025   1.147   0.962   6.309 -0.5952 -0.0776  0.0756
 7189SOL    HW133026   1.193   0.978   6.226  0.5320  0.5800  0.8263
 7189SOL    HW233027   1.130   0.868   6.303  1.0216 -0.3243 -0.5973
 7190SOL     OW33028   1.347   3.713   1.591  0.1376 -0.3702  0.4329
 7190SOL    HW133029   1.394   3.649   1.644 -0.4644 -1.4282 -0.3079
 7190SOL    HW233030   1.323   3.777   1.659  0.1244 -0.4479  0.5019
 7191SOL     OW33031   1.494   4.434  14.249  0.2478 -0.2849 -0.4807
 7191SOL    HW133032   1.405   4.466  14.265  1.0071  1.9309 -0.6707
 7191SOL    HW233033   1.530   4.465  14.333 -0.5744 -1.8190  0.4409
 7192SOL     OW33034   4.176   0.826  10.477  0.1220 -0.4742 -0.2915
 7192SOL    HW133035   4.136   0.900  10.430  0.0854 -0.5976 -0.4583
 7192SOL    HW233036   4.260   0.814  10.432 -1.5776 -1.9008 -3.1044
 7193SOL     OW33037   2.511   4.602   6.261  0.1598  0.2457  0.0047
 7193SOL    HW133038   2.536   4.511   6.279 -0.4995 -0.1991 -1.3561
 7193SOL    HW233039   2.437   4.621   6.320 -0.0173  0.2760 -0.2289
 7194SOL     OW33040   4.601   2.994   3.153  0.6442 -0.2671  0.8289
 7194SOL    HW133041   4.639   3.042   3.079  0.9072  0.1048  1.2114
 7194SOL    HW233042   4.562   3.070   3.196 -0.7822  1.0417 -2.7860
 7195SOL     OW33043   1.715   2.304   2.005 -0.2862 -0.2190  0.4667
 7195SOL    HW133044   1.634   2.254   2.016 -0.1721 -1.1059 -2.7534
 7195SOL    HW233045   1.749   2.253   1.932  0.2411  2.2461 -1.0085
 7196SOL     OW33046   1.155   0.837  10.995 -0.2054  0.3600  0.5076
 7196SOL    HW133047   1.110   0.795  11.068  1.1985  0.1334  1.2391
 7196SOL    HW233048   1.151   0.759  10.939  2.0569  0.5104  0.1640
 7197SOL     OW33049   0.606   0.638  16.684 -0.3210 -0.3348  0.2694
 7197SOL    HW133050   0.576   0.667  16.598 -0.2923 -1.2224 -0.0424
 7197SOL    HW233051   0.527   0.646  16.737  0.0697 -0.1751  0.8173
 7198SOL     OW33052   1.296   0.988  10.221 -0.2994 -0.1195 -0.5336
 7198SOL    HW133053   1.252   0.931  10.283 -1.0756  1.9317  0.7987
 7198SOL    HW233054   1.329   1.051  10.285  1.3355 -1.7040  0.1594
 7199SOL     OW33055   1.102   2.467   5.514  0.1408 -0.4296  0.3991
 7199SOL    HW133056   1.017   2.510   5.516 -0.6537 -2.0203  0.2458
 7199SOL    HW233057   1.109   2.422   5.430 -0.6840 -0.3361  0.2850
 7200SOL     OW33058   3.478   3.214   7.344  0.5875  0.3032 -0.2162
 7200SOL    HW133059   3.570   3.196   7.363  0.1853 -1.8256 -0.2600
 7200SOL    HW233060   3.468   3.303   7.380 -1.1489 -0.0674  0.2186
 7201SOL     OW33061   3.584   1.647   8.303 -0.5292 -0.3938  0.0150
 7201SOL    HW133062   3.618   1.618   8.388 -2.7067  2.3284  1.8160
 7201SOL    HW233063   3.521   1.717   8.321  0.9482  0.5971  1.3345
 7202SOL     OW33064   1.544   2.982   6.278  0.1465  0.2171 -0.0754
 7202SOL    HW133065   1.561   2.893   6.309 -1.0491  1.0904  3.0574
 7202SOL    HW233066   1.637   3.006   6.277  0.7322 -1.9539  1.7471
 7203SOL     OW33067   0.650   1.709   4.635 -0.0638  0.2172 -0.3511
 7203SOL    HW133068   0.709   1.764   4.583  2.1058  0.5084  2.4017
 7203SOL    HW233069   0.601   1.672   4.561  0.0457  0.2887 -0.4605
 7204SOL     OW33070   0.122   4.200   8.914  0.0766 -0.0536 -0.8105
 7204SOL    HW133071   0.065   4.127   8.890  1.4169 -1.4359  0.2117
 7204SOL    HW233072   0.174   4.206   8.834 -0.0837 -0.4221 -0.9414
 7205SOL     OW33073   2.144   3.487  15.138 -0.1311  0.1228  0.0557
 7205SOL    HW133074   2.098   3.451  15.213 -0.1119  1.7235  0.8465
 7205SOL    HW233075   2.230   3.449  15.155 -0.6971 -1.2514 -0.2095
 7206SOL     OW33076   0.415   1.660   5.074 -0.3189  0.6996  0.1570
 7206SOL    HW133077   0.485   1.710   5.116  1.3146 -2.4881  1.2097
 7206SOL    HW233078   0.419   1.680   4.980  0.4773 -1.1648 -0.1933
 7207SOL     OW33079   0.893   0.280   0.901 -0.2277  0.1919 -0.0867
 7207SOL    HW133080   0.877   0.186   0.909  0.0475  0.0518 -1.0928
 7207SOL    HW233081   0.806   0.303   0.869 -1.0096 -0.2120  1.7364
 7208SOL     OW33082   3.220   4.601   2.998  0.4132  0.1717  0.6010
 7208SOL    HW133083   3.289   4.656   3.035 -2.1426  2.8006  1.4345
 7208SOL    HW233084   3.258   4.537   2.938 -1.6166 -0.8578  0.3960
 7209SOL     OW33085   0.949   3.684   6.963  0.4787 -0.5575  0.3420
 7209SOL    HW133086   0.913   3.655   7.047  2.5094  0.4029  1.5366
 7209SOL    HW233087   1.031   3.636   6.975  0.9853  0.1734 -0.1777
 7210SOL     OW33088   3.824   0.370   4.573 -0.3124 -0.6626 -0.2753
 7210SOL    HW133089   3.862   0.358   4.486 -0.5247 -0.4331 -0.3984
 7210SOL    HW233090   3.907   0.357   4.619  0.2205  1.3449 -0.6715
 7211SOL     OW33091   0.153   3.890  16.112 -0.1078  0.3859 -0.5786
 7211SOL    HW133092   0.091   3.942  16.162  0.5580  1.8476 -1.2591
 7211SOL    HW233093   0.096   3.814  16.098  0.1259  0.4339 -1.8068
 7212SOL     OW33094   1.566   3.363  13.152 -0.2891 -0.3437  0.4048
 7212SOL    HW133095   1.529   3.351  13.240  1.5907  1.3336  1.4155
 7212SOL    HW233096   1.483   3.374  13.105  0.7165 -3.3097 -2.0353
 7213SOL     OW33097   2.686   0.078  16.934 -0.1133 -0.4115 -0.0026
 7213SOL    HW133098   2.714   0.136  17.005  0.1321 -0.7275  0.1533
 7213SOL    HW233099   2.591   0.088  16.940 -0.2388 -2.2004  0.7942
 7214SOL     OW33100   3.497   4.306   7.070 -0.3563  0.1441 -0.2111
 7214SOL    HW133101   3.547   4.355   7.136 -0.0558 -2.4992  1.5140
 7214SOL    HW233102   3.557   4.233   7.051 -1.4178 -0.2540 -1.9728
 7215SOL     OW33103   3.693   1.768   0.946 -0.0085  0.0230  0.0909
 7215SOL    HW133104   3.725   1.857   0.966  1.1893  0.0286 -1.8947
 7215SOL    HW233105   3.732   1.753   0.860 -0.0158 -0.8989  0.2519
 7216SOL     OW33106   4.717   4.610   7.114 -0.1782 -0.0525 -0.1546
 7216SOL    HW133107   4.710   4.697   7.154  0.7722 -0.6507  1.3243
 7216SOL    HW233108   4.714   4.625   7.020 -1.5562 -2.8647 -0.5476
 7217SOL     OW33109   0.964   1.245   2.419 -0.1485 -0.1047  0.0504
 7217SOL    HW133110   0.965   1.228   2.514  0.0441  1.5815  0.3450
 7217SOL    HW233111   0.976   1.340   2.415  3.6373 -0.6377 -0.8727
 7218SOL     OW33112   2.606   3.525  10.606  0.4617 -0.4487 -0.3096
 7218SOL    HW133113   2.607   3.620  10.595  0.0818 -0.6587 -2.1533
 7218SOL    HW233114   2.654   3.490  10.532 -0.4027 -0.7987 -0.7053
 7219SOL     OW33115   2.399   2.247  10.988 -0.5982  0.4474  0.5603
 7219SOL    HW133116   2.362   2.231  11.075 -2.3018  0.6629 -0.1248
 7219SOL    HW233117   2.328   2.217  10.931 -1.0207  1.2832  0.6608
 7220SOL     OW33118   2.528   1.722   7.856  0.0821 -0.2478  0.2203
 7220SOL    HW133119   2.580   1.696   7.780  3.3929  1.3508  1.9742
 7220SOL    HW233120   2.465   1.785   7.822 -0.1263 -0.1294  0.8220
 7221SOL     OW33121   2.268   2.600   9.722  0.0792 -0.1465 -0.3443
 7221SOL    HW133122   2.290   2.692   9.732  1.1531 -0.3363 -0.9050
 7221SOL    HW233123   2.178   2.604   9.755 -0.9947  4.3518 -3.8522
 7222SOL     OW33124   2.386   0.895  10.013 -0.1655  0.4773  0.1480
 7222SOL    HW133125   2.335   0.972  10.038 -0.9959 -0.3718  1.0821
 7222SOL    HW233126   2.458   0.938   9.967 -0.2725 -1.3383 -1.7016
 7223SOL     OW33127   1.114   0.690   6.298  0.2998  0.4858  0.7538
 7223SOL    HW133128   1.024   0.659   6.285  0.5602  0.1568 -0.2645
 7223SOL    HW233129   1.161   0.610   6.275  0.0547  0.7867 -0.8052
 7224SOL     OW33130   4.193   1.696  13.478 -0.2344  0.2526 -0.3578
 7224SOL    HW133131   4.270   1.751  13.460  0.4603 -0.5581  0.0986
 7224SOL    HW233132   4.202   1.705  13.573  2.7380  1.3392 -0.7290
 7225SOL     OW33133   3.236   2.654   7.677  0.7097  0.0861  0.3096
 7225SOL    HW133134   3.275   2.711   7.610 -0.0085  1.3209  0.9610
 7225SOL    HW233135   3.228   2.720   7.745 -1.7103  0.0108  0.0754
 7226SOL     OW33136   0.139   4.205  10.692 -0.1679 -0.1855  0.2679
 7226SOL    HW133137   0.209   4.191  10.629 -0.5642  2.2418 -0.6896
 7226SOL    HW233138   0.181   4.182  10.775 -1.3428  1.3646  1.2968
 7227SOL     OW33139   2.083   1.363  12.722 -0.1709  0.2978  0.1200
 7227SOL    HW133140   2.175   1.387  12.729 -0.6190  2.5701 -2.1311
 7227SOL    HW233141   2.051   1.453  12.718  2.5649  1.1918 -1.6185
 7228SOL     OW33142   1.369   0.895  16.818  0.4391  0.1038  0.3722
 7228SOL    HW133143   1.382   0.801  16.807  0.3879  0.2256 -0.7899
 7228SOL    HW233144   1.286   0.912  16.773 -0.4000 -1.9183  1.1587
 7229SOL     OW33145   3.969   1.337  17.116 -0.3539  0.0632 -0.4106
 7229SOL    HW133146   3.933   1.350  17.204  0.6916  0.5182 -0.0503
 7229SOL    HW233147   4.044   1.287  17.147 -1.3031 -0.5372  0.9036
 7230SOL     OW33148   3.724   3.811  16.564  0.1230  0.1725  0.1375
 7230SOL    HW133149   3.675   3.768  16.634  2.5025  0.0055  1.6806
 7230SOL    HW233150   3.690   3.760  16.490 -0.5171  1.8308 -0.7314
 7231SOL     OW33151   1.383   2.541  14.438 -0.3018  0.0495 -0.6731
 7231SOL    HW133152   1.391   2.490  14.358  0.0727  1.0080 -1.2379
 7231SOL    HW233153   1.464   2.592  14.437 -0.9526  1.0926 -0.8649
 7232SOL     OW33154   4.250   1.533  12.861 -0.3847 -0.3111 -0.0060
 7232SOL    HW133155   4.172   1.588  12.854 -0.1409  0.3094  2.2499
 7232SOL    HW233156   4.297   1.548  12.779  0.3844  1.0790  0.6837
 7233SOL     OW33157   3.645   1.341   7.564  0.3042  0.1357  0.3173
 7233SOL    HW133158   3.682   1.364   7.649 -2.8128 -2.1776  2.3439
 7233SOL    HW233159   3.687   1.398   7.500 -2.6235  2.8373  0.7985
 7234SOL     OW33160   2.707   0.631  13.202  0.1185  0.2072  1.1002
 7234SOL    HW133161   2.799   0.634  13.227  0.1985  0.5237  0.7703
 7234SOL    HW233162   2.710   0.725  13.183  1.5831 -0.5607 -2.3762
 7235SOL     OW33163   2.423   1.654   2.802  0.0488 -0.1558 -0.0461
 7235SOL    HW133164   2.354   1.605   2.758  0.1600 -0.8619  0.5682
 7235SOL    HW233165   2.418   1.739   2.759  0.1530 -1.1555 -2.0255
 7236SOL     OW33166   3.870   0.444   3.340 -0.0589  0.4953 -0.3323
 7236SOL    HW133167   3.911   0.363   3.310 -2.1458 -1.3804  1.8399
 7236SOL    HW233168   3.943   0.500   3.366 -0.7066  0.1867  2.1905
 7237SOL     OW33169   2.912   3.408   5.831  0.8007 -0.1099  0.2633
 7237SOL    HW133170   2.920   3.418   5.736 -0.3064  0.6349  0.2496
 7237SOL    HW233171   3.004   3.390   5.850  0.3605 -0.2361  2.2708
 7238SOL     OW33172   1.660   1.314   5.612  0.0149  0.1982 -0.2861
 7238SOL    HW133173   1.605   1.246   5.572  0.0286  0.9382 -1.5704
 7238SOL    HW233174   1.713   1.258   5.669 -0.8715 -0.5539 -0.2060
 7239SOL     OW33175   3.765   4.349   9.825 -0.4353  0.3169 -0.3367
 7239SOL    HW133176   3.806   4.422   9.778 -0.2617 -0.0542 -0.7590
 7239SOL    HW233177   3.791   4.367   9.915 -0.7128  0.3154 -0.2557
 7240SOL     OW33178   3.582   2.797   0.551  0.4213  0.0554  0.1936
 7240SOL    HW133179   3.594   2.711   0.511  0.8367  1.4369 -2.6644
 7240SOL    HW233180   3.490   2.813   0.529 -0.0935 -2.2427  0.6540
 7241SOL     OW33181   4.575   3.676   5.279  0.4348 -0.0392  0.4799
 7241SOL    HW133182   4.654   3.726   5.297  0.1511  0.3910  0.5386
 7241SOL    HW233183   4.600   3.589   5.308  1.0539  0.6956  2.1700
 7242SOL     OW33184   0.291   1.059  16.938 -0.3944  0.0057  0.5904
 7242SOL    HW133185   0.272   0.985  16.995  1.7952 -0.8752  0.1510
 7242SOL    HW233186   0.212   1.060  16.883 -0.4869 -0.4251  0.7193
 7243SOL     OW33187   2.837   4.499  13.858 -0.0272  0.2106  0.1930
 7243SOL    HW133188   2.853   4.416  13.903 -1.3480  0.3818  0.9740
 7243SOL    HW233189   2.925   4.536  13.855  0.9961 -2.0748  2.1077
 7244SOL     OW33190   0.374   1.360  16.143 -0.0674 -0.2244 -0.3118
 7244SOL    HW133191   0.390   1.395  16.231 -0.3988 -1.4698  0.2518
 7244SOL    HW233192   0.405   1.270  16.158 -0.2429 -0.1905  0.2651
 7245SOL     OW33193   0.834   4.516   5.131 -0.6571 -0.4952 -0.5177
 7245SOL    HW133194   0.817   4.442   5.189  0.9878  0.1734  0.8202
 7245SOL    HW233195   0.779   4.491   5.057  0.4058  1.3547 -1.9250
 7246SOL     OW33196   3.995   0.077  17.388  0.5490  0.0625 -0.5062
 7246SOL    HW133197   3.969   0.133  17.315 -3.6503 -1.3779 -0.0668
 7246SOL    HW233198   4.028   0.140  17.453 -0.5798  0.0783  0.0436
 7247SOL     OW33199   2.732   3.087   7.369  0.0883 -0.2512 -0.1243
 7247SOL    HW133200   2.752   3.181   7.365 -0.1055 -0.1521  1.3457
 7247SOL    HW233201   2.655   3.069   7.315  0.5629  0.0679 -0.9073
 7248SOL     OW33202   1.931   2.478   8.832 -0.2514  0.0720  0.0445
 7248SOL    HW133203   1.966   2.523   8.908 -0.3097  2.2212 -1.2135
 7248SOL    HW233204   1.927   2.547   8.767  2.2118 -1.7184 -2.0308
 7249SOL     OW33205   1.221   0.342  11.290 -0.1418  0.4296 -0.0314
 7249SOL    HW133206   1.252   0.417  11.340  0.2603  1.0921 -1.2678
 7249SOL    HW233207   1.237   0.370  11.200  0.0640  1.6903  0.4036
 7250SOL     OW33208   1.656   3.277   8.499 -0.0291  0.7543 -0.0139
 7250SOL    HW133209   1.743   3.255   8.464 -1.1543 -4.1661  0.2640
 7250SOL    HW233210   1.655   3.207   8.565 -1.8844  1.3598  0.5884
 7251SOL     OW33211   4.087   0.882   6.668 -0.0368 -0.0272 -0.9213
 7251SOL    HW133212   4.123   0.942   6.734 -1.6450  0.0544 -0.1338
 7251SOL    HW233213   4.060   0.807   6.721  1.2872  1.1535  1.4360
 7252SOL     OW33214   3.877   1.229  13.657  0.2143  0.2700 -0.5683
 7252SOL    HW133215   3.886   1.253  13.749  3.8703 -1.2766 -0.5071
 7252SOL    HW233216   3.803   1.169  13.668  0.5115  0.5338  2.8489
 7253SOL     OW33217   1.887   4.430   7.077 -0.0026  0.5954  0.5867
 7253SOL    HW133218   1.910   4.425   7.170 -0.6822 -2.0070  0.5992
 7253SOL    HW233219   1.902   4.337   7.062  1.0668  0.8545  0.0120
 7254SOL     OW33220   1.958   4.170   7.043  0.0326 -0.1817  0.2176
 7254SOL    HW133221   1.962   4.219   6.960  3.1305 -0.2411  0.3312
 7254SOL    HW233222   2.048   4.137   7.038 -0.1575 -0.3950 -1.7111
 7255SOL     OW33223   1.062   3.294  12.233  0.1902 -0.4316  0.4147
 7255SOL    HW133224   1.119   3.346  12.176 -0.9862 -0.9493 -1.2470
 7255SOL    HW233225   1.110   3.300  12.315  2.4510 -0.4124 -0.9190
 7256SOL     OW33226   0.737   0.427  11.151 -0.4554 -0.3269  0.3921
 7256SOL    HW133227   0.786   0.467  11.079  0.0937  1.3741  1.7176
 7256SOL    HW233228   0.799   0.364  11.187  1.3454  0.3999 -1.4843
 7257SOL     OW33229   3.911   0.488   1.523  0.0384  0.6065  0.1255
 7257SOL    HW133230   3.818   0.470   1.512 -0.6536  2.4670  2.8284
 7257SOL    HW233231   3.909   0.548   1.598 -1.8716 -1.7795  1.9654
 7258SOL     OW33232   3.257   0.738   2.505 -0.1852 -0.0283  0.2197
 7258SOL    HW133233   3.288   0.777   2.586  1.3436 -0.7111 -0.0358
 7258SOL    HW233234   3.290   0.649   2.516 -3.7871 -1.2575  1.3152
 7259SOL     OW33235   1.608   3.737   1.883 -0.1999  0.4004  0.4910
 7259SOL    HW133236   1.539   3.673   1.869  0.4152 -0.1839  0.1011
 7259SOL    HW233237   1.685   3.684   1.905 -0.0932  0.3001 -0.1026
 7260SOL     OW33238   2.612   3.516  13.254 -0.5349  0.4878 -0.2725
 7260SOL    HW133239   2.705   3.502  13.235 -0.8112 -1.6410 -0.0184
 7260SOL    HW233240   2.592   3.500  13.346 -0.8902  0.3725 -0.3686
 7261SOL     OW33241   3.508   1.587   0.904  0.2981  0.5987 -0.1093
 7261SOL    HW133242   3.580   1.646   0.925  2.9268 -3.0427  1.1158
 7261SOL    HW233243   3.493   1.616   0.814  1.4265  1.2919 -0.0827
 7262SOL     OW33244   2.995   3.146  11.126  0.0975  0.0346 -0.5498
 7262SOL    HW133245   2.941   3.067  11.127 -0.0513  0.1340 -0.9342
 7262SOL    HW233246   2.990   3.174  11.035 -1.2302  2.3666  0.2333
 7263SOL     OW33247   0.878   3.363   1.074  0.0583  0.3645 -0.3453
 7263SOL    HW133248   0.840   3.349   0.987  2.1561  2.4347 -1.5954
 7263SOL    HW233249   0.966   3.387   1.045 -0.1783  1.0030 -0.5531
 7264SOL     OW33250   3.836   0.492   6.231  0.2714 -0.5412 -0.1661
 7264SOL    HW133251   3.765   0.557   6.234 -1.0958 -2.0058 -0.6662
 7264SOL    HW233252   3.791   0.410   6.251  1.7739 -1.1447  0.7205
 7265SOL     OW33253   2.974   4.218   1.438  0.5631 -0.4490 -0.1838
 7265SOL    HW133254   3.036   4.161   1.391  0.8935 -0.9173  0.8229
 7265SOL    HW233255   2.943   4.155   1.503 -0.7491  0.4116  0.0052
 7266SOL     OW33256   3.266   4.035  14.383  0.0362 -0.2075  0.2871
 7266SOL    HW133257   3.301   4.032  14.472  0.3272 -1.1254  0.1403
 7266SOL    HW233258   3.328   4.090  14.335  1.1531 -2.0708 -0.4098
 7267SOL     OW33259   4.273   3.082   4.999  0.3336  0.3752 -0.3102
 7267SOL    HW133260   4.260   3.148   5.067  0.3756  0.5306 -0.4511
 7267SOL    HW233261   4.187   3.074   4.956 -0.1685  0.6705  0.6468
 7268SOL     OW33262   1.626   2.638  11.858  0.0677 -0.0037  0.1576
 7268SOL    HW133263   1.549   2.663  11.808  0.6603 -0.2393 -0.8789
 7268SOL    HW233264   1.659   2.721  11.891  0.9952  0.7235 -2.5694
 7269SOL     OW33265   3.859   2.128   0.822  0.0084 -0.3427  0.2355
 7269SOL    HW133266   3.870   2.118   0.916  1.3721  1.2291  0.2335
 7269SOL    HW233267   3.950   2.120   0.794 -0.2042  0.7228 -0.7549
 7270SOL     OW33268   3.677   0.136   2.702 -0.5402  0.2713 -0.2874
 7270SOL    HW133269   3.624   0.076   2.753  1.8199 -0.5239  1.2554
 7270SOL    HW233270   3.722   0.177   2.776 -0.8608 -0.2168  0.1762
 7271SOL     OW33271   0.461   1.295   7.909  0.0569  0.7637 -0.0667
 7271SOL    HW133272   0.456   1.390   7.907 -3.6135  0.5925  1.2898
 7271SOL    HW233273   0.516   1.279   7.832  0.1625 -1.3061  0.4214
 7272SOL     OW33274   1.610   2.357  14.079  0.2874  0.1241  0.0786
 7272SOL    HW133275   1.619   2.444  14.118  1.5669 -1.7617  3.9987
 7272SOL    HW233276   1.592   2.306  14.157  0.8829 -0.4976 -0.1936
 7273SOL     OW33277   3.446   1.734   8.773  0.0496  0.2297 -0.4357
 7273SOL    HW133278   3.458   1.640   8.772  2.2002  0.5261 -0.9390
 7273SOL    HW233279   3.361   1.746   8.731 -0.4811 -1.7810  0.0765
 7274SOL     OW33280   0.369   0.295   7.292  0.2027  0.2371 -0.1083
 7274SOL    HW133281   0.413   0.377   7.272  1.1339 -0.2848 -0.1805
 7274SOL    HW233282   0.277   0.319   7.304 -0.2846 -1.4223 -0.4902
 7275SOL     OW33283   3.562   0.797  14.293  0.5178 -0.4036 -0.3802
 7275SOL    HW133284   3.570   0.825  14.202 -0.9208 -0.0286 -0.3881
 7275SOL    HW233285   3.471   0.818  14.314  0.2687 -2.3859  0.5075
 7276SOL     OW33286   3.590   0.338  16.837  0.4561  0.6297 -0.6608
 7276SOL    HW133287   3.664   0.377  16.883  1.5754 -1.4889 -0.6460
 7276SOL    HW233288   3.622   0.307  16.752  1.2496 -1.3546  0.3858
 7277SOL     OW33289   0.806   4.452   7.596 -0.1630  0.2976  0.1026
 7277SOL    HW133290   0.846   4.480   7.514 -0.2892 -1.5310 -0.5955
 7277SOL    HW233291   0.721   4.492   7.577 -0.8326 -0.7201  0.9155
 7278SOL     OW33292   0.860   0.865   6.549  0.0417 -0.5345 -0.1268
 7278SOL    HW133293   0.776   0.844   6.507  0.9909 -0.8802 -1.8764
 7278SOL    HW233294   0.821   0.879   6.635  2.2990 -0.7411  0.9234
 7279SOL     OW33295   2.670   0.671  12.098  0.0790  0.9149 -0.0722
 7279SOL    HW133296   2.576   0.663  12.115  0.3649  0.3273  1.2234
 7279SOL    HW233297   2.705   0.696  12.183 -1.7318  1.2432  0.5679
 7280SOL     OW33298   1.524   2.788   4.902 -0.1212 -0.0238  0.6984
 7280SOL    HW133299   1.577   2.729   4.849  1.3458  3.2325 -1.4894
 7280SOL    HW233300   1.590   2.857   4.912 -0.6044  0.1666  2.7100
 7281SOL     OW33301   4.606   1.709   2.654  0.4299 -0.3560 -0.3112
 7281SOL    HW133302   4.650   1.717   2.738 -0.9108 -1.0923  0.4730
 7281SOL    HW233303   4.611   1.800   2.626  1.3579 -0.7253 -1.3466
 7282SOL     OW33304   0.849   4.387   7.128 -0.6687  0.1121 -0.4579
 7282SOL    HW133305   0.920   4.325   7.111 -0.2440 -0.3373  3.0552
 7282SOL    HW233306   0.845   4.441   7.049  0.3559 -0.0367 -0.6246
 7283SOL     OW33307   3.941   3.000  13.260 -0.4356  0.4869 -1.1226
 7283SOL    HW133308   3.854   3.013  13.222 -0.0820  0.2503 -2.0306
 7283SOL    HW233309   3.987   3.082  13.241  1.9282 -0.8728 -1.3047
 7284SOL     OW33310   3.882   3.494  12.647 -0.2625  0.4038  0.5014
 7284SOL    HW133311   3.909   3.533  12.730 -2.5423  0.3245  1.2819
 7284SOL    HW233312   3.809   3.550  12.620  0.0559  1.4954  1.9288
 7285SOL     OW33313   3.076   2.285   3.266  0.0809  0.3797  0.9964
 7285SOL    HW133314   3.163   2.267   3.229 -0.8118 -0.2305 -0.7925
 7285SOL    HW233315   3.098   2.349   3.334  1.3066  2.6755 -1.5568
 7286SOL     OW33316   4.697   0.303  16.981 -0.1553  0.0228  0.0382
 7286SOL    HW133317   4.620   0.329  17.032 -0.1393  0.0433  0.0520
 7286SOL    HW233318   4.704   0.211  17.007  1.3416 -0.5230 -2.3012
 7287SOL     OW33319   1.040   1.750   6.885  0.1968 -0.2195 -0.3646
 7287SOL    HW133320   0.957   1.799   6.890  0.8274  0.9218 -1.1200
 7287SOL    HW233321   1.014   1.679   6.943 -0.1827  0.0157 -0.2412
 7288SOL     OW33322   3.883   3.632   3.105  0.0162 -0.0580 -0.5035
 7288SOL    HW133323   3.896   3.538   3.118 -2.2737 -0.6265 -2.3075
 7288SOL    HW233324   3.818   3.628   3.035  0.5902 -0.3600 -1.0171
 7289SOL     OW33325   2.460   3.600   5.502  0.3679 -0.2968  0.5746
 7289SOL    HW133326   2.443   3.594   5.408 -0.3613 -1.8679  0.8132
 7289SOL    HW233327   2.380   3.636   5.542 -0.7634 -2.4582  0.2299
 7290SOL     OW33328   3.833   2.473  11.888 -0.0819  0.2692  0.2908
 7290SOL    HW133329   3.820   2.450  11.796  1.0742 -0.3864  0.2866
 7290SOL    HW233330   3.773   2.405  11.919  1.2939 -0.8405  0.5396
 7291SOL     OW33331   0.570   2.634   6.564 -0.2060  0.4612  0.5429
 7291SOL    HW133332   0.560   2.564   6.500  2.7281 -0.6196  1.3014
 7291SOL    HW233333   0.570   2.589   6.649 -0.8219 -3.8755 -1.7265
 7292SOL     OW33334   4.081   0.505   3.103 -0.3172 -0.0878  0.2877
 7292SOL    HW133335   3.990   0.532   3.112 -0.9167 -2.7481  2.1644
 7292SOL    HW233336   4.084   0.504   3.008 -1.0045 -1.4040  0.2844
 7293SOL     OW33337   3.209   3.257   6.891 -0.2164  0.6056  0.0062
 7293SOL    HW133338   3.210   3.279   6.984 -1.7851 -0.8449  0.3703
 7293SOL    HW233339   3.302   3.242   6.872 -0.2538 -0.8799  0.9214
 7294SOL     OW33340   0.925   3.018   3.891  0.3936 -0.3411  0.0625
 7294SOL    HW133341   0.925   2.983   3.801 -0.2095 -1.5483  0.5327
 7294SOL    HW233342   1.017   3.044   3.890  0.3412 -0.1557 -0.1655
 7295SOL     OW33343   4.443   0.708   8.081 -0.1423  1.3196  0.4343
 7295SOL    HW133344   4.381   0.662   8.138 -0.0373  0.4560 -0.1314
 7295SOL    HW233345   4.399   0.780   8.037 -2.7925 -3.0169 -4.0527
 7296SOL     OW33346   2.997   2.815   2.919 -0.4302 -0.1918  0.1242
 7296SOL    HW133347   3.029   2.728   2.895  1.9117  0.3647  1.1481
 7296SOL    HW233348   2.905   2.793   2.931 -0.9619  2.9350  1.6996
 7297SOL     OW33349   0.123   0.988   5.942 -0.2815  0.3164 -0.0021
 7297SOL    HW133350   0.218   0.992   5.937 -0.0190 -2.0427  2.9211
 7297SOL    HW233351   0.107   1.042   6.019 -1.8313  1.9364 -1.4673
 7298SOL     OW33352   1.530   4.491   4.879  0.0885  0.5771  0.0236
 7298SOL    HW133353   1.519   4.498   4.784  0.1869 -2.1816 -0.1947
 7298SOL    HW233354   1.441   4.510   4.909  0.2061  1.3342 -0.1235
 7299SOL     OW33355   3.848   0.007  15.823  0.1139 -0.0817  0.1411
 7299SOL    HW133356   3.805   4.713  15.907  1.9281  0.1841  1.1345
 7299SOL    HW233357   3.906   4.654  15.821  0.4259  0.0823  3.9032
 7300SOL     OW33358   3.845   2.887   5.843  0.5382 -0.1139  0.2042
 7300SOL    HW133359   3.771   2.827   5.855 -0.5886  1.2711  0.0984
 7300SOL    HW233360   3.915   2.830   5.810  0.4560  0.2173 -0.5228
 7301SOL     OW33361   2.433   2.833  15.694  0.0658  0.2040  0.4183
 7301SOL    HW133362   2.411   2.872  15.610 -0.4525 -0.6221  0.1727
 7301SOL    HW233363   2.356   2.778  15.695  1.4377 -1.7246 -0.4354
 7302SOL     OW33364   0.063   2.188  10.008 -0.0734 -0.0641 -0.2077
 7302SOL    HW133365   4.702   2.154   9.977  0.3872 -0.9871 -0.4246
 7302SOL    HW233366   0.051   2.159  10.099 -0.3815  2.2671  0.4927
 7303SOL     OW33367   4.559   2.438   9.392 -0.8714 -0.0380 -0.4124
 7303SOL    HW133368   4.492   2.460   9.328 -0.7604  0.0193 -0.5091
 7303SOL    HW233369   4.623   2.509   9.385  0.1442 -0.9603 -0.5201
 7304SOL     OW33370   0.376   0.987   6.221  0.9068 -0.3710 -0.1218
 7304SOL    HW133371   0.463   1.027   6.223 -0.3459  2.4053 -0.5526
 7304SOL    HW233372   0.386   0.927   6.295  0.1673  1.9033  1.8139
 7305SOL     OW33373   3.435   0.712   1.367 -0.2261  0.4013  0.2907
 7305SOL    HW133374   3.470   0.677   1.285  1.5615  0.8655  0.8692
 7305SOL    HW233375   3.435   0.640   1.430 -0.3714 -2.2898 -2.7704
 7306SOL     OW33376   4.654   0.781   4.239  0.5593  0.7001 -0.2599
 7306SOL    HW133377   4.619   0.718   4.176 -1.9234  1.2789  0.5399
 7306SOL    HW233378   4.711   0.827   4.178  2.8278 -0.6423  0.8598
 7307SOL     OW33379   0.541   1.396   6.875 -0.6029 -0.2256 -0.4635
 7307SOL    HW133380   0.525   1.383   6.969 -1.2139  0.7154 -0.4407
 7307SOL    HW233381   0.493   1.320   6.842 -0.3837 -0.1316 -0.9904
 7308SOL     OW33382   1.091   1.240   3.945  0.5889 -0.3363 -0.0780
 7308SOL    HW133383   1.030   1.292   3.995 -0.7311 -0.0674 -1.9661
 7308SOL    HW233384   1.039   1.162   3.924  0.0898  0.1496 -0.6258
 7309SOL     OW33385   4.358   2.235   4.318  0.2330 -0.7876  0.0379
 7309SOL    HW133386   4.314   2.304   4.368 -1.6246 -0.1947 -2.3868
 7309SOL    HW233387   4.430   2.216   4.378  0.1195  2.1674  1.1136
 7310SOL     OW33388   1.865   2.252  16.796 -0.3752  0.6890 -0.1380
 7310SOL    HW133389   1.926   2.267  16.869 -0.1008 -1.6159  0.1123
 7310SOL    HW233390   1.816   2.196  16.856  1.8131 -0.3649  0.6621
 7311SOL     OW33391   1.243   3.665   8.499 -0.1426 -0.0456 -0.0267
 7311SOL    HW133392   1.321   3.714   8.528 -1.5320  2.5564 -0.6267
 7311SOL    HW233393   1.180   3.732   8.472  1.4064  1.6941  0.6409
 7312SOL     OW33394   2.646   4.286   8.797  0.1628  0.4520 -0.5338
 7312SOL    HW133395   2.698   4.364   8.777 -0.8125  1.3578  0.4621
 7312SOL    HW233396   2.571   4.317   8.848  1.0958  0.5837  0.7806
 7313SOL     OW33397   1.631   2.724   4.073 -0.2045 -0.1358  0.2225
 7313SOL    HW133398   1.583   2.714   3.991 -0.3335 -1.5816  0.4791
 7313SOL    HW233399   1.612   2.644   4.121 -0.7816 -0.4693 -0.5726
 7314SOL     OW33400   0.243   1.824  15.483 -0.4552  0.2870 -0.7630
 7314SOL    HW133401   0.264   1.811  15.576 -3.0319  1.9065  0.0405
 7314SOL    HW233402   0.298   1.763  15.434  0.1443  2.2502 -2.5339
 7315SOL     OW33403   2.463   0.484   0.218 -1.2117  0.5155  0.1441
 7315SOL    HW133404   2.395   0.477   0.285 -0.6270 -1.2767  0.5558
 7315SOL    HW233405   2.421   0.547   0.160 -0.2321 -0.0910 -1.2106
 7316SOL     OW33406   0.932   3.621   4.608  0.5200 -0.5441 -0.4142
 7316SOL    HW133407   0.841   3.644   4.630  0.8078 -0.8339  1.0551
 7316SOL    HW233408   0.940   3.676   4.530 -0.2591 -0.1932 -0.2448
 7317SOL     OW33409   0.734   4.455  15.255 -0.1246  0.5506  0.0273
 7317SOL    HW133410   0.684   4.491  15.329 -1.7732 -1.9937  0.1679
 7317SOL    HW233411   0.784   4.388  15.302 -0.2986  1.8997  2.1509
 7318SOL     OW33412   4.310   0.016   5.876  0.3281 -0.2849  0.2366
 7318SOL    HW133413   4.377   0.085   5.879  1.3723 -1.2134 -2.1975
 7318SOL    HW233414   4.312   4.713   5.968  3.8549  3.2233  1.1725
 7319SOL     OW33415   0.216   1.543   5.208  0.3730 -0.4571  0.6869
 7319SOL    HW133416   0.175   1.489   5.140  0.2377 -0.5027  0.8057
 7319SOL    HW233417   0.294   1.573   5.161 -0.8775  0.5288 -0.7837
 7320SOL     OW33418   0.487   3.669   3.312 -0.7307  0.1892 -0.5563
 7320SOL    HW133419   0.583   3.663   3.318 -1.0337 -1.3349  2.4813
 7320SOL    HW233420   0.464   3.709   3.395 -0.6487  1.7884 -1.3039
 7321SOL     OW33421   2.102   3.034   6.657 -0.3001  0.3875 -0.6566
 7321SOL    HW133422   2.023   3.085   6.678  0.6648  0.8187  1.9678
 7321SOL    HW233423   2.117   3.069   6.569  0.5770  2.0012  0.1376
 7322SOL     OW33424   0.996   0.343  11.100 -0.1500  0.1875 -0.2357
 7322SOL    HW133425   0.988   0.260  11.052  1.1278  1.0019 -1.8294
 7322SOL    HW233426   1.090   0.348  11.117  0.2288  1.7155 -2.9487
 7323SOL     OW33427   4.412   3.960   6.960  0.0326  0.5605 -0.1990
 7323SOL    HW133428   4.370   3.874   6.954  1.0184  0.0858 -0.2144
 7323SOL    HW233429   4.364   4.005   7.029 -1.1951  0.4685 -0.9916
 7324SOL     OW33430   2.044   1.226  16.928  0.3639  0.1410 -0.0862
 7324SOL    HW133431   2.105   1.155  16.949 -0.9015 -0.8011  0.3856
 7324SOL    HW233432   1.968   1.182  16.891  1.1189 -3.0063  2.1344
 7325SOL     OW33433   0.229   3.239   5.979  0.1628 -0.0980  0.8718
 7325SOL    HW133434   0.170   3.272   6.047 -2.4097 -0.6898 -1.0762
 7325SOL    HW233435   0.254   3.324   5.944  0.5415 -0.5841 -0.0217
 7326SOL     OW33436   0.715   0.858   1.123  0.1561 -0.1268  0.4904
 7326SOL    HW133437   0.789   0.836   1.181 -1.5711 -3.0483  1.5548
 7326SOL    HW233438   0.639   0.830   1.173 -2.7422  2.2031 -2.6357
 7327SOL     OW33439   3.260   4.532   7.342 -0.3712  0.5528 -0.0151
 7327SOL    HW133440   3.231   4.599   7.404 -3.9549 -1.2295  0.2128
 7327SOL    HW233441   3.319   4.477   7.394 -3.2167 -1.3019  1.2335
 7328SOL     OW33442   4.097   2.545   3.502 -0.2229 -0.1255  0.1359
 7328SOL    HW133443   4.027   2.610   3.499 -1.6071 -1.4941  2.8501
 7328SOL    HW233444   4.142   2.561   3.584  1.6419 -0.9144 -0.7381
 7329SOL     OW33445   0.827   3.924   5.668 -0.1581  0.2708  0.8173
 7329SOL    HW133446   0.874   3.948   5.748  0.8520  1.5907 -0.1634
 7329SOL    HW233447   0.875   3.848   5.636  0.5104  0.3743  1.5735
 7330SOL     OW33448   4.603   3.085   9.759 -0.0755  0.3114 -0.2023
 7330SOL    HW133449   4.558   3.146   9.700 -0.1633  0.8482  0.4093
 7330SOL    HW233450   4.679   3.143   9.761 -0.7684  1.2750 -1.2504
 7331SOL     OW33451   1.326   3.276   6.872  0.3465  0.7604 -0.0665
 7331SOL    HW133452   1.371   3.216   6.813 -0.6037  1.2130 -1.2462
 7331SOL    HW233453   1.268   3.217   6.922  0.4693 -1.8042 -2.9673
 7332SOL     OW33454   4.079   4.379   8.543 -0.2041 -0.2931 -0.1710
 7332SOL    HW133455   4.096   4.288   8.519  0.8306  0.2527 -1.5065
 7332SOL    HW233456   4.153   4.423   8.501 -1.5662  0.9657 -1.2559
 7333SOL     OW33457   3.377   0.213   5.703  0.8013 -0.0532  0.5381
 7333SOL    HW133458   3.446   0.153   5.674  1.6689  2.1310 -1.8730
 7333SOL    HW233459   3.423   0.293   5.731  0.3961  1.2372 -2.4974
 7334SOL     OW33460   2.413   2.224   3.655  0.5114  0.3353 -0.0659
 7334SOL    HW133461   2.423   2.187   3.743  3.1636  0.4832 -0.3154
 7334SOL    HW233462   2.345   2.166   3.620  1.1834 -0.5502  0.1172
 7335SOL     OW33463   1.598   4.152   7.301 -0.2148  0.4417  0.4471
 7335SOL    HW133464   1.680   4.169   7.347 -1.5891  0.6459  2.8117
 7335SOL    HW233465   1.609   4.061   7.276 -0.7173  0.3697  0.4927
 7336SOL     OW33466   0.755   2.571   9.808 -0.4234  0.0888  0.6533
 7336SOL    HW133467   0.755   2.494   9.865 -2.3219 -0.7591 -0.4887
 7336SOL    HW233468   0.663   2.569   9.782 -0.4317  1.5081  0.5502
 7337SOL     OW33469   1.608   1.506   1.099 -0.3039 -0.1989 -0.0041
 7337SOL    HW133470   1.606   1.589   1.050 -1.8318 -0.5147 -0.4829
 7337SOL    HW233471   1.700   1.508   1.124 -0.4965 -1.6107  0.8101
 7338SOL     OW33472   4.579   2.399  13.384 -0.1114 -0.7336 -0.5175
 7338SOL    HW133473   4.576   2.412  13.289 -0.2973 -1.1419 -0.5672
 7338SOL    HW233474   4.493   2.436  13.403  0.9701  1.4353  0.1556
 7339SOL     OW33475   2.133   4.168   7.826  0.2170  0.0627 -0.0636
 7339SOL    HW133476   2.221   4.172   7.790 -0.6047 -0.9020 -2.1968
 7339SOL    HW233477   2.146   4.229   7.898 -1.7801  1.5866 -0.9653
 7340SOL     OW33478   1.210   2.801   5.882 -0.3585 -0.2582  0.1831
 7340SOL    HW133479   1.238   2.740   5.813  2.9020 -1.1350  2.2770
 7340SOL    HW233480   1.119   2.805   5.853 -0.0584  4.5032 -0.0965
 7341SOL     OW33481   3.459   3.669   2.460  0.0125 -0.7420 -0.1854
 7341SOL    HW133482   3.473   3.705   2.373  1.6678  0.7786  0.7250
 7341SOL    HW233483   3.526   3.601   2.458 -0.5612 -1.2820 -0.7738
 7342SOL     OW33484   1.159   0.269   0.894  0.4718  0.4957  0.3167
 7342SOL    HW133485   1.068   0.296   0.883 -0.4179 -1.7028  2.2434
 7342SOL    HW233486   1.171   0.278   0.988 -1.5137 -0.5567  0.6560
 7343SOL     OW33487   1.113   0.368   0.311  0.0531 -0.3110  0.8628
 7343SOL    HW133488   1.178   0.413   0.365  1.5910  0.2386 -1.4293
 7343SOL    HW233489   1.073   0.311   0.375 -1.2115 -0.1520  0.2095
 7344SOL     OW33490   2.920   4.439   6.629 -0.2657  0.2704 -0.7408
 7344SOL    HW133491   2.931   4.389   6.548 -3.2606  1.5759 -1.9497
 7344SOL    HW233492   2.889   4.524   6.596 -0.0579  0.8057  0.4416
 7345SOL     OW33493   0.651   3.713   6.210  0.1570  0.1966  0.2553
 7345SOL    HW133494   0.690   3.795   6.179 -0.2831  0.8442  1.4030
 7345SOL    HW233495   0.730   3.674   6.247 -0.2389 -0.2597  0.6274
 7346SOL     OW33496   4.238   2.588   1.767  0.4536 -0.2031 -0.0891
 7346SOL    HW133497   4.263   2.568   1.677  0.4034  0.2397 -0.2043
 7346SOL    HW233498   4.267   2.511   1.815  2.2031  0.8807  0.6012
 7347SOL     OW33499   4.419   2.244   3.321  0.6207  0.8684 -0.0096
 7347SOL    HW133500   4.421   2.236   3.417 -2.2993  1.4044  0.0749
 7347SOL    HW233501   4.326   2.264   3.317  0.3057 -0.2197  1.9556
 7348SOL     OW33502   2.974   3.681   6.455 -0.1818 -0.1757  0.9552
 7348SOL    HW133503   2.943   3.591   6.461  0.5092 -0.4565  0.2152
 7348SOL    HW233504   2.950   3.702   6.546  1.9752 -0.5876  1.6096
 7349SOL     OW33505   0.569   0.980   7.445 -0.0598  0.0156  0.1958
 7349SOL    HW133506   0.560   1.034   7.523  0.6815  2.2503 -1.2610
 7349SOL    HW233507   0.484   0.935   7.447  0.7430 -1.5775 -1.0941
 7350SOL     OW33508   2.311   0.488   9.023 -0.0880 -0.6306 -1.0070
 7350SOL    HW133509   2.242   0.538   8.979  0.0496  2.2356  1.9891
 7350SOL    HW233510   2.312   0.419   8.957 -0.5475 -3.3405  1.8031
 7351SOL     OW33511   1.048   1.956   4.378  0.0102 -0.1619 -0.1438
 7351SOL    HW133512   1.085   2.035   4.417  1.0946 -0.2697 -0.9771
 7351SOL    HW233513   1.116   1.889   4.376 -0.3460 -0.5526  0.6055
 7352SOL     OW33514   0.941   4.716   8.343  0.0876 -0.4386  0.2644
 7352SOL    HW133515   0.956   0.058   8.412 -0.4791 -0.0264 -0.0028
 7352SOL    HW233516   0.931   4.635   8.394 -0.9672 -0.8794 -0.6411
 7353SOL     OW33517   4.450   0.184   2.858  0.9845 -0.0242  0.1712
 7353SOL    HW133518   4.454   0.223   2.770  1.5090  0.4160  0.3881
 7353SOL    HW233519   4.504   0.244   2.909  0.9405 -0.1949  0.4173
 7354SOL     OW33520   2.279   3.312   5.807 -0.6305 -0.1892 -0.2275
 7354SOL    HW133521   2.207   3.371   5.785  1.0541  1.0735 -2.2985
 7354SOL    HW233522   2.276   3.321   5.902 -1.8770 -1.0373 -0.1790
 7355SOL     OW33523   2.183   1.818   8.303 -0.0554  0.5668 -0.8800
 7355SOL    HW133524   2.211   1.833   8.393 -0.1320 -1.3411 -0.5311
 7355SOL    HW233525   2.113   1.752   8.305 -1.3807  2.0032  0.1096
 7356SOL     OW33526   3.301   1.591   3.094  0.4262  0.4837  0.3598
 7356SOL    HW133527   3.323   1.509   3.138 -0.5330 -0.7063 -1.3674
 7356SOL    HW233528   3.389   1.627   3.090  0.7025 -0.4134 -2.1806
 7357SOL     OW33529   2.090   0.183   5.033 -0.1184  0.0354 -0.1428
 7357SOL    HW133530   2.054   0.208   5.118  2.6602  0.0669  1.0373
 7357SOL    HW233531   2.183   0.189   5.057 -0.0883 -1.8379  0.2299
 7358SOL     OW33532   1.419   3.259   2.131 -0.3023 -0.1017 -0.1744
 7358SOL    HW133533   1.514   3.256   2.119 -0.4973  1.3017 -2.0553
 7358SOL    HW233534   1.402   3.165   2.131 -0.4598 -0.0778 -3.1234
 7359SOL     OW33535   4.238   2.287  10.100 -0.6269  0.2080 -0.3154
 7359SOL    HW133536   4.304   2.333  10.048  0.6523 -0.1839  0.9698
 7359SOL    HW233537   4.290   2.277  10.180  1.6430  0.4218 -1.7509
 7360SOL     OW33538   1.072   2.113   9.458 -0.0499 -0.1292  0.3766
 7360SOL    HW133539   0.995   2.110   9.400  0.6996  0.8727 -0.6611
 7360SOL    HW233540   1.044   2.052   9.526 -1.8243  2.3309  1.8669
 7361SOL     OW33541   2.519   1.557  12.972  0.0390  0.8293 -0.5967
 7361SOL    HW133542   2.522   1.489  13.040 -1.3390  0.1141 -1.2511
 7361SOL    HW233543   2.598   1.606  12.996  0.0430  0.1397  0.7844
 7362SOL     OW33544   2.854   2.082   7.650 -0.3567 -0.2223  0.2252
 7362SOL    HW133545   2.835   1.988   7.650  0.3307 -0.3619  0.6639
 7362SOL    HW233546   2.787   2.117   7.709 -1.7137 -1.3109 -0.6618
 7363SOL     OW33547   2.143   2.659   4.976 -0.1313 -0.5925 -0.1891
 7363SOL    HW133548   2.135   2.746   5.015 -0.6560 -1.1843  0.9998
 7363SOL    HW233549   2.195   2.606   5.037  0.0231 -3.4399 -2.7803
 7364SOL     OW33550   1.562   2.703  10.656 -0.5635  0.1273 -0.4460
 7364SOL    HW133551   1.518   2.709  10.741 -0.3648  1.5563 -0.4417
 7364SOL    HW233552   1.548   2.788  10.616  1.2015  0.3083 -0.6949
 7365SOL     OW33553   2.631   3.646   8.483 -0.2274  0.4126 -0.0376
 7365SOL    HW133554   2.623   3.687   8.397  2.5887 -2.1661 -1.5220
 7365SOL    HW233555   2.712   3.595   8.473  0.8148  1.7988  1.3169
 7366SOL     OW33556   0.023   0.700   5.694  0.5803  0.2171 -0.2682
 7366SOL    HW133557   0.016   0.728   5.785  1.1193 -1.1924  0.1997
 7366SOL    HW233558   4.654   0.675   5.681  0.3957  0.3390  0.8188
 7367SOL     OW33559   3.613   3.705  16.361 -0.2572  0.3045  0.1458
 7367SOL    HW133560   3.632   3.693  16.268 -1.3517 -0.0466 -0.0311
 7367SOL    HW233561   3.525   3.743  16.355  0.1438  1.1594 -0.3169
 7368SOL     OW33562   0.302   1.166   7.111 -0.1470 -0.5060  0.1681
 7368SOL    HW133563   0.283   1.191   7.021  1.1870  1.9688  0.5650
 7368SOL    HW233564   0.342   1.249   7.136  0.9686 -0.7998 -0.6492
 7369SOL     OW33565   1.270   3.171   3.490 -0.0274 -0.9116  0.5545
 7369SOL    HW133566   1.304   3.154   3.401 -0.0152 -1.3685  0.6444
 7369SOL    HW233567   1.330   3.233   3.531  2.9402 -4.0116  0.8762
 7370SOL     OW33568   2.739   0.295   4.507  1.3314 -0.0947 -0.1567
 7370SOL    HW133569   2.818   0.256   4.469  0.3458 -2.1731 -0.0935
 7370SOL    HW233570   2.697   0.330   4.429  0.8750 -0.0841  0.0910
 7371SOL     OW33571   1.754   2.403   0.845 -0.2220 -0.3475  0.2904
 7371SOL    HW133572   1.770   2.319   0.803 -2.2476 -0.4937 -0.2083
 7371SOL    HW233573   1.786   2.371   0.929 -3.3912  0.4656  1.8024
 7372SOL     OW33574   2.108   3.237   7.657  0.4144 -0.0171  0.0850
 7372SOL    HW133575   2.070   3.165   7.706 -0.7223  1.1337  0.8947
 7372SOL    HW233576   2.201   3.237   7.683  0.1286  0.3614  1.1399
 7373SOL     OW33577   1.738   2.949   6.596  0.0142 -0.1979  0.1045
 7373SOL    HW133578   1.654   2.984   6.626 -1.1351 -1.4002 -1.7719
 7373SOL    HW233579   1.789   3.012   6.545 -0.3847  0.1954  0.1950
 7374SOL     OW33580   2.839   1.387   5.169  0.4724  0.4597 -0.0171
 7374SOL    HW133581   2.754   1.377   5.210  0.2062 -0.2815 -0.7313
 7374SOL    HW233582   2.822   1.462   5.112  1.2148  1.8717  1.6216
 7375SOL     OW33583   3.482   0.709   8.710  0.1468  0.0839  0.5868
 7375SOL    HW133584   3.423   0.771   8.753  0.2199 -0.1783  1.0725
 7375SOL    HW233585   3.434   0.715   8.628  2.0022  0.5015 -0.4599
 7376SOL     OW33586   1.667   2.150   2.517 -0.2028  0.3791 -0.2911
 7376SOL    HW133587   1.608   2.142   2.443  1.3741  0.2920 -1.5417
 7376SOL    HW233588   1.708   2.064   2.525  1.4519  1.1660 -0.2826
 7377SOL     OW33589   3.510   1.191  10.323 -0.4890  0.1261  0.0745
 7377SOL    HW133590   3.444   1.146  10.376 -2.4470  2.1188 -0.6827
 7377SOL    HW233591   3.513   1.276  10.367 -1.0597 -0.9245  2.1480
 7378SOL     OW33592   0.867   2.618   1.451 -0.2939 -0.1898  0.4583
 7378SOL    HW133593   0.858   2.700   1.402  1.0075  1.0034  2.2098
 7378SOL    HW233594   0.960   2.597   1.445 -0.2735 -0.4622  1.6531
 7379SOL     OW33595   3.681   2.042   8.053 -0.1871 -0.5239  0.2788
 7379SOL    HW133596   3.678   1.954   8.016  0.7592 -0.0173 -0.9866
 7379SOL    HW233597   3.716   2.024   8.141  0.4578  1.8083  0.4984
 7380SOL     OW33598   4.078   0.319   8.295  0.2683 -0.3043  0.0753
 7380SOL    HW133599   4.017   0.280   8.231 -0.6413  1.5260 -0.1546
 7380SOL    HW233600   4.094   0.405   8.258  2.8591 -0.9667 -0.2939
 7381SOL     OW33601   1.102   0.088   0.245 -0.0969  0.2568 -0.1010
 7381SOL    HW133602   1.101   0.183   0.238  0.6933  0.4591  2.4300
 7381SOL    HW233603   1.170   0.065   0.181  1.1034 -0.4357  1.4011
 7382SOL     OW33604   0.980   1.969   4.761 -0.4207  0.1928  0.2285
 7382SOL    HW133605   1.050   1.907   4.741 -0.8568 -0.2796  0.1832
 7382SOL    HW233606   0.924   1.932   4.829 -0.2883  0.6229  0.5723
 7383SOL     OW33607   1.523   1.827   7.082 -0.6384 -0.4496  0.3381
 7383SOL    HW133608   1.435   1.789   7.074  0.3008 -2.6433  0.4186
 7383SOL    HW233609   1.579   1.750   7.080 -1.8538 -1.3968  2.6648
 7384SOL     OW33610   4.658   3.876   1.727 -0.3487  0.0662 -0.2056
 7384SOL    HW133611   4.589   3.862   1.663  0.7928 -0.8976 -1.2256
 7384SOL    HW233612   4.628   3.961   1.760 -4.3676 -2.0079  1.4869
 7385SOL     OW33613   4.307   4.428  10.116 -0.2813  0.0372  0.3328
 7385SOL    HW133614   4.282   4.407  10.026 -1.6809  0.0467  0.7093
 7385SOL    HW233615   4.275   4.517  10.127  0.2281  0.0697  1.6026
 7386SOL     OW33616   1.221   2.396   9.333  0.5517  0.1483 -0.0846
 7386SOL    HW133617   1.286   2.385   9.264  0.4594  2.3064 -0.5412
 7386SOL    HW233618   1.267   2.369   9.412 -2.0477  0.0613  1.3956
 7387SOL     OW33619   4.224   1.088   8.885 -0.3739 -0.2439  0.7501
 7387SOL    HW133620   4.185   1.112   8.970 -1.7192  0.0901  0.0452
 7387SOL    HW233621   4.207   0.994   8.882  2.5571 -0.8063  2.3505
 7388SOL     OW33622   4.561   0.157   7.156  0.0466  0.1660  0.1127
 7388SOL    HW133623   4.545   0.243   7.195  0.7275  0.1412  0.4509
 7388SOL    HW233624   4.617   0.186   7.085  0.2318 -1.3702 -0.3814
 7389SOL     OW33625   2.694   3.486   1.088 -0.3066 -0.4224  0.2094
 7389SOL    HW133626   2.777   3.457   1.125  0.2443  0.5281 -0.2853
 7389SOL    HW233627   2.718   3.494   0.996  0.4993  1.4681  0.5976
 7390SOL     OW33628   0.704   2.755   7.938  0.7306  0.4628  0.1794
 7390SOL    HW133629   0.783   2.703   7.925  0.1236  0.1316 -2.2350
 7390SOL    HW233630   0.664   2.725   7.856  0.3194  2.1579 -0.2219
 7391SOL     OW33631   0.051   1.704   1.887  0.8944 -0.7219 -0.4692
 7391SOL    HW133632   4.698   1.743   1.845  1.3931  0.1759 -0.5530
 7391SOL    HW233633   0.109   1.778   1.869  0.5814 -0.3260  0.1849
 7392SOL     OW33634   0.915   1.560   0.881 -0.0967 -0.1383 -0.2733
 7392SOL    HW133635   0.987   1.621   0.867 -0.3493 -0.3404 -2.4714
 7392SOL    HW233636   0.910   1.514   0.797 -1.1528 -1.2722  0.4091
 7393SOL     OW33637   0.499   3.838   9.471 -0.0705  0.7127  0.2022
 7393SOL    HW133638   0.560   3.793   9.530  0.1029  1.7826  0.8333
 7393SOL    HW233639   0.420   3.833   9.526  0.3466  1.0137  0.8332
 7394SOL     OW33640   0.689   3.299   8.196 -0.2692  0.0715  0.6940
 7394SOL    HW133641   0.660   3.268   8.110 -0.5658 -1.5258  1.3629
 7394SOL    HW233642   0.707   3.215   8.237 -0.2101  0.1557  0.8401
 7395SOL     OW33643   2.302   2.967   4.759  0.3781 -0.0293 -0.6818
 7395SOL    HW133644   2.390   3.004   4.760  0.8112 -1.0034 -2.0922
 7395SOL    HW233645   2.323   2.874   4.746 -2.5727 -0.6802 -0.7865
 7396SOL     OW33646   1.643   2.416   6.205 -0.5320  0.2527  0.4917
 7396SOL    HW133647   1.597   2.332   6.213  1.5636 -0.8792  0.7982
 7396SOL    HW233648   1.664   2.405   6.113  0.0269  3.6822  0.2259
 7397SOL     OW33649   4.540   3.330  16.243  0.2144  0.7345 -0.2601
 7397SOL    HW133650   4.565   3.299  16.331 -0.3433  0.4466 -0.2012
 7397SOL    HW233651   4.546   3.425  16.245 -0.2134  0.7479  0.9632
 7398SOL     OW33652   0.389   2.142  14.233 -0.1828 -0.5501 -0.0936
 7398SOL    HW133653   0.463   2.130  14.173 -0.3547  2.9926 -1.0270
 7398SOL    HW233654   0.317   2.116  14.175 -1.2917 -0.1615  1.1175
 7399SOL     OW33655   2.026   1.190   3.288 -0.4698 -0.4672  0.4904
 7399SOL    HW133656   2.057   1.142   3.211  1.0793  3.2762 -1.2135
 7399SOL    HW233657   2.022   1.122   3.355  0.6139 -4.6701 -3.7394
 7400SOL     OW33658   0.186   2.360   9.480  0.2245 -0.1034 -0.4476
 7400SOL    HW133659   0.163   2.356   9.573  0.9383 -0.9077 -0.3035
 7400SOL    HW233660   0.185   2.452   9.455 -0.4375  0.9286  3.3375
 7401SOL     OW33661   3.741   2.472   7.298  0.3039 -0.0544 -0.1135
 7401SOL    HW133662   3.690   2.427   7.365 -1.2150  1.6714 -0.0738
 7401SOL    HW233663   3.762   2.406   7.232 -1.4549 -1.4758  0.7550
 7402SOL     OW33664   3.247   0.427   5.460 -0.4244  0.5802  0.2477
 7402SOL    HW133665   3.188   0.493   5.494 -1.6788  0.8495 -2.4604
 7402SOL    HW233666   3.199   0.348   5.484  0.8933 -0.3115  0.0112
 7403SOL     OW33667   3.291   2.835   2.394 -0.1336 -0.3175 -0.7365
 7403SOL    HW133668   3.302   2.927   2.420  0.0895 -0.1430 -1.4303
 7403SOL    HW233669   3.232   2.838   2.318 -1.3864  1.2110  0.3099
 7404SOL     OW33670   1.081   0.900   5.867 -0.1820 -0.0671 -0.8452
 7404SOL    HW133671   1.022   0.975   5.875 -0.1852 -0.1644  0.0193
 7404SOL    HW233672   1.126   0.931   5.788  0.9477  0.4629  0.0006
 7405SOL     OW33673   3.848   0.461   9.962  0.8319 -0.4957  0.0245
 7405SOL    HW133674   3.774   0.457   9.902 -0.2434  1.4977  1.2107
 7405SOL    HW233675   3.859   0.556   9.963  2.3816 -0.6726  0.0775
 7406SOL     OW33676   2.752   2.875   2.558 -0.5191 -0.7991 -0.1787
 7406SOL    HW133677   2.704   2.793   2.566 -1.4035 -0.2337  0.2823
 7406SOL    HW233678   2.825   2.839   2.508  1.0767  0.9463  0.9202
 7407SOL     OW33679   2.344   3.725  12.510 -0.1363  0.9686 -0.1660
 7407SOL    HW133680   2.292   3.803  12.527  1.1430  1.0890  3.0516
 7407SOL    HW233681   2.428   3.764  12.483 -0.1805  2.4642  1.8747
 7408SOL     OW33682   0.490   0.521   7.257  0.2120  0.4052  0.4893
 7408SOL    HW133683   0.476   0.585   7.186 -0.7755 -0.6779 -0.2989
 7408SOL    HW233684   0.564   0.559   7.305 -0.4973 -0.1260  1.9955
 7409SOL     OW33685   0.942   4.587   6.072 -0.0988  0.1642  0.1662
 7409SOL    HW133686   0.928   4.561   5.981  0.1031 -0.2199  0.2478
 7409SOL    HW233687   1.030   4.557   6.094  0.1831  1.7089  1.1708
 7410SOL     OW33688   2.976   0.871   5.433 -0.5123 -0.2844 -0.0752
 7410SOL    HW133689   2.910   0.919   5.483  0.4143  0.1205  0.7705
 7410SOL    HW233690   3.022   0.942   5.390 -0.4860  0.3532  0.9957
 7411SOL     OW33691   1.603   2.919   2.467 -0.3853  0.1653  0.3613
 7411SOL    HW133692   1.529   2.881   2.420 -0.7769  1.0156  0.2931
 7411SOL    HW233693   1.569   2.898   2.554  0.0517 -2.2629 -0.0475
 7412SOL     OW33694   4.082   0.488   9.832  0.3587  0.5836  0.1342
 7412SOL    HW133695   4.133   0.530   9.901  0.8123 -1.0632  0.7897
 7412SOL    HW233696   3.998   0.469   9.874  0.6725 -0.7652  0.1412
 7413SOL     OW33697   2.851   1.361  10.039 -0.3036  0.1310 -0.1265
 7413SOL    HW133698   2.919   1.300  10.012  1.5295  1.7173  0.8719
 7413SOL    HW233699   2.826   1.400   9.956 -1.5013  3.0477  1.6007
 7414SOL     OW33700   1.842   1.699  10.673 -0.2537 -0.3620  1.1676
 7414SOL    HW133701   1.779   1.752  10.721 -1.1988 -1.1112  0.7440
 7414SOL    HW233702   1.784   1.629  10.643  0.6529 -0.6248  0.0469
 7415SOL     OW33703   0.424   0.694   7.077  0.0106  0.6917  0.2446
 7415SOL    HW133704   0.360   0.762   7.098  2.5394  1.7019  4.5240
 7415SOL    HW233705   0.462   0.732   6.998  0.4314  0.8119  0.5110
 7416SOL     OW33706   3.216   1.749   2.485 -0.4215 -0.0128  0.0021
 7416SOL    HW133707   3.123   1.758   2.461 -0.0094 -0.3340 -1.7072
 7416SOL    HW233708   3.218   1.661   2.523  1.4570  0.8430  1.9030
 7417SOL     OW33709   0.269   0.760   4.331 -0.6495  0.2920 -0.4394
 7417SOL    HW133710   0.340   0.823   4.336  1.7511 -2.4416  0.2440
 7417SOL    HW233711   0.212   0.791   4.402 -0.6015  2.6529 -1.4583
 7418SOL     OW33712   2.958   2.916  11.828 -0.5941  0.4501  0.9909
 7418SOL    HW133713   3.051   2.894  11.830 -0.2992  1.5826 -0.2970
 7418SOL    HW233714   2.921   2.859  11.896  0.9330  2.1828  3.2586
 7419SOL     OW33715   2.910   2.526   6.758  0.6842  0.2200  0.1003
 7419SOL    HW133716   2.862   2.444   6.764 -1.2447  1.3932  0.8871
 7419SOL    HW233717   2.861   2.571   6.689  1.9764 -0.3806 -1.2079
 7420SOL     OW33718   3.938   1.924   6.777 -0.1456 -0.3792 -0.4147
 7420SOL    HW133719   4.016   1.906   6.829  0.4456 -1.2382 -1.6007
 7420SOL    HW233720   3.871   1.924   6.846  0.2275  2.4153 -0.0410
 7421SOL     OW33721   0.790   2.852   5.531  0.0286  0.2015  1.1505
 7421SOL    HW133722   0.718   2.904   5.565 -1.1260 -1.0487  0.6343
 7421SOL    HW233723   0.821   2.832   5.620  1.6019 -0.6750  0.3996
 7422SOL     OW33724   4.065   4.304  10.833  0.0725 -0.2055 -0.3764
 7422SOL    HW133725   4.085   4.218  10.795  1.7676  1.4319 -3.1731
 7422SOL    HW233726   4.019   4.275  10.911  0.0729 -0.1526 -0.3573
 7423SOL     OW33727   2.294   3.431   0.849  0.0236 -0.5246  0.2653
 7423SOL    HW133728   2.359   3.379   0.897 -1.8196 -4.3247 -1.3598
 7423SOL    HW233729   2.235   3.460   0.919  1.8051  1.8368  0.7506
 7424SOL     OW33730   4.703   3.407   5.709 -0.4917 -0.1165  0.6243
 7424SOL    HW133731   4.621   3.358   5.710 -0.5768 -0.0056 -0.8456
 7424SOL    HW233732   4.717   3.397   5.803 -2.9408  1.2598  1.1271
 7425SOL     OW33733   1.032   0.651  11.788  0.2139 -0.2103 -0.0032
 7425SOL    HW133734   1.005   0.572  11.741 -1.5612  1.2101 -1.3605
 7425SOL    HW233735   1.126   0.639  11.795  0.1684 -0.0833  0.8536
 7426SOL     OW33736   0.937   0.327   3.343 -0.0563 -0.3969 -0.5400
 7426SOL    HW133737   1.002   0.386   3.308 -0.9039  0.6595 -0.3397
 7426SOL    HW233738   0.986   0.245   3.353 -0.8912 -0.6422  1.7832
 7427SOL     OW33739   3.589   2.172  10.102  0.1308 -0.1475  0.2332
 7427SOL    HW133740   3.554   2.242  10.048  0.0411 -0.7682 -0.5040
 7427SOL    HW233741   3.576   2.213  10.188 -0.7295 -1.0415  0.5361
 7428SOL     OW33742   3.578   3.946   2.664  0.7463 -0.4929 -0.0256
 7428SOL    HW133743   3.550   3.855   2.669 -0.0046 -0.2690 -0.1189
 7428SOL    HW233744   3.563   3.965   2.572  1.8255 -0.1155 -0.1185
 7429SOL     OW33745   4.235   2.155   9.480 -0.1931 -0.0872  0.5180
 7429SOL    HW133746   4.258   2.224   9.543  0.8758 -2.3616  2.5871
 7429SOL    HW233747   4.325   2.128   9.463 -0.2470  0.7350 -1.1003
 7430SOL     OW33748   1.502   1.301   5.918 -0.0500 -0.1352 -0.0783
 7430SOL    HW133749   1.597   1.315   5.922  0.3679 -2.4755 -1.2780
 7430SOL    HW233750   1.478   1.380   5.868  1.3806  0.5105  0.2689
 7431SOL     OW33751   1.856   0.369  14.524  0.0786  0.3383  0.4452
 7431SOL    HW133752   1.771   0.377  14.481  1.1005 -1.4672 -1.9215
 7431SOL    HW233753   1.834   0.400  14.612 -3.0183  0.4818 -0.3674
 7432SOL     OW33754   4.326   3.166  17.584  0.1579 -0.3802  0.0630
 7432SOL    HW133755   4.308   3.142  17.493  2.3553  6.3608 -2.1137
 7432SOL    HW233756   4.244   3.137  17.625  0.7445  2.2354  3.0849
 7433SOL     OW33757   3.592   0.509   6.589 -0.1262  0.3380 -0.6377
 7433SOL    HW133758   3.665   0.563   6.620 -0.4274 -0.5114  1.5063
 7433SOL    HW233759   3.518   0.563   6.618 -0.6281 -0.4705 -0.4271
 7434SOL     OW33760   4.158   2.557  13.670  0.1125  0.3141 -0.0042
 7434SOL    HW133761   4.065   2.577  13.656 -0.0260  0.8006  1.6164
 7434SOL    HW233762   4.186   2.549  13.579 -2.8567  0.3277 -0.9112
 7435SOL     OW33763   2.320   1.389   5.907 -0.0769 -0.5821  0.4749
 7435SOL    HW133764   2.325   1.363   5.999  3.4185 -1.8010 -0.0555
 7435SOL    HW233765   2.402   1.439   5.907  0.8192 -2.0489 -0.5451
 7436SOL     OW33766   3.691   4.370   4.992  0.6766 -0.2562  0.9657
 7436SOL    HW133767   3.778   4.372   4.951 -0.2417  2.7400 -0.8573
 7436SOL    HW233768   3.644   4.409   4.918  2.5972 -0.4080 -0.3469
 7437SOL     OW33769   2.962   1.486   5.415 -0.4971  0.0252 -0.3107
 7437SOL    HW133770   2.892   1.480   5.480 -0.1561 -1.9490 -0.1198
 7437SOL    HW233771   2.915   1.446   5.342 -1.2394  0.5368 -0.1066
 7438SOL     OW33772   1.796   3.153   4.699 -0.4731  0.1555  0.2183
 7438SOL    HW133773   1.815   3.214   4.628  1.4061 -0.4882  0.1805
 7438SOL    HW233774   1.887   3.151   4.725  0.5163  0.5679 -3.1383
 7439SOL     OW33775   2.598   1.166   5.953  0.0219 -0.2602 -0.6717
 7439SOL    HW133776   2.630   1.226   6.020 -1.3008 -0.9552  0.5892
 7439SOL    HW233777   2.504   1.160   5.971 -0.0477  2.1014 -0.2775
 7440SOL     OW33778   3.901   3.738   8.726 -0.2641 -0.1315 -0.0824
 7440SOL    HW133779   3.889   3.797   8.800 -1.2747 -0.8823  0.3541
 7440SOL    HW233780   3.970   3.791   8.686 -1.9898  0.0513 -2.8153
 7441SOL     OW33781   3.852   4.104   9.224  0.5581  0.3477  0.0399
 7441SOL    HW133782   3.885   4.163   9.156  0.0472 -0.6323 -1.0817
 7441SOL    HW233783   3.900   4.023   9.206 -0.7982 -0.8950  2.0083
 7442SOL     OW33784   2.790   4.522   8.753  0.0523  0.6368  0.1688
 7442SOL    HW133785   2.815   4.556   8.667  1.5784 -1.8204 -0.3923
 7442SOL    HW233786   2.862   4.569   8.795 -0.0945 -0.3694  1.5802
 7443SOL     OW33787   2.057   2.960   4.238 -0.3039 -0.0476  0.9112
 7443SOL    HW133788   2.056   3.033   4.300  4.4950  0.2580  0.6348
 7443SOL    HW233789   1.976   2.911   4.249  0.8355 -1.5514  2.7421
 7444SOL     OW33790   3.003   3.599   0.776  0.7319 -0.3159 -0.3101
 7444SOL    HW133791   3.041   3.586   0.689 -0.3932  2.8565 -1.2644
 7444SOL    HW233792   3.015   3.694   0.775 -0.9880 -0.1173 -1.7891
 7445SOL     OW33793   3.602   3.176   2.441  0.6603  0.0023 -0.8782
 7445SOL    HW133794   3.629   3.093   2.480  0.7487 -0.3907 -1.7630
 7445SOL    HW233795   3.530   3.192   2.501 -0.2693  3.0236 -2.7867
 7446SOL     OW33796   3.597   4.189   9.702 -0.8623  0.0048  0.3305
 7446SOL    HW133797   3.632   4.173   9.614 -0.6461 -1.1380  0.6174
 7446SOL    HW233798   3.667   4.243   9.739  0.7486 -1.6867 -0.2019
 7447SOL     OW33799   2.305   4.299   7.011  0.1952  0.5342  0.0008
 7447SOL    HW133800   2.282   4.206   7.001  0.4084  0.2492  2.1084
 7447SOL    HW233801   2.260   4.319   7.093 -1.0582 -0.6927 -0.3817
 7448SOL     OW33802   3.008   2.314   1.547  0.1443 -0.1806  0.3164
 7448SOL    HW133803   3.042   2.386   1.492  0.3322 -0.9975 -0.6328
 7448SOL    HW233804   3.088   2.262   1.539  0.0734 -0.1848 -0.4370
 7449SOL     OW33805   1.016   1.875  16.749  0.3014 -0.2016  0.2692
 7449SOL    HW133806   1.024   1.950  16.690  0.1266 -0.2053  0.2411
 7449SOL    HW233807   0.960   1.919  16.813 -0.4851 -0.3306 -0.3332
 7450SOL     OW33808   0.267   3.572  12.500  0.1564  0.2794 -0.1702
 7450SOL    HW133809   0.242   3.483  12.475  2.1728 -0.3396  0.0664
 7450SOL    HW233810   0.337   3.556  12.563 -1.5556 -2.1131  1.1530
 7451SOL     OW33811   1.470   3.709   5.789  0.2330 -0.1881  0.1166
 7451SOL    HW133812   1.488   3.729   5.881  0.8786  1.9717 -0.4843
 7451SOL    HW233813   1.540   3.755   5.743 -0.5042 -1.1729 -2.0000
 7452SOL     OW33814   2.923   1.804  13.162  0.0312  0.0812  0.3116
 7452SOL    HW133815   3.012   1.789  13.129  0.5112  0.6726  1.3177
 7452SOL    HW233816   2.936   1.892  13.199 -1.8908  0.7256 -0.5608
 7453SOL     OW33817   4.523   3.999   5.079 -0.2295  0.2489 -0.3977
 7453SOL    HW133818   4.597   3.970   5.026 -0.8634 -0.4780 -0.8858
 7453SOL    HW233819   4.470   3.920   5.083  4.6827 -3.0251 -0.7787
 7454SOL     OW33820   2.302   0.749  12.814 -0.1962 -0.1732  0.6343
 7454SOL    HW133821   2.238   0.819  12.800 -0.3914 -0.4072  0.3534
 7454SOL    HW233822   2.251   0.669  12.827 -0.0143 -0.7138 -2.1643
 7455SOL     OW33823   3.391   3.002   6.311  0.3274  0.2544  0.4020
 7455SOL    HW133824   3.356   3.052   6.385  1.1073  1.1382  0.1747
 7455SOL    HW233825   3.461   2.947   6.348 -1.5839 -1.4207  1.5113
 7456SOL     OW33826   4.307   1.493   3.138  0.1496 -0.5263 -0.5266
 7456SOL    HW133827   4.285   1.582   3.110  2.2508  0.3161  0.5228
 7456SOL    HW233828   4.296   1.504   3.232 -0.9170 -0.5968 -0.6393
 7457SOL     OW33829   0.810   4.132   3.550 -0.2634  0.3198  0.4540
 7457SOL    HW133830   0.861   4.079   3.612  2.4759  1.1596 -1.0856
 7457SOL    HW233831   0.786   4.202   3.611  0.6898 -1.3809  2.7846
 7458SOL     OW33832   2.714   4.391   2.078 -0.6513  0.7828  0.5667
 7458SOL    HW133833   2.702   4.473   2.029 -1.7471  0.1416 -0.2279
 7458SOL    HW233834   2.685   4.332   2.008 -0.6890 -0.6605  1.8150
 7459SOL     OW33835   2.180   1.479   7.098  0.1216 -0.4803 -0.1357
 7459SOL    HW133836   2.207   1.549   7.038 -1.7306 -0.3484 -0.8179
 7459SOL    HW233837   2.174   1.531   7.178 -1.4982 -0.1876 -0.4447
 7460SOL     OW33838   4.653   2.658   0.410 -0.4517  0.1366  0.0775
 7460SOL    HW133839   4.577   2.695   0.366  0.1660  1.7865  0.3972
 7460SOL    HW233840   4.722   2.663   0.344 -0.4654  1.8815  0.1991
 7461SOL     OW33841   3.285   2.259   4.612  0.1724 -0.1652 -0.2968
 7461SOL    HW133842   3.248   2.313   4.682 -1.6893 -2.2625  0.3338
 7461SOL    HW233843   3.367   2.245   4.659  0.5661  1.4903 -0.4792
 7462SOL     OW33844   4.209   1.353   7.721 -0.3861  0.1060 -0.5132
 7462SOL    HW133845   4.301   1.337   7.741 -0.6566 -2.7301 -1.4980
 7462SOL    HW233846   4.169   1.306   7.794  2.4704  1.1986  1.7480
 7463SOL     OW33847   2.113   1.598   5.421 -0.2472  0.0890  0.1718
 7463SOL    HW133848   2.057   1.624   5.494  0.8756  2.5283  0.1532
 7463SOL    HW233849   2.118   1.502   5.429  4.1553  0.1433 -1.9747
 7464SOL     OW33850   0.870   3.406   7.548  0.0946 -0.3680  0.9698
 7464SOL    HW133851   0.802   3.377   7.609 -0.2498 -1.7239 -0.0577
 7464SOL    HW233852   0.882   3.498   7.571  0.6978  0.2428 -1.7351
 7465SOL     OW33853   1.848   0.451   7.614  0.1909 -0.4292  0.8391
 7465SOL    HW133854   1.940   0.461   7.590  0.0195  1.0196  0.7491
 7465SOL    HW233855   1.808   0.439   7.528 -0.8008  0.8615  1.1058
 7466SOL     OW33856   1.237   2.126   8.632  0.0941 -0.2596  0.1607
 7466SOL    HW133857   1.327   2.093   8.632  0.7397  1.4503  1.2832
 7466SOL    HW233858   1.200   2.079   8.558  1.6627  1.3730 -1.6311
 7467SOL     OW33859   2.648   0.598   3.587 -0.0743 -0.3302  0.1247
 7467SOL    HW133860   2.669   0.526   3.527  2.0154  0.0536  0.3752
 7467SOL    HW233861   2.735   0.622   3.620  0.9177 -1.5788 -1.5543
 7468SOL     OW33862   2.210   1.609  12.356 -0.1229 -0.0624  0.3024
 7468SOL    HW133863   2.302   1.619  12.381 -1.0741  0.8873  3.3471
 7468SOL    HW233864   2.210   1.515  12.373 -1.3865 -0.3279 -1.1163
 7469SOL     OW33865   2.417   0.548   5.571  0.1047 -0.0788  0.0986
 7469SOL    HW133866   2.406   0.460   5.536  0.5072  0.0221 -0.2831
 7469SOL    HW233867   2.451   0.527   5.658  0.0240 -4.5387 -0.9449
 7470SOL     OW33868   0.589   1.469   8.355 -0.0782 -0.0225  0.9777
 7470SOL    HW133869   0.554   1.544   8.307 -1.3837 -0.6851  0.8947
 7470SOL    HW233870   0.630   1.510   8.431  1.3626 -3.1117  1.8486
 7471SOL     OW33871   2.012   3.827   2.796 -0.1427 -0.7356 -0.2094
 7471SOL    HW133872   1.941   3.880   2.832  0.6537  0.7680 -0.8775
 7471SOL    HW233873   1.967   3.754   2.753 -0.2048 -1.7856  1.5926
 7472SOL     OW33874   2.853   3.651   4.997 -0.4986 -0.0231  0.8462
 7472SOL    HW133875   2.835   3.558   4.986 -2.3358  0.5646 -0.9733
 7472SOL    HW233876   2.842   3.673   4.905  1.5142  0.2778  0.6674
 7473SOL     OW33877   2.828   4.676   5.059  0.1562 -0.1062  0.5017
 7473SOL    HW133878   2.801   0.019   4.996  1.4747  1.2842  1.4072
 7473SOL    HW233879   2.771   4.690   5.134  1.3900  0.8542  1.2432
 7474SOL     OW33880   3.523   0.347   7.867 -0.2824  0.1433  0.2856
 7474SOL    HW133881   3.431   0.351   7.892 -0.3202 -2.5682  0.5916
 7474SOL    HW233882   3.540   0.257   7.896 -0.9727 -0.3709 -0.8805
 7475SOL     OW33883   2.198   0.956   4.272  0.4393  0.5100 -0.5263
 7475SOL    HW133884   2.294   0.961   4.276  0.4470 -0.5147  0.5334
 7475SOL    HW233885   2.177   0.890   4.338  0.3633  0.4678 -0.5938
 7476SOL     OW33886   0.495   2.807  13.816 -0.4974  0.2069  0.2391
 7476SOL    HW133887   0.445   2.744  13.765 -0.6079  1.7059 -1.4867
 7476SOL    HW233888   0.455   2.893  13.803 -1.4257 -0.2261  0.1928
 7477SOL     OW33889   2.449   3.744   9.786 -0.2692  0.1805 -0.1057
 7477SOL    HW133890   2.384   3.756   9.717  0.8667  1.6976 -0.9225
 7477SOL    HW233891   2.437   3.819   9.843  0.3115 -1.0116  1.5932
 7478SOL     OW33892   0.221   0.490   0.467  0.5567  0.0612  0.7534
 7478SOL    HW133893   0.163   0.426   0.509 -1.5176  0.5804 -1.3371
 7478SOL    HW233894   0.194   0.472   0.377 -0.9110 -2.3995  1.6837
 7479SOL     OW33895   3.182   4.130   3.672 -0.0482 -0.0128  0.0691
 7479SOL    HW133896   3.243   4.063   3.641 -0.4400 -0.0843 -0.5582
 7479SOL    HW233897   3.106   4.111   3.617 -2.0786  2.4013  2.0912
 7480SOL     OW33898   0.471   1.241  17.051  0.0992 -0.1094  0.4473
 7480SOL    HW133899   0.389   1.192  17.045  1.8003 -2.7779 -1.5975
 7480SOL    HW233900   0.445   1.319  17.003  0.2890 -0.7781 -0.7568
 7481SOL     OW33901   2.419   0.422  10.380  0.0305  0.2967 -0.1344
 7481SOL    HW133902   2.394   0.514  10.371  0.8782  0.6105  0.8638
 7481SOL    HW233903   2.368   0.393  10.304 -0.3121 -0.6820  0.4680
 7482SOL     OW33904   2.520   0.687   2.749 -0.0798 -0.3180 -0.8394
 7482SOL    HW133905   2.537   0.606   2.701 -1.9045 -0.8799 -0.5593
 7482SOL    HW233906   2.601   0.718   2.789 -0.9268  0.0481  0.5669
 7483SOL     OW33907   0.307   1.868   5.522  0.7717  0.1921  0.0170
 7483SOL    HW133908   0.395   1.898   5.546  1.0395 -0.1882 -0.4945
 7483SOL    HW233909   0.322   1.871   5.427  1.8408 -0.0037  0.1861
 7484SOL     OW33910   3.806   1.764   5.098  0.0168  0.0129 -0.0544
 7484SOL    HW133911   3.864   1.841   5.096 -0.9304  0.7811  1.9937
 7484SOL    HW233912   3.783   1.761   5.005  1.2729 -1.3185 -0.3091
 7485SOL     OW33913   2.797   4.096   2.451  0.2806  0.2733 -0.8776
 7485SOL    HW133914   2.892   4.107   2.452  0.2158  0.4619  1.9844
 7485SOL    HW233915   2.762   4.170   2.501  0.6482 -1.1496  1.5075
 7486SOL     OW33916   0.149   4.241  14.080  0.1743 -0.1026  0.2421
 7486SOL    HW133917   0.086   4.310  14.064  1.6407  1.5733  1.6032
 7486SOL    HW233918   0.173   4.215  13.991 -0.6216  1.1331 -0.3318
 7487SOL     OW33919   4.516   0.691  13.720  0.3050 -0.4224  0.0888
 7487SOL    HW133920   4.482   0.725  13.637  1.2034  2.3258  0.8273
 7487SOL    HW233921   4.532   0.599  13.702 -0.9387 -0.4584 -0.8027
 7488SOL     OW33922   0.465   2.450   8.719  0.1436  0.4444  0.4210
 7488SOL    HW133923   0.397   2.509   8.752 -1.7197 -1.5050  0.0965
 7488SOL    HW233924   0.459   2.381   8.784  0.2732  0.6625  0.6614
 7489SOL     OW33925   1.514   3.294   2.566  0.3563  0.4081  0.0000
 7489SOL    HW133926   1.470   3.340   2.637 -2.2462  0.1235 -1.4558
 7489SOL    HW233927   1.547   3.218   2.614 -0.3065 -0.2012 -0.5230
 7490SOL     OW33928   4.171   0.364   4.016  0.2720 -0.2458  0.9289
 7490SOL    HW133929   4.171   0.388   4.108  1.1892  0.9094  0.6327
 7490SOL    HW233930   4.166   0.268   4.013 -1.0771 -0.1739  0.9773
 7491SOL     OW33931   1.726   1.677  13.266  0.2765  0.4590 -0.2053
 7491SOL    HW133932   1.794   1.618  13.232  0.7678  1.1266 -0.3759
 7491SOL    HW233933   1.778   1.755  13.285  0.6191 -0.1996  1.5665
 7492SOL     OW33934   2.188   1.644   7.329 -0.2091  0.4874 -0.4232
 7492SOL    HW133935   2.221   1.662   7.417 -0.9688  1.2177 -0.2889
 7492SOL    HW233936   2.140   1.721   7.301 -0.9089  0.5673  1.0126
 7493SOL     OW33937   1.938   1.678   8.684 -0.1683 -0.1485 -0.4950
 7493SOL    HW133938   1.902   1.643   8.766  0.9432  0.0760  0.0830
 7493SOL    HW233939   1.915   1.769   8.704  1.3227 -0.1046  1.0063
 7494SOL     OW33940   4.157   0.282   3.484  0.5219  0.1438 -0.1887
 7494SOL    HW133941   4.103   0.325   3.550 -0.3462  2.1965 -2.2088
 7494SOL    HW233942   4.215   0.232   3.541 -0.7806 -0.0034  1.0078
 7495SOL     OW33943   3.776   2.325   6.921  0.0950  0.1918 -0.7328
 7495SOL    HW133944   3.721   2.402   6.937  0.8691  0.8713 -1.2995
 7495SOL    HW233945   3.860   2.369   6.936  0.6019 -1.5088  1.3281
 7496SOL     OW33946   2.475   2.293   5.416  0.5475  0.7210 -0.0637
 7496SOL    HW133947   2.422   2.255   5.486 -0.3355  2.0588 -0.0126
 7496SOL    HW233948   2.428   2.366   5.377 -0.5060 -0.3370 -0.7701
 7497SOL     OW33949   1.968   3.394  14.691 -0.1583  0.3049 -0.1268
 7497SOL    HW133950   1.953   3.479  14.649 -1.2586  0.3447  0.3660
 7497SOL    HW233951   2.039   3.424  14.748  1.8579 -2.7766 -0.9854
 7498SOL     OW33952   3.758   1.931   5.970 -0.5275  0.2582  0.2594
 7498SOL    HW133953   3.707   1.940   5.890  1.7992 -0.3639 -1.3228
 7498SOL    HW233954   3.797   1.847   5.943 -0.9207  1.1730 -3.0542
 7499SOL     OW33955   1.975   2.330   6.428  0.3008  0.1683  0.3646
 7499SOL    HW133956   1.995   2.381   6.350 -0.2941  0.8002  0.6267
 7499SOL    HW233957   2.031   2.257   6.403  0.5186  0.6944 -0.6820
 7500SOL     OW33958   2.183   3.452   7.102  0.2618 -0.3682  0.5013
 7500SOL    HW133959   2.240   3.393   7.053  1.8063  1.8215 -0.3318
 7500SOL    HW233960   2.099   3.405   7.103  0.7683 -1.2807 -0.6053
 7501SOL     OW33961   0.251   3.093  11.003 -0.0977 -0.4961 -0.0196
 7501SOL    HW133962   0.198   3.155  10.953  0.4598 -0.8335 -1.0498
 7501SOL    HW233963   0.311   3.061  10.935  0.8882  2.0255 -0.3288
 7502SOL     OW33964   4.441   3.874  10.173  0.5564  0.2261 -0.0606
 7502SOL    HW133965   4.383   3.823  10.231  0.8758 -0.7459 -0.5987
 7502SOL    HW233966   4.458   3.952  10.225 -2.1633 -0.2638  1.5728
 7503SOL     OW33967   2.402   3.957  12.232 -0.1310 -0.4958 -0.6220
 7503SOL    HW133968   2.442   3.875  12.261  0.2485 -0.3218 -0.6538
 7503SOL    HW233969   2.339   3.927  12.168 -1.0597  1.6342 -0.7172
 7504SOL     OW33970   3.216   3.689   3.458 -0.3488 -0.6017  0.2531
 7504SOL    HW133971   3.174   3.606   3.480 -0.6473 -0.6613 -0.5630
 7504SOL    HW233972   3.190   3.702   3.367 -0.7764  1.5573  0.7081
 7505SOL     OW33973   1.012   1.128   2.004  0.2792  0.2399  0.1901
 7505SOL    HW133974   0.931   1.126   2.055 -0.5302 -1.2548 -1.1550
 7505SOL    HW233975   1.025   1.038   1.971  1.3530  1.0638 -1.6551
 7506SOL     OW33976   4.264   4.533   2.654 -0.0280  0.0765 -0.6178
 7506SOL    HW133977   4.300   4.578   2.578  2.1884  1.3616  1.1917
 7506SOL    HW233978   4.237   4.452   2.611 -0.4220 -0.0891 -0.0571
 7507SOL     OW33979   0.881   0.320  12.365  0.5306 -0.0309  0.7347
 7507SOL    HW133980   0.958   0.272  12.336  0.4098  0.0052  0.3529
 7507SOL    HW233981   0.908   0.345  12.453 -0.4759  0.2470  0.9647
 7508SOL     OW33982   3.923   4.191   3.590 -0.4213  0.1869 -0.3012
 7508SOL    HW133983   3.994   4.127   3.591  0.0640  0.7223 -0.2814
 7508SOL    HW233984   3.895   4.172   3.500 -1.1146 -0.7119  0.1138
 7509SOL     OW33985   3.631   1.669   6.782  0.3357 -0.1763  0.1935
 7509SOL    HW133986   3.680   1.716   6.849  2.7375  0.1572 -1.8031
 7509SOL    HW233987   3.662   1.578   6.781  0.0851 -0.2633  0.2761
 7510SOL     OW33988   3.877   2.033   1.073 -0.2334  0.2258  0.3225
 7510SOL    HW133989   3.855   2.079   1.154 -0.4091  0.3305  0.2145
 7510SOL    HW233990   3.916   1.950   1.101  1.9958  0.5267 -1.8487
 7511SOL     OW33991   4.472   0.598  16.363 -0.5457  0.6497  0.0620
 7511SOL    HW133992   4.411   0.660  16.323 -3.0391 -2.8711 -1.6093
 7511SOL    HW233993   4.425   0.565  16.439  0.1813  0.1752  0.3055
 7512SOL     OW33994   3.326   4.417   1.968  0.2339 -0.4103 -0.1280
 7512SOL    HW133995   3.419   4.438   1.963  0.2277 -0.3071  0.1853
 7512SOL    HW233996   3.329   4.374   2.054 -2.8323 -0.0101  0.1805
 7513SOL     OW33997   2.253   0.782   8.625 -0.0237  0.3693 -0.1364
 7513SOL    HW133998   2.179   0.842   8.613  0.8566  1.5017  0.0805
 7513SOL    HW233999   2.269   0.806   8.716  0.8920 -1.9083  0.2934
 7514SOL     OW34000   4.286   4.363   7.885 -0.2681  0.0235  0.4593
 7514SOL    HW134001   4.362   4.351   7.942  1.0293  1.0447 -1.0545
 7514SOL    HW234002   4.287   4.458   7.879 -1.2678 -0.0081 -0.2727
 7515SOL     OW34003   1.072   1.483  17.135  0.3084  0.5181  0.8427
 7515SOL    HW134004   1.018   1.449  17.064  1.3799  2.1836 -0.7556
 7515SOL    HW234005   1.088   1.574  17.110  0.1954  0.1118 -0.6911
 7516SOL     OW34006   0.732   0.213   8.835 -0.2443 -0.4317 -0.2004
 7516SOL    HW134007   0.654   0.205   8.890 -1.2442  1.3393 -1.3490
 7516SOL    HW234008   0.797   0.257   8.889  2.2004 -2.1035 -1.7924
 7517SOL     OW34009   1.031   1.501  15.985  0.2837  0.0513  0.1071
 7517SOL    HW134010   1.122   1.515  15.960  0.8158  0.3911  2.2138
 7517SOL    HW234011   0.998   1.586  15.955  0.4484  0.3108  0.6443
 7518SOL     OW34012   2.184   3.431   1.894 -0.2992  0.0965 -0.0129
 7518SOL    HW134013   2.238   3.484   1.835  2.3753  0.3863  2.6802
 7518SOL    HW234014   2.097   3.429   1.854 -0.0202  0.8894 -0.6749
 7519SOL     OW34015   3.885   1.463   9.284  0.1378 -0.5051  0.5648
 7519SOL    HW134016   3.839   1.386   9.317  1.6584 -1.8348 -0.3695
 7519SOL    HW234017   3.967   1.461   9.334  1.3897 -3.3318 -1.5546
 7520SOL     OW34018   1.192   2.169   4.434  0.2373 -0.0117  0.3295
 7520SOL    HW134019   1.165   2.253   4.399 -0.2171 -0.2458  0.1138
 7520SOL    HW234020   1.267   2.161   4.375 -0.5544  0.6256 -0.7603
 7521SOL     OW34021   2.873   0.668   3.378  0.5046  0.9238 -0.0749
 7521SOL    HW134022   2.912   0.696   3.296 -0.8356  0.7614 -0.7636
 7521SOL    HW234023   2.830   0.589   3.344  0.4859  1.3792 -1.0814
 7522SOL     OW34024   3.635   3.139   6.904  0.3532 -0.6860  0.2213
 7522SOL    HW134025   3.652   3.218   6.853  1.0276 -0.3506  0.9749
 7522SOL    HW234026   3.578   3.182   6.967  1.6000  0.0897  0.8232
 7523SOL     OW34027   3.296   3.232  14.786 -0.0264 -0.3407 -0.1926
 7523SOL    HW134028   3.274   3.315  14.831 -1.3599 -0.6439 -0.2674
 7523SOL    HW234029   3.383   3.249  14.751 -0.5915 -0.2997 -1.5889
 7524SOL     OW34030   2.804   4.257  10.525  0.4945  0.5608  0.0065
 7524SOL    HW134031   2.745   4.323  10.561  1.6985  2.3979 -1.4364
 7524SOL    HW234032   2.804   4.291  10.436  0.8241 -1.3372 -0.7145
 7525SOL     OW34033   0.563   4.166  17.435  0.4404 -0.1647  0.2925
 7525SOL    HW134034   0.629   4.188  17.500  1.2065 -2.8495  0.4254
 7525SOL    HW234035   0.479   4.175  17.480  0.2384  1.9795 -0.5052
 7526SOL     OW34036   3.467   3.958   4.843 -0.1958  0.7989 -0.7498
 7526SOL    HW134037   3.379   3.962   4.805  0.0239  1.4925 -1.1958
 7526SOL    HW234038   3.457   4.024   4.911  1.2359  2.2080 -1.8847
 7527SOL     OW34039   4.689   2.210  17.448 -0.4892  0.2215 -0.5172
 7527SOL    HW134040   4.663   2.129  17.493  0.7335  1.2956  2.0921
 7527SOL    HW234041   0.058   2.220  17.473 -0.9217  1.2716  0.6692
 7528SOL     OW34042   3.259   3.478   5.631 -0.4082  0.5300 -0.5062
 7528SOL    HW134043   3.272   3.572   5.644  1.4482  0.1771  0.0764
 7528SOL    HW234044   3.213   3.438   5.704 -0.5772  1.6648  0.0111
 7529SOL     OW34045   2.898   1.592   5.814 -0.3726 -0.1414 -0.4370
 7529SOL    HW134046   2.937   1.638   5.739 -0.9633  0.2683 -0.4957
 7529SOL    HW234047   2.881   1.669   5.869  1.3106 -1.5633  2.0598
 7530SOL     OW34048   3.829   1.463  12.986  0.1066  0.1940 -0.3438
 7530SOL    HW134049   3.895   1.394  12.985  0.0860  0.2153 -3.0364
 7530SOL    HW234050   3.754   1.417  12.947  0.2603  1.3975 -2.0864
 7531SOL     OW34051   0.466   1.880  10.922 -0.1872  0.4745 -0.3464
 7531SOL    HW134052   0.540   1.825  10.897  0.4871  0.4102  1.7892
 7531SOL    HW234053   0.398   1.814  10.907  2.2507 -1.9533 -0.6836
 7532SOL     OW34054   2.476   0.876   6.762  0.7800  0.0615  0.1462
 7532SOL    HW134055   2.513   0.962   6.742  1.4491 -0.5195 -1.1175
 7532SOL    HW234056   2.538   0.834   6.821  0.2457 -0.8445  0.0620
 7533SOL     OW34057   0.619   1.931   2.029  0.1001  0.5150 -0.2498
 7533SOL    HW134058   0.607   2.026   2.028  1.9952  0.7620  0.3140
 7533SOL    HW234059   0.679   1.921   2.103 -0.2837 -1.2135 -0.1578
 7534SOL     OW34060   1.863   0.098   7.559  0.8331  0.4851 -0.2200
 7534SOL    HW134061   1.823   0.011   7.554  0.2259  0.5842  2.8128
 7534SOL    HW234062   1.780   0.145   7.562  0.4488 -0.2970  1.2427
 7535SOL     OW34063   3.578   0.617  13.132 -0.1947  0.0306  0.7995
 7535SOL    HW134064   3.652   0.556  13.139 -1.2212 -1.1866  1.0311
 7535SOL    HW234065   3.545   0.602  13.220  1.4460  0.3733  1.4727
 7536SOL     OW34066   3.568   4.226   7.732 -0.1511 -0.2714  0.1450
 7536SOL    HW134067   3.486   4.259   7.767  0.0472 -0.5857  0.9122
 7536SOL    HW234068   3.634   4.269   7.787  0.9669 -1.6175 -0.1471
 7537SOL     OW34069   0.660   3.508   8.472  0.3103  0.1534  0.2577
 7537SOL    HW134070   0.626   3.560   8.545 -0.6549 -1.3425  0.8723
 7537SOL    HW234071   0.711   3.446   8.524  0.9317  0.8011  0.4227
 7538SOL     OW34072   2.525   0.427  13.817  0.4866  0.1662  0.1733
 7538SOL    HW134073   2.451   0.374  13.786  0.5712 -0.6812  1.4133
 7538SOL    HW234074   2.597   0.365  13.811  0.7375  0.4892 -0.1575
 7539SOL     OW34075   3.121   3.106  14.619 -0.5054 -0.0221 -0.1883
 7539SOL    HW134076   3.050   3.147  14.668 -1.8450 -1.1270 -1.2126
 7539SOL    HW234077   3.190   3.147  14.672 -0.9733 -0.2532  0.5884
 7540SOL     OW34078   0.496   3.429   4.222 -0.1841 -0.3819  0.2314
 7540SOL    HW134079   0.563   3.373   4.182 -0.5829 -0.7029  0.0039
 7540SOL    HW234080   0.411   3.393   4.195  0.6421 -2.2555  0.1194
 7541SOL     OW34081   0.014   3.424   8.822  0.1036  0.4340  0.4326
 7541SOL    HW134082   4.648   3.453   8.841  0.9862  2.7866  0.9314
 7541SOL    HW234083   0.067   3.503   8.822  0.3166  0.2889 -2.6250
 7542SOL     OW34084   0.478   4.403   0.203  0.0993 -0.1048  0.1642
 7542SOL    HW134085   0.477   4.447   0.118 -2.5729 -4.7322 -2.2362
 7542SOL    HW234086   0.500   4.473   0.263 -1.0668  0.4559 -0.0562
 7543SOL     OW34087   3.126   2.004   8.517 -0.1483 -0.0458 -0.8934
 7543SOL    HW134088   3.196   2.063   8.546  0.0983 -0.5199 -0.5182
 7543SOL    HW234089   3.046   2.052   8.538  1.7645  3.2082 -1.0018
 7544SOL     OW34090   1.591   0.205   7.511 -0.5351  0.6264  0.2215
 7544SOL    HW134091   1.509   0.210   7.461 -0.1740  0.0150 -0.4349
 7544SOL    HW234092   1.555   0.193   7.598  0.6576 -1.6504  0.3956
 7545SOL     OW34093   1.772   2.378   8.147  0.0605 -0.5828  0.0066
 7545SOL    HW134094   1.776   2.366   8.052  0.0019  3.8105 -0.5517
 7545SOL    HW234095   1.714   2.307   8.174  0.6928 -1.5521 -1.1929
 7546SOL     OW34096   2.810   4.417   4.927  0.2290  0.0030 -0.3157
 7546SOL    HW134097   2.893   4.377   4.951 -1.3858 -3.5461 -0.6751
 7546SOL    HW234098   2.824   4.504   4.964  0.6679 -0.0788 -0.2884
 7547SOL     OW34099   2.820   1.906  13.414  0.2098 -0.5697  0.3717
 7547SOL    HW134100   2.811   1.911  13.509  0.6913  1.5116  0.3114
 7547SOL    HW234101   2.897   1.956  13.387 -0.8143  0.6213 -0.4013
 7548SOL     OW34102   2.608   1.372   4.472 -0.2552 -1.0269  0.1163
 7548SOL    HW134103   2.619   1.449   4.528 -0.7390 -2.3453  2.0499
 7548SOL    HW234104   2.604   1.298   4.533 -1.8663  1.4810  3.1004
 7549SOL     OW34105   2.580   4.339   7.141  0.1575 -0.5409  0.7503
 7549SOL    HW134106   2.578   4.308   7.232 -2.5780  0.1877  0.9298
 7549SOL    HW234107   2.492   4.318   7.111  0.0170  0.9868  0.1154
 7550SOL     OW34108   0.649   2.219   1.983 -0.2481  0.4812  0.1494
 7550SOL    HW134109   0.742   2.195   1.986  0.0884  1.8407  0.5025
 7550SOL    HW234110   0.648   2.313   1.965 -1.4239  0.3271 -0.6035
 7551SOL     OW34111   3.036   4.440   4.303  0.0536  0.6715 -0.2608
 7551SOL    HW134112   3.005   4.406   4.386  2.8700  0.4794  0.7367
 7551SOL    HW234113   2.984   4.520   4.294 -1.5152 -0.4764 -1.3574
 7552SOL     OW34114   1.033   2.647   4.853 -0.1305  0.2200  0.4274
 7552SOL    HW134115   1.106   2.609   4.803 -0.7611  0.5183 -0.7316
 7552SOL    HW234116   0.972   2.573   4.850  1.8181 -1.3926 -0.0370
 7553SOL     OW34117   3.767   2.650   2.323  0.4047  0.4991  0.0248
 7553SOL    HW134118   3.678   2.679   2.342  0.3704  0.4129 -0.0052
 7553SOL    HW234119   3.772   2.653   2.228  2.6297 -2.3994  0.0406
 7554SOL     OW34120   0.756   1.550   8.541 -0.1623  0.3126 -0.1980
 7554SOL    HW134121   0.805   1.627   8.511 -1.1073  0.9944 -0.0108
 7554SOL    HW234122   0.813   1.478   8.516 -0.6847 -1.3210  3.2959
 7555SOL     OW34123   3.464   2.998   5.622  0.3883  0.1415 -0.6675
 7555SOL    HW134124   3.434   2.914   5.656 -0.6123  0.9497  0.4338
 7555SOL    HW234125   3.530   2.969   5.558  0.2172  3.6256 -2.4474
 7556SOL     OW34126   3.027   4.114   8.217  0.5774  0.3674  0.3310
 7556SOL    HW134127   2.989   4.189   8.262  0.4025  1.6928 -2.0124
 7556SOL    HW234128   3.065   4.059   8.286  0.0488 -2.0516 -1.3179
 7557SOL     OW34129   1.139   4.220   5.382 -0.1505 -0.0049  0.1755
 7557SOL    HW134130   1.066   4.280   5.394 -0.5697 -0.8617  1.9353
 7557SOL    HW234131   1.149   4.192   5.473 -0.5156  0.2515  0.2925
 7558SOL     OW34132   0.311   0.404   5.810  0.1856  0.0278 -0.2270
 7558SOL    HW134133   0.297   0.413   5.716  0.6497 -2.1901 -0.4965
 7558SOL    HW234134   0.268   0.323   5.836 -0.1018 -0.1916 -1.3939
 7559SOL     OW34135   3.662   3.860   7.509  0.5461 -0.2868 -0.4418
 7559SOL    HW134136   3.701   3.830   7.591  0.5550  1.2349  0.0956
 7559SOL    HW234137   3.709   3.805   7.445  2.6608 -0.3766  1.1782
 7560SOL     OW34138   2.494   3.182   8.412  0.7969 -0.4451  0.9091
 7560SOL    HW134139   2.419   3.241   8.413  1.6478  0.6335  2.2513
 7560SOL    HW234140   2.540   3.211   8.491 -0.9552 -0.5389  1.9752
 7561SOL     OW34141   2.141   0.100   2.904  0.6753  0.1618 -0.2745
 7561SOL    HW134142   2.140   0.088   2.999  1.2817 -0.7139 -0.3786
 7561SOL    HW234143   2.144   0.010   2.870  3.6098  0.3740 -0.6413
 7562SOL     OW34144   1.411   3.186  12.771  0.6274  0.2453 -0.1322
 7562SOL    HW134145   1.441   3.276  12.759  0.6599 -0.0103 -1.9947
 7562SOL    HW234146   1.356   3.191  12.849  0.2692 -0.6570 -0.3303
 7563SOL     OW34147   0.682   4.027   4.795 -0.0950  0.1586  0.3895
 7563SOL    HW134148   0.684   4.024   4.700 -1.7451 -3.7090  0.4568
 7563SOL    HW234149   0.594   3.990   4.806 -0.5872  1.9228  2.4259
 7564SOL     OW34150   1.920   1.858  11.118 -0.3310  0.1082  0.3847
 7564SOL    HW134151   1.892   1.800  11.189  0.9012 -0.3353  0.5190
 7564SOL    HW234152   1.911   1.941  11.166 -0.6752 -0.7360  1.7917
 7565SOL     OW34153   3.733   2.420  13.998 -0.0465  0.3476 -0.0763
 7565SOL    HW134154   3.737   2.401  14.092 -1.4816  1.5944  0.2436
 7565SOL    HW234155   3.705   2.511  13.993  0.0173  0.3326 -0.6686
 7566SOL     OW34156   2.224   1.301   8.640 -0.4152 -0.0272 -1.0249
 7566SOL    HW134157   2.226   1.360   8.566 -0.3688  1.4909  0.1900
 7566SOL    HW234158   2.149   1.336   8.689 -0.0704 -0.1326 -0.4232
 7567SOL     OW34159   3.157   3.878   5.523 -0.4126  0.6917  0.4109
 7567SOL    HW134160   3.228   3.838   5.474 -0.8634  2.6610 -1.8329
 7567SOL    HW234161   3.097   3.902   5.452  0.3108 -0.2895 -0.5375
 7568SOL     OW34162   2.995   0.027   2.148  0.0421 -0.3597  0.0058
 7568SOL    HW134163   3.060   4.706   2.092  0.8166  1.0924 -0.2388
 7568SOL    HW234164   3.043   0.104   2.178  1.7346 -0.9118 -1.2568
 7569SOL     OW34165   2.597   1.842  10.672 -0.3929 -0.4369 -0.1980
 7569SOL    HW134166   2.594   1.920  10.617  0.1788 -1.2572 -1.4163
 7569SOL    HW234167   2.687   1.862  10.697 -0.2312 -2.2321  0.6726
 7570SOL     OW34168   3.951   3.226  12.934  0.2229 -0.3737 -0.2094
 7570SOL    HW134169   3.858   3.243  12.925  0.2465 -0.7925 -1.2894
 7570SOL    HW234170   3.972   3.292  12.999 -1.3015 -0.0092 -0.1052
 7571SOL     OW34171   0.051   3.055   8.437 -0.1318  0.4489  0.1138
 7571SOL    HW134172   0.028   3.087   8.524  0.3136 -3.0348  1.5086
 7571SOL    HW234173   0.104   3.130   8.408 -1.1175  2.2399  2.8861
 7572SOL     OW34174   4.377   0.840   6.447 -0.0807 -0.1238  0.1827
 7572SOL    HW134175   4.361   0.753   6.484 -2.0841 -0.3126 -1.1332
 7572SOL    HW234176   4.470   0.856   6.466 -0.1312  1.7815 -1.1643
 7573SOL     OW34177   0.445   0.168   1.211 -0.0026  0.0116  0.6330
 7573SOL    HW134178   0.531   0.180   1.170 -0.3227  0.0301 -0.0369
 7573SOL    HW234179   0.469   0.177   1.303  2.2761 -2.9876  0.3249
 7574SOL     OW34180   3.478   3.721   6.276  0.2920 -0.3576  0.3803
 7574SOL    HW134181   3.568   3.754   6.268 -0.1775  0.3406 -2.0116
 7574SOL    HW234182   3.439   3.779   6.211 -0.1804  0.2512  1.2080
 7575SOL     OW34183   3.649   4.102  14.000  0.1546 -0.5147 -0.3261
 7575SOL    HW134184   3.677   4.103  13.908 -0.5997 -0.5082 -0.5583
 7575SOL    HW234185   3.565   4.148  13.989 -0.8663 -1.8820  1.8213
 7576SOL     OW34186   2.760   2.093   9.775 -0.5181  0.4628 -0.2565
 7576SOL    HW134187   2.683   2.137   9.809 -1.3258  0.6254 -2.3182
 7576SOL    HW234188   2.773   2.129   9.688 -1.1880 -1.8453 -1.3208
 7577SOL     OW34189   1.582   3.459   5.151  0.2764 -0.6356  0.1539
 7577SOL    HW134190   1.501   3.418   5.121 -0.9224  1.6363  0.2767
 7577SOL    HW234191   1.564   3.544   5.113 -0.5874 -0.0095  1.9401
 7578SOL     OW34192   4.356   2.070   8.193 -0.2536 -0.0136  0.7733
 7578SOL    HW134193   4.433   2.027   8.230 -0.1745 -1.5915 -1.2362
 7578SOL    HW234194   4.286   2.055   8.257 -0.4465 -0.4865  0.4521
 7579SOL     OW34195   3.267   3.715   1.034 -0.4647  0.5008 -0.6469
 7579SOL    HW134196   3.255   3.810   1.035 -1.9847  0.2736  2.5557
 7579SOL    HW234197   3.327   3.703   0.960  2.0359 -0.5732  1.5583
 7580SOL     OW34198   2.805   3.505   0.022 -0.0180  0.3294  0.0101
 7580SOL    HW134199   2.739   3.543   0.079 -0.3846 -1.1337  0.5553
 7580SOL    HW234200   2.756   3.499  17.634 -3.3290  2.4616  1.8577
 7581SOL     OW34201   3.060   4.320   4.556 -0.1776 -0.0103 -0.4946
 7581SOL    HW134202   3.036   4.255   4.623  0.1147  0.8692  0.4504
 7581SOL    HW234203   3.093   4.387   4.615  0.6964 -2.4299  1.7719
 7582SOL     OW34204   1.227   3.618   3.617 -0.0290  0.2607  0.6127
 7582SOL    HW134205   1.181   3.698   3.592  0.8564 -0.6408 -4.0545
 7582SOL    HW234206   1.241   3.567   3.537 -1.6357  0.5861  0.1173
 7583SOL     OW34207   3.418   1.004  13.599 -0.2606 -0.2327 -0.3621
 7583SOL    HW134208   3.460   1.089  13.612 -1.7713  0.5006 -0.3329
 7583SOL    HW234209   3.485   0.948  13.558  1.3386  1.3189  0.1278
 7584SOL     OW34210   3.498   0.852   8.958  0.1935  0.0897 -0.1366
 7584SOL    HW134211   3.461   0.765   8.940 -0.6305  0.3444  0.3237
 7584SOL    HW234212   3.531   0.832   9.046  0.4937 -1.7478 -0.6636
 7585SOL     OW34213   0.963   4.530   0.011 -0.1255 -0.2028  0.5346
 7585SOL    HW134214   0.974   4.577  17.623 -0.5025 -1.9851 -0.5407
 7585SOL    HW234215   1.028   4.559   0.074  1.1011 -0.2145 -0.7257
 7586SOL     OW34216   3.340   2.020   3.370 -0.0463  0.0400 -0.4653
 7586SOL    HW134217   3.389   1.986   3.295  1.6498  0.6745  0.3551
 7586SOL    HW234218   3.307   2.104   3.338  1.1152  1.5402  2.3136
 7587SOL     OW34219   2.535   3.249  10.053  0.3462  0.4421 -0.0308
 7587SOL    HW134220   2.557   3.182   9.989 -0.1811  1.0230 -0.8265
 7587SOL    HW234221   2.610   3.308  10.046  0.7153 -0.1783 -1.2879
 7588SOL     OW34222   3.049   3.907   7.767 -0.7061  0.0273  0.2694
 7588SOL    HW134223   3.011   3.907   7.854 -0.5451  0.3012  0.3389
 7588SOL    HW234224   3.143   3.908   7.785 -0.9992 -1.0747  1.7823
 7589SOL     OW34225   4.319   0.459   5.283  0.0159 -0.3105  0.6977
 7589SOL    HW134226   4.276   0.525   5.337  1.8939 -0.0596  1.8690
 7589SOL    HW234227   4.336   0.394   5.352 -0.8187 -1.2610  0.0089
 7590SOL     OW34228   4.206   3.481   6.876 -0.2685 -0.4956  0.7282
 7590SOL    HW134229   4.115   3.503   6.852  1.6885  5.0397 -1.7953
 7590SOL    HW234230   4.193   3.429   6.955 -0.9146 -0.1220  0.8760
 7591SOL     OW34231   1.350   0.283   6.959 -0.2729 -0.0140  0.5651
 7591SOL    HW134232   1.290   0.358   6.952 -1.1358 -0.5368  2.2435
 7591SOL    HW234233   1.329   0.233   6.881  0.5969 -0.9623  0.9497
 7592SOL     OW34234   1.803   2.271  10.174 -0.3493 -0.1836  0.0418
 7592SOL    HW134235   1.817   2.250  10.082  1.0357 -2.6293  0.8138
 7592SOL    HW234236   1.809   2.179  10.201  2.1554  0.4013  1.4727
 7593SOL     OW34237   1.300   3.121   9.223  0.5785 -0.1055 -0.2135
 7593SOL    HW134238   1.361   3.060   9.264 -2.2071 -2.5446  0.3201
 7593SOL    HW234239   1.250   3.060   9.169 -0.3462  1.4126 -1.0491
 7594SOL     OW34240   1.411   3.451   3.056  0.4395  0.0504  0.5068
 7594SOL    HW134241   1.465   3.529   3.064 -2.1178  1.8644 -0.0904
 7594SOL    HW234242   1.455   3.393   3.119  2.4872  0.2404 -0.7479
 7595SOL     OW34243   0.400   2.534   1.709 -0.1636  0.2451  0.4204
 7595SOL    HW134244   0.339   2.477   1.662  0.2787 -0.7334  1.0491
 7595SOL    HW234245   0.475   2.548   1.652 -1.3926  0.9587 -1.0197
 7596SOL     OW34246   2.103   1.707   9.062  0.0659  0.4702  0.9547
 7596SOL    HW134247   2.172   1.730   9.124  1.6068  2.8236 -1.6315
 7596SOL    HW234248   2.141   1.637   9.009 -0.9554 -0.2363  1.1594
 7597SOL     OW34249   3.730   0.894   6.473  0.4631  0.3592  0.1843
 7597SOL    HW134250   3.714   0.937   6.390 -0.5730  0.2952  0.3483
 7597SOL    HW234251   3.691   0.965   6.525 -0.2825 -0.4440  0.7313
 7598SOL     OW34252   3.494   2.906   7.717  0.5200 -0.2805  0.3306
 7598SOL    HW134253   3.557   2.834   7.714  0.0006 -0.7999  1.5693
 7598SOL    HW234254   3.559   2.971   7.741  1.6494 -1.4636  0.4937
 7599SOL     OW34255   0.114   0.397   0.234  0.0598 -0.4219 -0.4244
 7599SOL    HW134256   0.161   0.314   0.232 -0.1095 -0.5080 -1.0727
 7599SOL    HW234257   0.037   0.365   0.185  0.4162 -0.2697 -1.0859
 7600SOL     OW34258   2.760   1.654  13.009 -0.3284  0.0169 -0.6242
 7600SOL    HW134259   2.752   1.728  12.948 -1.7913 -0.5641 -1.1351
 7600SOL    HW234260   2.821   1.696  13.069  1.7269 -1.6000 -1.6045
 7601SOL     OW34261   4.471   4.355   5.674 -0.0737  0.4885  0.1056
 7601SOL    HW134262   4.405   4.361   5.743 -0.0578 -0.3758  0.1951
 7601SOL    HW234263   4.461   4.263   5.650  1.8344  0.4280 -0.4105
 7602SOL     OW34264   1.964   0.629   3.465 -0.3478 -0.1371  0.5524
 7602SOL    HW134265   2.046   0.582   3.452  0.3808  0.2170  4.0309
 7602SOL    HW234266   1.898   0.560   3.455 -1.3260  1.0068 -0.9711
 7603SOL     OW34267   3.566   4.157   5.231  0.0649  0.4204 -0.1500
 7603SOL    HW134268   3.534   4.190   5.315 -1.1956  3.3293 -1.7779
 7603SOL    HW234269   3.660   4.164   5.247 -0.0685 -2.9548  2.1369
 7604SOL     OW34270   3.037   2.025  17.679 -0.3082  0.3729  0.5668
 7604SOL    HW134271   3.079   2.102  17.641 -2.0380  0.7612 -0.5699
 7604SOL    HW234272   3.097   1.969   0.033  1.7297  2.2295  0.1716
 7605SOL     OW34273   0.659   4.072   3.924 -0.3225  0.0258 -0.0122
 7605SOL    HW134274   0.629   4.153   3.883  3.1321  0.2396 -2.0714
 7605SOL    HW234275   0.753   4.087   3.932 -0.5873  1.4623  0.3539
 7606SOL     OW34276   2.028   4.524   0.441  0.1348 -0.0825  0.0844
 7606SOL    HW134277   1.959   4.462   0.466  0.3477 -0.5687 -0.5266
 7606SOL    HW234278   2.022   4.595   0.505 -0.4055  1.0697 -1.2228
 7607SOL     OW34279   2.967   3.470   1.464  0.0445 -0.7798  0.7052
 7607SOL    HW134280   2.970   3.462   1.559 -0.6154 -1.9551  0.6230
 7607SOL    HW234281   3.054   3.506   1.443  0.1019 -2.1798 -1.3863
 7608SOL     OW34282   3.850   4.287   7.307  0.0593  0.3399  0.8823
 7608SOL    HW134283   3.859   4.313   7.399 -0.2897 -0.5227  1.1561
 7608SOL    HW234284   3.797   4.356   7.268  1.3165 -0.1928 -1.7396
 7609SOL     OW34285   3.385   2.984   7.188  0.0741 -0.6154 -0.1381
 7609SOL    HW134286   3.402   3.057   7.248  1.6079  0.0423 -1.3826
 7609SOL    HW234287   3.341   2.916   7.240  1.4797 -2.8591 -1.8970
 7610SOL     OW34288   3.558   2.113   9.226 -0.3165 -0.1160 -0.1906
 7610SOL    HW134289   3.613   2.143   9.153 -0.0981 -1.0647 -0.4232
 7610SOL    HW234290   3.612   2.138   9.301 -0.1760  1.8905 -0.9791
 7611SOL     OW34291   3.550   2.842   6.545 -0.3872 -0.1659 -0.4338
 7611SOL    HW134292   3.611   2.880   6.608  0.8636 -0.4504 -1.4559
 7611SOL    HW234293   3.618   2.790   6.501  0.6537  0.1473  0.8252
 7612SOL     OW34294   2.281   1.099  11.752 -0.4894 -0.3744 -0.2486
 7612SOL    HW134295   2.289   1.192  11.773  0.8267 -0.7859  1.0531
 7612SOL    HW234296   2.355   1.061  11.799 -1.3522 -0.1253  1.2959
 7613SOL     OW34297   2.297   2.000   8.123 -0.1451  0.0194  0.2714
 7613SOL    HW134298   2.250   1.923   8.090  1.5031 -0.3287 -1.2448
 7613SOL    HW234299   2.286   1.989   8.217  0.7194  0.8178  0.4536
 7614SOL     OW34300   3.997   0.906   8.666  0.0230  0.6310 -0.1867
 7614SOL    HW134301   3.983   1.000   8.668 -2.7759  0.2083 -0.7068
 7614SOL    HW234302   3.928   0.870   8.722 -0.2900 -2.0580 -2.2809
 7615SOL     OW34303   2.017   2.263   7.965  0.0456 -0.3863  0.3773
 7615SOL    HW134304   2.071   2.285   8.041 -1.7039  0.5337  1.3557
 7615SOL    HW234305   2.026   2.169   7.954  0.4341 -0.0031 -2.4430
 7616SOL     OW34306   4.227   1.670   5.748 -0.0319  0.2884 -0.0040
 7616SOL    HW134307   4.315   1.676   5.711 -0.1372  0.1289 -0.2741
 7616SOL    HW234308   4.204   1.762   5.761  0.8454  0.3384  1.3022
 7617SOL     OW34309   3.370   3.011   6.903  0.1411 -0.9064 -0.0826
 7617SOL    HW134310   3.368   3.013   6.998 -2.0711 -0.2336 -0.1477
 7617SOL    HW234311   3.460   3.030   6.879 -0.7424  1.6206 -1.3474
 7618SOL     OW34312   0.266   2.079  14.919  0.5823 -1.0353 -0.7672
 7618SOL    HW134313   0.305   2.037  14.995  0.5575 -1.5893 -1.0582
 7618SOL    HW234314   0.262   2.009  14.854 -1.4688 -1.2865 -0.3604
 7619SOL     OW34315   0.968   0.046   3.645 -0.0944 -0.1777  0.1577
 7619SOL    HW134316   1.010   4.703   3.699 -0.4537 -1.0463 -0.6161
 7619SOL    HW234317   1.004   0.129   3.675 -1.9286  0.2965  1.0105
 7620SOL     OW34318   3.019   0.518   6.196  0.1912 -0.4230 -0.1142
 7620SOL    HW134319   3.049   0.535   6.107  4.0292  1.0227  1.4713
 7620SOL    HW234320   3.093   0.496   6.253 -0.1774  0.1130  0.5787
 7621SOL     OW34321   0.490   4.350   9.644  0.2254 -0.6535 -0.5092
 7621SOL    HW134322   0.540   4.268   9.639  1.7001  0.2359 -0.3642
 7621SOL    HW234323   0.400   4.320   9.632 -0.0664 -0.0858  0.3281
 7622SOL     OW34324   2.686   1.288   7.548 -0.2835 -0.1266 -0.3308
 7622SOL    HW134325   2.740   1.323   7.478  0.1508 -0.5243 -0.1954
 7622SOL    HW234326   2.603   1.335   7.544 -0.1107  0.3294  1.5323
 7623SOL     OW34327   2.846   0.887   4.446 -0.2715  0.3711  0.1176
 7623SOL    HW134328   2.870   0.809   4.496  1.1286  1.1055  0.5816
 7623SOL    HW234329   2.797   0.845   4.375 -0.8000  1.4685 -0.1781
 7624SOL     OW34330   1.294   2.888  16.179 -0.1771 -0.5415 -0.0539
 7624SOL    HW134331   1.212   2.930  16.204 -1.9483 -3.0093 -1.7673
 7624SOL    HW234332   1.346   2.966  16.159 -0.6070 -0.3776 -0.5424
 7625SOL     OW34333   1.370   2.462  14.178  0.4496 -0.2602  0.0866
 7625SOL    HW134334   1.392   2.517  14.102 -1.2758  0.9309  0.4716
 7625SOL    HW234335   1.291   2.428  14.135  0.0973  1.0199 -0.2824
 7626SOL     OW34336   3.666   2.040   0.505 -0.0861 -0.0701  0.4135
 7626SOL    HW134337   3.647   2.119   0.554  1.3994  0.0120  0.8457
 7626SOL    HW234338   3.578   2.004   0.511  0.3673 -1.5254 -1.4224
 7627SOL     OW34339   0.964   2.283   5.051  0.4118  0.4612 -0.3485
 7627SOL    HW134340   1.008   2.355   5.098 -0.5084 -0.2828  1.6466
 7627SOL    HW234341   0.900   2.255   5.116 -1.3079 -0.0899 -2.2721
 7628SOL     OW34342   3.154   1.074   0.852  0.5864  0.1210 -0.4196
 7628SOL    HW134343   3.129   0.988   0.886 -0.4512  0.0878 -1.2554
 7628SOL    HW234344   3.112   1.081   0.766  1.3541 -0.7507 -0.8552
 7629SOL     OW34345   4.214   0.138  15.416  0.0637  0.1308 -0.2387
 7629SOL    HW134346   4.172   0.221  15.435  1.3709  0.7906 -0.1959
 7629SOL    HW234347   4.258   0.123  15.500  0.7357  0.1183 -0.5899
 7630SOL     OW34348   4.415   2.882   8.348  0.2630  0.1477  0.5599
 7630SOL    HW134349   4.359   2.812   8.316 -0.7443  0.9719  0.4820
 7630SOL    HW234350   4.384   2.958   8.298  1.5289  0.7510  0.6801
 7631SOL     OW34351   1.494   1.523   1.499 -0.0385  0.1089  0.2459
 7631SOL    HW134352   1.522   1.522   1.591  1.5471 -0.9393 -0.2597
 7631SOL    HW234353   1.398   1.529   1.498 -0.2344 -2.4823  1.6102
 7632SOL     OW34354   0.647   0.184   5.673  0.3400  0.8713 -0.2183
 7632SOL    HW134355   0.562   0.192   5.630 -0.2991 -0.1804  0.8436
 7632SOL    HW234356   0.647   0.262   5.729  1.1655 -0.0180  1.0292
 7633SOL     OW34357   1.165   0.142  17.093 -0.0684 -0.1251  0.6275
 7633SOL    HW134358   1.131   0.097  17.015  0.7202 -0.3262  0.4048
 7633SOL    HW234359   1.227   0.071  17.107  0.0702  0.2318  1.7912
 7634SOL     OW34360   0.631   1.110   6.080 -0.1683  0.0085 -0.0368
 7634SOL    HW134361   0.585   1.185   6.043 -2.4411  0.1572  3.1367
 7634SOL    HW234362   0.635   1.047   6.008 -0.4699  0.2506 -0.2612
 7635SOL     OW34363   3.361   0.533  12.658  0.3003  0.3793  0.2165
 7635SOL    HW134364   3.424   0.512  12.727  0.1595 -0.6799  0.0241
 7635SOL    HW234365   3.280   0.554  12.706 -0.0784 -1.0013  0.1721
 7636SOL     OW34366   4.679   2.961   8.198 -0.2174 -0.9929  0.3793
 7636SOL    HW134367   4.722   2.989   8.279  0.0543 -0.5920  0.0934
 7636SOL    HW234368   4.592   2.936   8.230 -0.4347  2.1445  2.1890
 7637SOL     OW34369   0.401   3.688   8.311  0.4705  0.1566  0.6693
 7637SOL    HW134370   0.438   3.652   8.230 -0.3453  0.2312  0.2556
 7637SOL    HW234371   0.462   3.758   8.332 -0.5442  1.6907 -1.4890
 7638SOL     OW34372   0.107   0.188  12.638 -0.4279 -0.5483 -0.3965
 7638SOL    HW134373   0.120   0.150  12.725 -0.5752  0.6985  0.1825
 7638SOL    HW234374   0.161   0.136  12.580 -0.4833 -0.3758 -0.6046
 7639SOL     OW34375   1.188   4.320   4.833  0.0408 -0.2185 -0.0354
 7639SOL    HW134376   1.242   4.268   4.773 -1.8340  0.8584 -2.6620
 7639SOL    HW234377   1.202   4.270   4.913 -1.5051  0.4019  0.6047
 7640SOL     OW34378   3.747   1.013  10.498  0.2892  0.0936  0.2386
 7640SOL    HW134379   3.829   1.062  10.494  0.8789 -0.9182 -0.0669
 7640SOL    HW234380   3.680   1.064  10.452  0.9340 -1.5326 -2.5075
 7641SOL     OW34381   4.160   1.874   9.431  0.3778  0.0966  0.1906
 7641SOL    HW134382   4.112   1.904   9.354  1.3362 -1.8090 -1.1509
 7641SOL    HW234383   4.171   1.960   9.473  0.0205 -1.5038  3.6078
 7642SOL     OW34384   2.022   1.584   7.586  0.0283 -0.4334 -0.1676
 7642SOL    HW134385   2.075   1.513   7.548 -0.3444 -1.4188  1.1947
 7642SOL    HW234386   2.048   1.577   7.677  0.4432 -2.3783 -0.4436
 7643SOL     OW34387   4.047   0.796   2.572  0.4064 -0.2292 -0.2283
 7643SOL    HW134388   4.135   0.834   2.570 -0.5079  1.8939  0.1442
 7643SOL    HW234389   4.076   0.717   2.527  2.0141  0.8686 -1.1341
 7644SOL     OW34390   4.015   1.207   7.440 -0.1530  0.0922  0.5606
 7644SOL    HW134391   3.958   1.202   7.363  0.1191 -0.2797  0.3871
 7644SOL    HW234392   3.988   1.139   7.503  0.5985 -0.5797  0.1524
 7645SOL     OW34393   4.038   2.265  14.162 -0.5241  0.0745  0.3539
 7645SOL    HW134394   4.019   2.254  14.256  0.0136 -0.1400  0.4393
 7645SOL    HW234395   4.030   2.356  14.133 -0.8311  0.2524  0.9893
 7646SOL     OW34396   2.345   3.975  10.445 -0.5472  0.5673  0.7399
 7646SOL    HW134397   2.272   3.946  10.390 -0.0502 -2.0171  1.4387
 7646SOL    HW234398   2.422   3.989  10.390  0.7240 -2.2509  1.7461
 7647SOL     OW34399   0.527   2.510   6.182 -0.8354  0.4015 -0.4652
 7647SOL    HW134400   0.447   2.544   6.223 -0.9495 -1.8205  1.1247
 7647SOL    HW234401   0.488   2.464   6.108  0.3787  0.2892 -1.0265
 7648SOL     OW34402   1.843   4.226   7.671 -0.2846  0.2694 -0.2422
 7648SOL    HW134403   1.784   4.151   7.669 -0.8142  0.6497  0.9708
 7648SOL    HW234404   1.858   4.235   7.765 -2.0052 -0.7242  0.1234
 7649SOL     OW34405   4.112   2.805  13.885  0.1639 -0.4517  0.0823
 7649SOL    HW134406   4.025   2.794  13.847  0.3193 -2.6198  0.3834
 7649SOL    HW234407   4.142   2.863  13.815 -3.0173 -1.2451 -1.9286
 7650SOL     OW34408   2.043   4.568  17.559 -0.4724  0.2037 -0.4086
 7650SOL    HW134409   2.008   4.516  17.487  0.5850 -2.6054  1.1171
 7650SOL    HW234410   2.076   4.495  17.611 -0.1539  3.5737  4.1097
 7651SOL     OW34411   0.846   1.937   2.626 -0.1367 -0.0874  0.6203
 7651SOL    HW134412   0.862   2.019   2.579 -1.2947 -1.1364 -1.6143
 7651SOL    HW234413   0.881   1.876   2.561 -0.8332 -2.2002  2.2327
 7652SOL     OW34414   0.322   4.689   0.502  0.9465  0.0203  0.4565
 7652SOL    HW134415   0.298   4.598   0.521  1.3442  0.0867  1.3160
 7652SOL    HW234416   0.296   0.014   0.581 -0.9899 -2.8168  1.5446
 7653SOL     OW34417   3.377   3.990   6.912  0.2133 -0.0049  0.7548
 7653SOL    HW134418   3.437   4.054   6.873  1.3691 -0.9208  1.0630
 7653SOL    HW234419   3.376   3.918   6.849 -0.5089  0.0676  0.6758
 7654SOL     OW34420   0.915   1.234   6.069 -0.6137  0.0367 -0.2814
 7654SOL    HW134421   0.895   1.304   6.132 -2.0400 -0.3817 -0.2702
 7654SOL    HW234422   0.834   1.198   6.034 -0.5600 -0.0983 -0.2637
 7655SOL     OW34423   1.845   0.444   0.266 -0.3466 -0.6096  0.0145
 7655SOL    HW134424   1.861   0.357   0.231 -0.5981 -0.8753  0.5640
 7655SOL    HW234425   1.926   0.487   0.239 -0.2615 -0.8535 -0.1184
 7656SOL     OW34426   2.008   0.302   2.773 -0.3007  0.0514  0.2027
 7656SOL    HW134427   1.926   0.276   2.731  0.6475  0.9258 -2.2111
 7656SOL    HW234428   2.044   0.223   2.814 -0.8781 -0.2007  0.2236
 7657SOL     OW34429   2.800   1.409   0.474  0.0477 -0.3766 -0.2169
 7657SOL    HW134430   2.808   1.496   0.513 -2.2256 -0.8457  1.2878
 7657SOL    HW234431   2.792   1.351   0.550  1.4163  0.0065  0.2195
 7658SOL     OW34432   4.228   4.376  15.905  0.7357  0.1605  0.0281
 7658SOL    HW134433   4.269   4.290  15.911 -1.7723 -1.1120 -0.7972
 7658SOL    HW234434   4.294   4.433  15.867  1.4151 -1.2860 -0.9587
 7659SOL     OW34435   4.594   1.960   2.203 -0.6698 -0.5657  0.6306
 7659SOL    HW134436   4.519   2.018   2.191  0.3122  0.6338  0.3003
 7659SOL    HW234437   4.650   1.963   2.125 -0.6447  0.4533  0.6811
 7660SOL     OW34438   2.644   0.393  13.113 -0.1611  0.0880  0.1245
 7660SOL    HW134439   2.641   0.477  13.158  1.1969  0.5258 -0.5973
 7660SOL    HW234440   2.669   0.334  13.185 -0.9072 -1.8546 -1.2061
 7661SOL     OW34441   1.127   1.467   6.019  0.3543 -0.2300  0.0480
 7661SOL    HW134442   1.185   1.544   6.019 -0.9488  0.7667 -1.7027
 7661SOL    HW234443   1.166   1.410   6.085  0.6890  0.5416  0.5229
 7662SOL     OW34444   1.449   0.635   5.006  0.3431  0.2565  0.7741
 7662SOL    HW134445   1.473   0.726   5.022  1.3101  0.1642 -0.1662
 7662SOL    HW234446   1.510   0.603   5.073  0.1640 -0.3095  0.6682
 7663SOL     OW34447   3.545   2.973  13.188 -0.0698  0.2143 -0.5246
 7663SOL    HW134448   3.556   2.882  13.213  1.5752 -0.3259 -3.1353
 7663SOL    HW234449   3.451   2.987  13.197 -0.0909 -1.6266  1.9449
 7664SOL     OW34450   1.135   3.237   0.759  0.3829 -0.6100 -0.2376
 7664SOL    HW134451   1.230   3.246   0.748  0.2443  1.8510  0.5623
 7664SOL    HW234452   1.113   3.275   0.674 -2.2048  0.2116  0.7964
 7665SOL     OW34453   4.445   2.837  16.721  0.3814  0.2550 -0.3449
 7665SOL    HW134454   4.436   2.744  16.743 -0.1005  0.7936  1.7838
 7665SOL    HW234455   4.363   2.867  16.683 -1.0575 -2.5940  0.4914
 7666SOL     OW34456   0.964   4.344   6.632 -0.3865 -0.0638  0.0520
 7666SOL    HW134457   1.012   4.330   6.550  0.2672  1.2733  0.2137
 7666SOL    HW234458   0.912   4.265   6.647 -0.6779  0.3646  1.3106
 7667SOL     OW34459   2.440   1.279   7.187 -0.1739  0.3199  0.0388
 7667SOL    HW134460   2.403   1.274   7.099 -0.7634  1.6481  0.2189
 7667SOL    HW234461   2.373   1.329   7.233 -0.1672 -0.5364  0.9860
 7668SOL     OW34462   2.178   2.023  13.228  0.0833 -0.2584 -0.3539
 7668SOL    HW134463   2.225   2.051  13.150 -2.5305  0.1542 -1.7556
 7668SOL    HW234464   2.236   1.959  13.269  0.1062  0.3367  0.5615
 7669SOL     OW34465   0.153   1.998   3.183  0.1438  0.1024 -0.0625
 7669SOL    HW134466   0.227   1.965   3.234 -0.4690 -2.1829 -0.6506
 7669SOL    HW234467   0.137   2.081   3.227  0.3619 -0.3289  0.8244
 7670SOL     OW34468   4.218   4.302   2.508  0.2973 -0.0959  0.5147
 7670SOL    HW134469   4.239   4.307   2.415  1.5628 -0.1971  0.7936
 7670SOL    HW234470   4.128   4.325   2.529  0.4907  0.8566  0.3217
 7671SOL     OW34471   0.540   1.952   5.493 -0.2619 -0.3073  0.0685
 7671SOL    HW134472   0.546   2.042   5.526 -0.0033 -1.0482  2.0571
 7671SOL    HW234473   0.605   1.912   5.550  0.2273 -1.5466 -1.3765
 7672SOL     OW34474   4.670   4.634   3.827 -0.3179 -0.4362 -0.1455
 7672SOL    HW134475   4.722   4.713   3.846 -1.6072  0.2282  0.5588
 7672SOL    HW234476   0.005   4.596   3.761  1.2842 -1.3539  1.8059
 7673SOL     OW34477   1.573   4.100   2.808  0.0513  0.2381  0.4011
 7673SOL    HW134478   1.603   4.014   2.779 -1.6763 -0.2695  0.1196
 7673SOL    HW234479   1.480   4.090   2.788  0.1020  0.1079  0.2269
 7674SOL     OW34480   0.104   2.148   2.716  0.5472  0.4453 -0.2023
 7674SOL    HW134481   0.185   2.099   2.700  1.5880  2.2555 -0.5035
 7674SOL    HW234482   0.099   2.186   2.628  2.0164  0.2710 -0.3672
 7675SOL     OW34483   0.952   4.157  14.615  0.3082  0.0829  0.0263
 7675SOL    HW134484   0.904   4.126  14.538  0.3128 -0.0073  0.0597
 7675SOL    HW234485   0.915   4.244  14.630 -0.6983 -0.1306 -1.2278
 7676SOL     OW34486   2.330   1.656  17.692  0.3869 -0.0013  0.2918
 7676SOL    HW134487   2.280   1.586  17.650  0.5712 -0.5520  0.9919
 7676SOL    HW234488   2.257   1.697   0.045 -0.6293  0.3814 -1.6176
 7677SOL     OW34489   3.816   3.083   6.049  0.1876  0.8691  0.1980
 7677SOL    HW134490   3.804   2.999   6.005 -1.6399  0.6544  1.1030
 7677SOL    HW234491   3.726   3.115   6.054  0.6773  2.2232  0.2280
 7678SOL     OW34492   4.599   2.833   6.040  0.8429  0.2875  0.1626
 7678SOL    HW134493   4.638   2.803   6.122  0.2314  0.6276  0.5743
 7678SOL    HW234494   4.653   2.909   6.019  0.9551  0.3489  0.6749
 7679SOL     OW34495   3.095   0.815   6.421  0.4864  0.0190  0.0494
 7679SOL    HW134496   3.135   0.878   6.480  0.4990 -1.2999  1.4432
 7679SOL    HW234497   3.044   0.760   6.481 -0.7023 -0.6916 -1.5915
 7680SOL     OW34498   4.173   2.710   6.166  0.0138 -0.9308  0.0693
 7680SOL    HW134499   4.099   2.754   6.207  1.5022  2.0764 -0.4727
 7680SOL    HW234500   4.212   2.785   6.121 -0.1646 -1.5308 -1.0916
 7681SOL     OW34501   0.784   3.091   3.271  0.2410 -0.2212  0.4280
 7681SOL    HW134502   0.719   3.035   3.230  2.1625 -1.3509 -1.0456
 7681SOL    HW234503   0.760   3.177   3.235 -2.2907 -0.5689  1.3127
 7682SOL     OW34504   1.647   4.571   3.676 -0.4232 -0.4063 -0.2393
 7682SOL    HW134505   1.735   4.600   3.653 -1.4431  3.1174  0.3625
 7682SOL    HW234506   1.622   4.647   3.727 -2.7162 -0.3109 -1.5063
 7683SOL     OW34507   0.890   3.619   2.897 -0.5488  0.1525  0.3009
 7683SOL    HW134508   0.923   3.661   2.817 -1.1469  1.1825  0.6008
 7683SOL    HW234509   0.974   3.590   2.933 -1.9815 -1.7190  2.1445
 7684SOL     OW34510   2.127   0.500  14.068 -0.5213  0.1024 -0.7939
 7684SOL    HW134511   2.219   0.476  14.078  0.3221  3.2887 -0.7061
 7684SOL    HW234512   2.085   0.463  14.145 -3.0532  0.1276 -2.1795
 7685SOL     OW34513   2.512   3.032   5.968  0.3429  0.2282 -0.2867
 7685SOL    HW134514   2.526   3.036   6.063 -2.8547  3.1508  0.0684
 7685SOL    HW234515   2.530   3.121   5.939  2.9761 -0.2690 -0.1694
 7686SOL     OW34516   1.876   4.186   3.864 -0.4676 -0.8585 -0.5857
 7686SOL    HW134517   1.917   4.242   3.798  1.2894  0.1242  1.3426
 7686SOL    HW234518   1.909   4.226   3.945 -0.7808 -1.2589 -0.2570
 7687SOL     OW34519   1.776   0.119   2.739  0.3422 -0.0554  0.1300
 7687SOL    HW134520   1.735   0.143   2.822  1.2353  1.7524  0.0606
 7687SOL    HW234521   1.786   0.025   2.754  1.5479 -0.7829 -4.8963
 7688SOL     OW34522   0.767   0.408   8.492  0.3480 -0.2383  0.0789
 7688SOL    HW134523   0.830   0.469   8.453 -1.1610  0.7436 -0.8139
 7688SOL    HW234524   0.704   0.468   8.532  0.8391 -1.4737  2.6473
 7689SOL     OW34525   1.698   3.991   6.921  0.4219  0.1257  0.8499
 7689SOL    HW134526   1.744   4.052   6.978  4.0555  0.1152 -1.9915
 7689SOL    HW234527   1.614   3.982   6.966 -0.3349  1.5731 -0.3061
 7690SOL     OW34528   3.693   1.100   6.679 -0.2660 -0.8439 -0.2488
 7690SOL    HW134529   3.714   1.030   6.742  0.3127 -0.4949 -0.0482
 7690SOL    HW234530   3.783   1.117   6.650  0.4074 -0.3982  2.0881
 7691SOL     OW34531   2.731   3.220   5.978 -0.3304 -0.5565  0.4406
 7691SOL    HW134532   2.779   3.177   6.049 -0.0183  1.3630  1.4072
 7691SOL    HW234533   2.802   3.274   5.943 -0.7254  1.0445  2.0922
 7692SOL     OW34534   0.297   4.447   0.622  0.4425  0.0940 -0.4886
 7692SOL    HW134535   0.391   4.430   0.629  0.3620 -0.6336 -1.1612
 7692SOL    HW234536   0.266   4.428   0.711  0.5208  1.2653 -0.2119
 7693SOL     OW34537   3.408   2.153   1.678 -0.3063  0.3224  0.3170
 7693SOL    HW134538   3.346   2.143   1.750 -0.5746  0.4282  0.1027
 7693SOL    HW234539   3.485   2.183   1.726 -0.0191  0.0349  0.0299
 7694SOL     OW34540   3.455   2.100   9.581 -0.3432 -0.3106  1.1531
 7694SOL    HW134541   3.416   2.019   9.614 -1.6123  0.0373  0.4919
 7694SOL    HW234542   3.383   2.162   9.591  0.8124  0.8478  2.2224
 7695SOL     OW34543   2.142   4.456   3.754 -0.5533 -0.2300 -0.3946
 7695SOL    HW134544   2.147   4.465   3.659 -0.7464 -3.7989 -0.7406
 7695SOL    HW234545   2.125   4.544   3.787  1.0168 -0.1673  0.2396
 7696SOL     OW34546   1.768   3.518   7.588  0.7461  0.2329  0.2588
 7696SOL    HW134547   1.789   3.582   7.520 -1.7768 -0.0063 -0.7457
 7696SOL    HW234548   1.802   3.447   7.532 -0.8753 -0.2342 -0.1426
 7697SOL     OW34549   3.965   2.120   3.184  0.4491  0.1922 -0.2037
 7697SOL    HW134550   4.032   2.126   3.116  0.2956  2.0085 -0.1934
 7697SOL    HW234551   3.881   2.136   3.142 -0.0887 -0.9602  0.4330
 7698SOL     OW34552   2.482   2.633   8.736 -0.5635  0.0530  0.3166
 7698SOL    HW134553   2.430   2.662   8.811 -0.3250  2.2687 -0.3723
 7698SOL    HW234554   2.537   2.563   8.771 -1.0980  0.6183  2.2713
 7699SOL     OW34555   2.257   4.560  12.538  0.2964 -0.0497 -0.2548
 7699SOL    HW134556   2.204   4.480  12.539 -1.1925  0.9270  0.5952
 7699SOL    HW234557   2.318   4.553  12.612 -1.8754  1.0198  1.6582
 7700SOL     OW34558   0.453   4.106   0.599 -0.0787  0.0869  0.2211
 7700SOL    HW134559   0.501   4.143   0.674 -0.4826 -4.5855  2.7943
 7700SOL    HW234560   0.529   4.065   0.559 -0.0339  0.3402  0.0458
 7701SOL     OW34561   3.366   3.310   5.467 -0.4054 -0.2270  0.0207
 7701SOL    HW134562   3.415   3.374   5.416 -0.7383  0.0540  0.0522
 7701SOL    HW234563   3.313   3.367   5.524 -1.5238 -2.1952  0.9432
 7702SOL     OW34564   0.020   0.640   9.458  0.3957  0.2194 -0.1011
 7702SOL    HW134565   0.116   0.634   9.455  0.3512  1.1881 -2.8179
 7702SOL    HW234566   0.003   0.717   9.404  1.3619  0.7399  0.3452
 7703SOL     OW34567   1.751   0.442   5.549 -0.5073 -0.6570 -0.2038
 7703SOL    HW134568   1.718   0.524   5.510  0.5941 -1.1928 -2.2642
 7703SOL    HW234569   1.695   0.381   5.502 -0.4885 -0.5177 -0.4086
 7704SOL     OW34570   4.010   0.524   8.104 -0.0233  0.2848 -0.2985
 7704SOL    HW134571   4.054   0.540   8.020  0.3743 -0.4541 -0.2285
 7704SOL    HW234572   3.917   0.516   8.082  0.4446 -5.3809 -0.2113
 7705SOL     OW34573   2.016   1.411   8.763 -0.1759  0.1008 -0.0235
 7705SOL    HW134574   1.934   1.370   8.793 -0.3692 -0.5044 -1.3616
 7705SOL    HW234575   1.986   1.498   8.738  2.6778  0.8547 -0.8344
 7706SOL     OW34576   0.022   3.786  12.138 -0.0512 -0.2696  0.3881
 7706SOL    HW134577   4.720   3.824  12.221 -0.1714 -0.8818  0.6304
 7706SOL    HW234578   4.711   3.697  12.145  0.4362 -0.6658 -2.0144
 7707SOL     OW34579   1.418   4.549  10.833  0.1553 -0.0033  0.3121
 7707SOL    HW134580   1.388   4.505  10.913  1.5408  1.9805  1.9019
 7707SOL    HW234581   1.496   4.501  10.807 -0.9465 -1.2564 -0.6898
 7708SOL     OW34582   3.484   1.917  14.889  0.3227  0.0407  0.4063
 7708SOL    HW134583   3.500   1.883  14.977  0.3314  1.2863  0.8767
 7708SOL    HW234584   3.389   1.928  14.888  0.6172  2.5956  0.7912
 7709SOL     OW34585   0.055   3.972   2.263  0.3195 -0.1214  0.5027
 7709SOL    HW134586   0.011   3.976   2.179  1.0733 -1.4762  0.0372
 7709SOL    HW234587   0.131   4.028   2.248  1.2793 -1.6883 -0.5648
 7710SOL     OW34588   4.694   3.081   9.433  0.1882  0.4427  0.0901
 7710SOL    HW134589   0.026   3.113   9.505  0.3050 -1.5745  0.9083
 7710SOL    HW234590   4.714   3.153   9.374 -3.0804 -0.1049 -1.6865
 7711SOL     OW34591   3.056   2.054   6.429  0.3972 -0.6537  0.0843
 7711SOL    HW134592   3.135   2.095   6.394 -1.0680  1.0762 -1.1648
 7711SOL    HW234593   3.058   1.969   6.384 -0.7492 -1.3838  1.4086
 7712SOL     OW34594   0.770   1.931   9.016  0.1731 -0.5429 -0.7539
 7712SOL    HW134595   0.695   1.983   8.987 -1.6761 -2.1576  1.1846
 7712SOL    HW234596   0.737   1.905   9.101  1.9570 -0.5675 -0.0646
 7713SOL     OW34597   2.366   1.885   6.244 -0.4047 -0.1500  0.3577
 7713SOL    HW134598   2.345   1.890   6.151 -0.7980  2.0079  0.5587
 7713SOL    HW234599   2.442   1.943   6.238 -0.2443 -0.4614 -0.5921
 7714SOL     OW34600   3.465   1.106  15.170 -0.6180  0.0661 -0.5536
 7714SOL    HW134601   3.391   1.103  15.109 -0.6742  1.4114 -0.5510
 7714SOL    HW234602   3.425   1.040  15.227  1.4418  0.0471  0.8667
 7715SOL     OW34603   0.180   1.924   2.127  0.5553  0.1226  0.2144
 7715SOL    HW134604   0.190   1.901   2.035 -1.6311  0.5979 -0.1374
 7715SOL    HW234605   0.176   2.018   2.109 -1.1851  0.1667  0.7721
 7716SOL     OW34606   0.606   2.728   7.686  0.0504  0.3252 -0.1139
 7716SOL    HW134607   0.636   2.815   7.658  1.5809 -0.2586 -0.3047
 7716SOL    HW234608   0.546   2.713   7.613 -0.0011 -4.1847  0.8689
 7717SOL     OW34609   0.111   0.174  13.170  0.3275 -0.1453  0.2095
 7717SOL    HW134610   0.143   0.118  13.241 -0.6664 -0.8841  0.0713
 7717SOL    HW234611   0.182   0.238  13.167 -1.2712  1.7254  2.3300
 7718SOL     OW34612   4.258   1.242   8.446 -0.1108 -0.0448 -0.0992
 7718SOL    HW134613   4.228   1.152   8.431  1.2008 -0.0027 -3.0274
 7718SOL    HW234614   4.350   1.218   8.440  0.6268  2.8647 -0.3048
 7719SOL     OW34615   3.151   2.226  12.403 -0.3062  0.1816 -0.8339
 7719SOL    HW134616   3.187   2.276  12.330  2.3093  2.6665  2.1004
 7719SOL    HW234617   3.228   2.190  12.449 -0.6180 -1.1048 -1.3131
 7720SOL     OW34618   0.333   3.238  15.238 -0.7428  0.1749 -0.0235
 7720SOL    HW134619   0.316   3.327  15.207  1.1670  0.7759  0.6371
 7720SOL    HW234620   0.399   3.208  15.175 -0.6543 -2.6915  1.4567
 7721SOL     OW34621   4.313   1.961   5.122  0.3534  0.5882 -0.0622
 7721SOL    HW134622   4.327   2.054   5.104  2.6392  0.2300 -0.2194
 7721SOL    HW234623   4.270   1.932   5.042  1.2745  1.4026 -0.8479
 7722SOL     OW34624   3.788   0.166   5.717 -0.5602  0.1969 -0.3320
 7722SOL    HW134625   3.771   0.244   5.770 -0.9948  0.9494 -1.5786
 7722SOL    HW234626   3.883   0.164   5.717 -0.5629  0.0869 -3.0876
 7723SOL     OW34627   2.929   1.645   0.071 -0.4770 -0.1175 -0.1046
 7723SOL    HW134628   3.013   1.600   0.080 -1.0758 -1.2851 -0.2991
 7723SOL    HW234629   2.867   1.588   0.117 -2.3711  0.0862 -2.4172
 7724SOL     OW34630   0.148   2.602  12.039 -0.2537  0.0031  1.1574
 7724SOL    HW134631   0.188   2.542  11.976  2.7340  2.2978  0.9174
 7724SOL    HW234632   0.057   2.605  12.011 -0.5313 -2.3374  1.7337
 7725SOL     OW34633   2.622   1.446   3.667 -0.0595  0.3352 -0.0398
 7725SOL    HW134634   2.565   1.467   3.741 -1.9712 -2.2734 -0.7704
 7725SOL    HW234635   2.657   1.532   3.642 -0.9190  0.6880 -0.0409
 7726SOL     OW34636   2.985   0.908   8.712  0.4837  0.0763  0.2837
 7726SOL    HW134637   2.989   0.832   8.653 -4.5542 -0.4690  0.6586
 7726SOL    HW234638   2.893   0.933   8.707  0.8155  1.2986  0.3724
 7727SOL     OW34639   0.749   2.323   9.936  0.6455 -0.2017  0.0861
 7727SOL    HW134640   0.749   2.239   9.891  0.1494 -1.1018  1.7748
 7727SOL    HW234641   0.818   2.303   9.999  1.0372  0.5477 -0.0995
 7728SOL     OW34642   0.084   2.060   5.418 -0.0714  0.0322  0.5355
 7728SOL    HW134643   0.048   2.080   5.332  1.7999  3.2140  0.5064
 7728SOL    HW234644   0.169   2.104   5.419 -1.3046  2.4736 -1.8112
 7729SOL     OW34645   0.089   4.722   2.911  0.4177  0.5711  0.0528
 7729SOL    HW134646   0.014   4.697   2.857 -0.3173 -0.3701  1.5048
 7729SOL    HW234647   0.069   0.084   2.948  1.4587  0.7503  0.2168
 7730SOL     OW34648   3.768   4.384   8.169 -0.3118  0.1587 -0.3011
 7730SOL    HW134649   3.689   4.418   8.125 -1.4500 -0.7610  1.0216
 7730SOL    HW234650   3.809   4.469   8.185 -3.3789  1.0932  2.5930
 7731SOL     OW34651   4.681   1.382   2.782  0.3433 -0.3535  0.2734
 7731SOL    HW134652   4.652   1.457   2.835  1.7779  0.6282 -0.3284
 7731SOL    HW234653   4.646   1.408   2.696 -0.2892 -2.0293  0.0304
 7732SOL     OW34654   2.687   1.144  17.015  0.0500  0.4226  0.2883
 7732SOL    HW134655   2.593   1.162  17.016 -0.0610 -0.2747  1.8722
 7732SOL    HW234656   2.705   1.132  16.922 -1.2889 -1.3542  0.2564
 7733SOL     OW34657   3.438   1.196   2.231  0.2491 -0.3039  0.4190
 7733SOL    HW134658   3.412   1.282   2.264 -0.6425 -0.4132 -0.0141
 7733SOL    HW234659   3.532   1.212   2.246  0.3741  0.7590 -1.5126
 7734SOL     OW34660   2.328   2.207   5.680 -0.1517  0.6445 -0.4769
 7734SOL    HW134661   2.353   2.117   5.700 -0.4248  0.8644  0.8767
 7734SOL    HW234662   2.408   2.244   5.718 -0.3109 -0.1041  0.5988
 7735SOL     OW34663   3.313   3.933  16.671 -0.0781 -0.0947  0.0591
 7735SOL    HW134664   3.306   3.965  16.581 -0.8825 -0.0331  0.1429
 7735SOL    HW234665   3.253   3.991  16.717  0.9501 -0.7934  2.2719
 7736SOL     OW34666   1.392   3.179   1.567  0.5923  0.1712 -0.2229
 7736SOL    HW134667   1.435   3.125   1.501  2.0499  2.3178 -0.9980
 7736SOL    HW234668   1.343   3.245   1.519 -1.2416 -0.6450  0.5160
 7737SOL     OW34669   3.203   4.685   2.627 -0.5412  0.5560  0.5307
 7737SOL    HW134670   3.145   0.020   2.579 -0.3690  0.0652 -0.2703
 7737SOL    HW234671   3.135   4.618   2.639 -0.3302  0.5126  1.5327
 7738SOL     OW34672   4.560   3.569  12.159 -0.4040 -0.0417 -0.6308
 7738SOL    HW134673   4.553   3.483  12.201 -0.5439 -0.1464 -0.8680
 7738SOL    HW234674   4.508   3.569  12.079  0.2989  1.1860 -1.0798
 7739SOL     OW34675   1.069   1.604   2.170  0.4041 -0.0240  0.0968
 7739SOL    HW134676   1.112   1.565   2.093  0.5137  0.1162  0.0866
 7739SOL    HW234677   0.991   1.550   2.181  0.2455  0.6174  2.0245
 7740SOL     OW34678   0.250   3.013  10.069  0.0173  0.2441  0.4443
 7740SOL    HW134679   0.250   2.976   9.981  1.0958  1.5426 -0.0846
 7740SOL    HW234680   0.316   2.960  10.114  0.1324 -0.1014 -0.1347
 7741SOL     OW34681   1.567   1.493   4.414 -0.0078 -0.4384 -0.0115
 7741SOL    HW134682   1.584   1.540   4.495 -0.2488 -1.5052  0.6548
 7741SOL    HW234683   1.653   1.460   4.388  0.7015  0.3352  1.3634
 7742SOL     OW34684   1.484   2.490   7.155 -0.3870  0.5565 -0.0703
 7742SOL    HW134685   1.416   2.533   7.103  1.7192  0.0238 -3.2621
 7742SOL    HW234686   1.533   2.561   7.196 -1.2986  0.7104  0.7753
 7743SOL     OW34687   0.482   1.038  10.403 -0.0946  0.2897 -0.1707
 7743SOL    HW134688   0.486   0.943  10.391 -1.3914  0.3599 -1.2114
 7743SOL    HW234689   0.533   1.068  10.328 -0.2356 -0.1014 -0.4258
 7744SOL     OW34690   1.566   2.948   0.493 -0.5680  0.1404 -0.0162
 7744SOL    HW134691   1.501   2.918   0.556 -0.2199 -0.9820 -0.1943
 7744SOL    HW234692   1.623   2.873   0.477 -1.0503 -0.2132 -0.0627
 7745SOL     OW34693   0.837   2.991   0.419  0.3249 -0.3680 -0.3763
 7745SOL    HW134694   0.790   3.063   0.378 -0.0984  0.8686  2.2324
 7745SOL    HW234695   0.921   3.007   0.375  0.9884 -2.2676  0.1791
 7746SOL     OW34696   4.153   0.552  11.110  0.3850 -0.2266 -0.3496
 7746SOL    HW134697   4.125   0.615  11.043 -0.9976 -1.1974 -0.6955
 7746SOL    HW234698   4.200   0.487  11.057  0.9557 -1.0647  1.1926
 7747SOL     OW34699   4.217   1.910  12.397  0.1465  0.2547 -0.0416
 7747SOL    HW134700   4.274   1.848  12.443  1.6555 -0.1304 -2.4196
 7747SOL    HW234701   4.237   1.896  12.305  0.3370 -0.3946  0.1030
 7748SOL     OW34702   2.831   0.107  15.460  0.5123  0.4625  0.2094
 7748SOL    HW134703   2.906   0.112  15.519  2.0334 -0.8551 -1.6250
 7748SOL    HW234704   2.851   0.020  15.426 -2.9057 -0.3752  0.4066
 7749SOL     OW34705   1.329   2.949   4.139  0.2169 -0.8262 -0.2716
 7749SOL    HW134706   1.389   2.978   4.207  0.6019  1.5845 -1.6171
 7749SOL    HW234707   1.330   2.854   4.142 -3.0204 -0.8157  1.0736
 7750SOL     OW34708   3.355   0.124  16.696 -0.2883  0.4326 -0.0850
 7750SOL    HW134709   3.342   0.031  16.716 -1.1259  0.2964 -1.3140
 7750SOL    HW234710   3.383   0.147  16.785  1.1273  1.6914 -0.8598
 7751SOL     OW34711   0.516   0.787   6.356  0.3795  0.5188  0.2112
 7751SOL    HW134712   0.590   0.797   6.297  0.8743 -1.4914  0.4723
 7751SOL    HW234713   0.555   0.734   6.426 -0.7239 -0.2060  0.2842
 7752SOL     OW34714   3.037   4.564   5.624 -0.1043  0.1829 -0.5950
 7752SOL    HW134715   2.958   4.523   5.658 -0.6572  0.9592 -0.9488
 7752SOL    HW234716   3.070   4.623   5.691  0.3246 -0.8957  0.1460
 7753SOL     OW34717   1.050   3.061  17.566  0.1085  0.2770  0.4992
 7753SOL    HW134718   1.130   3.010  17.576  0.1889  0.6616  1.8781
 7753SOL    HW234719   1.059   3.134  17.627 -2.7792  0.6415  0.4995
 7754SOL     OW34720   4.131   3.172   9.465  0.0912 -0.0722 -0.3036
 7754SOL    HW134721   4.137   3.196   9.557 -1.8931  1.2576 -0.5374
 7754SOL    HW234722   4.095   3.248   9.420 -0.1415  0.8967  1.5226
 7755SOL     OW34723   0.955   4.261   9.752 -0.1488  0.4232  0.5615
 7755SOL    HW134724   0.888   4.222   9.696  0.9369 -1.2620  0.4322
 7755SOL    HW234725   0.985   4.184   9.801 -0.0928 -0.1082 -0.3009
 7756SOL     OW34726   2.059   4.013   4.241  0.1733 -0.3405  0.2406
 7756SOL    HW134727   2.084   4.035   4.151 -2.6691 -3.8870 -1.4672
 7756SOL    HW234728   1.965   4.027   4.233  0.2821  0.4110  0.3255
 7757SOL     OW34729   3.473   2.111   4.783  0.4422 -0.1382  0.1864
 7757SOL    HW134730   3.567   2.118   4.801  1.0489 -2.5899 -1.9907
 7757SOL    HW234731   3.458   2.017   4.771  1.7915 -0.1051 -1.6752
 7758SOL     OW34732   2.497   4.456   0.718  0.1034  0.1138  0.1767
 7758SOL    HW134733   2.491   4.512   0.795  0.3310 -2.1079  1.7976
 7758SOL    HW234734   2.406   4.426   0.713  0.0836  0.1386  0.3913
 7759SOL     OW34735   3.368   2.878   4.474 -0.6687 -0.0127 -0.2671
 7759SOL    HW134736   3.355   2.867   4.568  0.8494 -1.0927 -0.1786
 7759SOL    HW234737   3.437   2.944   4.467 -0.0818 -0.3497  2.3752
 7760SOL     OW34738   0.419   0.610  17.240  0.6125  0.2675  0.4545
 7760SOL    HW134739   0.401   0.660  17.319  2.0484  1.8451 -0.2193
 7760SOL    HW234740   0.357   0.538  17.251 -2.5416  3.0230  0.7668
 7761SOL     OW34741   1.532   3.161  12.405  0.3858  0.5186  0.1577
 7761SOL    HW134742   1.511   3.239  12.456  1.6582  1.0663 -0.1633
 7761SOL    HW234743   1.524   3.193  12.315  0.7716  0.3230  0.0556
 7762SOL     OW34744   3.963   4.659   2.693 -0.0117 -0.3959 -0.1729
 7762SOL    HW134745   4.018   4.582   2.679 -0.1700 -0.3105 -1.2216
 7762SOL    HW234746   3.961   4.654   2.789 -1.8270  1.0911 -0.1226
 7763SOL     OW34747   0.475   0.914   6.903  0.3821  0.4440 -0.1988
 7763SOL    HW134748   0.532   0.967   6.958  0.8797  0.5873 -0.8490
 7763SOL    HW234749   0.416   0.988   6.887  1.1380  0.9676 -0.5247
 7764SOL     OW34750   2.566   3.788  13.201 -1.0959 -0.3252 -0.2479
 7764SOL    HW134751   2.565   3.694  13.215  0.0778 -0.2132  0.6063
 7764SOL    HW234752   2.606   3.818  13.283 -0.9257  0.0139 -0.4519
 7765SOL     OW34753   1.974   4.320   4.106 -0.1974  0.0897  0.6311
 7765SOL    HW134754   1.982   4.382   4.178  0.7882  1.1573 -0.3909
 7765SOL    HW234755   2.066   4.302   4.086 -0.5839 -1.3782  0.2059
 7766SOL     OW34756   4.491   0.597   5.824 -0.4304 -0.8618  0.1697
 7766SOL    HW134757   4.401   0.609   5.852 -1.6152 -1.8593 -3.1764
 7766SOL    HW234758   4.538   0.630   5.901 -0.1852 -1.9953  0.4974
 7767SOL     OW34759   2.730   0.290   5.448  0.4819  0.2037  0.6403
 7767SOL    HW134760   2.800   0.262   5.388  0.0751 -0.3072  0.4084
 7767SOL    HW234761   2.772   0.361   5.496  0.8447 -0.4013  1.2144
 7768SOL     OW34762   1.632   3.862   2.674  0.2088 -0.0515  0.3809
 7768SOL    HW134763   1.610   3.782   2.721  1.2799 -0.3530  0.3581
 7768SOL    HW234764   1.707   3.828   2.626 -0.0350  2.2249 -1.6581
 7769SOL     OW34765   1.694   2.209   3.801 -0.1877 -0.4582  0.0769
 7769SOL    HW134766   1.729   2.285   3.755 -0.8501 -0.8008 -0.9854
 7769SOL    HW234767   1.735   2.130   3.767 -0.7354  0.3699 -2.4920
 7770SOL     OW34768   4.489   2.321  11.397 -0.1239 -0.0440  0.2695
 7770SOL    HW134769   4.489   2.369  11.314  0.9353  1.8760  1.4033
 7770SOL    HW234770   4.530   2.386  11.454 -1.3320 -0.2795  1.3962
 7771SOL     OW34771   3.991   3.342   3.406 -0.0107  0.1017 -0.3622
 7771SOL    HW134772   4.061   3.362   3.468 -0.9176  1.4514  0.2314
 7771SOL    HW234773   3.938   3.420   3.426  1.9770  0.8585  1.9620
 7772SOL     OW34774   0.006   3.186   2.984 -0.7423 -0.0614  0.5112
 7772SOL    HW134775   4.678   3.260   2.951 -0.1125  0.7976  1.4605
 7772SOL    HW234776   0.051   3.161   2.903  0.8061  2.1842  0.7057
 7773SOL     OW34777   1.579   4.529   0.388 -0.7063  0.4747 -0.5280
 7773SOL    HW134778   1.565   4.568   0.302 -0.0714  1.3068 -0.2637
 7773SOL    HW234779   1.491   4.496   0.406  0.4205 -2.9622 -1.3064
 7774SOL     OW34780   1.687   2.462  10.753 -0.2369  0.6941 -0.1901
 7774SOL    HW134781   1.640   2.538  10.718  1.2495  1.7105 -0.0323
 7774SOL    HW234782   1.722   2.495  10.836 -1.2374 -0.8338  0.8266
 7775SOL     OW34783   4.003   4.496   6.166  0.1131 -0.4211  0.2102
 7775SOL    HW134784   3.957   4.418   6.197 -1.9851  0.9599  0.6041
 7775SOL    HW234785   4.090   4.457   6.170  0.3216 -0.0755 -1.0056
 7776SOL     OW34786   3.918   0.835   4.049 -0.0978  0.0688 -0.5987
 7776SOL    HW134787   3.939   0.754   4.095 -2.0982 -1.0610 -1.6862
 7776SOL    HW234788   3.927   0.896   4.122  0.1645 -0.3015 -0.3232
 7777SOL     OW34789   2.147   2.691  10.428 -0.5546  0.0995  0.3785
 7777SOL    HW134790   2.230   2.644  10.419 -0.3542  0.5745 -0.1815
 7777SOL    HW234791   2.092   2.654  10.359  0.5247  1.8905 -1.4268
 7778SOL     OW34792   0.854   3.604   7.226  0.2032 -0.4619  0.7244
 7778SOL    HW134793   0.908   3.624   7.302  2.4422  1.2291 -1.3224
 7778SOL    HW234794   0.770   3.608   7.271 -0.5994 -0.1420 -0.8011
 7779SOL     OW34795   1.275   0.742   7.370 -0.4951 -0.0939 -0.3238
 7779SOL    HW134796   1.208   0.806   7.394 -0.2577 -0.0608  0.2621
 7779SOL    HW234797   1.285   0.754   7.276  0.4646  2.5074  0.0914
 7780SOL     OW34798   2.794   4.638   2.445  0.3959  0.5845 -0.3562
 7780SOL    HW134799   2.801   4.551   2.484 -2.2444 -0.3211 -1.8897
 7780SOL    HW234800   2.733   4.683   2.503  0.3217  0.3074 -0.2210
 7781SOL     OW34801   0.187   3.656  14.005  0.0695 -0.7256  0.2672
 7781SOL    HW134802   0.099   3.620  13.996 -0.0448 -0.8674  1.8669
 7781SOL    HW234803   0.231   3.571  14.011 -0.0362 -0.8217 -0.4170
 7782SOL     OW34804   2.356   0.249   3.764  0.4171 -0.0918 -0.2498
 7782SOL    HW134805   2.376   0.342   3.772  0.8461 -0.4455  2.9100
 7782SOL    HW234806   2.265   0.247   3.734 -0.1717  1.1058  1.4310
 7783SOL     OW34807   4.264   1.975  12.067  0.1363 -0.0579  0.2818
 7783SOL    HW134808   4.240   1.945  11.979  2.0183  0.7273 -0.5018
 7783SOL    HW234809   4.280   2.068  12.050 -1.2403 -0.2342 -1.9943
 7784SOL     OW34810   3.007   0.096   2.517  0.0759 -0.2635  0.2337
 7784SOL    HW134811   2.965   0.020   2.477 -2.4129  1.5323 -0.6411
 7784SOL    HW234812   2.933   0.124   2.572  1.5873  2.9731  0.6090
 7785SOL     OW34813   0.890   3.398   3.932  0.1599 -0.5491 -0.2474
 7785SOL    HW134814   0.898   3.320   3.987  0.2038 -0.5177 -0.2098
 7785SOL    HW234815   0.867   3.463   3.998  1.6810 -1.8328  1.5365
 7786SOL     OW34816   2.658   0.755   1.220  0.0338  0.7393 -0.1173
 7786SOL    HW134817   2.686   0.837   1.179  1.3483  0.2788 -0.1350
 7786SOL    HW234818   2.727   0.697   1.187 -2.1749 -2.5585  1.0319
 7787SOL     OW34819   0.892   3.892   0.420  0.3656 -0.0346 -0.2894
 7787SOL    HW134820   0.901   3.807   0.463 -0.7491 -0.1917 -0.3709
 7787SOL    HW234821   0.973   3.930   0.455 -2.0738  2.2298  2.9436
 7788SOL     OW34822   2.655   2.220   5.222 -0.1358  0.2027  0.3420
 7788SOL    HW134823   2.713   2.293   5.245 -0.5831  1.1882 -1.7368
 7788SOL    HW234824   2.584   2.228   5.286 -0.4165 -2.4107  0.3682
 7789SOL     OW34825   1.479   4.482   2.209  0.0814 -0.0089 -0.0243
 7789SOL    HW134826   1.385   4.468   2.217  0.3899 -1.6179  0.9446
 7789SOL    HW234827   1.483   4.577   2.205  0.7619  0.0538  2.0236
 7790SOL     OW34828   0.673   3.027   8.563 -0.1263 -0.5225 -0.4336
 7790SOL    HW134829   0.665   3.021   8.468  1.6362  0.0879 -0.6054
 7790SOL    HW234830   0.704   2.937   8.575 -0.1407 -0.1414  2.5315
 7791SOL     OW34831   4.420   0.570   4.282  0.0187  0.2439 -0.2477
 7791SOL    HW134832   4.335   0.606   4.308 -0.0585  0.9382 -1.4169
 7791SOL    HW234833   4.447   0.551   4.371 -1.2886 -0.1263  0.0653
 7792SOL     OW34834   3.277   3.103   2.432 -0.4460 -0.5573  0.1897
 7792SOL    HW134835   3.189   3.127   2.462 -0.9529 -1.7380 -0.3164
 7792SOL    HW234836   3.311   3.185   2.397 -0.6062  0.1112  1.6085
 7793SOL     OW34837   0.275   4.682   0.169 -0.1470 -0.3296 -0.3619
 7793SOL    HW134838   0.354   0.011   0.175 -1.3254  1.3430  0.6083
 7793SOL    HW234839   0.307   4.612   0.111  0.4881  1.5563 -2.2644
 7794SOL     OW34840   4.430   2.253   2.487 -0.1434 -0.5450 -0.4553
 7794SOL    HW134841   4.501   2.212   2.438  1.1413  1.2588 -0.1065
 7794SOL    HW234842   4.436   2.343   2.454  0.0543 -0.2035  0.5285
 7795SOL     OW34843   3.103   2.789   2.603  0.2890  0.7158 -0.1616
 7795SOL    HW134844   3.126   2.878   2.628 -0.2165  1.0767 -0.9883
 7795SOL    HW234845   3.112   2.790   2.508  3.9494 -2.4676  0.1574
 7796SOL     OW34846   4.189   0.700  12.289  0.1817 -0.1974 -0.1542
 7796SOL    HW134847   4.176   0.795  12.289  0.1658 -0.1996  0.4495
 7796SOL    HW234848   4.102   0.668  12.314  0.6084  0.9693  2.8667
 7797SOL     OW34849   2.574   3.869   1.936  0.4459 -0.0853  0.1768
 7797SOL    HW134850   2.507   3.915   1.887  1.4383 -0.0842 -1.1690
 7797SOL    HW234851   2.588   3.785   1.893  0.4731  0.2544 -0.4719
 7798SOL     OW34852   1.426   1.067   8.008 -0.2757 -0.0635  0.3345
 7798SOL    HW134853   1.413   1.048   7.915 -1.8047  0.2283  0.4949
 7798SOL    HW234854   1.501   1.008   8.020  0.0022  0.3635  0.6687
 7799SOL     OW34855   1.246   1.318   3.305 -0.3585 -0.1256 -0.5691
 7799SOL    HW134856   1.262   1.241   3.250  0.0740 -1.5519  1.5636
 7799SOL    HW234857   1.325   1.371   3.294  0.6844 -1.0296  2.5275
 7800SOL     OW34858   4.255   1.941   7.803  0.2319  0.3882 -0.1780
 7800SOL    HW134859   4.283   2.029   7.778 -0.6953  0.2017 -1.8563
 7800SOL    HW234860   4.254   1.893   7.720  0.9810  1.4881 -0.8277
 7801SOL     OW34861   1.045   4.220   7.071  0.3760 -0.0919 -0.0072
 7801SOL    HW134862   1.008   4.133   7.055 -3.4875  1.6083 -0.3927
 7801SOL    HW234863   1.053   4.247   6.980  0.1390 -0.9925 -0.2926
 7802SOL     OW34864   2.790   4.478   5.691  0.5061  0.3933  0.1400
 7802SOL    HW134865   2.815   4.395   5.732  2.4466  0.4205 -0.9924
 7802SOL    HW234866   2.695   4.470   5.690  0.6378 -0.7072 -1.9036
 7803SOL     OW34867   3.769   3.846  14.457  0.4885  0.0340  0.1417
 7803SOL    HW134868   3.683   3.875  14.425 -0.1474 -0.6340  1.2443
 7803SOL    HW234869   3.769   3.759  14.418  0.1937 -0.4269  1.1784
 7804SOL     OW34870   0.566   1.636  11.374  0.2793 -0.3370 -0.5307
 7804SOL    HW134871   0.611   1.553  11.391 -0.1992 -0.0512  2.0520
 7804SOL    HW234872   0.636   1.696  11.345  1.0771 -0.6671  0.7007
 7805SOL     OW34873   1.243   0.034   2.840  0.1935 -0.0652  0.0755
 7805SOL    HW134874   1.279   0.070   2.759 -2.1532 -0.8363 -1.3268
 7805SOL    HW234875   1.307   4.689   2.857  1.3668  0.6657 -1.3865
 7806SOL     OW34876   2.605   0.628  10.957  0.6259 -0.6787  0.1889
 7806SOL    HW134877   2.663   0.703  10.960  3.9208 -3.1991 -0.7451
 7806SOL    HW234878   2.603   0.611  10.862  0.6660  1.7169 -0.2365
 7807SOL     OW34879   2.121   3.747   5.313 -0.0133 -0.4873 -0.2856
 7807SOL    HW134880   2.094   3.822   5.261  0.7608 -0.3061 -0.4360
 7807SOL    HW234881   2.212   3.745   5.282 -0.3106 -3.4482 -0.9693
 7808SOL     OW34882   0.384   1.967  13.567  0.0432 -0.1068 -0.5016
 7808SOL    HW134883   0.290   1.973  13.583  0.1517 -0.6196  0.3653
 7808SOL    HW234884   0.415   1.892  13.617  1.2257  0.6431 -0.0994
 7809SOL     OW34885   4.451   2.837   7.398 -0.0670 -0.1544 -0.3698
 7809SOL    HW134886   4.425   2.753   7.361 -0.8793 -0.6777  1.3593
 7809SOL    HW234887   4.419   2.891   7.326 -1.1127  0.1100  0.2935
 7810SOL     OW34888   0.590   3.886   9.244 -0.2503 -0.1360 -0.1927
 7810SOL    HW134889   0.512   3.929   9.208  0.5906  2.2825  0.8957
 7810SOL    HW234890   0.549   3.872   9.329  0.4271 -1.1685 -0.0317
 7811SOL     OW34891   0.074   4.503  10.781  0.2525 -0.5698 -0.4277
 7811SOL    HW134892   0.088   4.421  10.828  0.3111  0.3468  1.1632
 7811SOL    HW234893   0.159   4.522  10.743  0.2484  0.5084  0.0970
 7812SOL     OW34894   0.250   4.467   2.790 -0.3463  0.0267 -0.3753
 7812SOL    HW134895   0.188   4.539   2.789 -1.4205 -0.9030  0.2408
 7812SOL    HW234896   0.193   4.396   2.816 -0.9437  1.1650  1.3783
 7813SOL     OW34897   3.547   3.663  16.742  0.0958  0.5424  0.5668
 7813SOL    HW134898   3.451   3.662  16.748  0.1821 -2.1463  1.3715
 7813SOL    HW234899   3.569   3.570  16.744  0.9549  0.7635  0.9167
 7814SOL     OW34900   1.907   3.819  11.848 -0.2448  0.0280 -0.2921
 7814SOL    HW134901   1.876   3.883  11.912 -1.7748  0.4345 -1.4187
 7814SOL    HW234902   1.961   3.757  11.896  0.2285  2.6620  2.5331
 7815SOL     OW34903   3.848   4.316   3.066  0.1179 -0.1923 -0.7028
 7815SOL    HW134904   3.760   4.314   3.027 -1.4198 -0.3350  2.7895
 7815SOL    HW234905   3.845   4.403   3.105  0.8457 -0.3710 -0.2610
 7816SOL     OW34906   4.170   2.348   4.021  0.4601  0.1585  0.3036
 7816SOL    HW134907   4.124   2.280   4.070 -1.7819  2.7095  1.7231
 7816SOL    HW234908   4.103   2.416   4.026 -0.1358 -0.4469  0.5326
 7817SOL     OW34909   2.880   2.043  10.035  0.3167  0.5908 -0.5625
 7817SOL    HW134910   2.824   2.042   9.957 -2.6295 -0.7912  1.5871
 7817SOL    HW234911   2.960   2.078   9.994  0.2093  1.9223  0.3692
 7818SOL     OW34912   3.916   4.246  11.889 -0.4636  0.1138  0.1510
 7818SOL    HW134913   4.005   4.279  11.889 -0.6098  0.5471  2.2419
 7818SOL    HW234914   3.862   4.315  11.851 -0.1102 -0.1999 -0.9149
 7819SOL     OW34915   1.630   1.260   6.970  0.5799  1.0375 -0.0028
 7819SOL    HW134916   1.690   1.310   7.026  0.1969  0.5530  0.8370
 7819SOL    HW234917   1.566   1.235   7.037 -0.9963 -0.5578 -2.0887
 7820SOL     OW34918   1.716   2.663   1.359  0.1117  0.3303 -0.1994
 7820SOL    HW134919   1.791   2.689   1.412  1.3060 -1.2816 -1.1032
 7820SOL    HW234920   1.702   2.573   1.386  0.4668  0.5148  0.5921
 7821SOL     OW34921   1.114   2.303   2.373  0.0152  0.6137 -0.1593
 7821SOL    HW134922   1.064   2.234   2.332 -1.5159  1.4129  0.3442
 7821SOL    HW234923   1.163   2.248   2.434  0.9151  1.2184 -0.3317
 7822SOL     OW34924   0.759   1.607  11.128 -0.2763  0.0412  0.3638
 7822SOL    HW134925   0.771   1.665  11.203 -1.2274 -1.0683  1.3840
 7822SOL    HW234926   0.745   1.518  11.162 -2.5910  0.7478  1.2977
 7823SOL     OW34927   4.707   2.992  12.003 -0.0847  0.2319  0.3025
 7823SOL    HW134928   4.717   3.087  12.004  0.1624  0.1332  4.8233
 7823SOL    HW234929   4.651   2.983  12.080 -0.2955  0.7527  0.2086
 7824SOL     OW34930   2.719   0.216  13.860  0.3275  0.1542 -0.1647
 7824SOL    HW134931   2.736   0.146  13.924  0.6931  0.3695 -0.0258
 7824SOL    HW234932   2.654   0.167  13.809 -0.7944  3.1102 -1.5540
 7825SOL     OW34933   2.283   0.202   1.130 -0.4361  0.6990 -0.3170
 7825SOL    HW134934   2.337   0.163   1.199  0.2554 -0.7744 -1.7133
 7825SOL    HW234935   2.319   0.291   1.131 -0.8955  0.8783  1.6757
 7826SOL     OW34936   0.336   2.248   6.113 -0.5425  0.5631  0.0213
 7826SOL    HW134937   0.318   2.247   6.207  4.3939 -0.7782  0.9595
 7826SOL    HW234938   0.378   2.164   6.092 -0.4147  0.2107  1.7612
 7827SOL     OW34939   4.009   1.672  12.916 -0.0756  0.3018 -0.3437
 7827SOL    HW134940   4.004   1.756  12.870  2.5701  0.8397  0.3346
 7827SOL    HW234941   3.919   1.641  12.904  0.6675 -1.0834 -2.1975
 7828SOL     OW34942   1.432   2.434   1.496  0.2552 -0.0728  0.2585
 7828SOL    HW134943   1.527   2.426   1.484 -0.0133 -2.2117 -0.3562
 7828SOL    HW234944   1.409   2.356   1.446  0.0154 -1.1241  2.0271
 7829SOL     OW34945   3.513   1.127  12.812  0.1884  0.4949  0.2117
 7829SOL    HW134946   3.427   1.169  12.803 -0.8521 -1.3343  1.4820
 7829SOL    HW234947   3.504   1.083  12.897  2.4231 -0.3964 -0.0117
 7830SOL     OW34948   2.018   0.065   4.709  0.1877 -0.1612  0.4880
 7830SOL    HW134949   2.010   0.154   4.674  0.5989  0.1502  1.1870
 7830SOL    HW234950   1.972   0.068   4.793  0.4166  1.1104  0.5734
 7831SOL     OW34951   1.387   3.178   0.466  0.1476  0.1579  0.5219
 7831SOL    HW134952   1.465   3.134   0.433  0.7914  0.7974  1.2110
 7831SOL    HW234953   1.415   3.196   0.555 -1.9711  2.1905  0.7750
 7832SOL     OW34954   1.122   4.001   2.495 -0.7873  0.0760  0.1534
 7832SOL    HW134955   1.112   4.076   2.554 -0.5147  0.5702 -0.4305
 7832SOL    HW234956   1.030   3.982   2.480 -0.3994 -0.4151 -1.6069
 7833SOL     OW34957   0.447   1.584   5.693  0.3149  0.1262 -0.1208
 7833SOL    HW134958   0.531   1.537   5.693  0.1927 -0.0827  1.7452
 7833SOL    HW234959   0.417   1.558   5.606  0.4813 -2.5113  0.6399
 7834SOL     OW34960   2.757   0.458   7.523 -0.0055  0.1382 -0.2999
 7834SOL    HW134961   2.675   0.495   7.555 -0.2776  0.3595 -1.2603
 7834SOL    HW234962   2.732   0.445   7.431 -0.3692  2.7898 -0.5603
 7835SOL     OW34963   2.730   1.448   2.389  0.5379 -0.2513  0.1125
 7835SOL    HW134964   2.769   1.447   2.301  1.1296  2.3512  0.3379
 7835SOL    HW234965   2.703   1.539   2.401  0.7608  0.1313 -2.3106
 7836SOL     OW34966   1.025   1.522   1.377 -0.4954  0.3632  0.0883
 7836SOL    HW134967   0.997   1.479   1.296  0.9780  0.7863 -0.6332
 7836SOL    HW234968   1.090   1.576   1.334 -1.9051  1.4366 -0.6706
 7837SOL     OW34969   1.619   1.390   7.343  0.9201 -0.2628 -0.3556
 7837SOL    HW134970   1.645   1.306   7.306 -0.8760 -0.1796 -1.7478
 7837SOL    HW234971   1.706   1.424   7.365  0.5695  1.0116 -0.9538
 7838SOL     OW34972   0.105   0.053   6.838  0.4328 -0.3013 -0.4526
 7838SOL    HW134973   0.177   4.714   6.830  0.4900 -0.0194 -2.2204
 7838SOL    HW234974   0.034   4.718   6.809  1.2890 -0.9900 -1.1866
 7839SOL     OW34975   2.738   2.367   8.127 -0.1898 -0.0618 -0.4367
 7839SOL    HW134976   2.751   2.460   8.108 -0.8590 -0.6629 -3.8445
 7839SOL    HW234977   2.646   2.354   8.150 -0.0913 -1.9221 -1.0839
 7840SOL     OW34978   3.937   2.659  15.105  0.0182  0.2308 -0.0319
 7840SOL    HW134979   3.888   2.583  15.136  2.4984 -1.9470 -1.4033
 7840SOL    HW234980   3.927   2.633  15.013  1.3756 -0.7062  0.0802
 7841SOL     OW34981   2.246   1.491   8.442 -0.1232 -0.3315  0.4929
 7841SOL    HW134982   2.253   1.466   8.350  0.5791 -0.5218  0.5945
 7841SOL    HW234983   2.171   1.548   8.424  0.0490  0.0836  1.0706
 7842SOL     OW34984   4.027   2.051   7.207 -0.2592 -0.2207  0.1084
 7842SOL    HW134985   4.080   2.099   7.144  0.0774  1.5881  1.7796
 7842SOL    HW234986   4.107   2.034   7.257 -0.2954 -1.1579 -0.1510
 7843SOL     OW34987   4.539   1.988   4.913  0.3203  0.2815 -0.0033
 7843SOL    HW134988   4.490   2.054   4.863  2.5648  1.5098 -0.6089
 7843SOL    HW234989   4.562   1.924   4.845  1.2984  1.7856 -1.0937
 7844SOL     OW34990   0.328   1.292   7.508 -0.3582  0.1546 -0.5223
 7844SOL    HW134991   0.306   1.226   7.574 -2.6555 -0.4072 -1.8151
 7844SOL    HW234992   0.417   1.320   7.526 -0.8432  1.1590  0.2660
 7845SOL     OW34993   0.499   0.331   4.019  0.0675 -0.5223 -0.5789
 7845SOL    HW134994   0.594   0.334   4.025  0.1096  1.7254 -2.4791
 7845SOL    HW234995   0.485   0.342   3.925  0.8457 -0.8780 -0.7324
 7846SOL     OW34996   3.499   3.171   4.544  0.0867  0.0461 -0.1118
 7846SOL    HW134997   3.508   3.174   4.639 -0.4529 -1.1065 -0.0263
 7846SOL    HW234998   3.541   3.256   4.528  0.0142  0.0516 -0.2739
 7847SOL     OW34999   0.385   1.814   5.864 -0.0024 -0.4257 -0.1498
 7847SOL    HW135000   0.292   1.796   5.872 -0.2479  1.2113  0.5679
 7847SOL    HW235001   0.406   1.730   5.823  3.2304  1.3843 -2.2342
 7848SOL     OW35002   0.412   3.500   5.516  0.2505  0.5283  0.0633
 7848SOL    HW135003   0.358   3.465   5.446 -0.4131  0.3267  0.6727
 7848SOL    HW235004   0.437   3.415   5.553 -1.7149  1.8425  4.4016
 7849SOL     OW35005   1.615   0.699   6.620 -0.7280  0.7042  0.0427
 7849SOL    HW135006   1.689   0.657   6.574 -0.3074  0.8863  0.5586
 7849SOL    HW235007   1.618   0.661   6.708 -1.7495  1.4471  0.3896
 7850SOL     OW35008   1.384   3.030   5.162  0.3410  0.1720 -0.6949
 7850SOL    HW135009   1.406   2.953   5.216 -1.7361  0.1313  0.0819
 7850SOL    HW235010   1.359   3.090   5.232 -1.3664 -1.7562  0.3589
 7851SOL     OW35011   2.937   3.159  11.690  0.4720  0.5422  0.2705
 7851SOL    HW135012   2.920   3.085  11.747  3.0047 -1.6225 -1.8145
 7851SOL    HW235013   3.012   3.132  11.637  1.3172  0.9483  1.2806
 7852SOL     OW35014   3.996   0.500   7.441 -0.6435 -0.1324  0.0269
 7852SOL    HW135015   3.987   0.584   7.485  2.7471 -0.1648  0.8321
 7852SOL    HW235016   3.902   0.489   7.428 -0.6595  1.9823 -1.6186
 7853SOL     OW35017   3.317   4.120  13.722 -0.0836  0.3626  0.0751
 7853SOL    HW135018   3.388   4.056  13.720  0.5887  1.0989  0.4710
 7853SOL    HW235019   3.275   4.094  13.640 -0.1187  1.5329 -0.2771
 7854SOL     OW35020   3.812   1.917  11.930  0.4182 -0.7903  0.0882
 7854SOL    HW135021   3.766   1.838  11.960 -1.0022  0.7133  1.8799
 7854SOL    HW235022   3.881   1.910  11.996  2.1992 -2.3887 -1.9465
 7855SOL     OW35023   1.805   2.656   6.133 -0.0404  0.3709 -0.2726
 7855SOL    HW135024   1.735   2.596   6.159  1.1970 -0.7565  0.4806
 7855SOL    HW235025   1.825   2.620   6.047  1.0844 -3.3091  1.5273
 7856SOL     OW35026   2.744   4.344   4.364  0.1281  0.3700  0.5453
 7856SOL    HW135027   2.693   4.352   4.444  0.5973  0.9752  0.7901
 7856SOL    HW235028   2.678   4.344   4.294 -0.9401 -1.0307  1.5635
 7857SOL     OW35029   1.281   1.805   4.452 -0.3874 -0.3732 -0.1426
 7857SOL    HW135030   1.319   1.729   4.407 -0.9213 -0.8642  0.2476
 7857SOL    HW235031   1.349   1.870   4.434 -1.6476  0.5281 -1.6771
 7858SOL     OW35032   1.614   4.148  15.373 -0.2132  0.3574 -0.3551
 7858SOL    HW135033   1.608   4.106  15.287 -1.2875  1.5522 -0.8740
 7858SOL    HW235034   1.619   4.067  15.423  1.3562  0.6548 -0.0104
 7859SOL     OW35035   2.249   1.072   6.227  0.0027 -0.4598  0.4514
 7859SOL    HW135036   2.173   1.065   6.284  0.8838 -2.2808  1.4141
 7859SOL    HW235037   2.227   1.012   6.156  0.3448  1.9162 -1.6994
 7860SOL     OW35038   2.570   0.140   7.961  0.2972 -0.2626 -0.6115
 7860SOL    HW135039   2.474   0.143   7.968  0.4322 -0.5049  1.4719
 7860SOL    HW235040   2.581   0.177   7.873  0.3167 -0.2109 -0.5875
 7861SOL     OW35041   4.131   3.801   5.206 -0.0497  0.4412 -0.1327
 7861SOL    HW135042   4.079   3.766   5.278 -0.6477 -0.4373 -0.9942
 7861SOL    HW235043   4.195   3.843   5.263 -0.2122 -0.5256  0.7408
 7862SOL     OW35044   1.216   1.973   5.883  0.6212  0.1751  0.2686
 7862SOL    HW135045   1.158   2.048   5.872  0.6407 -0.0837 -1.6502
 7862SOL    HW235046   1.290   2.015   5.927  0.0643  0.2212  1.1732
 7863SOL     OW35047   4.577   0.100   0.486 -0.1647  0.4260  0.2566
 7863SOL    HW135048   4.496   0.146   0.467 -0.3209 -0.0699 -0.2531
 7863SOL    HW235049   4.554   0.052   0.566 -0.1262 -1.5002 -0.8907
 7864SOL     OW35050   3.912   1.608  16.758  0.4713 -0.2880  0.7847
 7864SOL    HW135051   3.970   1.539  16.726 -0.1294 -0.6837  0.5681
 7864SOL    HW235052   3.827   1.567  16.768 -1.3734  3.5427  0.8623
 7865SOL     OW35053   3.111   2.609  13.997  0.0886 -0.2296 -0.8886
 7865SOL    HW135054   3.203   2.588  14.014 -0.3151 -1.6068 -0.4362
 7865SOL    HW235055   3.064   2.526  14.006  0.5562 -0.4683 -0.6425
 7866SOL     OW35056   4.622   3.006  13.649  0.1286  0.3075  0.5195
 7866SOL    HW135057   4.701   3.059  13.639 -0.6591  1.1561 -1.0349
 7866SOL    HW235058   4.600   2.998  13.742  0.6954 -0.6889  0.5679
 7867SOL     OW35059   4.194   4.249  11.870 -0.0325  0.2432  0.2401
 7867SOL    HW135060   4.252   4.270  11.796  0.8201  2.5636  1.5567
 7867SOL    HW235061   4.258   4.247  11.942 -1.9063 -1.7563  1.8241
 7868SOL     OW35062   1.219   0.062   7.727 -0.6178  0.0648  0.0946
 7868SOL    HW135063   1.195   4.693   7.742  0.7634 -0.5150 -1.2254
 7868SOL    HW235064   1.172   0.089   7.647 -0.4368  0.5961  0.1724
 7869SOL     OW35065   4.449   0.071  12.489  0.8112 -0.5542 -0.0944
 7869SOL    HW135066   4.461   4.699  12.495  2.5914 -0.2137  1.7223
 7869SOL    HW235067   4.362   0.077  12.451 -0.0528  0.0846  2.0153
 7870SOL     OW35068   3.582   1.704   7.492 -0.1278  0.0606 -0.5150
 7870SOL    HW135069   3.607   1.674   7.579 -0.5322  1.4599  0.0856
 7870SOL    HW235070   3.655   1.758   7.463  0.5703  0.8479  2.7298
 7871SOL     OW35071   0.923   1.479   0.625 -0.3777  0.0644 -0.3179
 7871SOL    HW135072   0.954   1.556   0.578 -0.2178 -0.2978 -0.8112
 7871SOL    HW235073   0.846   1.453   0.575 -1.1223 -0.7045  1.2177
 7872SOL     OW35074   1.476   0.280   2.049 -0.1960 -0.4877 -0.3264
 7872SOL    HW135075   1.386   0.280   2.018  0.0017 -0.8226 -0.9058
 7872SOL    HW235076   1.481   0.361   2.099  1.0763  0.0026 -1.2573
 7873SOL     OW35077   4.498   0.741  10.995 -0.3858 -0.0906 -0.8987
 7873SOL    HW135078   4.582   0.696  11.000 -0.2268  0.3207  0.1539
 7873SOL    HW235079   4.544   0.824  10.984 -0.8877  0.4574  1.1567
 7874SOL     OW35080   0.757   1.874  13.406  0.1972 -0.4165 -0.3516
 7874SOL    HW135081   0.796   1.890  13.492 -1.5093 -0.9931  0.5260
 7874SOL    HW235082   0.676   1.923  13.421  0.4189 -0.0607 -0.3070
 7875SOL     OW35083   2.890   0.440   4.231  0.1518  0.1454  0.4303
 7875SOL    HW135084   2.907   0.512   4.170 -0.9775  0.3344  0.3387
 7875SOL    HW235085   2.812   0.469   4.278  0.0846 -1.0677  1.0543
 7876SOL     OW35086   1.083   4.503   5.699  0.0715 -0.4414  0.1128
 7876SOL    HW135087   0.994   4.509   5.663 -0.2885 -1.1623  0.8884
 7876SOL    HW235088   1.084   4.416   5.738 -1.1598  0.2700  1.7224
 7877SOL     OW35089   4.232   2.810   3.049 -0.7897  0.2869 -0.7425
 7877SOL    HW135090   4.315   2.768   3.027 -0.4345  1.0975 -0.9583
 7877SOL    HW235091   4.250   2.856   3.131 -0.5290 -1.3748  0.1244
 7878SOL     OW35092   3.991   0.600   2.867  0.3084  0.1670  0.1980
 7878SOL    HW135093   4.025   0.583   2.780  1.2327 -0.2353  0.6426
 7878SOL    HW235094   3.965   0.692   2.856 -0.0104  0.1022  0.3978
 7879SOL     OW35095   3.137   0.349   6.999 -0.4688  0.1525  0.1948
 7879SOL    HW135096   3.193   0.406   7.052 -1.2911 -0.6393  1.9289
 7879SOL    HW235097   3.060   0.332   7.054 -0.3485  0.2466  0.3917
 7880SOL     OW35098   2.283   3.821   2.358 -0.7997 -0.3527 -0.5479
 7880SOL    HW135099   2.353   3.857   2.304  0.3934  0.3521  1.4482
 7880SOL    HW235100   2.334   3.763   2.416 -0.9019 -2.9026 -3.0185
 7881SOL     OW35101   2.817   0.973  12.728 -0.3552  0.3574  0.1483
 7881SOL    HW135102   2.862   0.889  12.719 -1.8524 -0.3369 -0.7574
 7881SOL    HW235103   2.763   0.964  12.807 -1.3361 -1.6935 -0.7812
 7882SOL     OW35104   4.333   0.201   9.871 -0.1674  0.0884  0.0069
 7882SOL    HW135105   4.248   0.244   9.870  0.9753  2.3356  0.0219
 7882SOL    HW235106   4.397   0.268   9.846 -1.1213  0.3440 -1.7102
 7883SOL     OW35107   4.567   3.416   4.739 -0.1135  0.3164  0.3117
 7883SOL    HW135108   4.658   3.432   4.714  0.0138  3.2028  2.5506
 7883SOL    HW235109   4.562   3.449   4.828 -0.0141  1.0223  0.0546
 7884SOL     OW35110   0.617   1.072   8.024  0.2764 -0.3244 -0.0554
 7884SOL    HW135111   0.672   1.122   8.084 -1.2554 -0.5133  1.4995
 7884SOL    HW235112   0.537   1.123   8.010 -0.2450 -1.4744 -1.3118
 7885SOL     OW35113   0.578   1.718   6.414  0.1578 -0.2326  0.1269
 7885SOL    HW135114   0.554   1.791   6.472 -0.5124 -0.3248 -0.0394
 7885SOL    HW235115   0.673   1.727   6.404  0.1243 -0.9387 -0.8018
 7886SOL     OW35116   3.118   3.094   9.126  0.1370 -0.3753 -0.1971
 7886SOL    HW135117   3.178   3.167   9.143 -2.7042  1.5424  1.6854
 7886SOL    HW235118   3.172   3.040   9.069 -0.3508  0.1507 -1.1553
 7887SOL     OW35119   2.573   2.058  13.269  0.0006  0.1560 -0.2867
 7887SOL    HW135120   2.654   2.097  13.236  0.7963 -1.0266  0.2736
 7887SOL    HW235121   2.602   1.984  13.322 -0.9193 -0.2491 -0.3457
 7888SOL     OW35122   3.327   4.441   6.919 -0.1384 -0.9734 -0.1785
 7888SOL    HW135123   3.399   4.391   6.959 -2.4860 -2.9864  1.5012
 7888SOL    HW235124   3.262   4.377   6.945 -0.2271 -1.1781 -0.9125
 7889SOL     OW35125   0.658   1.629   5.387 -0.5066 -0.5280  0.1016
 7889SOL    HW135126   0.750   1.649   5.404 -0.5159  0.3676 -0.8357
 7889SOL    HW235127   0.636   1.591   5.471  0.7126 -2.2804 -0.3654
 7890SOL     OW35128   2.849   4.111  14.305 -0.1189 -0.1418 -0.4358
 7890SOL    HW135129   2.857   4.063  14.387 -1.5137  0.7964  0.2419
 7890SOL    HW235130   2.753   4.104  14.298 -0.0833 -2.0541  0.9280
 7891SOL     OW35131   2.979   0.907   2.575  0.1810  0.0662  0.4331
 7891SOL    HW135132   3.044   0.967   2.536  0.4856  0.7858  2.0284
 7891SOL    HW235133   3.031   0.894   2.655  1.1042  0.7512 -0.0502
 7892SOL     OW35134   2.274   3.322  12.323  0.4103  0.9498  0.1396
 7892SOL    HW135135   2.227   3.247  12.357 -0.0854  1.3773  0.3915
 7892SOL    HW235136   2.213   3.394  12.336  1.5817  2.1751 -1.1348
 7893SOL     OW35137   2.550   4.525   4.199  0.0711  0.1655  0.5919
 7893SOL    HW135138   2.485   4.595   4.205  0.8291  0.9454 -0.2745
 7893SOL    HW235139   2.589   4.525   4.286  1.6449  0.9011 -0.1169
 7894SOL     OW35140   2.275   1.375  10.846  0.6452 -0.1906  0.2583
 7894SOL    HW135141   2.247   1.443  10.786 -2.4865  0.4440  2.4237
 7894SOL    HW235142   2.222   1.305  10.808 -0.6470  0.0247  1.6507
 7895SOL     OW35143   1.267   4.332   6.185  0.1535  0.2588 -0.1762
 7895SOL    HW135144   1.329   4.361   6.118 -1.1506  0.4675 -1.2803
 7895SOL    HW235145   1.287   4.402   6.248 -0.6433  0.3693 -0.0428
 7896SOL     OW35146   1.233   1.087   1.773  0.0083 -1.0956  0.3891
 7896SOL    HW135147   1.189   1.008   1.806  0.5244 -0.4047  2.7354
 7896SOL    HW235148   1.270   1.130   1.850  0.4913  0.3346 -0.6445
 7897SOL     OW35149   1.204   1.445   4.663  0.0242  0.2266 -0.9651
 7897SOL    HW135150   1.140   1.510   4.691  1.2006  1.4674 -1.1332
 7897SOL    HW235151   1.189   1.437   4.569  2.2591  0.6671 -1.3679
 7898SOL     OW35152   4.703   2.095   7.996 -0.2116 -0.0843 -0.5926
 7898SOL    HW135153   4.629   2.042   7.966 -0.6287 -0.3054  0.8067
 7898SOL    HW235154   0.055   2.036   8.003  0.8619  1.0123 -3.0213
 7899SOL     OW35155   3.718   0.464   1.897 -0.4807  0.1546  0.6583
 7899SOL    HW135156   3.792   0.501   1.850  0.3066 -1.1013  0.9010
 7899SOL    HW235157   3.727   0.524   1.972  1.5656  0.3055  0.2870
 7900SOL     OW35158   1.625   2.442   5.781  0.1983 -0.1384  0.5930
 7900SOL    HW135159   1.638   2.385   5.706  1.8686 -0.3223  1.0343
 7900SOL    HW235160   1.695   2.506   5.769  1.8152 -2.0571 -0.0890
 7901SOL     OW35161   0.478   1.356  15.884 -0.0361  0.4093  0.0386
 7901SOL    HW135162   0.475   1.265  15.913  0.7220  0.6771  0.9459
 7901SOL    HW235163   0.436   1.397  15.960  0.4848 -1.8954  1.5584
 7902SOL     OW35164   1.733   0.595   6.869 -0.1523 -0.5595 -0.3468
 7902SOL    HW135165   1.787   0.674   6.868  0.1624 -0.7739 -0.2390
 7902SOL    HW235166   1.774   0.538   6.934 -2.3302 -0.6856  0.9356
 7903SOL     OW35167   1.593   0.070   8.091  0.2682  0.5162 -0.1312
 7903SOL    HW135168   1.533   0.066   8.165  1.1973 -0.0786  0.6028
 7903SOL    HW235169   1.581   0.163   8.072  1.9822  0.1736 -2.8673
 7904SOL     OW35170   2.461   3.761  15.586 -0.1963  0.4711 -0.5392
 7904SOL    HW135171   2.532   3.697  15.573 -0.3146 -0.3047  2.5946
 7904SOL    HW235172   2.502   3.841  15.553  0.3442 -0.5330 -2.3331
 7905SOL     OW35173   3.339   4.595   5.304 -0.7551 -0.0773 -0.2675
 7905SOL    HW135174   3.396   4.524   5.275  0.4274  0.9300 -0.4040
 7905SOL    HW235175   3.390   4.669   5.271 -0.3334 -0.4033 -0.3412
 7906SOL     OW35176   4.482   2.157  17.290  0.2720 -0.6644  0.0330
 7906SOL    HW135177   4.546   2.206  17.341  0.7849 -1.6073  0.2872
 7906SOL    HW235178   4.445   2.099  17.357  2.6382  0.6110  2.4355
 7907SOL     OW35179   4.133   1.379  15.039  0.1705  0.1384  0.5247
 7907SOL    HW135180   4.215   1.429  15.029 -0.4949  1.0389 -0.4244
 7907SOL    HW235181   4.131   1.329  14.958 -1.1157  0.8267  0.1328
 7908SOL     OW35182   0.792   4.151   6.727 -0.0049 -0.3529  0.1622
 7908SOL    HW135183   0.710   4.199   6.741  1.2174  2.4140 -2.0444
 7908SOL    HW235184   0.802   4.140   6.821 -0.0033  0.9949  0.3176
 7909SOL     OW35185   4.279   0.697  15.840 -0.2907 -0.2346 -0.1016
 7909SOL    HW135186   4.233   0.620  15.808  0.9654 -0.4752 -1.3620
 7909SOL    HW235187   4.235   0.705  15.925  1.8773  0.1737  0.9882
 7910SOL     OW35188   2.741   3.980   0.033 -0.5651  0.1029  0.3073
 7910SOL    HW135189   2.820   3.933   0.060 -0.0709  0.2041 -1.0066
 7910SOL    HW235190   2.777   3.992  17.640  1.8352  2.8718  1.6832
 7911SOL     OW35191   3.448   1.485   0.486 -0.2707  0.5749  0.1392
 7911SOL    HW135192   3.360   1.457   0.462  0.0278 -0.8936  0.7342
 7911SOL    HW235193   3.477   1.510   0.399 -1.7622 -2.4336 -1.2079
 7912SOL     OW35194   4.143   2.339   3.297 -0.1416  0.2936  0.1173
 7912SOL    HW135195   4.068   2.282   3.279  2.0531 -1.9256 -1.9360
 7912SOL    HW235196   4.113   2.375   3.381  0.8790  0.7838  0.2709
 7913SOL     OW35197   1.997   0.046   2.438  0.4579  0.5487  0.7976
 7913SOL    HW135198   2.002   4.695   2.499  0.3555  0.0641  0.2275
 7913SOL    HW235199   2.076   0.087   2.472  1.8189 -0.4103 -1.2183
 7914SOL     OW35200   2.472   0.701  13.910  0.3436  0.0467 -0.4768
 7914SOL    HW135201   2.495   0.609  13.923 -2.0494 -0.4550  0.2048
 7914SOL    HW235202   2.563   0.728  13.901  0.8663 -1.1297  1.3026
 7915SOL     OW35203   3.475   3.262   7.055  0.2498 -0.2467  0.3168
 7915SOL    HW135204   3.425   3.343   7.067  0.2966 -0.2941  0.8185
 7915SOL    HW235205   3.510   3.242   7.141  0.1434 -1.9869 -0.0492
 7916SOL     OW35206   0.948   4.323   8.289 -0.3613  0.1264 -0.3933
 7916SOL    HW135207   1.037   4.289   8.293 -0.5928 -0.4556 -0.0943
 7916SOL    HW235208   0.950   4.381   8.365  0.0901  1.4527 -1.4166
 7917SOL     OW35209   3.024   3.468  13.311 -1.1874 -0.1128  0.1121
 7917SOL    HW135210   3.080   3.490  13.237 -0.1752  0.4679  1.0527
 7917SOL    HW235211   3.018   3.552  13.357  2.0401  0.6193 -0.8735
 7918SOL     OW35212   3.870   2.250   2.158  0.4434 -0.0001  0.2390
 7918SOL    HW135213   3.813   2.318   2.121  0.0260  0.4201  1.6537
 7918SOL    HW235214   3.962   2.276   2.152  0.9837 -1.4254  2.1846
 7919SOL     OW35215   3.364   0.403   4.806 -1.2030 -0.2903 -0.1627
 7919SOL    HW135216   3.446   0.425   4.763 -1.7941  0.8479 -0.7108
 7919SOL    HW235217   3.346   0.318   4.766 -3.6946  0.2877 -0.2670
 7920SOL     OW35218   4.218   1.064   3.493  0.1340 -0.4837 -0.1828
 7920SOL    HW135219   4.126   1.085   3.479  0.0748  0.4880  1.5938
 7920SOL    HW235220   4.236   1.083   3.585 -1.4807 -1.0427  0.2487
 7921SOL     OW35221   1.870   2.789   7.277  0.0729 -0.7287 -0.1740
 7921SOL    HW135222   1.898   2.698   7.264 -1.7784 -1.2347 -0.7237
 7921SOL    HW235223   1.901   2.812   7.364 -1.0615 -1.0837  0.3281
 7922SOL     OW35224   4.058   2.782  16.343 -0.8479  0.0990 -0.2837
 7922SOL    HW135225   4.047   2.819  16.256  0.3483  0.7726 -0.1532
 7922SOL    HW235226   3.971   2.806  16.375 -0.5034  0.7510  0.1667
 7923SOL     OW35227   1.869   0.647  17.534 -0.0583 -0.4136  0.7169
 7923SOL    HW135228   1.797   0.607  17.582 -0.6295  0.8980  0.9716
 7923SOL    HW235229   1.820   0.678  17.458 -0.4766  0.0928  1.1924
 7924SOL     OW35230   0.759   0.411   6.416 -0.0223  0.1396 -0.3705
 7924SOL    HW135231   0.767   0.335   6.474 -0.4747  0.6482  0.3570
 7924SOL    HW235232   0.835   0.392   6.361 -0.8858  0.7945 -1.7700
 7925SOL     OW35233   2.791   0.953   3.327  0.1628 -0.7398  0.1360
 7925SOL    HW135234   2.751   0.990   3.249  3.4573  1.7826 -0.3650
 7925SOL    HW235235   2.785   0.859   3.311 -1.3018 -0.7053  0.4259
 7926SOL     OW35236   0.767   1.501   3.318  0.3920 -0.0884 -0.0149
 7926SOL    HW135237   0.715   1.465   3.247 -0.9974 -1.0424  1.4921
 7926SOL    HW235238   0.851   1.453   3.323 -0.4114 -1.5502 -0.5383
 7927SOL     OW35239   0.141   3.555   5.322 -0.3555  0.4158 -0.6196
 7927SOL    HW135240   0.138   3.651   5.318 -0.0842  0.6095  3.6154
 7927SOL    HW235241   0.189   3.523   5.246 -0.7988  0.4986 -0.9308
 7928SOL     OW35242   3.342   2.578  15.348 -0.4388  0.3658  0.1778
 7928SOL    HW135243   3.359   2.570  15.254  2.9825  0.3237  0.8169
 7928SOL    HW235244   3.366   2.670  15.357  0.3688 -0.1004  2.5881
 7929SOL     OW35245   0.458   3.321  14.499  0.7101  0.1071  0.2539
 7929SOL    HW135246   0.525   3.350  14.561  1.8783 -1.0035 -0.4753
 7929SOL    HW235247   0.412   3.262  14.559  0.3489  1.5066  1.3314
 7930SOL     OW35248   0.295   0.171  12.408 -0.8638 -0.4218  0.1249
 7930SOL    HW135249   0.384   0.140  12.392 -0.4409  1.2494 -0.7531
 7930SOL    HW235250   0.251   0.162  12.324 -2.3340 -2.6739  1.1527
 7931SOL     OW35251   1.155   0.002   0.802  0.2567  0.2745  0.3806
 7931SOL    HW135252   1.121   0.082   0.839 -1.6100 -0.5943  0.5162
 7931SOL    HW235253   1.242   4.715   0.841  0.2316 -3.0468 -0.4228
 7932SOL     OW35254   2.224   2.799  14.898  0.0292  0.3661 -0.2273
 7932SOL    HW135255   2.143   2.755  14.923 -1.3057  3.0452  0.1551
 7932SOL    HW235256   2.208   2.857  14.823  0.2213 -1.0101 -1.3298
 7933SOL     OW35257   2.255   0.820   3.417 -0.9153 -0.3670 -0.4880
 7933SOL    HW135258   2.343   0.795   3.445 -1.5224 -1.1021  0.7517
 7933SOL    HW235259   2.266   0.842   3.324 -0.8514 -1.5316 -0.7538
 7934SOL     OW35260   2.584   3.713   2.745 -0.4300 -0.1879 -0.2321
 7934SOL    HW135261   2.563   3.650   2.814 -1.9399  0.8613  0.2469
 7934SOL    HW235262   2.657   3.764   2.780  0.1928 -2.5824  1.9481
 7935SOL     OW35263   3.213   3.890  15.216 -0.0460  0.6422 -0.0962
 7935SOL    HW135264   3.237   3.978  15.247 -0.8426  0.4148  1.1554
 7935SOL    HW235265   3.290   3.842  15.246  0.2376 -0.6791 -2.9561
 7936SOL     OW35266   0.000   3.332   2.289  0.0866 -0.2727  0.6336
 7936SOL    HW135267   4.636   3.327   2.249 -0.3535 -1.2146  1.7041
 7936SOL    HW235268   4.693   3.356   2.376 -0.0503 -0.8288  0.7435
 7937SOL     OW35269   4.170   0.369   4.360 -0.3483 -0.1662 -0.0800
 7937SOL    HW135270   4.137   0.403   4.443  0.9624  0.6381  0.1181
 7937SOL    HW235271   4.261   0.399   4.353 -0.7645  0.8842 -0.9642
 7938SOL     OW35272   0.658   2.283   4.968 -0.7569 -0.2827  0.2916
 7938SOL    HW135273   0.679   2.223   5.039 -1.3622 -0.6897  0.1231
 7938SOL    HW235274   0.711   2.249   4.896  1.1607  0.3363  1.4150
 7939SOL     OW35275   2.612   2.493  12.980 -0.2023 -0.0883 -0.1822
 7939SOL    HW135276   2.620   2.479  12.885  1.2575  0.8582 -0.1931
 7939SOL    HW235277   2.660   2.575  12.991 -0.7697  0.0685  1.1237
 7940SOL     OW35278   3.890   3.446   2.566 -0.4861 -0.2833 -0.2880
 7940SOL    HW135279   3.835   3.376   2.600  0.7882 -0.4944  1.3356
 7940SOL    HW235280   3.947   3.414   2.496 -2.2026 -1.4912 -1.1165
 7941SOL     OW35281   3.354   3.017   2.868 -0.2376 -0.5302  0.4372
 7941SOL    HW135282   3.375   2.933   2.827  2.1538  1.2472 -1.9886
 7941SOL    HW235283   3.397   3.007   2.953 -0.4903  0.0938  0.6429
 7942SOL     OW35284   0.226   1.448   2.702 -0.4421  0.1435  0.1810
 7942SOL    HW135285   0.197   1.376   2.647  0.5702 -1.5960  1.9238
 7942SOL    HW235286   0.145   1.474   2.746  0.9139  1.7080  1.7371
 7943SOL     OW35287   0.956   0.996  17.374 -0.1323 -0.2028 -0.1939
 7943SOL    HW135288   0.940   0.929  17.307 -2.5645  0.8257 -0.6161
 7943SOL    HW235289   1.015   1.054  17.326  2.0162 -0.8969  1.5936
 7944SOL     OW35290   1.936   0.936   2.040 -0.2386  0.2878  0.4314
 7944SOL    HW135291   2.009   0.897   1.991 -1.3444 -1.1560 -0.0924
 7944SOL    HW235292   1.892   0.855   2.067  0.0159 -0.5442 -1.6514
 7945SOL     OW35293   1.419   3.609   8.287 -0.3957 -0.7550  0.1552
 7945SOL    HW135294   1.361   3.642   8.218  0.4794 -2.1991 -1.2894
 7945SOL    HW235295   1.351   3.594   8.352 -0.5631  1.0503  0.3935
 7946SOL     OW35296   0.088   4.111   6.232  0.0169  0.7625 -0.0086
 7946SOL    HW135297   0.158   4.091   6.170 -1.9266 -1.9142 -1.3733
 7946SOL    HW235298   0.045   4.025   6.229  0.2490  0.6707 -0.6924
 7947SOL     OW35299   3.924   3.977   3.985  0.1891  0.3197  0.2534
 7947SOL    HW135300   3.910   3.894   3.939 -2.1516  1.4242 -1.0441
 7947SOL    HW235301   3.836   3.986   4.023  0.5697  1.4077  0.8506
 7948SOL     OW35302   0.372   3.850   9.871  0.2870 -0.2137  0.0855
 7948SOL    HW135303   0.301   3.797   9.907  0.2016 -0.7488 -0.8757
 7948SOL    HW235304   0.432   3.775   9.863 -1.1840 -1.4337  0.4057
 7949SOL     OW35305   2.450   0.577   8.342 -0.2513  0.0855 -0.3128
 7949SOL    HW135306   2.401   0.549   8.264  1.9275 -2.8818 -0.6475
 7949SOL    HW235307   2.486   0.664   8.325 -0.1153  0.0955  0.0359
 7950SOL     OW35308   4.635   4.504  10.542  0.0538  0.0354 -0.3291
 7950SOL    HW135309   4.695   4.508  10.616  1.7809 -0.6088 -1.7086
 7950SOL    HW235310   4.552   4.513  10.590 -0.9300 -1.4231 -1.7599
 7951SOL     OW35311   2.337   2.185  13.384  0.4647  0.3676  0.5738
 7951SOL    HW135312   2.425   2.177  13.345 -0.2147  2.3133 -1.4124
 7951SOL    HW235313   2.279   2.141  13.322  0.4993  2.8408 -1.2561
 7952SOL     OW35314   0.780   2.096   9.786 -0.2200 -0.1054  0.5804
 7952SOL    HW135315   0.788   2.046   9.867 -0.3384  1.2151  1.3887
 7952SOL    HW235316   0.812   2.040   9.715  0.4900  1.0558 -0.0150
 7953SOL     OW35317   4.696   3.489  12.552  0.2047 -0.3613 -0.1863
 7953SOL    HW135318   4.711   3.466  12.644  3.3677 -2.3560 -1.1972
 7953SOL    HW235319   4.706   3.584  12.558 -1.3031 -0.1823 -0.3899
 7954SOL     OW35320   2.391   0.208   3.351 -0.1641 -0.1950  0.0200
 7954SOL    HW135321   2.418   0.171   3.267 -0.3159 -0.3541  0.0404
 7954SOL    HW235322   2.348   0.280   3.305  3.6425 -0.1123 -3.3605
 7955SOL     OW35323   1.665   4.595  12.033  0.1132  0.0855 -0.1821
 7955SOL    HW135324   1.647   4.682  11.998  3.1125  1.0889  0.7910
 7955SOL    HW235325   1.688   4.546  11.954 -0.3641 -2.2345  1.1232
 7956SOL     OW35326   0.048   0.066   8.047 -0.1504 -0.2969 -0.2006
 7956SOL    HW135327   0.031   0.152   8.009 -1.6847  0.2928  1.7937
 7956SOL    HW235328   0.081   0.088   8.134 -0.2404  3.0595 -1.0116
 7957SOL     OW35329   3.579   2.368   7.492  0.3018 -0.3422 -0.2004
 7957SOL    HW135330   3.516   2.311   7.447  0.0882  1.2778 -1.9341
 7957SOL    HW235331   3.529   2.377   7.573  0.2719  1.0953 -0.3863
 7958SOL     OW35332   3.823   1.760   0.700  0.7645  0.1938 -0.3813
 7958SOL    HW135333   3.857   1.813   0.627 -0.5506 -0.6447 -1.6013
 7958SOL    HW235334   3.790   1.681   0.658 -0.0314  0.8407 -0.9879
 7959SOL     OW35335   0.395   4.017   2.338  0.5994 -0.3273 -0.0593
 7959SOL    HW135336   0.360   4.106   2.334  1.1763 -0.1443 -1.3491
 7959SOL    HW235337   0.392   4.004   2.243  0.1250 -0.8386  0.0218
 7960SOL     OW35338   3.613   4.561   4.534  0.0296 -0.3152  0.0678
 7960SOL    HW135339   3.670   4.635   4.512  0.0097 -0.1491  0.5769
 7960SOL    HW235340   3.666   4.489   4.500 -0.4524 -0.5701 -0.1383
 7961SOL     OW35341   3.220   0.973   3.069  0.2799  0.1252  0.0436
 7961SOL    HW135342   3.208   1.067   3.053 -2.8242 -0.0885  1.0907
 7961SOL    HW235343   3.287   0.972   3.137  2.1246 -0.7549 -1.7830
 7962SOL     OW35344   0.590   1.046   5.767  0.4466 -0.2642  0.9761
 7962SOL    HW135345   0.594   1.003   5.681  0.5073  1.0018  0.3578
 7962SOL    HW235346   0.542   0.988   5.827 -2.8067 -2.0942 -3.4308
 7963SOL     OW35347   2.162   2.791   6.522 -0.1513  0.1730  0.4827
 7963SOL    HW135348   2.114   2.867   6.555 -0.4523  0.9778 -1.8094
 7963SOL    HW235349   2.099   2.735   6.479 -0.2125 -0.4283  1.3592
 7964SOL     OW35350   1.768   0.421   7.332 -0.1690 -0.4893 -0.3940
 7964SOL    HW135351   1.700   0.387   7.274 -0.3485  0.9095 -0.9886
 7964SOL    HW235352   1.832   0.351   7.316 -0.2618 -0.6511 -0.0694
 7965SOL     OW35353   2.767   2.610  17.152 -0.1877  0.5494  0.2479
 7965SOL    HW135354   2.814   2.609  17.069  1.8492  1.4643  1.3757
 7965SOL    HW235355   2.692   2.571  17.108  0.6612 -0.4612 -0.3374
 7966SOL     OW35356   0.226   3.915   7.217  0.3221  0.2310  0.2191
 7966SOL    HW135357   0.248   3.987   7.276 -0.1978  0.8026 -0.2946
 7966SOL    HW235358   0.234   3.955   7.131  1.8044 -0.9491 -0.1982
 7967SOL     OW35359   1.568   3.077   4.566  0.6613  0.6768 -0.2267
 7967SOL    HW135360   1.568   2.981   4.562  2.5133  0.7082 -0.9403
 7967SOL    HW235361   1.659   3.091   4.594  0.8626 -0.6844 -0.1989
 7968SOL     OW35362   0.417   4.518  17.642 -0.3243  0.1040  0.2299
 7968SOL    HW135363   0.364   4.491  17.568  0.9284  1.1542 -1.0619
 7968SOL    HW235364   0.496   4.532  17.590  1.1983 -0.6269  2.3552
 7969SOL     OW35365   1.337   0.336  16.880 -0.2818 -0.0505 -0.4201
 7969SOL    HW135366   1.279   0.286  16.822 -0.4101 -1.2359  0.7400
 7969SOL    HW235367   1.266   0.398  16.893 -1.9856 -1.4999 -2.6897
 7970SOL     OW35368   3.036   0.489   7.954 -0.6323  0.5838  0.2476
 7970SOL    HW135369   3.012   0.494   7.861 -1.3628  0.0308  0.4067
 7970SOL    HW235370   2.987   0.563   7.990  0.4978  1.0495  0.8075
 7971SOL     OW35371   4.020   0.922   2.065 -0.3857  0.2709 -0.2987
 7971SOL    HW135372   3.961   0.953   1.997  0.0012 -2.7022 -1.9842
 7971SOL    HW235373   4.005   0.994   2.127 -1.9440  0.9225 -1.4676
 7972SOL     OW35374   1.825   0.950   9.474 -0.3844 -0.3110 -0.3572
 7972SOL    HW135375   1.851   0.867   9.514 -0.3148  0.0067  0.2495
 7972SOL    HW235376   1.791   1.005   9.544 -0.6305 -0.1743 -0.5818
 7973SOL     OW35377   3.909   4.014   2.534  0.3406 -0.2578 -0.2844
 7973SOL    HW135378   3.898   3.919   2.530 -0.6259 -0.0620 -2.3505
 7973SOL    HW235379   3.904   4.016   2.630 -2.2072  1.5396 -0.4336
 7974SOL     OW35380   2.127   1.115  15.233 -1.2237  0.2245  0.1497
 7974SOL    HW135381   2.218   1.135  15.210 -1.5226 -0.0361 -1.2683
 7974SOL    HW235382   2.121   1.022  15.211 -2.1125  0.7377 -1.7385
 7975SOL     OW35383   1.088   4.433   3.046 -0.8855 -0.3679 -0.2511
 7975SOL    HW135384   1.000   4.466   3.031 -0.0760  1.0977 -1.7237
 7975SOL    HW235385   1.108   4.470   3.132  2.7922  0.6356 -1.5219
 7976SOL     OW35386   4.055   4.450   8.104  0.0190 -0.3377 -0.1856
 7976SOL    HW135387   4.143   4.477   8.075  0.1049 -0.6482 -0.2163
 7976SOL    HW235388   4.025   4.391   8.035 -1.8878 -0.3011  0.6218
 7977SOL     OW35389   1.627   3.224   9.310  0.6248 -0.1142  0.2836
 7977SOL    HW135390   1.585   3.309   9.295 -1.3079 -1.2393 -0.6270
 7977SOL    HW235391   1.596   3.205   9.398 -0.8083 -3.0301 -0.8440
 7978SOL     OW35392   3.578   3.961   8.036 -0.3809 -0.0236 -0.0895
 7978SOL    HW135393   3.569   4.022   8.110 -2.1760  1.1029 -1.2374
 7978SOL    HW235394   3.546   3.880   8.077  0.4478 -0.5642 -0.5200
 7979SOL     OW35395   2.087   2.890   2.151 -0.0775  0.0737  0.1092
 7979SOL    HW135396   2.053   2.834   2.081  0.4513 -2.4728  1.8787
 7979SOL    HW235397   2.144   2.951   2.106 -1.1321  1.1491  0.2166
 7980SOL     OW35398   2.930   3.033  17.675 -0.1544 -0.4549  0.4511
 7980SOL    HW135399   2.930   2.937  17.667  0.5236 -0.5467  1.5429
 7980SOL    HW235400   2.883   3.031   0.064  2.1305 -1.8471  1.7086
 7981SOL     OW35401   3.049   3.494   8.794  0.5778 -0.0219 -0.0671
 7981SOL    HW135402   2.974   3.492   8.735  1.1489 -2.6543 -0.7265
 7981SOL    HW235403   3.014   3.429   8.856 -0.0890 -0.7711 -1.2260
 7982SOL     OW35404   0.855   3.803   8.789  0.7726 -0.2584 -0.1685
 7982SOL    HW135405   0.937   3.755   8.788 -0.1034 -1.7505 -1.0937
 7982SOL    HW235406   0.836   3.812   8.882  2.2873 -0.8600  0.1981
 7983SOL     OW35407   0.483   0.899   4.727  0.1603 -0.1302  0.5381
 7983SOL    HW135408   0.560   0.893   4.783  0.6047 -0.6027 -0.1141
 7983SOL    HW235409   0.431   0.821   4.746 -2.0352  1.3171  0.4174
 7984SOL     OW35410   4.639   1.307   6.362 -0.8921 -0.1788  0.4178
 7984SOL    HW135411   4.665   1.398   6.350 -1.6885 -0.0884 -0.5897
 7984SOL    HW235412   4.719   1.256   6.350  0.1987  1.2920  1.3180
 7985SOL     OW35413   0.143   3.790  11.301 -0.3437 -0.2066  0.1702
 7985SOL    HW135414   0.113   3.847  11.373 -0.6278  2.2598 -1.9068
 7985SOL    HW235415   0.065   3.769  11.250  0.1269 -0.3963 -0.4675
 7986SOL     OW35416   3.017   3.128   3.615 -0.2325 -0.3110 -0.1949
 7986SOL    HW135417   3.049   3.103   3.528  0.9438  1.6679 -0.3264
 7986SOL    HW235418   2.925   3.139   3.595 -0.2289  0.2193  0.1014
 7987SOL     OW35419   1.408   1.754   2.815 -0.0743 -0.5865 -0.2119
 7987SOL    HW135420   1.431   1.667   2.847  0.6870 -0.2191  0.2446
 7987SOL    HW235421   1.493   1.798   2.807 -0.0040 -0.5721  0.6199
 7988SOL     OW35422   2.339   3.733   6.654 -0.1377  0.6085  0.1550
 7988SOL    HW135423   2.286   3.796   6.702  1.1095  0.4094  1.8001
 7988SOL    HW235424   2.407   3.791   6.620 -0.1682  1.8930  2.3143
 7989SOL     OW35425   3.299   1.366   2.797 -0.1966 -0.1426  0.0118
 7989SOL    HW135426   3.271   1.330   2.881 -1.7763 -1.4977 -1.0796
 7989SOL    HW235427   3.382   1.400   2.830  0.3596 -2.3398  0.9420
 7990SOL     OW35428   0.937   4.071   8.696  0.3978 -0.6365  0.0630
 7990SOL    HW135429   0.983   4.046   8.616  0.8954 -3.2688  1.1809
 7990SOL    HW235430   0.911   3.987   8.733 -0.3547 -0.9616 -1.2321
 7991SOL     OW35431   3.773   1.119   8.042 -0.2545  0.0197  0.1170
 7991SOL    HW135432   3.717   1.106   7.965 -0.4520  1.5994 -0.0087
 7991SOL    HW235433   3.726   1.195   8.074 -0.6421 -0.8776  1.6946
 7992SOL     OW35434   2.130   0.672   4.703  0.0876  0.8333 -0.7202
 7992SOL    HW135435   2.043   0.667   4.741 -0.0885  1.0543 -1.0995
 7992SOL    HW235436   2.168   0.737   4.762  1.2729  0.1781 -0.7361
 7993SOL     OW35437   1.375   1.454   8.533  0.3045 -0.3805  0.1968
 7993SOL    HW135438   1.364   1.469   8.439  3.6510  1.4091  0.0969
 7993SOL    HW235439   1.285   1.444   8.564 -0.4579  0.5150 -1.6797
 7994SOL     OW35440   3.153   1.112   8.210  0.1110  0.1474 -0.0363
 7994SOL    HW135441   3.160   1.034   8.265  1.8276 -0.1654 -0.7121
 7994SOL    HW235442   3.086   1.153   8.265 -0.0538  0.8930 -0.7872
 7995SOL     OW35443   0.705   0.979   6.752  0.2789 -0.4115  0.2323
 7995SOL    HW135444   0.768   1.019   6.810 -0.8944 -0.0493  1.2593
 7995SOL    HW235445   0.635   0.952   6.812 -0.1623  0.2982  0.0327
 7996SOL     OW35446   0.203   4.099   8.290 -0.0014 -0.5601 -0.0795
 7996SOL    HW135447   0.284   4.124   8.333 -0.2698  0.3567 -0.0894
 7996SOL    HW235448   0.172   4.182   8.252 -0.3397 -2.0356 -3.0549
 7997SOL     OW35449   4.702   3.823   1.020  0.0004  0.3455 -1.0349
 7997SOL    HW135450   4.609   3.837   1.040  0.2251 -0.5049  0.5284
 7997SOL    HW235451   0.022   3.901   1.053 -1.5222  1.1248 -0.8781
 7998SOL     OW35452   4.563   3.245   7.432 -0.3507  0.2848 -0.2045
 7998SOL    HW135453   4.600   3.171   7.479 -0.7215 -0.8145 -1.6442
 7998SOL    HW235454   4.616   3.321   7.458  0.1499  0.4492 -1.6933
 7999SOL     OW35455   3.485   4.237   5.526 -0.0485  0.5072  0.5928
 7999SOL    HW135456   3.442   4.322   5.536  0.3232  0.6673  0.8249
 7999SOL    HW235457   3.509   4.230   5.619 -2.0110 -1.3261  0.9824
 8000SOL     OW35458   2.460   3.221  13.304  0.4973 -0.1894 -0.1206
 8000SOL    HW135459   2.384   3.279  13.298  1.5473  1.2218  0.0320
 8000SOL    HW235460   2.450   3.166  13.227 -0.4873  2.5759 -1.9684
 8001SOL     OW35461   4.530   0.661   1.004 -0.4245  0.2239 -0.4105
 8001SOL    HW135462   4.609   0.689   0.958  0.0795 -0.9491 -0.2828
 8001SOL    HW235463   4.466   0.677   0.934 -0.1468  1.6628 -0.3267
 8002SOL     OW35464   1.430   4.593   4.612 -0.4549 -0.1275 -0.1229
 8002SOL    HW135465   1.352   4.647   4.628  0.2482  0.5335  1.1716
 8002SOL    HW235466   1.497   4.661   4.614 -0.6214  0.0089  1.0421
 8003SOL     OW35467   2.510   0.335  14.430 -0.1882 -0.4707  0.1918
 8003SOL    HW135468   2.541   0.324  14.340  0.8338  1.1730  0.3496
 8003SOL    HW235469   2.416   0.320  14.428 -0.3934  0.7360  0.8922
 8004SOL     OW35470   3.862   0.885  17.032  0.1170  0.2633  0.3147
 8004SOL    HW135471   3.898   0.914  16.948  3.1692 -1.8028  0.9208
 8004SOL    HW235472   3.808   0.814  16.998 -2.0424  1.1963  1.7547
 8005SOL     OW35473   0.215   0.094   4.473 -1.0079  0.6997  0.1890
 8005SOL    HW135474   0.228   0.138   4.388 -2.1487  2.2550  0.8194
 8005SOL    HW235475   0.306   0.080   4.497 -1.0115  1.2013  0.4918
 8006SOL     OW35476   3.716   0.435  13.828 -0.1670  0.0601  0.6962
 8006SOL    HW135477   3.752   0.518  13.799  0.2075 -0.0917  0.7319
 8006SOL    HW235478   3.734   0.380  13.752  2.6286  0.8965  0.7623
 8007SOL     OW35479   3.586   2.805   1.719  0.0579 -0.3768  0.4432
 8007SOL    HW135480   3.551   2.717   1.731 -2.1572  0.2799 -1.2000
 8007SOL    HW235481   3.674   2.796   1.683  0.1661 -1.9117  1.1193
 8008SOL     OW35482   0.688   0.675   7.419  0.6044  0.1914  0.3717
 8008SOL    HW135483   0.673   0.770   7.417  0.7728  0.1582 -1.9513
 8008SOL    HW235484   0.766   0.664   7.365  0.7593  0.1338  0.6050
 8009SOL     OW35485   2.020   1.919   4.208 -0.3426 -0.0018  0.5949
 8009SOL    HW135486   1.950   1.870   4.252 -0.5401  2.4037  2.9953
 8009SOL    HW235487   2.016   1.877   4.123  1.0185 -0.6343  0.8417
 8010SOL     OW35488   3.535   4.400  14.111 -0.0240  0.6232 -1.0244
 8010SOL    HW135489   3.626   4.373  14.127  0.0279  1.5701  0.3300
 8010SOL    HW235490   3.527   4.452  14.031 -1.7228  3.2180  0.7974
 8011SOL     OW35491   3.418   0.463  16.229  0.2329 -0.7372 -0.1162
 8011SOL    HW135492   3.430   0.408  16.307 -0.1484 -4.6077 -2.7939
 8011SOL    HW235493   3.375   0.394  16.178  2.1510 -0.5847 -1.9163
 8012SOL     OW35494   3.255   0.813   7.427 -0.4759  0.1262  0.3892
 8012SOL    HW135495   3.165   0.798   7.456 -0.9189  0.0654 -1.0273
 8012SOL    HW235496   3.259   0.893   7.376  1.9458  0.1377  0.6277
 8013SOL     OW35497   4.023   4.714   1.959  0.0776 -0.3012  0.1559
 8013SOL    HW135498   4.106   4.723   2.005 -0.4919  0.6331  1.0133
 8013SOL    HW235499   3.959   4.717   2.030  0.1836 -0.2452  0.2494
 8014SOL     OW35500   0.398   3.763   5.162  0.2083 -0.0695 -0.1284
 8014SOL    HW135501   0.397   3.797   5.252  0.8830 -0.4631  0.0334
 8014SOL    HW235502   0.491   3.744   5.150  0.2178  0.7612 -1.3209
 8015SOL     OW35503   3.696   1.731   4.850 -0.4614  0.1733  0.3937
 8015SOL    HW135504   3.765   1.668   4.830 -0.9909  0.0551 -1.0399
 8015SOL    HW235505   3.652   1.682   4.920 -0.0522  1.1215  1.3134
 8016SOL     OW35506   3.211   0.552   3.412 -0.5867  0.2674  0.0738
 8016SOL    HW135507   3.150   0.510   3.352 -0.9291  1.0240 -0.1080
 8016SOL    HW235508   3.251   0.615   3.352 -0.5040 -0.7141 -0.8879
 8017SOL     OW35509   1.984   4.123  12.284 -0.0669 -0.3031  0.5971
 8017SOL    HW135510   1.922   4.195  12.275 -2.2470 -2.3628 -0.7035
 8017SOL    HW235511   1.936   4.079  12.354  1.5035 -0.6407  1.4719
 8018SOL     OW35512   1.035   2.517   4.108  0.2192  0.9657 -0.0126
 8018SOL    HW135513   1.007   2.608   4.100  1.2709  1.3281  0.4865
 8018SOL    HW235514   1.033   2.482   4.019 -1.4001  0.9495  0.0252
 8019SOL     OW35515   0.070   0.830   0.607  0.2865  0.4006  0.5625
 8019SOL    HW135516   4.706   0.869   0.616  0.0675  0.0887 -0.2616
 8019SOL    HW235517   0.078   0.812   0.514 -2.1167 -1.1736  0.6498
 8020SOL     OW35518   4.665   2.863   8.932  0.1285  0.7055  0.5857
 8020SOL    HW135519   4.700   2.865   8.843 -2.7013  0.2784 -0.5410
 8020SOL    HW235520   4.679   2.771   8.953 -1.9747  0.5437  1.2734
 8021SOL     OW35521   0.035   0.501   7.036 -0.0600  0.0346  0.6344
 8021SOL    HW135522   0.079   0.532   7.116  1.8937  0.2711 -0.5396
 8021SOL    HW235523   0.060   0.570   6.975  2.0039 -0.9401  0.3884
 8022SOL     OW35524   2.272   2.706   8.246  0.5031  0.1043 -0.1297
 8022SOL    HW135525   2.314   2.785   8.279  1.4456 -0.4383 -0.0232
 8022SOL    HW235526   2.289   2.641   8.315 -1.4563  0.4543  0.6624
 8023SOL     OW35527   1.689   0.475  17.054 -0.4780 -0.3952  0.3106
 8023SOL    HW135528   1.751   0.423  17.004 -0.5429  0.0654 -0.2589
 8023SOL    HW235529   1.652   0.411  17.114 -0.8678 -0.0501  0.4422
 8024SOL     OW35530   3.504   3.866   8.677 -0.1401 -0.0748  0.1621
 8024SOL    HW135531   3.554   3.824   8.747  1.0792 -2.5023 -2.1571
 8024SOL    HW235532   3.482   3.949   8.719 -0.8616 -0.5093  0.6361
 8025SOL     OW35533   0.840   1.037   8.683  0.5137  0.0737  0.0042
 8025SOL    HW135534   0.923   1.059   8.640 -0.1330 -1.5270 -2.0667
 8025SOL    HW235535   0.790   1.108   8.642  0.4171 -0.1923 -0.3334
 8026SOL     OW35536   0.328   2.920   8.417 -0.0313 -0.3133  0.0386
 8026SOL    HW135537   0.270   2.844   8.422  0.0989 -0.2559  2.4916
 8026SOL    HW235538   0.340   2.922   8.512  1.7967  1.4928 -0.2083
 8027SOL     OW35539   3.257   3.141   8.420  0.0811  1.1325 -0.7260
 8027SOL    HW135540   3.337   3.099   8.452  0.7859  2.7945 -0.3179
 8027SOL    HW235541   3.211   3.156   8.503 -2.1315 -3.0515 -1.1561
 8028SOL     OW35542   3.916   0.359   4.270  0.3377 -0.1164 -0.0372
 8028SOL    HW135543   3.915   0.455   4.277  0.8180 -0.0446 -1.0016
 8028SOL    HW235544   4.000   0.326   4.301 -0.0240 -1.8984 -0.9184
 8029SOL     OW35545   2.023   0.798   6.296 -0.3258 -0.1593 -0.0544
 8029SOL    HW135546   1.945   0.835   6.256 -0.8672 -0.8418  0.3679
 8029SOL    HW235547   2.065   0.868   6.346 -0.7043 -1.0950  1.5856
 8030SOL     OW35548   2.752   0.790   4.917  0.2294  0.1649 -0.1852
 8030SOL    HW135549   2.751   0.779   4.822 -1.6967 -2.9418  0.2066
 8030SOL    HW235550   2.787   0.708   4.952 -0.1606  0.9769  2.0831
 8031SOL     OW35551   1.201   4.709  13.455  0.0470  0.6040 -0.3154
 8031SOL    HW135552   1.146   4.719  13.533  1.4292 -1.7356  0.9695
 8031SOL    HW235553   1.165   4.632  13.413 -0.3578  0.4253  0.3647
 8032SOL     OW35554   4.180   1.076   3.208 -0.0247  0.1320  0.3439
 8032SOL    HW135555   4.274   1.088   3.193 -0.0764 -0.6101 -0.5417
 8032SOL    HW235556   4.192   1.045   3.298  0.9084 -3.3520 -0.9532
 8033SOL     OW35557   3.993   2.306  14.434 -0.3379 -0.4436 -0.3799
 8033SOL    HW135558   4.026   2.347  14.514  0.8202 -1.8915 -0.1254
 8033SOL    HW235559   3.933   2.243  14.473 -0.2358 -0.3193 -0.0221
 8034SOL     OW35560   0.367   1.140   4.061 -0.4139 -0.5850 -0.4406
 8034SOL    HW135561   0.400   1.074   4.000  0.9898  1.0503 -1.4487
 8034SOL    HW235562   0.357   1.225   4.018  0.2903 -0.1781  0.1914
 8035SOL     OW35563   3.119   3.327  11.508 -0.1743  0.0333  0.2641
 8035SOL    HW135564   3.136   3.236  11.531  0.1394  0.4153  1.5571
 8035SOL    HW235565   3.024   3.324  11.523 -0.0561 -0.5608  0.9335
 8036SOL     OW35566   3.267   3.076   5.414  0.1573  0.1034 -0.7413
 8036SOL    HW135567   3.306   3.162   5.430 -1.6284  0.5410  1.1607
 8036SOL    HW235568   3.318   3.019   5.472  1.9898  1.1283 -1.3372
 8037SOL     OW35569   4.109   1.869   5.286  0.7227  0.3683  0.2677
 8037SOL    HW135570   4.076   1.909   5.206  1.2050  0.9001  0.3370
 8037SOL    HW235571   4.201   1.858   5.263  0.4271 -1.1229 -0.1948
 8038SOL     OW35572   1.902   4.415  13.357 -0.4374  0.2343 -0.6188
 8038SOL    HW135573   1.916   4.500  13.316 -0.8460  0.7172  0.2384
 8038SOL    HW235574   1.831   4.436  13.417  0.6865 -3.1835  1.8904
 8039SOL     OW35575   1.441   4.037   3.545  0.1332 -0.2116 -0.0921
 8039SOL    HW135576   1.482   4.117   3.512  0.6110 -0.0269  0.9693
 8039SOL    HW235577   1.375   4.017   3.479  2.6163 -0.6007 -2.4772
 8040SOL     OW35578   2.531   3.384   1.671  0.2180 -0.3331 -0.4254
 8040SOL    HW135579   2.588   3.357   1.599  1.3178  0.4379  0.1705
 8040SOL    HW235580   2.557   3.319   1.735 -0.2291  1.9451  2.0605
 8041SOL     OW35581   3.572   0.449   4.646 -0.2910 -0.8714 -0.5335
 8041SOL    HW135582   3.650   0.408   4.609  0.9230  1.7126 -0.8666
 8041SOL    HW235583   3.594   0.541   4.633  0.2774 -0.8056  0.8911
 8042SOL     OW35584   0.094   0.713   1.027 -0.1442 -0.4726  0.3549
 8042SOL    HW135585   0.115   0.641   0.967  0.2516  1.1546 -1.4569
 8042SOL    HW235586   0.078   0.670   1.111 -0.9412  3.2955  2.1114
 8043SOL     OW35587   0.355   4.651   6.804  0.3534  0.1931 -0.3758
 8043SOL    HW135588   0.343   4.583   6.737 -1.1066 -0.4712  0.5705
 8043SOL    HW235589   0.450   4.646   6.797  0.3342 -3.4010  2.0637
 8044SOL     OW35590   2.098   2.898   5.644 -0.6155  0.0170  0.0205
 8044SOL    HW135591   2.158   2.948   5.699 -0.5512 -0.2313  0.1760
 8044SOL    HW235592   2.014   2.941   5.657 -0.0065  1.3511 -0.4183
 8045SOL     OW35593   1.060   3.815   6.743 -0.1997 -0.0276 -0.2132
 8045SOL    HW135594   1.030   3.769   6.822  1.9286  1.2570  1.3317
 8045SOL    HW235595   0.996   3.775   6.684 -0.8629  0.8519 -0.0813
 8046SOL     OW35596   2.101   3.905   2.044  0.1033  0.2493  0.4122
 8046SOL    HW135597   2.077   3.964   1.973 -0.0926 -0.8653 -0.4519
 8046SOL    HW235598   2.141   3.832   1.996  2.6146  1.3194  0.8867
 8047SOL     OW35599   0.784   0.966   3.781  0.3155  0.5051  0.2812
 8047SOL    HW135600   0.821   0.996   3.699  1.3408 -4.3143 -1.0356
 8047SOL    HW235601   0.722   1.035   3.806 -1.5825 -0.1741 -2.5844
 8048SOL     OW35602   0.840   3.671   3.710 -0.0727 -0.0152 -0.2974
 8048SOL    HW135603   0.850   3.585   3.751  3.6784  0.3989 -0.3742
 8048SOL    HW235604   0.755   3.667   3.668 -1.1168 -1.0881  1.8910
 8049SOL     OW35605   0.996   2.476   8.577 -0.4696 -0.0016 -0.5500
 8049SOL    HW135606   1.047   2.473   8.658  0.6628 -1.1631 -1.3097
 8049SOL    HW235607   0.914   2.429   8.592  0.0411 -0.9527 -0.7635
 8050SOL     OW35608   1.370   2.642   7.453  0.2258 -0.0776 -0.3071
 8050SOL    HW135609   1.369   2.551   7.484 -0.3138 -0.0814 -0.3359
 8050SOL    HW235610   1.455   2.648   7.410 -1.3436  0.1427 -3.3699
 8051SOL     OW35611   3.118   2.186   3.972  0.2053  0.0066 -0.2983
 8051SOL    HW135612   3.176   2.254   3.937  0.6204  0.2940  0.9471
 8051SOL    HW235613   3.058   2.234   4.028  0.8539  1.8922 -1.2293
 8052SOL     OW35614   0.858   4.197   3.276  0.2238 -0.1860 -0.3020
 8052SOL    HW135615   0.883   4.289   3.290  1.7750 -0.4622 -1.2361
 8052SOL    HW235616   0.836   4.172   3.366  1.8851  0.1723  0.2154
 8053SOL     OW35617   2.574   2.353   5.799 -0.2513  0.0209  0.9210
 8053SOL    HW135618   2.665   2.342   5.826 -0.4018  1.3274  1.9028
 8053SOL    HW235619   2.578   2.443   5.767 -0.6524 -1.2029 -2.5924
 8054SOL     OW35620   1.889   4.271   2.383  0.4827 -0.3009 -0.1515
 8054SOL    HW135621   1.889   4.224   2.300  1.0741 -2.9186  1.3532
 8054SOL    HW235622   1.811   4.325   2.369 -0.9503 -2.7477 -1.5387
 8055SOL     OW35623   4.104   4.612  16.466  0.6512 -0.3529  0.2768
 8055SOL    HW135624   4.052   4.584  16.542 -1.9986 -0.5427 -1.6218
 8055SOL    HW235625   4.073   4.703  16.463  0.5562 -0.3432  1.3187
 8056SOL     OW35626   2.557   3.265   6.479 -0.3552 -0.6471  0.6101
 8056SOL    HW135627   2.509   3.337   6.440  1.3057 -0.5840 -1.3053
 8056SOL    HW235628   2.517   3.243   6.563  1.1302  0.8968  1.7251
 8057SOL     OW35629   0.059   0.191  11.371  0.3708  0.2629  0.2899
 8057SOL    HW135630   0.081   0.119  11.313 -0.6672  0.5572 -0.4663
 8057SOL    HW235631   4.697   0.165  11.405  1.3425 -2.8957  0.3539
 8058SOL     OW35632   0.610   4.287   3.739 -0.4150 -0.0368 -0.4543
 8058SOL    HW135633   0.640   4.341   3.813 -2.0170  2.4129 -1.6160
 8058SOL    HW235634   0.549   4.351   3.705  2.2669  2.2133 -1.0341
 8059SOL     OW35635   3.182   2.540   5.199 -0.4613  0.1935  0.3018
 8059SOL    HW135636   3.167   2.488   5.278 -1.0891  0.5925  0.4466
 8059SOL    HW235637   3.246   2.602   5.235  1.4209 -1.9546  0.6471
 8060SOL     OW35638   2.177   3.859   3.544 -0.2860  0.5467 -0.0901
 8060SOL    HW135639   2.260   3.826   3.580 -1.0803 -1.9763 -0.5443
 8060SOL    HW235640   2.143   3.924   3.605 -0.2250  1.8018 -1.3956
 8061SOL     OW35641   2.521   1.626   9.213 -0.4715 -0.1034 -0.1193
 8061SOL    HW135642   2.570   1.544   9.223  1.0363  0.7366 -0.6041
 8061SOL    HW235643   2.473   1.633   9.296  0.2585 -0.0800  0.3065
 8062SOL     OW35644   3.433   2.051  14.030 -0.1701 -0.7541 -0.5196
 8062SOL    HW135645   3.372   1.979  14.019  0.0394 -0.5508 -3.0412
 8062SOL    HW235646   3.519   2.011  14.017 -1.7624 -3.9895 -1.0373
 8063SOL     OW35647   3.274   1.947   4.089  0.1917 -0.0450  0.1931
 8063SOL    HW135648   3.303   2.005   4.160  0.7501  0.7396 -0.6734
 8063SOL    HW235649   3.179   1.955   4.098  0.2608 -0.1051  0.9553
 8064SOL     OW35650   1.870   0.470   4.405  0.5273 -0.4168 -0.6387
 8064SOL    HW135651   1.950   0.466   4.352  1.2197  0.3655  0.3546
 8064SOL    HW235652   1.816   0.448   4.329 -0.8481  1.0241 -0.0713
 8065SOL     OW35653   2.965   2.304   9.358 -0.0104 -0.8192  0.1284
 8065SOL    HW135654   2.888   2.314   9.415  2.6869  0.7820  3.4528
 8065SOL    HW235655   3.008   2.238   9.412 -3.2436 -1.3046  2.1439
 8066SOL     OW35656   3.477   2.084   6.457  0.0135 -0.2402 -0.5061
 8066SOL    HW135657   3.490   2.009   6.516 -0.8682 -1.6342 -2.0845
 8066SOL    HW235658   3.460   2.156   6.518 -1.2202 -1.2883  0.3958
 8067SOL     OW35659   1.517   4.319   3.760 -0.2050 -0.3168 -0.6752
 8067SOL    HW135660   1.536   4.412   3.756 -1.2293  0.0281  2.7506
 8067SOL    HW235661   1.537   4.297   3.669 -0.3135  1.9380 -1.2323
 8068SOL     OW35662   1.265   3.117   8.349  0.9472 -0.0982 -0.3330
 8068SOL    HW135663   1.177   3.102   8.383  0.8796  0.7381 -0.1420
 8068SOL    HW235664   1.308   3.190   8.393 -1.6161  1.1526  0.0881
 8069SOL     OW35665   1.728   2.804  17.414 -0.0942 -0.0085  0.0148
 8069SOL    HW135666   1.652   2.771  17.367  2.2242 -0.2876 -3.5493
 8069SOL    HW235667   1.798   2.796  17.350  0.8242 -2.6635  1.3549
 8070SOL     OW35668   2.740   0.529  12.763 -0.5033 -0.1545  0.2914
 8070SOL    HW135669   2.673   0.545  12.829  1.7992  1.5946  2.1817
 8070SOL    HW235670   2.712   0.441  12.737  0.7824 -0.7600  0.9494
 8071SOL     OW35671   3.237   0.109   4.211 -0.2602 -0.3148  0.1113
 8071SOL    HW135672   3.282   0.055   4.276 -1.2914  1.4336  2.2531
 8071SOL    HW235673   3.225   0.049   4.137  2.3433 -0.1272 -0.4694
 8072SOL     OW35674   4.303   0.365   3.245 -0.0081  0.4343 -0.2033
 8072SOL    HW135675   4.248   0.318   3.308 -2.6216  0.2978 -2.5916
 8072SOL    HW235676   4.232   0.404   3.194  0.0142  0.9400  0.1598
 8073SOL     OW35677   0.328   0.971   9.089 -0.0286 -0.1601 -0.5684
 8073SOL    HW135678   0.352   1.035   9.021  0.4481 -1.1731 -1.3475
 8073SOL    HW235679   0.332   0.887   9.044  0.6912  0.9317 -2.5275
 8074SOL     OW35680   3.561   0.413   5.769  0.0144 -0.1839  0.1540
 8074SOL    HW135681   3.630   0.432   5.832  3.4962 -0.6911 -3.5675
 8074SOL    HW235682   3.606   0.450   5.694 -1.1652 -0.1559 -0.5426
 8075SOL     OW35683   3.599   0.952   1.541 -0.2784  0.0599 -0.3847
 8075SOL    HW135684   3.691   0.970   1.525  0.1020 -1.4149  0.2242
 8075SOL    HW235685   3.584   1.016   1.611  0.5785  0.0169 -0.1627
 8076SOL     OW35686   4.488   0.166   6.447  0.4727  0.1132  0.2229
 8076SOL    HW135687   4.441   0.228   6.503  2.1472  0.5462  1.1595
 8076SOL    HW235688   4.425   0.095   6.437 -0.5379  0.9343  0.7846
 8077SOL     OW35689   0.837   4.189  16.379 -0.1852 -0.0022  0.0530
 8077SOL    HW135690   0.886   4.251  16.433  2.0738  0.4667 -2.5740
 8077SOL    HW235691   0.866   4.218  16.293 -1.5739 -0.4386 -0.5654
 8078SOL     OW35692   2.085   3.474  11.667 -0.2338  0.2456 -0.3632
 8078SOL    HW135693   2.129   3.396  11.701 -1.4650 -0.4484 -0.3732
 8078SOL    HW235694   2.117   3.474  11.577  0.1891 -0.2328 -0.2156
 8079SOL     OW35695   1.695   4.013   5.422 -0.4300  0.4763 -0.1346
 8079SOL    HW135696   1.643   3.932   5.417  1.5009 -0.7218 -1.1591
 8079SOL    HW235697   1.623   4.071   5.447  0.0352  0.5868  0.9019
 8080SOL     OW35698   0.943   4.242   4.115 -0.2131 -0.3973 -0.1476
 8080SOL    HW135699   0.872   4.266   4.174 -0.9302 -2.1532 -0.2924
 8080SOL    HW235700   1.000   4.194   4.176  1.9103  4.3122  1.5256
 8081SOL     OW35701   0.624   1.988  14.640  0.3465  0.5004 -0.2477
 8081SOL    HW135702   0.558   2.053  14.616 -1.0537 -0.3050  1.4187
 8081SOL    HW235703   0.663   1.971  14.554 -2.5360  0.1566 -1.4957
 8082SOL     OW35704   0.191   4.130   0.137 -0.1417  0.2031  0.2393
 8082SOL    HW135705   0.117   4.188   0.156 -1.5888 -1.4657 -0.3001
 8082SOL    HW235706   0.228   4.130   0.225  0.4990  1.6506 -0.0253
 8083SOL     OW35707   3.186   3.967   6.530  0.4163 -0.3916  0.5015
 8083SOL    HW135708   3.221   4.055   6.521 -0.7928  0.1727  1.2628
 8083SOL    HW235709   3.259   3.923   6.572  1.4624  1.3702  0.5059
 8084SOL     OW35710   3.630   1.012   8.802  0.0927  0.1768  0.2192
 8084SOL    HW135711   3.577   0.969   8.869  0.8468 -0.2161  0.5663
 8084SOL    HW235712   3.685   0.936   8.787 -2.9223 -2.1055  0.8241
 8085SOL     OW35713   4.601   4.477   9.583  0.2170  0.0695 -0.4159
 8085SOL    HW135714   4.546   4.499   9.508 -1.4000 -0.2652  0.6669
 8085SOL    HW235715   4.568   4.532   9.654 -0.5590  0.7148 -1.2714
 8086SOL     OW35716   2.064   3.283   5.246 -0.3161 -0.0757 -0.1865
 8086SOL    HW135717   2.101   3.266   5.333 -0.2994 -0.6065 -0.2971
 8086SOL    HW235718   2.047   3.377   5.257 -2.4760 -0.3342 -1.2065
 8087SOL     OW35719   2.909   2.592  16.934 -0.1548 -0.0634  0.1095
 8087SOL    HW135720   2.874   2.525  16.875  0.8974  1.7165 -2.5353
 8087SOL    HW235721   2.899   2.664  16.872  0.2225 -0.4160 -0.3710
 8088SOL     OW35722   4.380   4.188   3.830 -0.2950 -0.8636  0.2767
 8088SOL    HW135723   4.295   4.221   3.860 -1.1700 -1.8973 -1.0788
 8088SOL    HW235724   4.377   4.212   3.737 -0.8479 -0.6896  0.3392
 8089SOL     OW35725   3.154   1.383  17.602 -0.4112  0.4490  0.0543
 8089SOL    HW135726   3.231   1.351  17.554  0.3798  0.9785  0.9542
 8089SOL    HW235727   3.089   1.367  17.534 -0.2731 -3.4759  0.8070
 8090SOL     OW35728   2.104   0.034   0.881 -0.0018 -0.2438 -0.6759
 8090SOL    HW135729   2.155   0.084   0.816 -1.0460 -0.0971 -1.3830
 8090SOL    HW235730   2.054   4.710   0.815 -0.9259  0.2638 -0.3278
 8091SOL     OW35731   3.034   1.903   9.653 -0.0237 -0.5654 -0.2982
 8091SOL    HW135732   2.986   1.915   9.735 -0.2819 -0.8704 -0.4075
 8091SOL    HW235733   3.108   1.856   9.693  2.0268  1.6616 -1.4875
 8092SOL     OW35734   1.211   3.998  12.424  0.2551  0.2722 -0.2083
 8092SOL    HW135735   1.217   3.948  12.342  1.4061  1.4347 -0.8249
 8092SOL    HW235736   1.137   4.054  12.401  0.5489 -0.6565 -3.3976
 8093SOL     OW35737   2.887   2.308   2.671  0.2544  0.2220  0.2224
 8093SOL    HW135738   2.800   2.344   2.653  0.3248  0.2589 -0.0509
 8093SOL    HW235739   2.926   2.366   2.737  1.5427 -1.2289  0.7281
 8094SOL     OW35740   2.464   1.452   7.483 -0.8238  0.6506 -0.3070
 8094SOL    HW135741   2.540   1.497   7.447 -0.2301  1.5627  2.0398
 8094SOL    HW235742   2.404   1.525   7.494 -2.5454 -0.5190 -1.8500
 8095SOL     OW35743   2.924   1.005  13.694  0.4525 -0.7349  0.3096
 8095SOL    HW135744   2.882   1.070  13.751  1.0770 -2.4549  2.7298
 8095SOL    HW235745   3.001   1.056  13.668  0.6139 -1.4005 -0.5097
 8096SOL     OW35746   2.099   1.119  10.873 -0.0651  0.3227 -0.4520
 8096SOL    HW135747   2.051   1.175  10.935  0.7154  0.4804  0.0092
 8096SOL    HW235748   2.089   1.034  10.915 -0.2518  0.1416 -0.8667
 8097SOL     OW35749   1.080   1.739  16.999  0.4093  0.2092  0.5897
 8097SOL    HW135750   0.985   1.751  17.012  0.3328  1.8143 -1.5629
 8097SOL    HW235751   1.096   1.805  16.932  1.9721 -1.5045 -0.6963
 8098SOL     OW35752   0.554   0.122   1.818  0.4922 -0.2168 -0.2429
 8098SOL    HW135753   0.558   0.033   1.853  0.0558  0.4109  1.3692
 8098SOL    HW235754   0.622   0.114   1.751  1.4014  0.9330  0.5470
 8099SOL     OW35755   0.544   2.701   4.340  0.0033  0.4920  0.6808
 8099SOL    HW135756   0.521   2.748   4.420 -0.8599 -0.8051  1.1899
 8099SOL    HW235757   0.637   2.686   4.359  0.5715  1.9133 -0.9982
 8100SOL     OW35758   4.055   2.322   7.433  0.0101  0.6353 -0.1350
 8100SOL    HW135759   3.981   2.261   7.434  1.0182 -0.5793  0.3723
 8100SOL    HW235760   4.120   2.283   7.491  1.1892  3.7485  0.6350
 8101SOL     OW35761   1.462   2.804   6.650 -0.3949  0.3198 -0.0542
 8101SOL    HW135762   1.483   2.734   6.712 -2.0010  0.4550  0.6591
 8101SOL    HW235763   1.410   2.752   6.588  0.2446 -1.0602  0.5598
 8102SOL     OW35764   2.552   4.194   5.935  0.4398 -0.6244  0.2463
 8102SOL    HW135765   2.627   4.224   5.986  1.9588  1.6630 -3.2966
 8102SOL    HW235766   2.581   4.216   5.846 -0.9267  1.8386  0.4164
 8103SOL     OW35767   1.159   3.358  13.394  0.4291 -0.6311 -0.0763
 8103SOL    HW135768   1.098   3.414  13.442 -2.1863 -1.9325 -1.8661
 8103SOL    HW235769   1.122   3.271  13.409 -2.1628  0.9897  2.8773
 8104SOL     OW35770   0.713   3.635  10.741  0.4763 -0.1181 -0.1345
 8104SOL    HW135771   0.702   3.617  10.834 -2.4241  0.9800 -0.2587
 8104SOL    HW235772   0.633   3.592  10.709  2.0920 -1.8952 -1.8426
 8105SOL     OW35773   2.049   2.086   3.537 -0.6548 -0.5099 -0.1637
 8105SOL    HW135774   2.125   2.080   3.594 -2.3004 -2.3724  1.7848
 8105SOL    HW235775   2.094   2.073   3.453  3.8633  2.9493  1.7523
 8106SOL     OW35776   4.470   2.592   3.843  0.1989 -0.0661 -0.3072
 8106SOL    HW135777   4.478   2.687   3.852  0.5584 -0.1476  0.2502
 8106SOL    HW235778   4.525   2.574   3.919  0.4902 -1.4372 -0.8400
 8107SOL     OW35779   3.450   1.503   2.264  0.2909  0.3661 -0.4653
 8107SOL    HW135780   3.544   1.489   2.268  0.5112  2.1970  0.7212
 8107SOL    HW235781   3.445   1.598   2.277 -2.2906  0.5408 -2.6313
 8108SOL     OW35782   3.596   1.159   4.120 -0.2109 -0.0490 -0.3116
 8108SOL    HW135783   3.550   1.239   4.097  0.2402  0.3689  0.2516
 8108SOL    HW235784   3.593   1.164   4.216  2.4559  0.1292 -0.2235
 8109SOL     OW35785   1.446   4.667   6.826  0.0821 -0.3539 -0.0524
 8109SOL    HW135786   1.509   0.015   6.835  3.1503 -3.0215 -0.3115
 8109SOL    HW235787   1.435   4.670   6.731  1.6659 -0.7475 -0.2490
 8110SOL     OW35788   0.654   1.444   3.598 -0.0241  0.8159 -0.1383
 8110SOL    HW135789   0.703   1.477   3.523 -0.4530  1.7708 -0.0010
 8110SOL    HW235790   0.592   1.517   3.610 -0.0055  0.9080 -0.5988
 8111SOL     OW35791   0.025   1.352   9.324 -0.0320  0.4676  0.1720
 8111SOL    HW135792   0.054   1.261   9.335  0.7754  0.7902  0.7235
 8111SOL    HW235793   0.026   1.372   9.418 -1.4318  0.1157  0.2596
 8112SOL     OW35794   4.264   0.370   6.049  0.1478  0.0133  0.5927
 8112SOL    HW135795   4.242   0.386   5.957  1.9807  0.2292  0.1840
 8112SOL    HW235796   4.214   0.437   6.096  0.0933 -0.7652  1.6657
 8113SOL     OW35797   3.901   3.822   0.402 -0.6135 -0.3617 -0.1852
 8113SOL    HW135798   3.915   3.750   0.341  0.0651  0.2718 -0.7779
 8113SOL    HW235799   3.974   3.876   0.371 -1.1199  0.1024 -0.5826
 8114SOL     OW35800   3.488   3.209   2.699  0.0258 -0.0644 -0.1477
 8114SOL    HW135801   3.432   3.150   2.751  0.3111  0.4022  0.6829
 8114SOL    HW235802   3.434   3.287   2.690  0.5389  0.1153 -1.7284
 8115SOL     OW35803   4.241   0.851   2.775 -0.2985 -0.9721  0.5470
 8115SOL    HW135804   4.315   0.902   2.742  0.1110 -1.1020  1.2763
 8115SOL    HW235805   4.290   0.774   2.802 -1.7796 -2.7057 -1.7187
 8116SOL     OW35806   4.626   4.304  13.184 -0.2343  0.1663 -0.5626
 8116SOL    HW135807   4.611   4.210  13.196  0.6272  0.2913  1.6646
 8116SOL    HW235808   4.547   4.330  13.138  0.8196  0.9741 -1.9168
 8117SOL     OW35809   2.654   4.228  16.760  0.6402 -0.3766  0.5254
 8117SOL    HW135810   2.652   4.259  16.850  1.4105 -0.5853  0.6152
 8117SOL    HW235811   2.597   4.291  16.715  3.3805  1.3549 -0.5978
 8118SOL     OW35812   0.927   4.129   1.111 -0.3191 -0.1827 -0.3769
 8118SOL    HW135813   0.990   4.059   1.130 -1.5854 -1.0661  0.5743
 8118SOL    HW235814   0.864   4.096   1.176  1.3448 -3.3815 -0.3761
 8119SOL     OW35815   0.776   0.970  16.349 -0.0656  0.4964 -0.0402
 8119SOL    HW135816   0.742   1.059  16.345  0.6441  0.6896 -1.5885
 8119SOL    HW235817   0.762   0.956  16.256 -1.0172  0.6337  0.0818
 8120SOL     OW35818   3.608   4.480   3.635 -0.1764 -0.7634 -0.0796
 8120SOL    HW135819   3.604   4.474   3.731 -0.4227  0.6931  0.0106
 8120SOL    HW235820   3.655   4.398   3.623  1.1413  0.1278 -0.9737
 8121SOL     OW35821   1.077   3.471   0.920  0.3645  0.3201 -0.2568
 8121SOL    HW135822   1.071   3.416   0.842 -0.7315 -2.1444  1.5816
 8121SOL    HW235823   1.042   3.557   0.897 -0.9624 -0.6348 -1.8046
 8122SOL     OW35824   1.260   3.141  13.908  0.3742  0.0369 -0.3387
 8122SOL    HW135825   1.168   3.127  13.885  0.5039 -2.9789  0.9042
 8122SOL    HW235826   1.248   3.185  13.991 -1.0847  0.2823 -0.6773
 8123SOL     OW35827   1.710   3.215  12.941 -0.5681  0.0137 -0.1761
 8123SOL    HW135828   1.736   3.212  12.849  0.4037 -1.4502  0.1476
 8123SOL    HW235829   1.704   3.309  12.957  1.5237 -0.4012  2.9656
 8124SOL     OW35830   1.763   4.342   8.235  0.1910 -0.0501 -0.0321
 8124SOL    HW135831   1.777   4.434   8.213 -0.0573  0.8380  3.6136
 8124SOL    HW235832   1.774   4.343   8.330  2.9175 -3.3226 -0.2916
 8125SOL     OW35833   2.395   0.411  14.097 -0.1856 -0.7198  0.2664
 8125SOL    HW135834   2.413   0.391  14.005  3.6435 -0.8999  1.0177
 8125SOL    HW235835   2.474   0.375  14.138  1.2717  0.5077 -1.4059
 8126SOL     OW35836   4.430   4.067   9.692  0.9264  0.2797 -0.0870
 8126SOL    HW135837   4.489   4.112   9.753 -0.9010  1.0064  1.1279
 8126SOL    HW235838   4.375   4.023   9.756  1.4946 -0.7785 -0.3267
 8127SOL     OW35839   0.433   2.430   3.385 -0.6814  0.0008  0.4437
 8127SOL    HW135840   0.447   2.419   3.291 -1.5876 -0.5255  0.3714
 8127SOL    HW235841   0.422   2.524   3.373 -0.9688 -0.0469  0.3316
 8128SOL     OW35842   0.041   0.949   5.134 -0.5686 -0.5761  0.5988
 8128SOL    HW135843   0.043   0.961   5.039 -1.6262 -1.6188  0.4442
 8128SOL    HW235844   0.123   0.906   5.155  0.5814  2.1450  1.6560
 8129SOL     OW35845   0.647   4.718   5.183 -0.3848  0.2676  0.0316
 8129SOL    HW135846   0.731   4.683   5.153 -1.1661 -0.6307 -1.1387
 8129SOL    HW235847   0.673   0.022   5.271 -1.7514  0.0076  0.5084
 8130SOL     OW35848   4.054   0.131   5.137 -0.2837  0.2736  0.6860
 8130SOL    HW135849   4.146   0.150   5.116 -0.9244  0.5737 -1.8424
 8130SOL    HW235850   4.017   0.164   5.056 -0.4995 -1.8730 -0.0895
 8131SOL     OW35851   1.485   0.514  16.545 -0.0356 -0.0806 -0.3034
 8131SOL    HW135852   1.458   0.441  16.600 -0.8626 -0.1422 -0.7975
 8131SOL    HW235853   1.473   0.478  16.458 -0.5021  0.5552 -0.5062
 8132SOL     OW35854   3.473   3.099   1.925  0.7195  0.4860 -0.1412
 8132SOL    HW135855   3.512   3.129   2.008 -1.2971  0.3946  0.8398
 8132SOL    HW235856   3.525   3.019   1.924  0.8080  0.5645 -1.7048
 8133SOL     OW35857   1.273   1.855  16.628 -0.4480  0.3188 -0.5652
 8133SOL    HW135858   1.311   1.941  16.646 -0.6874  0.3117 -0.0336
 8133SOL    HW235859   1.207   1.867  16.696 -1.7426  0.0551 -1.7642
 8134SOL     OW35860   4.403   2.019   4.150 -0.3619  0.6159  0.0432
 8134SOL    HW135861   4.317   1.988   4.122  0.4840  0.2331 -2.1203
 8134SOL    HW235862   4.377   2.079   4.219 -0.1925  0.8122 -0.0640
 8135SOL     OW35863   0.670   3.590  13.656  0.2285 -0.9263 -0.0768
 8135SOL    HW135864   0.659   3.682  13.679 -0.4563 -0.9207 -0.4247
 8135SOL    HW235865   0.622   3.545  13.726 -0.7464 -1.0441 -0.8183
 8136SOL     OW35866   2.161   2.096   7.088  0.8476 -0.0685 -0.3292
 8136SOL    HW135867   2.070   2.106   7.060  0.4644 -1.2770  0.4892
 8136SOL    HW235868   2.197   2.144   7.013 -0.0237 -1.0662 -1.3967
 8137SOL     OW35869   3.293   3.404   8.388 -0.0785  0.1929  0.1857
 8137SOL    HW135870   3.224   3.426   8.325 -0.0236 -0.1886 -0.0117
 8137SOL    HW235871   3.307   3.310   8.376  2.9751  0.8166 -1.2056
 8138SOL     OW35872   3.278   2.325   5.476 -0.7743  0.0089  0.2118
 8138SOL    HW135873   3.215   2.397   5.469  0.4245  0.9569 -0.7491
 8138SOL    HW235874   3.307   2.338   5.567  2.9131  0.1406 -0.9851
 8139SOL     OW35875   2.859   1.342   7.361 -0.7560  0.7589 -0.5319
 8139SOL    HW135876   2.926   1.285   7.323  1.4779  3.0350  0.0063
 8139SOL    HW235877   2.810   1.346   7.279 -2.1855  0.5511  0.3023
 8140SOL     OW35878   1.816   4.560   6.861 -0.4318 -0.2194  0.0423
 8140SOL    HW135879   1.834   4.519   6.946  3.0915  0.2311 -0.4827
 8140SOL    HW235880   1.802   4.487   6.802  2.4670 -1.3251  0.7138
 8141SOL     OW35881   2.335   2.453  13.007 -0.0345  0.4927 -0.1266
 8141SOL    HW135882   2.317   2.516  13.077 -1.6472  2.0495 -1.9577
 8141SOL    HW235883   2.429   2.470  13.000 -0.6558  3.4344 -1.2479
 8142SOL     OW35884   2.811   3.250  17.546  0.4273  0.0836  0.9225
 8142SOL    HW135885   2.905   3.270  17.544  0.1924  1.0530 -0.1444
 8142SOL    HW235886   2.817   3.183  17.614 -1.9054 -1.5833 -0.5285
 8143SOL     OW35887   3.124   3.053   8.187  0.1641 -0.5584  0.3548
 8143SOL    HW135888   3.164   3.094   8.263  0.8482  1.2802 -0.9802
 8143SOL    HW235889   3.141   2.961   8.206  1.6577 -0.2592  0.4828
 8144SOL     OW35890   1.500   2.659   7.930 -0.2623 -0.1491  0.2653
 8144SOL    HW135891   1.588   2.681   7.959 -0.3221 -1.2175  1.2378
 8144SOL    HW235892   1.489   2.719   7.856 -0.3876  0.2894  0.6390
 8145SOL     OW35893   3.004   2.184   5.846 -0.0463 -0.6039 -0.0595
 8145SOL    HW135894   3.046   2.113   5.798  1.2838  1.3329 -1.7754
 8145SOL    HW235895   3.058   2.177   5.924 -1.2131  0.2764  0.8218
 8146SOL     OW35896   1.049   3.829   1.459 -0.2141  0.1458 -0.0751
 8146SOL    HW135897   0.996   3.908   1.467 -1.6109 -1.0837  2.7147
 8146SOL    HW235898   1.015   3.773   1.529  0.6301  1.2372  1.1920
 8147SOL     OW35899   3.506   3.078   3.098  0.2175 -0.2623 -0.0991
 8147SOL    HW135900   3.581   3.128   3.067 -0.8191  1.0777 -0.4553
 8147SOL    HW235901   3.530   3.077   3.191 -0.0454 -2.5482 -0.0524
 8148SOL     OW35902   0.909   3.125   2.241 -0.0222 -0.5053 -0.3221
 8148SOL    HW135903   0.869   3.164   2.318  2.1198 -0.5914  0.8230
 8148SOL    HW235904   0.831   3.103   2.190 -1.1524  0.0352  1.1773
 8149SOL     OW35905   4.535   0.180   5.572  0.2435  0.0555  0.8002
 8149SOL    HW135906   4.560   0.237   5.644 -0.7297  1.7855 -0.2185
 8149SOL    HW235907   4.609   0.120   5.578 -1.0953 -1.5656  1.1821
 8150SOL     OW35908   0.794   2.761   4.264 -0.0964 -0.1429  0.5112
 8150SOL    HW135909   0.836   2.838   4.304 -2.8430  1.2026  0.8304
 8150SOL    HW235910   0.760   2.789   4.179  1.8879  0.8983  0.0540
 8151SOL     OW35911   4.063   3.352   2.095  0.1074 -0.5118 -0.3409
 8151SOL    HW135912   4.025   3.363   2.008 -0.8340  0.6996  0.2162
 8151SOL    HW235913   4.131   3.285   2.091  1.7066  0.9866  1.7173
 8152SOL     OW35914   1.819   2.187   4.427  0.1423  0.3908 -0.9449
 8152SOL    HW135915   1.862   2.190   4.512 -0.2525  0.5192 -0.7481
 8152SOL    HW235916   1.893   2.165   4.371  1.4151  2.4878 -0.0705
 8153SOL     OW35917   4.074   1.749   3.534  0.3468  0.1461 -0.6900
 8153SOL    HW135918   4.073   1.746   3.629  0.1707 -0.4935 -0.7076
 8153SOL    HW235919   3.999   1.697   3.505  2.0273 -1.5472 -2.0387
 8154SOL     OW35920   1.723   3.197  11.944 -0.2587 -0.1126 -0.1642
 8154SOL    HW135921   1.715   3.260  11.873 -0.4838 -0.0426 -0.0745
 8154SOL    HW235922   1.800   3.222  11.995 -0.4479 -0.0124  0.0665
 8155SOL     OW35923   1.759   3.685   7.828  0.3907 -0.6563 -0.0667
 8155SOL    HW135924   1.727   3.623   7.762 -0.3058 -1.1693  0.7539
 8155SOL    HW235925   1.825   3.640   7.881  0.7100  0.9290  0.8774
 8156SOL     OW35926   4.007   1.147   2.268 -0.3723  0.3843  0.0043
 8156SOL    HW135927   3.977   1.160   2.359  1.2429  0.5009  0.5121
 8156SOL    HW235928   4.078   1.208   2.251  0.5052 -0.7675 -0.4554
 8157SOL     OW35929   1.012   0.316   5.124  0.2892 -0.1689  0.2073
 8157SOL    HW135930   1.074   0.358   5.184  0.2153 -1.3603  1.1194
 8157SOL    HW235931   1.038   0.358   5.043 -2.5587  0.3614 -0.4386
 8158SOL     OW35932   1.787   1.040   7.556 -0.3064 -0.3029  0.6301
 8158SOL    HW135933   1.845   1.096   7.504 -0.9169  2.3831  2.8517
 8158SOL    HW235934   1.764   1.088   7.635 -0.1593 -0.5472  0.8221
 8159SOL     OW35935   4.439   4.601   6.483 -0.0429  0.3998  0.5309
 8159SOL    HW135936   4.424   4.509   6.461  0.2878  0.6112 -0.5740
 8159SOL    HW235937   4.518   4.614   6.430  1.6424 -2.2680  2.4508
 8160SOL     OW35938   1.259   3.334   7.251 -0.4017 -0.1231  0.3869
 8160SOL    HW135939   1.227   3.249   7.221  0.7100 -0.2544 -0.4046
 8160SOL    HW235940   1.323   3.344   7.181  0.8822  1.4667  1.8031
 8161SOL     OW35941   3.149   1.772   4.447  0.4074  0.3413 -0.1297
 8161SOL    HW135942   3.089   1.799   4.517 -0.4884 -2.7977  0.3116
 8161SOL    HW235943   3.174   1.858   4.412 -0.7273  0.7311  0.0198
 8162SOL     OW35944   1.000   4.661  14.667 -0.1910  0.2699 -0.0641
 8162SOL    HW135945   1.058   0.015  14.663 -1.2251  0.9378 -2.2731
 8162SOL    HW235946   0.947   4.673  14.588 -0.7887  0.3896  0.3524
 8163SOL     OW35947   0.534   2.210   7.785  0.2709  0.1035  0.4653
 8163SOL    HW135948   0.607   2.180   7.839  0.7366 -0.0108 -0.2356
 8163SOL    HW235949   0.475   2.158   7.839 -0.4117 -1.0725 -1.4171
 8164SOL     OW35950   3.478   0.174  11.421  0.0006 -0.0607 -0.0382
 8164SOL    HW135951   3.475   0.118  11.499 -2.0322  0.6897  0.4284
 8164SOL    HW235952   3.543   0.128  11.368  1.0142  0.1171  1.0378
 8165SOL     OW35953   2.733   4.147   3.535 -0.3044 -0.1230 -0.1427
 8165SOL    HW135954   2.825   4.161   3.514 -0.3352  1.2937  0.6618
 8165SOL    HW235955   2.732   4.089   3.611  0.2382  2.2711  1.6750
 8166SOL     OW35956   0.935   3.503   1.836 -0.2719 -0.2236 -0.0680
 8166SOL    HW135957   1.017   3.474   1.796  1.0109  0.4266  2.1257
 8166SOL    HW235958   0.928   3.450   1.916  2.4920  1.0231  0.9883
 8167SOL     OW35959   2.225   3.639  12.743  0.2192 -0.1486 -0.5211
 8167SOL    HW135960   2.263   3.637  12.656  0.0283  0.8751 -0.6196
 8167SOL    HW235961   2.291   3.691  12.788 -0.2220 -0.8372  0.9392
 8168SOL     OW35962   3.999   2.499  11.117 -0.6348 -0.0099  0.1590
 8168SOL    HW135963   3.962   2.461  11.197 -1.0100 -1.0379 -0.5019
 8168SOL    HW235964   3.915   2.503  11.071 -1.3070  2.3959  1.6037
 8169SOL     OW35965   1.773   1.920   9.137  0.5047  0.7594  0.3065
 8169SOL    HW135966   1.697   1.978   9.148 -1.0704 -1.4612  0.9751
 8169SOL    HW235967   1.846   1.981   9.147  1.9555 -0.5648 -2.2149
 8170SOL     OW35968   0.069   0.030   2.311 -0.7867 -0.6716 -0.5815
 8170SOL    HW135969   4.712   4.702   2.299  0.2133 -2.1056 -1.1763
 8170SOL    HW235970   0.127   0.001   2.241  1.1844 -0.1873  0.8567
 8171SOL     OW35971   3.950   1.376   5.274 -0.0742  0.4801  0.6481
 8171SOL    HW135972   4.006   1.422   5.212  1.3104 -0.6194  1.0867
 8171SOL    HW235973   3.953   1.436   5.349 -0.9988  0.5858  0.5993
 8172SOL     OW35974   2.077   3.636  16.967 -0.0744 -0.3833 -0.5044
 8172SOL    HW135975   2.076   3.556  17.020 -1.7436 -0.9111 -1.3379
 8172SOL    HW235976   2.138   3.604  16.901  0.3056  1.7989 -1.2107
 8173SOL     OW35977   3.677   1.047  13.726  0.2842  0.0845 -0.1178
 8173SOL    HW135978   3.748   0.998  13.769 -0.9424 -0.5567  1.1765
 8173SOL    HW235979   3.638   0.972  13.682 -2.1189  0.6724  1.0306
 8174SOL     OW35980   2.566   0.306   5.176  0.3640  0.0767 -0.6236
 8174SOL    HW135981   2.635   0.282   5.114  0.5041 -1.1274  0.0078
 8174SOL    HW235982   2.610   0.317   5.261 -0.2814 -0.7106 -0.1919
 8175SOL     OW35983   2.356   0.685   1.931 -0.1109  0.2939 -0.4634
 8175SOL    HW135984   2.439   0.724   1.956 -0.0347 -0.7454  0.9025
 8175SOL    HW235985   2.344   0.620   2.000  0.8860 -0.2291 -0.7892
 8176SOL     OW35986   1.102   2.842  11.757  0.0886 -0.0668 -0.1051
 8176SOL    HW135987   1.151   2.893  11.822 -1.8849 -0.8714  2.0215
 8176SOL    HW235988   1.015   2.834  11.795 -0.6962  1.2606 -1.6632
 8177SOL     OW35989   2.129   3.251   5.515 -0.3493 -0.0762 -0.3013
 8177SOL    HW135990   2.222   3.233   5.501 -0.2122  0.3686  0.0382
 8177SOL    HW235991   2.139   3.312   5.587  2.2601  1.3877 -1.8849
 8178SOL     OW35992   2.289   0.013   4.535  0.3124 -0.1848 -0.2292
 8178SOL    HW135993   2.317   0.083   4.594  2.0752 -1.5216  0.5100
 8178SOL    HW235994   2.195   0.015   4.552 -0.0540  1.5488 -2.3695
 8179SOL     OW35995   1.821   1.162   5.812 -0.1875 -0.0569 -0.7419
 8179SOL    HW135996   1.791   1.078   5.847  0.6698 -0.1507 -0.2290
 8179SOL    HW235997   1.917   1.160   5.809 -0.2014 -4.2767  1.9519
 8180SOL     OW35998   1.678   2.745   6.393 -0.1770 -0.3242 -0.6981
 8180SOL    HW135999   1.688   2.795   6.474  2.5586 -1.2145 -0.5119
 8180SOL    HW236000   1.602   2.689   6.407  0.8669 -1.3450  0.8794
 8181SOL     OW36001   0.755   3.149   5.537  0.2734 -0.5000 -0.0841
 8181SOL    HW136002   0.750   3.063   5.496 -1.4529 -0.4466 -0.0003
 8181SOL    HW236003   0.771   3.207   5.462  2.0856 -0.2445  0.4996
 8182SOL     OW36004   2.517   1.258   2.363 -0.4726  0.2025 -0.0050
 8182SOL    HW136005   2.559   1.193   2.307  1.6121  0.9988  0.6138
 8182SOL    HW236006   2.584   1.327   2.369  0.0464 -0.4836  2.2785
 8183SOL     OW36007   4.208   3.844   5.808 -0.2229  0.1959 -0.0102
 8183SOL    HW136008   4.134   3.882   5.760 -0.8231 -0.7666  0.1600
 8183SOL    HW236009   4.188   3.752   5.794 -0.0218  0.0145  0.9266
 8184SOL     OW36010   3.224   1.952  16.740 -0.1857  0.5805  0.6957
 8184SOL    HW136011   3.144   1.978  16.695  0.3227  1.3547  0.2451
 8184SOL    HW236012   3.202   1.943  16.833 -0.4326  0.3301  0.6136
 8185SOL     OW36013   2.358   0.501   4.401  0.4045  0.5107 -0.0635
 8185SOL    HW136014   2.276   0.493   4.352 -0.4090  2.7422  0.9387
 8185SOL    HW236015   2.343   0.475   4.492  1.1714 -3.2645 -1.0182
 8186SOL     OW36016   4.272   2.930  14.076 -0.0305 -0.2534 -0.2252
 8186SOL    HW136017   4.206   2.881  14.028 -0.7183  1.2033 -0.7852
 8186SOL    HW236018   4.270   2.885  14.160 -0.2943 -2.1214 -1.2363
 8187SOL     OW36019   3.255   1.962   8.179  0.1663 -0.1237 -0.0041
 8187SOL    HW136020   3.188   1.974   8.112  0.4051  3.2953  0.3593
 8187SOL    HW236021   3.317   2.032   8.157 -1.0369  0.8857 -0.1595
 8188SOL     OW36022   1.163   0.276   4.011  0.2249  0.5514 -0.1531
 8188SOL    HW136023   1.188   0.347   4.070  0.0473 -1.9755  2.9798
 8188SOL    HW236024   1.114   0.218   4.069  3.3744 -1.4220  0.5869
 8189SOL     OW36025   2.454   1.838   3.975 -0.7309  0.5853 -0.6699
 8189SOL    HW136026   2.535   1.791   3.993 -0.0520  1.3163 -1.7928
 8189SOL    HW236027   2.451   1.832   3.879 -0.0718 -1.5045 -0.5703
 8190SOL     OW36028   3.636   2.934  16.606 -0.5987 -0.1604 -0.4021
 8190SOL    HW136029   3.541   2.923  16.615 -0.7534  2.9930  1.9673
 8190SOL    HW236030   3.648   3.028  16.617  0.0548  0.0711 -3.3147
 8191SOL     OW36031   1.118   4.173   4.329 -0.1848 -0.2172 -0.1348
 8191SOL    HW136032   1.084   4.100   4.382 -1.4261  1.6543  1.6418
 8191SOL    HW236033   1.139   4.243   4.390  1.6838 -0.7704 -0.1440
 8192SOL     OW36034   3.138   3.821   4.225  0.2987  0.3303  0.0169
 8192SOL    HW136035   3.054   3.846   4.185 -0.1680 -0.1472  0.7069
 8192SOL    HW236036   3.139   3.733   4.189  1.2790  0.4188 -0.1872
 8193SOL     OW36037   1.033   0.742   2.098 -0.1004  0.0409 -0.3894
 8193SOL    HW136038   0.948   0.704   2.118  0.2419 -0.3209  0.3832
 8193SOL    HW236039   1.079   0.742   2.182  0.6548 -1.1466 -0.8090
 8194SOL     OW36040   3.314   2.020   8.840 -0.1250 -0.5391  0.3404
 8194SOL    HW136041   3.306   1.941   8.788  2.2503 -0.4779 -0.1181
 8194SOL    HW236042   3.253   1.991   8.907  0.9448 -0.8705  1.1729
 8195SOL     OW36043   0.369   3.773   1.007  0.3739  0.2397 -0.1300
 8195SOL    HW136044   0.338   3.833   0.939 -0.8818 -1.6574 -1.2624
 8195SOL    HW236045   0.330   3.812   1.085 -2.6574  1.5719 -2.3158
 8196SOL     OW36046   0.802   3.547  14.446 -0.0717 -0.4829  0.8222
 8196SOL    HW136047   0.727   3.563  14.390 -0.0696  0.0474  0.9718
 8196SOL    HW236048   0.873   3.557  14.382  2.0599  1.0344  3.4112
 8197SOL     OW36049   0.714   0.635   6.841  0.2613 -0.5589 -0.4025
 8197SOL    HW136050   0.809   0.630   6.847  0.2667 -0.1079 -0.0982
 8197SOL    HW236051   0.691   0.549   6.876 -1.0611 -0.5031 -1.1236
 8198SOL     OW36052   2.076   1.958   7.319 -0.0514 -0.3935 -0.4591
 8198SOL    HW136053   2.040   1.888   7.264  0.4235 -2.4593  1.8491
 8198SOL    HW236054   2.049   2.033   7.267 -0.3505  0.9846  1.6986
 8199SOL     OW36055   2.700   2.465  10.993  0.0664 -0.3777  0.0957
 8199SOL    HW136056   2.637   2.526  10.955  0.5166  1.2631  1.9292
 8199SOL    HW236057   2.742   2.432  10.914  1.5341 -1.0486  1.1406
 8200SOL     OW36058   4.231   0.827   8.798  0.1251 -0.0003  0.2841
 8200SOL    HW136059   4.218   0.764   8.868 -0.2103 -1.0351 -0.7024
 8200SOL    HW236060   4.145   0.824   8.755  0.5797 -3.6855 -0.3862
 8201SOL     OW36061   2.293   0.415   7.642  0.5309  0.2939 -0.2494
 8201SOL    HW136062   2.339   0.350   7.589 -1.7405 -3.0584  1.9216
 8201SOL    HW236063   2.339   0.405   7.725 -0.4602 -1.6321  0.0630
 8202SOL     OW36064   1.497   1.958  15.812  0.6974 -0.2219 -0.5193
 8202SOL    HW136065   1.537   1.913  15.738 -0.7040 -0.9559 -0.8433
 8202SOL    HW236066   1.493   1.886  15.876 -0.5339 -0.8653 -1.3191
 8203SOL     OW36067   2.305   2.882   5.114  0.1459 -0.1816  0.4051
 8203SOL    HW136068   2.299   2.901   5.208  2.5680 -1.2273  0.7793
 8203SOL    HW236069   2.327   2.789   5.113  1.4883  0.1308  0.1087
 8204SOL     OW36070   1.401   2.292   4.858  0.3928 -0.1564 -0.3427
 8204SOL    HW136071   1.329   2.263   4.802 -0.7285  4.1217 -1.1360
 8204SOL    HW236072   1.380   2.261   4.946 -0.4182  1.4566  0.0411
 8205SOL     OW36073   4.205   3.818  15.148 -0.0039 -0.1461 -0.4629
 8205SOL    HW136074   4.187   3.851  15.236 -0.1001  1.8369 -1.2319
 8205SOL    HW236075   4.137   3.751  15.150  1.2933 -1.4330  0.8463
 8206SOL     OW36076   4.346   4.227   4.748 -0.3448 -0.1963  0.7196
 8206SOL    HW136077   4.369   4.294   4.813  2.2034 -1.1717  0.8260
 8206SOL    HW236078   4.345   4.277   4.666 -0.7616 -4.4196 -1.8322
 8207SOL     OW36079   1.921   3.448   6.462 -0.1762 -0.3493 -0.5857
 8207SOL    HW136080   1.944   3.417   6.374 -0.0717  2.0244 -1.4128
 8207SOL    HW236081   1.994   3.507   6.482 -1.7539  1.8393 -1.1892
 8208SOL     OW36082   3.623   4.491   3.911 -0.3082  0.0356 -0.1255
 8208SOL    HW136083   3.613   4.585   3.927 -2.1816 -0.0300 -0.9025
 8208SOL    HW236084   3.559   4.458   3.974  1.5349  1.9578  2.7266
 8209SOL     OW36085   1.413   1.183  10.381 -0.1285  0.2437  0.1706
 8209SOL    HW136086   1.401   1.179  10.475  1.6674  0.7095  0.4318
 8209SOL    HW236087   1.401   1.276  10.361  0.5368  0.1159 -0.8404
 8210SOL     OW36088   2.386   0.356   8.805 -0.2131 -0.1404 -0.1914
 8210SOL    HW136089   2.349   0.407   8.733 -1.0042 -1.4599 -0.7376
 8210SOL    HW236090   2.472   0.358   8.763  1.4416 -0.5007  3.1820
 8211SOL     OW36091   4.422   3.399  16.913  0.4223 -0.3172 -0.4604
 8211SOL    HW136092   4.425   3.462  16.985 -0.1455 -1.0009  0.1646
 8211SOL    HW236093   4.507   3.357  16.927 -0.0092 -1.7841 -2.2492
 8212SOL     OW36094   0.110   1.108   6.295 -0.5745 -0.0356  0.5589
 8212SOL    HW136095   0.039   1.062   6.251 -1.2338 -1.2350  2.8572
 8212SOL    HW236096   0.181   1.067   6.246 -0.4780  0.1783  0.5170
 8213SOL     OW36097   4.508   3.079   4.863  0.5398 -0.1975 -0.4278
 8213SOL    HW136098   4.561   3.001   4.882  0.9669  0.6199  1.7033
 8213SOL    HW236099   4.432   3.068   4.919 -0.5570 -1.6269 -2.1904
 8214SOL     OW36100   2.526   0.909   5.030  0.3161 -0.3625 -0.1940
 8214SOL    HW136101   2.569   0.824   5.023 -2.7148 -1.9784  0.9039
 8214SOL    HW236102   2.602   0.964   5.011  2.0060 -2.0493  1.7516
 8215SOL     OW36103   2.927   2.094   1.372  0.8137  0.4689 -0.1409
 8215SOL    HW136104   2.847   2.144   1.357 -1.1315 -2.1322  1.8280
 8215SOL    HW236105   2.984   2.143   1.431  0.1920 -1.6834  2.2128
 8216SOL     OW36106   3.794   1.199   5.112  0.0931 -0.2499 -0.0686
 8216SOL    HW136107   3.836   1.242   5.186 -1.2647 -0.2097  0.6894
 8216SOL    HW236108   3.773   1.118   5.158 -1.4636 -0.3634 -0.9759
 8217SOL     OW36109   0.368   3.407  14.282  0.5096 -0.4736 -0.4723
 8217SOL    HW136110   0.302   3.338  14.284  1.9037 -1.7782  0.4241
 8217SOL    HW236111   0.416   3.376  14.359  3.1863  1.1231 -1.4797
 8218SOL     OW36112   3.644   0.838   9.203  0.1816  0.1572  0.4876
 8218SOL    HW136113   3.717   0.808   9.256 -1.0118 -1.5728  1.1598
 8218SOL    HW236114   3.699   0.906   9.164  0.6718 -0.2742  0.4348
 8219SOL     OW36115   0.649   4.687   6.432  0.2095  0.6310 -0.1440
 8219SOL    HW136116   0.558   4.694   6.401 -0.1181 -0.7965  0.4748
 8219SOL    HW236117   0.681   4.626   6.365 -0.3142 -0.5285  0.6498
 8220SOL     OW36118   2.043   0.850   0.416  0.3870  0.3839 -0.0341
 8220SOL    HW136119   2.111   0.839   0.483  2.6788  1.2349 -2.2372
 8220SOL    HW236120   2.023   0.943   0.424  1.1072  0.6882 -1.7913
 8221SOL     OW36121   0.755   0.486   2.899  0.2742 -0.4082 -0.2979
 8221SOL    HW136122   0.827   0.484   2.962  0.7961 -2.4125 -0.9364
 8221SOL    HW236123   0.700   0.419   2.940 -0.7831  0.1495 -0.8235
 8222SOL     OW36124   1.605   3.265   6.484  0.0248 -0.2424  0.2162
 8222SOL    HW136125   1.689   3.236   6.448 -0.4973 -0.4719 -0.8033
 8222SOL    HW236126   1.587   3.339   6.427  2.4301  0.9866  1.0475
 8223SOL     OW36127   3.796   3.238   8.994 -0.7943 -0.1926  0.2820
 8223SOL    HW136128   3.866   3.303   8.990 -1.1272 -0.0385 -2.9525
 8223SOL    HW236129   3.840   3.176   9.052  0.4075 -0.8525 -1.3472
 8224SOL     OW36130   4.662   3.795   8.993 -0.1880 -0.2068  0.3127
 8224SOL    HW136131   0.017   3.776   9.046 -0.0570 -1.3501 -0.2995
 8224SOL    HW236132   4.600   3.729   9.024 -0.9347 -0.0987 -0.9761
 8225SOL     OW36133   3.060   3.261   4.324 -0.4199 -0.2918  0.2178
 8225SOL    HW136134   3.055   3.168   4.302 -0.1998 -0.2618  0.0432
 8225SOL    HW236135   3.153   3.282   4.330 -1.5112  3.9088  2.2265
 8226SOL     OW36136   0.850   4.256   5.913 -0.7712  0.3904  0.2826
 8226SOL    HW136137   0.838   4.161   5.917 -0.4183  0.2893 -1.2584
 8226SOL    HW236138   0.849   4.285   5.822  1.9863  0.3780  0.2483
 8227SOL     OW36139   4.681   0.422   6.388  0.0556  0.8332  0.0230
 8227SOL    HW136140   4.619   0.354   6.363 -0.2328  0.9942  0.3019
 8227SOL    HW236141   0.035   0.408   6.332 -1.7048  1.3136 -2.5384
 8228SOL     OW36142   2.719   0.044   3.096  0.1961  0.1951 -0.5607
 8228SOL    HW136143   2.799   0.029   3.046 -0.1384 -1.7859 -0.4871
 8228SOL    HW236144   2.725   4.695   3.158  0.8250  1.2272  0.5765
 8229SOL     OW36145   2.654   2.557   9.738 -0.3644 -0.0635 -0.0586
 8229SOL    HW136146   2.735   2.526   9.778  0.4499 -0.2629 -1.8406
 8229SOL    HW236147   2.589   2.492   9.764 -3.0627  1.8846 -2.0044
 8230SOL     OW36148   4.263   4.302   5.846  0.3356  0.6593 -0.8320
 8230SOL    HW136149   4.225   4.218   5.872  0.8387  0.7051  0.0613
 8230SOL    HW236150   4.187   4.355   5.866  0.6811  0.0771  2.0924
 8231SOL     OW36151   2.284   2.297   4.200 -0.0070 -0.4016  0.7153
 8231SOL    HW136152   2.310   2.382   4.235 -1.0701  0.4592 -0.5689
 8231SOL    HW236153   2.263   2.315   4.108 -0.4466  1.6760  1.2297
 8232SOL     OW36154   3.909   4.550   3.600  0.5690 -1.2414 -0.1772
 8232SOL    HW136155   3.915   4.607   3.677  0.8498 -3.6669  1.5780
 8232SOL    HW236156   3.824   4.579   3.566  0.4223 -0.8193  0.5395
 8233SOL     OW36157   2.553   0.994   2.211 -0.5343 -0.7012  0.0727
 8233SOL    HW136158   2.461   0.976   2.192 -0.3757 -1.0847 -0.3098
 8233SOL    HW236159   2.590   0.906   2.208 -2.1044 -1.2364 -2.8189
 8234SOL     OW36160   3.465   4.629   3.483  0.6231  0.5140  0.4371
 8234SOL    HW136161   3.456   4.707   3.537  0.9148  0.3648  0.6956
 8234SOL    HW236162   3.522   4.575   3.537  0.3389  1.2910  1.5074
 8235SOL     OW36163   3.732   0.039   9.212  0.0204  0.0760 -0.7120
 8235SOL    HW136164   3.779   0.090   9.146  0.9335 -2.2744 -1.8835
 8235SOL    HW236165   3.674   0.105   9.248  0.3844  1.0275 -1.8674
 8236SOL     OW36166   4.167   1.904   4.860  0.1842  0.2550  0.0401
 8236SOL    HW136167   4.100   1.914   4.792 -0.4384  0.3873  0.6812
 8236SOL    HW236168   4.229   1.862   4.799  0.7445  1.4317 -0.2001
 8237SOL     OW36169   2.420   1.919   7.169 -0.3954  0.1284 -0.1241
 8237SOL    HW136170   2.336   1.964   7.176  0.5556  1.9593 -0.6800
 8237SOL    HW236171   2.475   1.993   7.192 -0.9040  0.8755 -1.2911
 8238SOL     OW36172   2.558   4.280   4.123 -0.3074  0.4564  0.2439
 8238SOL    HW136173   2.570   4.375   4.132  1.9041  0.3098 -1.3721
 8238SOL    HW236174   2.464   4.270   4.143 -0.0014 -2.9261  0.0137
 8239SOL     OW36175   2.717   3.061   2.191 -0.0140  0.1879 -0.0094
 8239SOL    HW136176   2.768   3.142   2.192  2.9131 -1.6459  1.0454
 8239SOL    HW236177   2.629   3.090   2.169 -0.4215 -1.4135 -0.4964
 8240SOL     OW36178   3.556   1.373   5.659  0.2657  0.3436  0.4141
 8240SOL    HW136179   3.584   1.402   5.746  0.1062  0.4369  0.4338
 8240SOL    HW236180   3.484   1.435   5.646 -0.4089 -0.3550  0.8227
 8241SOL     OW36181   3.501   1.670   5.870 -0.1628 -0.2896  0.6036
 8241SOL    HW136182   3.501   1.591   5.924 -2.1808  0.2617  1.4230
 8241SOL    HW236183   3.562   1.733   5.910  1.1931  0.3409 -2.5095
 8242SOL     OW36184   2.508   2.140   8.037  0.4371  0.3677 -0.1746
 8242SOL    HW136185   2.424   2.100   8.059  0.9893 -0.5044  0.3648
 8242SOL    HW236186   2.544   2.152   8.125 -0.7885 -1.8925  0.6330
 8243SOL     OW36187   0.697   2.959  13.054  0.1883  0.1400  0.2149
 8243SOL    HW136188   0.724   3.049  13.035  2.1083 -0.5518 -0.3155
 8243SOL    HW236189   0.627   2.980  13.116  1.4159 -1.1100  2.0176
 8244SOL     OW36190   1.855   2.010  14.094  0.7309  0.1190  0.3519
 8244SOL    HW136191   1.878   1.953  14.020  0.2192 -1.7475  1.6282
 8244SOL    HW236192   1.845   2.097  14.057  3.8499  0.5036  0.4061
 8245SOL     OW36193   3.010   0.312   3.560  0.5538 -0.1949  0.9724
 8245SOL    HW136194   2.934   0.303   3.503  1.0651 -1.2110  0.4596
 8245SOL    HW236195   3.036   0.404   3.562 -1.1408  0.2431  2.0760
 8246SOL     OW36196   0.697   2.582   5.713  0.3593 -0.0638 -0.1882
 8246SOL    HW136197   0.704   2.651   5.779  2.2356  0.2630 -0.7478
 8246SOL    HW236198   0.606   2.551   5.724  0.1029  0.7744  0.0727
 8247SOL     OW36199   4.670   1.598   8.553 -0.1070  0.5638  0.6653
 8247SOL    HW136200   0.019   1.541   8.525 -0.9534 -0.2412  0.1236
 8247SOL    HW236201   4.606   1.545   8.601  0.8223  0.1127  1.3887
 8248SOL     OW36202   0.533   0.252   1.468  0.3492 -0.4994  0.2226
 8248SOL    HW136203   0.596   0.315   1.433  1.3174 -2.0325 -0.7927
 8248SOL    HW236204   0.476   0.313   1.515 -0.3798 -0.9171 -0.1117
 8249SOL     OW36205   3.161   0.830   8.287 -0.1179  0.8408 -0.1724
 8249SOL    HW136206   3.210   0.836   8.205 -0.0209 -1.3125 -0.2939
 8249SOL    HW236207   3.070   0.812   8.267  0.5204 -1.4415 -1.0435
 8250SOL     OW36208   3.280   4.363   6.219 -0.6879  0.2264  0.2672
 8250SOL    HW136209   3.206   4.405   6.174  0.0746  0.9486 -0.3038
 8250SOL    HW236210   3.337   4.433   6.250 -2.1877  1.6515 -0.1856
 8251SOL     OW36211   4.174   2.209   0.088  0.2549  0.2495  0.1326
 8251SOL    HW136212   4.242   2.265   0.125  1.7287 -0.8904 -0.8489
 8251SOL    HW236213   4.219   2.168   0.014  1.3970  0.7757  0.5403
 8252SOL     OW36214   3.267   1.805   6.594  0.1043 -0.3447 -0.3880
 8252SOL    HW136215   3.207   1.846   6.532 -2.8255  0.8140  3.1562
 8252SOL    HW236216   3.256   1.711   6.580  0.3960 -0.5712  0.8692
 8253SOL     OW36217   0.689   2.680  17.150  0.1807  0.0236 -0.0797
 8253SOL    HW136218   0.718   2.620  17.218 -1.2685 -0.6242 -0.0313
 8253SOL    HW236219   0.631   2.737  17.199  0.0126 -1.3178  1.2938
 8254SOL     OW36220   4.293   3.567   5.194 -0.8061  0.6186 -0.0925
 8254SOL    HW136221   4.371   3.624   5.199 -0.3684  0.0604 -0.6399
 8254SOL    HW236222   4.224   3.633   5.186  0.0002  1.4825  0.0542
 8255SOL     OW36223   4.169   0.072   8.367 -0.1765 -0.3249 -0.1732
 8255SOL    HW136224   4.125   4.711   8.357  0.6191 -0.8538  0.7061
 8255SOL    HW236225   4.109   0.138   8.334 -0.8506 -0.6482  0.4013
 8256SOL     OW36226   3.703   4.217   2.237 -0.6781 -0.4202  0.2273
 8256SOL    HW136227   3.690   4.311   2.225 -1.8018 -0.3891  1.6204
 8256SOL    HW236228   3.685   4.179   2.151 -0.3076 -1.9338  0.8110
 8257SOL     OW36229   1.260   0.817  17.145  0.6257 -0.6458 -0.2543
 8257SOL    HW136230   1.313   0.807  17.066 -0.3520  1.1439 -1.1297
 8257SOL    HW236231   1.238   0.909  17.138  0.7720 -0.8104 -2.8047
 8258SOL     OW36232   2.419   2.784  14.046 -0.0261 -0.2311  0.1756
 8258SOL    HW136233   2.350   2.841  14.011 -0.1581 -1.2941 -1.3357
 8258SOL    HW236234   2.501   2.827  14.025 -0.9389  0.6366 -1.6643
 8259SOL     OW36235   0.887   1.196   9.603  0.4200  0.1531 -0.8921
 8259SOL    HW136236   0.812   1.162   9.651 -1.1417 -0.3781 -3.6641
 8259SOL    HW236237   0.921   1.114   9.567  1.7558  0.3691 -0.1099
 8260SOL     OW36238   1.700   2.242   4.176  0.3205  0.2061  0.1317
 8260SOL    HW136239   1.664   2.159   4.143 -2.4842  0.9383  1.4339
 8260SOL    HW236240   1.726   2.200   4.258 -0.5710 -0.2848  0.1557
 8261SOL     OW36241   3.080   3.561  16.309  0.4460 -0.1574  0.0187
 8261SOL    HW136242   2.987   3.556  16.289  0.4050 -1.4303  0.5042
 8261SOL    HW236243   3.118   3.599  16.230  2.1705 -0.2007  0.8144
 8262SOL     OW36244   4.409   1.425   2.437 -0.3730  0.4437 -0.4202
 8262SOL    HW136245   4.500   1.456   2.435 -0.4018  0.4589 -1.3673
 8262SOL    HW236246   4.382   1.467   2.519  1.5796  2.0750 -0.6037
 8263SOL     OW36247   4.274   2.206   8.902 -0.1496 -0.4445 -0.0854
 8263SOL    HW136248   4.257   2.301   8.907  2.3978 -0.0159  0.2298
 8263SOL    HW236249   4.367   2.194   8.922  0.4268 -0.0490 -2.4823
 8264SOL     OW36250   1.153   4.363   6.812 -0.1326  0.3945 -0.4403
 8264SOL    HW136251   1.082   4.342   6.751 -0.4183 -0.4426  0.1711
 8264SOL    HW236252   1.172   4.457   6.804  0.0242  0.2140 -2.1503
 8265SOL     OW36253   4.548   0.645   2.278  0.2373 -0.0032  0.0153
 8265SOL    HW136254   4.629   0.595   2.275  0.4509  0.1874  2.8847
 8265SOL    HW236255   4.485   0.573   2.269  1.8042 -1.3133 -0.4732
 8266SOL     OW36256   3.800   3.608  14.305  0.1206 -0.3436 -0.1766
 8266SOL    HW136257   3.825   3.554  14.231 -1.9285  1.2197 -2.0201
 8266SOL    HW236258   3.890   3.629  14.331 -0.4287  0.0226  1.4499
 8267SOL     OW36259   0.371   1.201   4.327 -0.2075  0.3634 -0.6158
 8267SOL    HW136260   0.368   1.167   4.237 -0.4075  0.8223 -0.7815
 8267SOL    HW236261   0.383   1.114   4.365  0.6325  0.1450 -1.3743
 8268SOL     OW36262   0.317   4.179   7.722  0.4725  0.0262 -0.3511
 8268SOL    HW136263   0.241   4.236   7.714  0.6957  0.4118  0.2121
 8268SOL    HW236264   0.357   4.209   7.804 -0.9248 -0.4600  0.5051
 8269SOL     OW36265   0.098   0.596  10.410 -0.0154 -0.2212  0.3324
 8269SOL    HW136266   0.119   0.603  10.317 -3.6829 -0.1576 -0.4993
 8269SOL    HW236267   0.091   0.502  10.426  0.0951  0.0910  2.2769
 8270SOL     OW36268   2.746   3.798  15.574  0.0175  0.3840 -0.6938
 8270SOL    HW136269   2.692   3.875  15.558  0.4485  1.0378  1.0484
 8270SOL    HW236270   2.791   3.821  15.655 -0.9304 -1.5907  0.3867
 8271SOL     OW36271   3.730   2.735   6.360 -0.1199  0.6376  0.1776
 8271SOL    HW136272   3.797   2.674   6.392 -0.3979 -0.5035 -1.3797
 8271SOL    HW236273   3.787   2.777   6.295 -2.0353  0.8734 -1.3444
 8272SOL     OW36274   4.035   1.200   4.575  0.4019 -0.5007  0.1662
 8272SOL    HW136275   3.995   1.230   4.657 -0.1127  0.2406 -0.3468
 8272SOL    HW236276   4.127   1.216   4.595  0.0916  1.0188  0.3779
 8273SOL     OW36277   3.315   1.547   4.435 -0.5518  0.4591 -0.0135
 8273SOL    HW136278   3.267   1.505   4.507 -1.2362 -0.4596 -1.0143
 8273SOL    HW236279   3.265   1.628   4.425 -0.8079  0.5895  2.2479
 8274SOL     OW36280   1.715   2.436   4.485  0.2273  0.0126  0.6250
 8274SOL    HW136281   1.755   2.351   4.466  1.2817  0.1954  2.0448
 8274SOL    HW236282   1.623   2.407   4.481  0.2437  0.1425 -0.6988
 8275SOL     OW36283   1.768   3.627  11.074  0.0459 -0.4600 -0.0466
 8275SOL    HW136284   1.863   3.631  11.072  0.0582 -1.9006 -1.9351
 8275SOL    HW236285   1.762   3.677  11.156  0.6779 -0.0561 -0.2463
 8276SOL     OW36286   4.221   2.544   3.754 -0.4214  0.5825  0.1683
 8276SOL    HW136287   4.314   2.530   3.772 -0.1846 -0.9092 -2.1720
 8276SOL    HW236288   4.202   2.623   3.804  1.6357 -0.0862  1.9892
 8277SOL     OW36289   3.271   4.558   5.914 -0.5255 -0.1313  0.2380
 8277SOL    HW136290   3.235   4.630   5.863  0.6463 -0.5430 -1.1859
 8277SOL    HW236291   3.363   4.584   5.907 -0.4767  0.1892  2.0084
 8278SOL     OW36292   0.003   3.952   7.989 -0.0113  0.3805 -0.1051
 8278SOL    HW136293   0.088   3.972   8.028 -0.4284  0.8666  0.5430
 8278SOL    HW236294   4.690   4.038   7.971 -1.5005 -0.1727  0.2843
 8279SOL     OW36295   1.187   0.164   2.249  0.0117  0.1456 -0.3336
 8279SOL    HW136296   1.152   0.128   2.330 -2.3092  0.4833 -1.1807
 8279SOL    HW236297   1.273   0.122   2.242  0.5491  0.8817  1.9037
 8280SOL     OW36298   0.389   0.016   5.088  0.1165  0.1210 -0.5833
 8280SOL    HW136299   0.483   0.004   5.103  0.0098  0.2583  0.1751
 8280SOL    HW236300   0.382   0.059   5.003  0.9808  0.7128 -0.3543
 8281SOL     OW36301   4.486   0.456   9.845 -0.3957  0.0657  0.0074
 8281SOL    HW136302   4.531   0.531   9.806 -0.3229  0.8354  1.5811
 8281SOL    HW236303   4.473   0.479   9.937  1.0573  1.0479 -0.0463
 8282SOL     OW36304   2.839   2.151   7.971  0.2032 -0.2969 -0.4151
 8282SOL    HW136305   2.872   2.229   7.927 -0.9875  0.6078  0.3168
 8282SOL    HW236306   2.816   2.201   8.049  0.2000 -1.2761  0.2089
 8283SOL     OW36307   1.973   0.478   2.490 -0.8533 -0.3773  0.2255
 8283SOL    HW136308   1.919   0.399   2.499  1.2111 -1.7861  0.2258
 8283SOL    HW236309   1.913   0.548   2.516  1.4821  2.6300 -2.5527
 8284SOL     OW36310   3.649   3.464   1.235  0.0437 -0.3709  0.0200
 8284SOL    HW136311   3.649   3.385   1.289 -2.5532 -0.3017  0.1098
 8284SOL    HW236312   3.555   3.480   1.223  0.0642 -1.1912 -1.1968
 8285SOL     OW36313   0.766   1.473   1.899  0.2291  0.2933 -0.4274
 8285SOL    HW136314   0.701   1.524   1.947  0.9416  0.2063  0.6426
 8285SOL    HW236315   0.826   1.446   1.969 -0.6938  0.6181  0.4833
 8286SOL     OW36316   2.113   2.545   4.639  0.1732 -0.6007 -1.1293
 8286SOL    HW136317   2.112   2.527   4.545 -0.7718 -1.4769 -0.9434
 8286SOL    HW236318   2.173   2.620   4.643 -0.5877  0.0333 -1.6219
 8287SOL     OW36319   0.726   4.128   6.986  0.0267 -0.3703 -0.5050
 8287SOL    HW136320   0.740   4.060   7.052 -0.6342 -0.4779 -0.4699
 8287SOL    HW236321   0.668   4.189   7.032  0.8716  0.1763 -0.1681
 8288SOL     OW36322   0.236   1.311   5.915  0.2744 -0.2089  0.3150
 8288SOL    HW136323   0.158   1.364   5.930  1.3187  1.3214  0.3600
 8288SOL    HW236324   0.226   1.270   5.829 -0.2809 -0.8252  0.6775
 8289SOL     OW36325   2.613   3.022   9.895  0.0732 -0.2793  0.1446
 8289SOL    HW136326   2.592   2.932   9.922 -2.3078  0.2144 -0.0899
 8289SOL    HW236327   2.632   3.029   9.801 -0.7050  0.4229  0.0450
 8290SOL     OW36328   1.429   0.549   7.525 -0.0955  0.2390 -0.2043
 8290SOL    HW136329   1.502   0.580   7.472  0.3575  0.4344  0.5325
 8290SOL    HW236330   1.357   0.593   7.481  0.3045 -0.0648 -1.1637
 8291SOL     OW36331   1.561   0.964   4.359 -0.4771 -0.2253  0.0380
 8291SOL    HW136332   1.564   0.924   4.446 -1.3064  0.4922  0.4050
 8291SOL    HW236333   1.523   0.898   4.302  0.6249 -1.6174  0.9178
 8292SOL     OW36334   0.943   1.063   3.158  0.3223 -0.2241 -0.1247
 8292SOL    HW136335   0.917   0.982   3.202 -1.4226  0.2208 -0.3118
 8292SOL    HW236336   0.982   1.018   3.084  0.3856  0.5397 -0.5529
 8293SOL     OW36337   2.391   1.129   4.679  0.2910 -0.1411  0.4422
 8293SOL    HW136338   2.298   1.148   4.666 -0.4200 -2.5544  2.1156
 8293SOL    HW236339   2.395   1.161   4.769 -0.1146 -3.0580  1.5141
 8294SOL     OW36340   0.434   2.885   6.553 -0.4656 -0.4034 -0.3537
 8294SOL    HW136341   0.454   2.884   6.460  0.9389  1.4547 -0.0651
 8294SOL    HW236342   0.444   2.793   6.576 -0.6681  0.0257  1.4531
 8295SOL     OW36343   2.934   4.316  11.355 -0.6388  0.1175 -0.3245
 8295SOL    HW136344   2.871   4.256  11.315  0.8599 -1.0440 -0.9571
 8295SOL    HW236345   2.880   4.359  11.421 -0.2388  0.5744 -0.2874
 8296SOL     OW36346   1.086   0.987   2.880  0.4023  0.0036 -0.3005
 8296SOL    HW136347   1.035   0.986   2.800  2.2212  1.5766 -1.4785
 8296SOL    HW236348   1.119   0.897   2.878  0.7060  0.0913  0.3709
 8297SOL     OW36349   0.688   1.477   2.990 -0.2227 -0.1491 -0.1032
 8297SOL    HW136350   0.751   1.548   2.982 -1.2337  0.8554  0.9203
 8297SOL    HW236351   0.608   1.526   2.971  0.6684  0.9923 -0.8474
 8298SOL     OW36352   0.765   3.013   4.901 -0.1047 -0.1960  0.0250
 8298SOL    HW136353   0.717   2.943   4.945 -3.7736  1.7656 -0.9148
 8298SOL    HW236354   0.815   2.963   4.837 -1.8977  0.2418 -1.7021
 8299SOL     OW36355   0.164   1.347   6.699 -0.1208 -0.3033  0.1848
 8299SOL    HW136356   0.197   1.434   6.724 -1.2357 -0.1973  1.3231
 8299SOL    HW236357   0.072   1.362   6.677 -0.3073 -2.6797 -0.6313
 8300SOL     OW36358   3.895   2.385  13.118  0.0549 -0.3582 -0.0096
 8300SOL    HW136359   3.853   2.445  13.179 -0.7504 -0.8782 -0.0598
 8300SOL    HW236360   3.859   2.302  13.148  0.0022 -0.5960 -0.7260
 8301SOL     OW36361   4.544   3.215  16.507 -0.3693  0.0601  0.3357
 8301SOL    HW136362   4.621   3.193  16.560  0.5624 -1.4172 -1.6090
 8301SOL    HW236363   4.533   3.306  16.535 -2.7137 -0.1129 -0.0357
 8302SOL     OW36364   3.662   3.250   5.042  0.2773 -0.1543  0.3288
 8302SOL    HW136365   3.717   3.261   4.965 -1.1498  0.3657 -0.6140
 8302SOL    HW236366   3.650   3.341   5.068  2.9265  0.4781 -0.6709
 8303SOL     OW36367   0.564   0.048   3.920 -0.4675  0.3627  0.3641
 8303SOL    HW136368   0.578   4.689   3.872  2.3560  1.2917 -0.4077
 8303SOL    HW236369   0.639   0.102   3.896  1.2992 -2.8309 -1.2572
 8304SOL     OW36370   1.781   1.031   3.473 -0.5137  0.2356 -0.1563
 8304SOL    HW136371   1.870   1.000   3.457 -0.4217  0.6115 -0.3818
 8304SOL    HW236372   1.795   1.108   3.528 -0.3262  1.3646 -1.7791
 8305SOL     OW36373   3.670   0.685   1.619 -0.1879  0.5824 -0.7444
 8305SOL    HW136374   3.658   0.604   1.568 -3.9951  0.4339  0.3798
 8305SOL    HW236375   3.677   0.740   1.541 -1.0346 -1.4373 -2.2561
 8306SOL     OW36376   2.737   4.055   8.695 -0.3069  0.5793 -0.3813
 8306SOL    HW136377   2.656   4.032   8.741  0.0375  0.6199  0.2396
 8306SOL    HW236378   2.735   4.150   8.707  1.0409  0.5973 -0.3103
 8307SOL     OW36379   0.526   2.477   2.298  0.2479 -0.3899  0.4931
 8307SOL    HW136380   0.499   2.501   2.387 -1.3531 -2.7559  0.6407
 8307SOL    HW236381   0.534   2.382   2.294  0.5056 -0.2988 -1.2333
 8308SOL     OW36382   0.570   3.123   6.578  0.7091  0.4594  0.6272
 8308SOL    HW136383   0.540   3.171   6.501 -1.1028  1.4858  1.9586
 8308SOL    HW236384   0.509   3.049   6.576 -1.0247  1.8888  0.8114
 8309SOL     OW36385   0.223   3.318  10.034 -0.7946 -0.2867  0.1536
 8309SOL    HW136386   0.204   3.307   9.941 -1.9628 -2.2764  0.6219
 8309SOL    HW236387   0.223   3.226  10.060  2.9670  0.0942  1.5512
 8310SOL     OW36388   4.698   2.637  13.796 -0.4919 -0.1521 -0.5779
 8310SOL    HW136389   4.718   2.584  13.719 -0.2869  0.2305 -0.7879
 8310SOL    HW236390   4.602   2.639  13.793 -0.3969  2.3667 -1.3910
 8311SOL     OW36391   2.614   2.102   7.777 -0.2569  0.0404  0.2033
 8311SOL    HW136392   2.594   2.137   7.864  1.2012  2.6714 -0.4832
 8311SOL    HW236393   2.547   2.034   7.772  0.3101 -0.4074 -1.3655
 8312SOL     OW36394   1.967   2.364   0.178 -0.1550  0.2906 -0.0248
 8312SOL    HW136395   2.053   2.403   0.192 -1.1638  1.7437  2.2339
 8312SOL    HW236396   1.982   2.281   0.134 -2.7637 -0.1240 -0.1487
 8313SOL     OW36397   3.972   0.060   8.771  0.1837  0.3331  0.1034
 8313SOL    HW136398   3.909   0.074   8.700  0.6605 -0.4086 -0.4711
 8313SOL    HW236399   3.933   0.116   8.838  2.2815  3.7184 -1.5392
 8314SOL     OW36400   3.113   2.445   4.723  0.0694 -0.0469  0.3208
 8314SOL    HW136401   3.066   2.527   4.711 -2.3893 -1.5553 -0.4457
 8314SOL    HW236402   3.134   2.429   4.631 -1.9948 -0.7072 -0.0346
 8315SOL     OW36403   0.536   0.435  14.040 -0.3941 -0.3247  0.3012
 8315SOL    HW136404   0.599   0.505  14.058 -0.3606 -0.0055 -1.0515
 8315SOL    HW236405   0.573   0.365  14.094 -1.7622 -0.4863  1.0407
 8316SOL     OW36406   4.165   2.712   7.006 -0.2688  0.2673 -0.1395
 8316SOL    HW136407   4.103   2.733   7.076  0.3668  0.0216  0.4937
 8316SOL    HW236408   4.235   2.774   7.027 -0.3271  0.4094 -0.3606
 8317SOL     OW36409   3.291   4.135   0.182 -0.1450  1.2615 -0.1985
 8317SOL    HW136410   3.375   4.092   0.174  0.5613  2.5188  0.3491
 8317SOL    HW236411   3.264   4.142   0.091 -0.2889  2.5499 -0.0603
 8318SOL     OW36412   3.633   3.859   0.390  0.0890 -0.1723  0.0599
 8318SOL    HW136413   3.603   3.779   0.431  1.1957 -0.1756  0.8840
 8318SOL    HW236414   3.728   3.855   0.380 -0.1998 -1.0010 -2.2438
 8319SOL     OW36415   3.001   3.899   8.029  0.2346 -0.6610  0.3521
 8319SOL    HW136416   3.012   3.980   8.078  0.8889 -0.0422 -0.8271
 8319SOL    HW236417   2.977   3.839   8.099 -0.8685 -0.8183 -0.1557
 8320SOL     OW36418   0.461   2.810   5.922 -0.5847 -0.4266 -0.3992
 8320SOL    HW136419   0.383   2.821   5.868 -0.3337 -1.1996 -0.9203
 8320SOL    HW236420   0.454   2.871   5.995  2.1417 -2.0044  1.2256
 8321SOL     OW36421   3.978   4.261   2.051  0.3036 -0.2430 -0.1095
 8321SOL    HW136422   3.911   4.197   2.075  0.6661 -0.4272  0.4061
 8321SOL    HW236423   3.941   4.348   2.034 -0.4082 -0.8169 -1.5305
 8322SOL     OW36424   2.969   3.069   1.842  0.0782 -0.4031 -0.3978
 8322SOL    HW136425   2.924   2.984   1.845 -4.5514  2.0622  0.0827
 8322SOL    HW236426   3.051   3.050   1.887 -0.0897 -0.3676 -0.0757
 8323SOL     OW36427   3.779   1.037  15.276 -0.0473  0.1114 -0.5636
 8323SOL    HW136428   3.865   1.037  15.235  0.2630 -0.7677  0.0846
 8323SOL    HW236429   3.740   1.118  15.244  0.6298  0.2186 -1.1124
 8324SOL     OW36430   1.902   4.364   4.976 -0.0998  0.2387 -0.8863
 8324SOL    HW136431   1.876   4.456   4.982 -1.5365 -0.2117 -0.2229
 8324SOL    HW236432   1.816   4.323   4.972 -0.4579  0.8322  0.7906
 8325SOL     OW36433   2.508   3.959   6.532 -0.0402  0.5068 -0.8466
 8325SOL    HW136434   2.457   4.038   6.514 -0.2708  0.4060 -0.6266
 8325SOL    HW236435   2.528   3.972   6.625  0.2554  2.6050 -1.1938
 8326SOL     OW36436   1.462   3.918   7.505 -0.3456  0.2852 -0.5306
 8326SOL    HW136437   1.487   3.894   7.416  1.2633  1.2472 -0.3394
 8326SOL    HW236438   1.433   4.008   7.490  2.7645  1.4492  0.3602
 8327SOL     OW36439   3.708   2.667   7.595 -0.0721 -0.2993  0.3629
 8327SOL    HW136440   3.696   2.576   7.570  2.5236 -0.7767  0.7745
 8327SOL    HW236441   3.692   2.657   7.689  0.7621 -1.4531  0.3829
 8328SOL     OW36442   4.543   2.421   3.115  0.0449 -0.0397 -0.4043
 8328SOL    HW136443   4.578   2.356   3.054  3.3451  0.3199  1.1450
 8328SOL    HW236444   4.493   2.370   3.179  0.7240 -0.7043 -0.4029
 8329SOL     OW36445   2.947   2.650   6.104  0.4887 -0.0579 -0.0125
 8329SOL    HW136446   2.957   2.732   6.153 -0.9073 -2.0572  3.6216
 8329SOL    HW236447   2.877   2.675   6.044 -0.2492  2.5927  1.9528
 8330SOL     OW36448   3.141   1.100   2.363  0.0387  0.5020 -0.6255
 8330SOL    HW136449   3.196   1.112   2.441  1.5028 -3.4234 -1.0846
 8330SOL    HW236450   3.144   1.187   2.323  0.8870  0.2310 -1.1448
 8331SOL     OW36451   0.111   1.677   4.177 -0.2904  0.3435 -1.3608
 8331SOL    HW136452   0.162   1.661   4.256 -0.8945  1.5902 -0.7069
 8331SOL    HW236453   0.078   1.766   4.189 -1.4443  0.1019 -2.7293
 8332SOL     OW36454   3.642   0.878  12.714 -0.5021 -0.0789 -0.0128
 8332SOL    HW136455   3.558   0.920  12.694 -1.7283 -3.3535 -1.9194
 8332SOL    HW236456   3.608   0.831  12.790  0.9169  1.7610  1.7341
 8333SOL     OW36457   1.362   0.129  12.298 -0.3595  0.4251  0.1484
 8333SOL    HW136458   1.410   0.178  12.365  3.2138 -1.8450 -0.7112
 8333SOL    HW236459   1.428   0.118  12.230  0.2457  2.9031  0.3394
 8334SOL     OW36460   1.407   3.297   5.739 -0.4297  0.3345  0.5424
 8334SOL    HW136461   1.375   3.377   5.698  2.2866  0.4550 -1.3697
 8334SOL    HW236462   1.325   3.249   5.748  0.4571 -1.1924  0.6595
 8335SOL     OW36463   4.423   4.196   1.448 -0.3603  0.4017 -0.4001
 8335SOL    HW136464   4.443   4.282   1.413 -0.2097  0.8159  0.6900
 8335SOL    HW236465   4.345   4.217   1.501 -0.4733 -0.8191 -0.0639
 8336SOL     OW36466   4.266   2.452   2.672  0.4463 -0.2477  0.0022
 8336SOL    HW136467   4.343   2.498   2.639  0.2463 -0.6070 -0.9671
 8336SOL    HW236468   4.218   2.528   2.704 -0.2871 -1.6575  2.2664
 8337SOL     OW36469   1.874   1.214   1.386  0.4402 -0.1539 -0.0532
 8337SOL    HW136470   1.922   1.289   1.351 -2.1757 -0.2223 -3.8227
 8337SOL    HW236471   1.789   1.256   1.400 -0.8567 -3.4591  1.8618
 8338SOL     OW36472   0.040   3.818   4.677  0.2028 -0.5802 -0.5851
 8338SOL    HW136473   0.077   3.753   4.617 -0.1858 -3.4484  2.3137
 8338SOL    HW236474   4.718   3.882   4.622 -0.9782 -0.7913  0.1289
 8339SOL     OW36475   2.904   4.268   0.052 -0.3039 -0.4045  0.7312
 8339SOL    HW136476   2.872   4.202   0.113 -0.5091 -0.6963  0.3145
 8339SOL    HW236477   2.819   4.304   0.028 -0.5987 -0.6531  1.4130
 8340SOL     OW36478   1.290   2.644  16.048  0.4626  0.1167  0.2515
 8340SOL    HW136479   1.211   2.598  16.075 -0.2171  0.5252 -1.0514
 8340SOL    HW236480   1.286   2.728  16.094  2.4956 -0.0011  0.6512
 8341SOL     OW36481   0.741   3.759   1.961 -0.1507  0.9341  0.2219
 8341SOL    HW136482   0.815   3.740   1.903 -1.5521 -2.6089 -0.4101
 8341SOL    HW236483   0.775   3.775   2.049  1.3861 -1.7650  0.0993
 8342SOL     OW36484   0.607   1.116   7.707  0.0796  0.1691 -0.0558
 8342SOL    HW136485   0.684   1.162   7.673  1.4311 -3.1058 -1.4367
 8342SOL    HW236486   0.644   1.086   7.790  1.3003  0.0021 -0.6585
 8343SOL     OW36487   1.212   3.481   6.086  0.3645  0.0794 -0.1876
 8343SOL    HW136488   1.261   3.511   6.009  0.4777  1.5415  0.4495
 8343SOL    HW236489   1.228   3.546   6.154 -0.5006 -1.1271  1.1658
 8344SOL     OW36490   3.914   3.392   8.715  0.3690 -0.2598 -0.3564
 8344SOL    HW136491   3.840   3.364   8.768  1.2697 -1.6723  0.1631
 8344SOL    HW236492   3.901   3.487   8.713  1.5613 -0.1004 -0.6494
 8345SOL     OW36493   3.090   2.424   7.617 -0.2787 -0.1853 -0.1137
 8345SOL    HW136494   3.059   2.451   7.530  3.0399  1.7734 -0.6808
 8345SOL    HW236495   3.154   2.494   7.630 -0.5573  0.3207 -1.4838
 8346SOL     OW36496   0.852   2.721  11.260 -0.3309 -0.0848  0.1847
 8346SOL    HW136497   0.796   2.669  11.317 -0.8431 -0.0462 -0.2854
 8346SOL    HW236498   0.885   2.784  11.324 -1.9258  0.1984  0.7113
 8347SOL     OW36499   3.203   1.839   7.284 -0.5890 -0.8682 -0.3499
 8347SOL    HW136500   3.136   1.899   7.249 -1.0718 -1.6584 -0.7814
 8347SOL    HW236501   3.205   1.889   7.365  0.3664 -1.0693 -0.2536
 8348SOL     OW36502   0.109   0.797   2.411 -0.3517 -0.1692  0.4831
 8348SOL    HW136503   0.119   0.818   2.318  1.5332  0.0437  0.7351
 8348SOL    HW236504   0.090   0.704   2.410  0.1060 -0.2617  0.1713
 8349SOL     OW36505   2.323   0.309  15.918 -0.7798  0.2800  0.1157
 8349SOL    HW136506   2.355   0.294  16.007  1.0638 -1.6334 -0.8944
 8349SOL    HW236507   2.251   0.247  15.928 -0.4401 -0.4772 -2.2337
 8350SOL     OW36508   0.617   3.621   7.341  0.2418 -0.0794  0.2950
 8350SOL    HW136509   0.615   3.683   7.414 -0.7700 -1.4653  1.4523
 8350SOL    HW236510   0.537   3.571   7.357  1.2795 -0.9027  2.8938
 8351SOL     OW36511   4.107   3.969   3.483 -0.3206  0.5538 -0.1810
 8351SOL    HW136512   4.087   3.879   3.510  2.4114  0.7859  2.5080
 8351SOL    HW236513   4.101   3.959   3.388 -1.1338 -0.1508 -0.0578
 8352SOL     OW36514   3.453   2.096   4.282 -0.4631 -0.1432  0.2637
 8352SOL    HW136515   3.525   2.085   4.343  0.8472  1.1050 -1.0534
 8352SOL    HW236516   3.506   2.086   4.202  1.0447 -0.7396  1.3475
 8353SOL     OW36517   1.601   3.584   2.754  0.5657  0.0506 -0.4774
 8353SOL    HW136518   1.537   3.530   2.710  0.6917 -0.3572 -0.1591
 8353SOL    HW236519   1.663   3.522   2.793 -0.6672 -1.1229 -0.3920
 8354SOL     OW36520   1.307   1.586  17.613  0.0003  0.2919 -0.4840
 8354SOL    HW136521   1.287   1.647  17.683  0.1572 -0.5954  0.3246
 8354SOL    HW236522   1.386   1.542  17.643 -0.3873  0.7611  1.2259
 8355SOL     OW36523   4.196   0.093   6.368  0.0991  0.3450  0.0804
 8355SOL    HW136524   4.204   0.134   6.454  0.1021  0.6823 -0.0787
 8355SOL    HW236525   4.100   0.098   6.371  0.1078  0.3340  0.3450
 8356SOL     OW36526   4.276   0.280   5.478 -0.1044 -0.1961  0.1236
 8356SOL    HW136527   4.367   0.283   5.506  0.4129  3.7881 -1.9840
 8356SOL    HW236528   4.278   0.199   5.427  1.2322 -1.1341  1.6793
 8357SOL     OW36529   3.566   4.633   5.908  0.1436 -0.1839  1.0008
 8357SOL    HW136530   3.596   4.651   5.820  0.8178 -0.1353  1.2401
 8357SOL    HW236531   3.560   0.001   5.938 -0.6534  0.2838 -0.5979
 8358SOL     OW36532   0.816   0.008   7.238 -0.2429 -0.0736  0.0751
 8358SOL    HW136533   0.880   0.050   7.180 -1.6435  1.5083 -0.3154
 8358SOL    HW236534   0.800   0.082   7.297  0.0850  1.0155 -1.1966
 8359SOL     OW36535   0.366   1.965   8.685 -0.1117 -0.3396 -0.1038
 8359SOL    HW136536   0.319   1.881   8.694 -1.6782  1.0002  4.4750
 8359SOL    HW236537   0.304   2.019   8.637  0.9906  3.1655  2.4684
 8360SOL     OW36538   1.256   2.718   9.041 -0.1235  0.6881  0.2534
 8360SOL    HW136539   1.219   2.759   8.962  0.7857  0.2556 -0.4045
 8360SOL    HW236540   1.177   2.674   9.071 -1.0275  1.5274 -0.8678
 8361SOL     OW36541   3.615   4.034   6.191 -0.3002 -0.1063  0.3504
 8361SOL    HW136542   3.533   4.043   6.141  0.8892 -3.6421 -2.1879
 8361SOL    HW236543   3.658   3.951   6.172 -1.3982 -0.5823 -0.0459
 8362SOL     OW36544   3.625   1.537   5.142  0.0085  0.1053  0.4181
 8362SOL    HW136545   3.681   1.476   5.191  0.7505  1.5837  1.4061
 8362SOL    HW236546   3.685   1.611   5.155  1.2386 -0.1830 -3.5519
 8363SOL     OW36547   0.218   2.610   8.729  0.6677  0.0335  0.0046
 8363SOL    HW136548   0.134   2.564   8.738  0.4616  0.5273  0.6108
 8363SOL    HW236549   0.193   2.702   8.723 -0.2731 -0.1682  0.8484
 8364SOL     OW36550   1.994   0.565   2.863  0.6983 -0.2539  0.3897
 8364SOL    HW136551   1.945   0.599   2.788  0.5351 -1.0132  0.1414
 8364SOL    HW236552   2.021   0.483   2.821 -0.6262  0.8261 -2.5904
 8365SOL     OW36553   0.020   2.968  15.834  0.3861  0.1173 -0.0417
 8365SOL    HW136554   0.092   3.030  15.842 -0.2785  0.8303  0.4486
 8365SOL    HW236555   0.015   2.964  15.738  0.2723  1.9585 -0.1083
 8366SOL     OW36556   3.413   2.176   7.305 -0.1760 -0.5430  0.0230
 8366SOL    HW136557   3.392   2.132   7.387 -2.9033 -1.3239 -1.1250
 8366SOL    HW236558   3.480   2.122   7.261  1.7804  2.5501 -0.8158
 8367SOL     OW36559   2.860   3.274   7.626 -0.4969  0.2081  0.0249
 8367SOL    HW136560   2.877   3.309   7.538 -0.8571 -0.1491 -0.1882
 8367SOL    HW236561   2.926   3.205   7.630  0.6935  1.3981  0.7810
 8368SOL     OW36562   0.890   0.205   4.854  0.1952 -0.4825 -0.1766
 8368SOL    HW136563   0.860   0.118   4.828 -1.0960  0.1540 -0.8142
 8368SOL    HW236564   0.962   0.178   4.911 -0.6741 -0.4668  0.9439
 8369SOL     OW36565   3.760   3.669   0.642  0.0314  0.2973 -0.1424
 8369SOL    HW136566   3.815   3.729   0.592  1.2078 -0.5065  0.2166
 8369SOL    HW236567   3.823   3.624   0.697 -0.2658  1.8194  1.4705
 8370SOL     OW36568   3.295   1.026  16.720 -0.0502 -0.5389 -0.1911
 8370SOL    HW136569   3.330   1.026  16.809 -0.6634 -1.2164  0.0490
 8370SOL    HW236570   3.368   0.986  16.672 -0.8219 -1.9069 -0.2395
 8371SOL     OW36571   1.596   0.943   9.297  0.2222  0.6275 -0.0608
 8371SOL    HW136572   1.673   0.940   9.354  0.1648 -0.4823 -0.0424
 8371SOL    HW236573   1.614   1.030   9.262 -0.9002  1.0125  0.2981
 8372SOL     OW36574   1.918   3.340  16.856 -0.2677 -0.5389  0.5429
 8372SOL    HW136575   1.889   3.407  16.917 -1.3500 -0.4868 -0.0284
 8372SOL    HW236576   1.893   3.367  16.768  2.3449 -0.9417 -0.3077
 8373SOL     OW36577   3.816   0.619  15.090  0.3282  0.1716 -0.4275
 8373SOL    HW136578   3.837   0.703  15.048 -3.3397  0.8133 -1.0175
 8373SOL    HW236579   3.741   0.642  15.145  1.7252  0.9110  1.1501
 8374SOL     OW36580   1.457   0.240   6.417 -0.0616 -0.4111  0.0884
 8374SOL    HW136581   1.517   0.196   6.356 -1.4882 -0.8397 -0.9921
 8374SOL    HW236582   1.519   0.275   6.481  2.4701 -1.7616 -1.6184
 8375SOL     OW36583   1.182   0.204  14.850 -0.0697  0.0323 -0.1826
 8375SOL    HW136584   1.269   0.216  14.887  0.5939 -0.0580 -1.7244
 8375SOL    HW236585   1.133   0.191  14.931 -0.2009 -2.7258 -0.7159
 8376SOL     OW36586   3.924   1.500   1.867  0.3140 -0.5314 -0.1672
 8376SOL    HW136587   4.007   1.496   1.915 -0.5381 -2.1654  1.1507
 8376SOL    HW236588   3.929   1.592   1.838  1.1720 -0.5581 -0.0859
 8377SOL     OW36589   0.221   0.230   6.639  0.1055 -0.0682  0.0730
 8377SOL    HW136590   0.156   0.202   6.575 -0.9484 -0.2620  1.2384
 8377SOL    HW236591   0.201   0.156   6.696 -2.0770  0.9970  0.6997
 8378SOL     OW36592   2.020   0.144   5.965 -0.4676 -0.0467 -0.3922
 8378SOL    HW136593   2.043   0.100   5.882 -1.7495 -1.4134 -0.0282
 8378SOL    HW236594   2.105   0.130   6.006 -1.0585 -0.4942  0.6785
 8379SOL     OW36595   1.758   1.902   2.531  0.3665  0.9510  0.1878
 8379SOL    HW136596   1.720   1.816   2.514  0.0956  0.5574  2.7593
 8379SOL    HW236597   1.794   1.914   2.443  0.4864 -0.2743  0.0674
 8380SOL     OW36598   3.433   2.255   6.669 -0.6695  0.0055 -0.2151
 8380SOL    HW136599   3.357   2.216   6.712 -0.2436  0.0308  0.5681
 8380SOL    HW236600   3.410   2.344   6.693  0.2538  0.4845 -1.0656
 8381SOL     OW36601   3.693   0.954   4.751  0.1990 -0.5048 -0.5885
 8381SOL    HW136602   3.635   0.904   4.808  0.0541  0.3015 -0.0250
 8381SOL    HW236603   3.773   0.901   4.750  1.5809  1.5544  2.2422
 8382SOL     OW36604   0.634   1.269  15.377  0.7059  0.4531  0.6206
 8382SOL    HW136605   0.682   1.211  15.436  1.4003  1.5637  1.1367
 8382SOL    HW236606   0.544   1.247  15.402  0.4950  3.0854  2.1609
 8383SOL     OW36607   4.026   1.017   9.478  0.0253 -0.9608 -0.2480
 8383SOL    HW136608   4.115   1.010   9.445  0.6153  1.7470  0.7788
 8383SOL    HW236609   4.037   1.075   9.554  0.0806  0.4110 -1.3097
 8384SOL     OW36610   2.344   1.774  13.412 -0.0060 -0.0579 -0.1482
 8384SOL    HW136611   2.438   1.767  13.392  0.3451 -0.5713  1.5972
 8384SOL    HW236612   2.359   1.812  13.499 -1.5788  1.3524 -0.5100
 8385SOL     OW36613   1.082   0.768   8.392 -0.1144 -0.0223  0.0288
 8385SOL    HW136614   1.144   0.694   8.389 -0.2348 -0.1718  1.7847
 8385SOL    HW236615   1.108   0.816   8.470  1.0986  1.4018 -1.2398
 8386SOL     OW36616   2.339   1.420   2.206 -0.5671 -0.0224  0.5189
 8386SOL    HW136617   2.375   1.346   2.254 -0.4974 -0.3236  0.0046
 8386SOL    HW236618   2.411   1.419   2.143 -1.1518  0.5914 -0.1657
 8387SOL     OW36619   4.395   2.736  13.780 -0.0337  0.0097 -0.4740
 8387SOL    HW136620   4.358   2.768  13.697  0.1291  0.7308 -0.2710
 8387SOL    HW236621   4.440   2.818  13.802  0.2700 -0.6747  1.4180
 8388SOL     OW36622   1.326   1.143   2.912  0.2681 -0.5558 -0.1078
 8388SOL    HW136623   1.248   1.087   2.912 -0.4369  0.4232  0.9274
 8388SOL    HW236624   1.353   1.143   3.004  0.0247  0.2952 -0.0422
 8389SOL     OW36625   2.179   3.626   6.139  0.7712  0.2492 -0.1866
 8389SOL    HW136626   2.158   3.674   6.059  0.6915  0.7710  0.1489
 8389SOL    HW236627   2.164   3.689   6.210 -3.5758 -0.8845 -0.1513
 8390SOL     OW36628   3.699   0.431  14.892 -0.5481  0.5573 -0.7319
 8390SOL    HW136629   3.774   0.400  14.840 -0.0604 -0.5328  0.6099
 8390SOL    HW236630   3.648   0.462  14.817 -0.4796  1.0870 -0.5613
 8391SOL     OW36631   2.375   1.688   1.413  0.2655  0.1642 -0.1403
 8391SOL    HW136632   2.291   1.735   1.411 -0.0833 -0.5212 -1.5357
 8391SOL    HW236633   2.389   1.678   1.507 -3.0685 -1.6277  0.1600
 8392SOL     OW36634   2.720   0.362  14.624  0.7633  0.1127 -0.2643
 8392SOL    HW136635   2.729   0.445  14.578 -1.5582  0.0795 -0.7383
 8392SOL    HW236636   2.652   0.330  14.565  0.3450 -1.5937  1.1194
 8393SOL     OW36637   4.447   1.310   6.010 -0.9942  0.5685  0.1131
 8393SOL    HW136638   4.352   1.322   6.007 -1.1293 -0.6720 -0.5974
 8393SOL    HW236639   4.454   1.246   5.940  1.2254  1.7274 -0.7361
 8394SOL     OW36640   4.670   4.110   8.607 -0.2654  0.1784 -0.8288
 8394SOL    HW136641   0.006   4.101   8.532 -1.7474  2.6353 -2.3305
 8394SOL    HW236642   4.627   4.030   8.635  1.2043  0.3694  1.9579
 8395SOL     OW36643   0.321   2.225   2.979  0.2443  0.3696 -0.2086
 8395SOL    HW136644   0.327   2.129   2.983 -1.1208  0.2577 -0.9099
 8395SOL    HW236645   0.261   2.233   2.905 -0.8871 -0.7067  0.5901
 8396SOL     OW36646   1.617   0.063   7.205 -0.2006 -0.0760 -0.0232
 8396SOL    HW136647   1.593   0.052   7.297 -0.8297 -0.3278 -0.2181
 8396SOL    HW236648   1.712   0.051   7.205 -0.3039 -0.9006 -0.2604
 8397SOL     OW36649   3.094   1.442   4.140 -0.7526  0.2380  0.3573
 8397SOL    HW136650   3.131   1.448   4.052  2.7892  1.0896  1.8742
 8397SOL    HW236651   3.111   1.530   4.174  2.2323 -0.5413  0.8673
 8398SOL     OW36652   3.152   1.983   5.747  0.2178 -0.2682 -0.0182
 8398SOL    HW136653   3.237   2.000   5.787 -0.0156  0.5617  0.1292
 8398SOL    HW236654   3.185   1.941   5.668 -0.2530  1.9571 -1.4124
 8399SOL     OW36655   3.940   2.990   4.433 -0.7893  0.2217 -0.0259
 8399SOL    HW136656   4.030   2.964   4.450 -0.7791  0.6435  0.5752
 8399SOL    HW236657   3.899   3.016   4.515 -0.1815  1.0868 -0.0014
 8400SOL     OW36658   0.536   1.466  15.646 -0.4091 -0.1541  0.3136
 8400SOL    HW136659   0.628   1.476  15.667  0.3565 -3.2167 -1.5727
 8400SOL    HW236660   0.510   1.421  15.727  0.4005 -1.6192 -0.2449
 8401SOL     OW36661   2.362   4.389   3.268  0.0678  0.3321 -0.4632
 8401SOL    HW136662   2.389   4.298   3.276 -0.1059  0.3576  0.4374
 8401SOL    HW236663   2.441   4.424   3.309  0.5404 -2.2132  0.8055
 8402SOL     OW36664   2.250   0.911  12.558  0.4936 -0.2465  0.4959
 8402SOL    HW136665   2.202   0.898  12.640 -1.2198 -0.3714 -0.5199
 8402SOL    HW236666   2.203   0.987  12.522 -0.5411 -1.4406 -0.7053
 8403SOL     OW36667   1.925   3.575   2.691 -0.3943  0.2260 -0.3215
 8403SOL    HW136668   1.833   3.551   2.696  0.0464 -0.9564  2.3527
 8403SOL    HW236669   1.944   3.559   2.599  2.6367 -2.6787  0.7927
 8404SOL     OW36670   4.290   4.441  15.362 -0.7745  0.0080 -0.3235
 8404SOL    HW136671   4.359   4.503  15.340 -0.9578  0.7400  1.1463
 8404SOL    HW236672   4.245   4.424  15.280 -0.4549  0.2518 -0.5491
 8405SOL     OW36673   3.430   0.708   9.300 -0.4316 -0.0473  0.2338
 8405SOL    HW136674   3.448   0.704   9.394 -1.5312  2.3144  0.5600
 8405SOL    HW236675   3.512   0.747   9.270  0.3717 -1.5770  0.4704
 8406SOL     OW36676   4.210   2.615   7.691  0.1506 -0.0859  0.2737
 8406SOL    HW136677   4.300   2.589   7.671 -0.1805 -1.1302  0.1223
 8406SOL    HW236678   4.169   2.539   7.649 -0.2581 -0.4197  1.2704
 8407SOL     OW36679   2.498   2.479   8.274  0.2885 -0.8954 -0.0550
 8407SOL    HW136680   2.570   2.538   8.298 -1.1207  1.4047 -1.4222
 8407SOL    HW236681   2.450   2.488   8.356  0.1867  0.9649 -0.3160
 8408SOL     OW36682   2.234   0.702   5.138  0.0110 -0.6177 -0.2048
 8408SOL    HW136683   2.284   0.622   5.151  2.2051  0.3552 -2.7940
 8408SOL    HW236684   2.266   0.752   5.212  1.0487  0.6886 -1.5345
 8409SOL     OW36685   1.487   3.001   0.852  0.2954  0.3814 -0.6874
 8409SOL    HW136686   1.531   2.923   0.885  0.9234  1.2125  0.4600
 8409SOL    HW236687   1.419   2.957   0.801  0.5817  1.9672 -2.4190
 8410SOL     OW36688   1.731   3.297   5.302  0.7202 -0.0524 -0.4234
 8410SOL    HW136689   1.664   3.330   5.242 -2.2729 -0.2490  2.7663
 8410SOL    HW236690   1.808   3.298   5.245 -0.0399 -1.8349 -1.4779
 8411SOL     OW36691   1.144   3.155   7.035 -0.1029  0.1827  0.1844
 8411SOL    HW136692   1.076   3.147   6.968 -1.8116 -2.1859  2.2040
 8411SOL    HW236693   1.131   3.079   7.092  1.9797  0.5884  1.1744
 8412SOL     OW36694   3.198   1.573   8.878 -0.5040  0.0215  0.2884
 8412SOL    HW136695   3.278   1.552   8.830 -0.8899  0.6472 -0.6356
 8412SOL    HW236696   3.138   1.516   8.830 -0.9167 -0.0413  0.8735
 8413SOL     OW36697   2.431   1.793   0.725 -0.0047  0.0529  0.1168
 8413SOL    HW136698   2.447   1.790   0.820 -0.6478  1.8951  0.2808
 8413SOL    HW236699   2.345   1.834   0.726  1.7850  3.7872 -0.0429
 8414SOL     OW36700   3.323   4.514  11.102 -0.3775 -0.2393  0.3064
 8414SOL    HW136701   3.326   4.470  11.187  0.0738 -3.3334 -1.3275
 8414SOL    HW236702   3.285   4.600  11.122 -0.6982 -1.1537  3.6422
 8415SOL     OW36703   0.333   2.146   9.926  0.2330 -0.2675  0.9894
 8415SOL    HW136704   0.338   2.051   9.936 -0.2017 -0.3034  0.8624
 8415SOL    HW236705   0.241   2.161   9.947  0.1128  0.6883 -0.1980
 8416SOL     OW36706   3.184   2.627   7.071  0.3273 -0.1542  0.0635
 8416SOL    HW136707   3.199   2.709   7.118  2.9604 -0.2205 -0.6661
 8416SOL    HW236708   3.228   2.636   6.986  0.5959  0.2405  0.2458
 8417SOL     OW36709   1.281   3.593   0.556  0.3363  0.2767  0.3018
 8417SOL    HW136710   1.287   3.664   0.620 -2.9162 -0.0042  0.9119
 8417SOL    HW236711   1.186   3.603   0.550  0.4145  0.7209 -0.1467
 8418SOL     OW36712   0.728   2.744   5.919 -0.2408 -0.7009 -0.2540
 8418SOL    HW136713   0.634   2.756   5.918 -0.1246  0.2196  1.2059
 8418SOL    HW236714   0.729   2.671   5.981 -2.9924 -2.0989 -1.8769
 8419SOL     OW36715   2.985   3.386   6.832  0.0784  0.1837  0.1742
 8419SOL    HW136716   3.064   3.333   6.824  0.1541  0.3829 -0.4157
 8419SOL    HW236717   2.954   3.378   6.922  0.6781  0.0605  0.3710
 8420SOL     OW36718   2.728   2.209  15.232 -0.0518 -0.2700 -0.3042
 8420SOL    HW136719   2.795   2.188  15.167  0.1819 -2.3292  0.5937
 8420SOL    HW236720   2.706   2.296  15.198 -1.2686 -0.7274 -0.6817
 8421SOL     OW36721   1.185   4.289   5.129  0.9712 -0.6459 -0.2396
 8421SOL    HW136722   1.144   4.280   5.215  0.0814  0.5898 -0.5334
 8421SOL    HW236723   1.245   4.215   5.136 -1.2110 -2.4673 -1.0767
 8422SOL     OW36724   0.600   1.217  12.121  0.0595 -0.2302 -0.3386
 8422SOL    HW136725   0.539   1.277  12.164 -0.1822 -0.8813  0.2262
 8422SOL    HW236726   0.564   1.131  12.145 -0.8610 -0.1320 -1.3475
 8423SOL     OW36727   1.315   4.654  17.140  0.1290  0.3809 -0.6180
 8423SOL    HW136728   1.382   4.672  17.073  1.4609  0.8072  0.8214
 8423SOL    HW236729   1.360   4.585  17.189 -0.4269 -0.0105 -0.6561
 8424SOL     OW36730   2.050   2.945   2.591  0.4058  0.5582 -0.2911
 8424SOL    HW136731   2.028   2.896   2.671  2.6403 -0.7974 -0.5068
 8424SOL    HW236732   2.132   2.988   2.615  1.1610 -0.8328 -0.3711
 8425SOL     OW36733   4.211   2.351  12.755 -0.4331  0.3101 -0.5955
 8425SOL    HW136734   4.181   2.442  12.760  0.0309  0.5020 -1.3249
 8425SOL    HW236735   4.305   2.369  12.757 -0.6769  1.5039  0.0346
 8426SOL     OW36736   3.603   4.092  10.518  0.1455 -0.2475 -0.5272
 8426SOL    HW136737   3.677   4.051  10.563  0.2465 -1.0757 -1.4668
 8426SOL    HW236738   3.608   4.177  10.562 -0.0373 -0.7996  0.5600
 8427SOL     OW36739   2.521   0.816   1.458  0.2210 -0.8357  0.1424
 8427SOL    HW136740   2.560   0.760   1.526 -0.5755 -1.1947  0.3125
 8427SOL    HW236741   2.568   0.786   1.380  2.0095 -2.2944  1.7806
 8428SOL     OW36742   1.313   3.309  16.479  0.7257 -0.0092 -0.7080
 8428SOL    HW136743   1.283   3.230  16.525  0.9401  0.1795 -0.2468
 8428SOL    HW236744   1.224   3.344  16.467  0.3194 -1.1450 -1.1143
 8429SOL     OW36745   1.472   4.356   9.019 -0.2586 -0.9005 -0.5878
 8429SOL    HW136746   1.470   4.421   9.088  1.5978 -1.1203 -0.3240
 8429SOL    HW236747   1.467   4.290   9.088 -0.9837 -0.0976  0.1124
 8430SOL     OW36748   2.494   4.005   3.905 -0.3548 -0.2546  0.3393
 8430SOL    HW136749   2.435   3.930   3.902 -0.8314  0.0090  3.0935
 8430SOL    HW236750   2.435   4.071   3.867 -0.4543  0.6573  2.0973
 8431SOL     OW36751   1.245   3.879  11.414 -0.2164 -0.5498  0.0324
 8431SOL    HW136752   1.170   3.894  11.472 -0.5330 -0.5864 -0.3617
 8431SOL    HW236753   1.274   3.970  11.411  0.5074 -0.7774  0.1854
 8432SOL     OW36754   4.306   1.083   5.269  0.0051 -0.0234 -0.1186
 8432SOL    HW136755   4.359   1.026   5.325  1.3042  1.4491  0.1464
 8432SOL    HW236756   4.247   1.119   5.336 -0.0700  0.2258 -0.3206
 8433SOL     OW36757   0.521   3.200   4.406 -0.0427  1.0892  0.4233
 8433SOL    HW136758   0.496   3.291   4.393 -2.4504  0.7391  2.7227
 8433SOL    HW236759   0.437   3.155   4.393  0.2750  0.0594  1.8813
 8434SOL     OW36760   2.901   4.483   1.583  0.4299 -0.0224  0.6553
 8434SOL    HW136761   2.900   4.434   1.665 -0.3103 -0.0319  0.6392
 8434SOL    HW236762   2.932   4.411   1.527 -1.5919 -0.0947 -0.3616
 8435SOL     OW36763   1.898   3.674   3.108 -0.0691 -0.1187  0.2875
 8435SOL    HW136764   1.813   3.630   3.111  0.5658 -1.4309 -0.8142
 8435SOL    HW236765   1.954   3.615   3.058  0.3343  0.9420 -0.4957
 8436SOL     OW36766   2.245   2.625  17.125 -1.3010 -0.2292 -0.1521
 8436SOL    HW136767   2.287   2.566  17.187 -1.4831 -0.3279 -0.1242
 8436SOL    HW236768   2.274   2.710  17.158  0.0431  0.0799 -2.0875
 8437SOL     OW36769   1.577   0.399   3.782 -0.2774 -0.2127 -0.2190
 8437SOL    HW136770   1.579   0.334   3.712 -0.3772  1.0292 -1.3724
 8437SOL    HW236771   1.512   0.462   3.750  1.2452  0.6465 -1.5581
 8438SOL     OW36772   1.146   0.732   4.537  0.1461 -0.4117  0.0178
 8438SOL    HW136773   1.158   0.776   4.454  1.8043 -0.1514  0.3943
 8438SOL    HW236774   1.217   0.776   4.584  0.0864 -0.2266 -0.0698
 8439SOL     OW36775   3.411   4.210  14.265 -0.4619 -0.3484  0.0054
 8439SOL    HW136776   3.441   4.280  14.207  1.5578 -1.5039 -0.3171
 8439SOL    HW236777   3.324   4.207  14.224  1.1554  0.3963 -3.4869
 8440SOL     OW36778   1.110   2.466   7.933 -0.2197  0.2412 -0.1885
 8440SOL    HW136779   1.141   2.462   8.023 -3.9172 -1.1421  1.0293
 8440SOL    HW236780   1.191   2.430   7.897  0.0327  0.7471 -0.1262
 8441SOL     OW36781   3.112   3.029   2.066  0.3690 -0.0934  0.4069
 8441SOL    HW136782   3.198   3.002   2.100  0.3152 -0.3996  0.3018
 8441SOL    HW236783   3.052   2.973   2.114 -0.5834  0.3787 -0.2406
 8442SOL     OW36784   2.815   1.754   7.038  0.3195  0.3529 -0.7803
 8442SOL    HW136785   2.745   1.691   7.022  1.2551 -0.8752 -0.0370
 8442SOL    HW236786   2.848   1.729   7.124 -0.4929  1.4224 -0.1584
 8443SOL     OW36787   2.844   3.418   6.490  0.7309 -0.5702 -0.7209
 8443SOL    HW136788   2.787   3.352   6.531 -0.7416  1.5013  0.5616
 8443SOL    HW236789   2.790   3.467   6.428 -0.3831 -1.9688 -0.8604
 8444SOL     OW36790   1.977   3.076   1.601 -0.3413 -0.2076 -0.3087
 8444SOL    HW136791   2.017   2.990   1.609 -2.5420 -1.2914 -1.0661
 8444SOL    HW236792   1.895   3.050   1.559 -0.9801 -0.7324  1.2331
 8445SOL     OW36793   1.963   0.369  16.559 -0.1905 -0.0957 -0.1844
 8445SOL    HW136794   2.030   0.306  16.533  0.3692 -0.0476  1.1544
 8445SOL    HW236795   1.879   0.332  16.532 -1.1079 -0.4782  3.2310
 8446SOL     OW36796   0.212   3.464  11.102  0.2322  0.1721 -0.1716
 8446SOL    HW136797   0.121   3.475  11.076 -0.3232 -0.8261  1.3795
 8446SOL    HW236798   0.200   3.382  11.150 -0.0359 -1.4906 -3.0654
 8447SOL     OW36799   2.264   1.562   4.636 -0.3109 -0.1794 -0.3066
 8447SOL    HW136800   2.272   1.539   4.728 -0.4289  0.8715 -0.0321
 8447SOL    HW236801   2.316   1.642   4.624  1.4303 -0.8629  2.6609
 8448SOL     OW36802   4.416   2.371   2.117  0.0254 -0.2164  0.2435
 8448SOL    HW136803   4.375   2.360   2.031  0.6407 -0.2192 -0.0465
 8448SOL    HW236804   4.382   2.286   2.144  1.2137 -1.1417 -1.1946
 8449SOL     OW36805   1.375   4.660  15.632 -0.2750  0.3980  0.0095
 8449SOL    HW136806   1.301   4.653  15.692  0.4559  0.5133  0.9349
 8449SOL    HW236807   1.383   4.579  15.581 -1.8642 -0.5899  1.3385
 8450SOL     OW36808   2.451   2.515   9.105 -0.5844  0.2916 -0.7390
 8450SOL    HW136809   2.505   2.482   9.033 -0.0764 -2.9304  1.1243
 8450SOL    HW236810   2.408   2.435   9.135  1.2354 -0.7188 -0.8161
 8451SOL     OW36811   0.128   2.291   4.849 -0.5544 -0.5436 -0.0611
 8451SOL    HW136812   0.213   2.332   4.834 -0.8157  0.9959  2.6869
 8451SOL    HW236813   0.060   2.329   4.794  0.9071  0.3837 -1.2397
 8452SOL     OW36814   2.713   3.736   6.872 -0.3872 -0.4663 -0.5624
 8452SOL    HW136815   2.629   3.729   6.918 -0.9682  0.5033 -1.4715
 8452SOL    HW236816   2.733   3.829   6.862  0.6010 -0.7187 -0.9103
 8453SOL     OW36817   4.131   2.645   4.934 -0.0960  0.3882 -0.1448
 8453SOL    HW136818   4.181   2.685   5.005 -3.0902 -1.1216  2.7944
 8453SOL    HW236819   4.138   2.719   4.873  2.3339  1.2909  1.2276
 8454SOL     OW36820   1.488   0.975   4.014  0.0777 -0.3385  0.2818
 8454SOL    HW136821   1.480   0.993   3.920 -0.3488  2.8465  0.9442
 8454SOL    HW236822   1.523   1.055   4.053 -1.9491  0.2308  0.9210
 8455SOL     OW36823   0.855   0.719   4.615  0.3464 -0.3252  0.2338
 8455SOL    HW136824   0.943   0.720   4.578 -0.3013  3.2671 -1.2645
 8455SOL    HW236825   0.813   0.676   4.540  1.3101 -3.9559  1.7820
 8456SOL     OW36826   4.049   0.672  16.007  0.2403  0.1405  0.4389
 8456SOL    HW136827   4.002   0.588  16.002 -0.9995  0.8441  0.3398
 8456SOL    HW236828   4.000   0.728  15.947  0.5424 -1.4111 -1.2758
 8457SOL     OW36829   0.827   4.653   2.009 -0.0809  0.2342 -0.2368
 8457SOL    HW136830   0.845   4.612   2.094 -1.5027 -1.6502 -0.8586
 8457SOL    HW236831   0.852   0.020   2.030  0.4238 -0.3387  1.6644
 8458SOL     OW36832   1.067   0.586   1.138  0.8800  0.1756  0.1588
 8458SOL    HW136833   1.144   0.530   1.147  0.6841 -0.2099 -0.6141
 8458SOL    HW236834   1.072   0.601   1.044  0.8828 -0.9557 -0.0204
 8459SOL     OW36835   1.295   1.331   6.243 -0.3665 -0.4303  0.4106
 8459SOL    HW136836   1.364   1.269   6.267 -1.0609 -0.6242  1.8954
 8459SOL    HW236837   1.228   1.319   6.310  0.9640 -1.4503  1.5720
 8460SOL     OW36838   0.799   4.050   9.358  0.1104 -0.0838 -0.2086
 8460SOL    HW136839   0.749   3.980   9.317  0.4727 -0.2890 -0.2897
 8460SOL    HW236840   0.871   3.997   9.392  1.5765  1.2228 -1.2741
 8461SOL     OW36841   0.408   0.420   8.575 -0.0870 -0.0474 -0.3269
 8461SOL    HW136842   0.442   0.480   8.641  0.2674  0.1603 -0.7032
 8461SOL    HW236843   0.419   0.333   8.614  3.6640  0.3177 -0.6322
 8462SOL     OW36844   4.593   1.850   1.716 -0.0895 -0.1299  0.0879
 8462SOL    HW136845   4.611   1.792   1.642 -0.0311  0.7370 -0.5762
 8462SOL    HW236846   4.637   1.932   1.693  1.6297 -1.5010 -1.5243
 8463SOL     OW36847   2.139   3.326   3.553  0.0370  0.2765 -0.3032
 8463SOL    HW136848   2.105   3.414   3.566  0.9713  0.4709  0.8495
 8463SOL    HW236849   2.064   3.275   3.583  0.4202  1.0883  2.0132
 8464SOL     OW36850   3.489   3.871   2.987  0.3967  0.0878  0.1713
 8464SOL    HW136851   3.468   3.821   3.065 -0.5050 -0.7413 -0.6001
 8464SOL    HW236852   3.582   3.888   3.002  0.6310 -1.6297  0.6680
 8465SOL     OW36853   0.355   4.070  12.166 -0.0053  0.7393 -0.2949
 8465SOL    HW136854   0.382   4.044  12.078  1.5019  1.1483  0.0387
 8465SOL    HW236855   0.394   4.157  12.162  1.8131 -0.1689 -2.3091
 8466SOL     OW36856   1.309   3.053   5.916 -0.5074  0.1193 -0.1968
 8466SOL    HW136857   1.279   3.084   5.831 -2.9207 -0.5131  0.4142
 8466SOL    HW236858   1.279   2.963   5.904 -1.6686  0.3796  0.7414
 8467SOL     OW36859   4.367   4.206  10.324  0.4024 -0.4981  0.0002
 8467SOL    HW136860   4.295   4.255  10.284 -1.6176 -1.4341  2.5043
 8467SOL    HW236861   4.426   4.194  10.249 -0.7204 -0.3720 -0.8974
 8468SOL     OW36862   3.442   1.283   6.857  0.2337 -0.2213 -0.2436
 8468SOL    HW136863   3.453   1.324   6.771 -0.9042 -1.4676 -0.9864
 8468SOL    HW236864   3.348   1.298   6.867  0.3772  0.3399  0.2804
 8469SOL     OW36865   0.325   2.338   5.380  0.2315  0.8374  0.0125
 8469SOL    HW136866   0.335   2.250   5.342 -0.3669  0.9777 -0.4621
 8469SOL    HW236867   0.381   2.320   5.455  1.1512  1.1353 -0.6046
 8470SOL     OW36868   2.894   2.406   5.250  0.2589  0.1155  0.4997
 8470SOL    HW136869   2.844   2.447   5.321 -0.3097  1.4651 -0.6555
 8470SOL    HW236870   2.982   2.398   5.286  0.8505  0.8606 -0.7667
 8471SOL     OW36871   0.505   0.969  12.267  0.3508  0.0760 -0.7328
 8471SOL    HW136872   0.511   0.937  12.357 -2.8498 -1.3317 -1.0265
 8471SOL    HW236873   0.470   0.887  12.233 -0.2258 -0.8047  1.9411
 8472SOL     OW36874   1.825   1.332  16.683  0.1284  0.5089  0.0925
 8472SOL    HW136875   1.749   1.302  16.734  1.6264 -0.3436  1.8375
 8472SOL    HW236876   1.872   1.248  16.677 -1.1396 -0.1356 -0.9402
 8473SOL     OW36877   0.297   2.361  10.225  0.1049 -0.0330  0.4778
 8473SOL    HW136878   0.209   2.325  10.232  1.3630 -3.1250  0.6330
 8473SOL    HW236879   0.308   2.381  10.318  0.9424 -2.9166  1.0068
 8474SOL     OW36880   1.539   3.912  12.235 -0.0862  0.2309  0.5694
 8474SOL    HW136881   1.597   3.895  12.161  0.3299 -1.5947  1.3235
 8474SOL    HW236882   1.579   3.876  12.314 -0.3130  0.0839  0.6158
 8475SOL     OW36883   0.963   4.040   4.555  0.5878  0.2915 -0.2410
 8475SOL    HW136884   1.025   3.989   4.606  0.9761  0.1892 -0.8139
 8475SOL    HW236885   0.911   3.971   4.514  0.7475 -0.3744  0.6613
 8476SOL     OW36886   2.069   0.707   3.839 -0.3043 -0.1669 -0.5167
 8476SOL    HW136887   1.978   0.688   3.819 -0.5408  1.1021 -0.6633
 8476SOL    HW236888   2.078   0.729   3.932 -0.2428 -0.5690 -0.4262
 8477SOL     OW36889   1.940   4.063   0.039 -0.5154  0.2082 -0.0651
 8477SOL    HW136890   1.935   3.995  17.667  1.1124  2.0248 -2.0600
 8477SOL    HW236891   1.961   4.009   0.115  0.0473  1.0459  0.3787
 8478SOL     OW36892   0.093   2.843   5.185 -0.6289 -0.8192  0.0572
 8478SOL    HW136893   0.043   2.849   5.267  1.5209  1.0683  1.2204
 8478SOL    HW236894   0.170   2.791   5.205 -0.3723  0.6602  3.0320
 8479SOL     OW36895   2.472   2.774  16.313 -0.1022  0.3085 -0.3686
 8479SOL    HW136896   2.499   2.859  16.349  0.7042 -0.8492  1.7884
 8479SOL    HW236897   2.452   2.798  16.223  0.4371  3.3749  0.3412
 8480SOL     OW36898   4.124   1.431   4.154 -0.6939 -0.1376 -0.0539
 8480SOL    HW136899   4.208   1.412   4.113 -1.0477 -1.0355 -0.3778
 8480SOL    HW236900   4.101   1.521   4.130 -0.8515 -0.0058  0.6017
 8481SOL     OW36901   4.555   3.299   8.044  0.1356 -0.5815  0.0120
 8481SOL    HW136902   4.475   3.259   8.010  0.2764  1.3157 -2.5138
 8481SOL    HW236903   4.512   3.351   8.112  0.1936 -2.3955  1.4310
 8482SOL     OW36904   4.290   0.007   2.086 -0.0693  0.3805 -0.0186
 8482SOL    HW136905   4.348   0.078   2.113 -0.6212  0.5443  0.7497
 8482SOL    HW236906   4.315   4.708   1.996  0.2285 -1.0964  0.4229
 8483SOL     OW36907   0.114   3.715   1.580 -0.1290  0.6935  0.6994
 8483SOL    HW136908   0.128   3.637   1.633  0.4665 -1.3284 -2.3771
 8483SOL    HW236909   0.058   3.772   1.633  0.3209  0.7246  1.1371
 8484SOL     OW36910   1.254   3.884   2.294 -0.2937 -0.1146 -0.5577
 8484SOL    HW136911   1.190   3.946   2.330  1.1218  0.4963  0.9220
 8484SOL    HW236912   1.341   3.897   2.331 -0.3672  3.4439 -1.6011
 8485SOL     OW36913   3.610   3.139   5.400 -0.1547  0.2678  1.0837
 8485SOL    HW136914   3.664   3.175   5.330  0.4002 -0.5045  1.1128
 8485SOL    HW236915   3.558   3.215   5.424 -0.4009  0.3854  0.1690
 8486SOL     OW36916   4.605   2.401   9.094 -0.2052 -0.0016 -0.4195
 8486SOL    HW136917   4.534   2.450   9.136 -1.0815 -1.6074 -0.0147
 8486SOL    HW236918   4.674   2.420   9.157 -1.8262  0.0799  1.3374
 8487SOL     OW36919   4.598   3.340   7.747  0.0041  0.1860 -0.2216
 8487SOL    HW136920   4.690   3.313   7.753  0.6593  1.7477 -3.3364
 8487SOL    HW236921   4.548   3.274   7.794 -0.7974  0.9409 -0.0050
 8488SOL     OW36922   3.909   4.684   3.845  0.3733  0.6768  0.0274
 8488SOL    HW136923   3.897   0.029   3.912 -0.4596  0.1686  0.3954
 8488SOL    HW236924   3.898   4.605   3.898 -0.5912  1.5215  1.0828
 8489SOL     OW36925   3.462   2.605   9.091  0.1339  0.2636  0.5587
 8489SOL    HW136926   3.377   2.563   9.103  0.0686  0.3474  0.3808
 8489SOL    HW236927   3.514   2.571   9.164  2.4778 -0.4465 -1.4399
 8490SOL     OW36928   1.231   1.282  15.883  0.0327  0.5356 -0.1647
 8490SOL    HW136929   1.147   1.329  15.876  0.6389  1.8978  1.6252
 8490SOL    HW236930   1.254   1.300  15.792  2.1704  0.8117  0.4349
 8491SOL     OW36931   1.764   4.451  11.837 -0.1914  0.2813  0.3299
 8491SOL    HW136932   1.789   4.365  11.871  0.1487 -0.3700 -1.5858
 8491SOL    HW236933   1.835   4.473  11.776 -1.2401 -2.5933 -1.9118
 8492SOL     OW36934   4.064   1.171   5.463  0.1864  0.0414  0.1766
 8492SOL    HW136935   4.014   1.199   5.386  1.2099  0.1904 -0.4468
 8492SOL    HW236936   4.110   1.254   5.478  1.0120 -0.1120 -1.4547
 8493SOL     OW36937   0.827   0.440   1.162  0.1067 -0.3991 -0.0098
 8493SOL    HW136938   0.851   0.383   1.088  0.0154 -1.4089  0.7411
 8493SOL    HW236939   0.895   0.507   1.153 -1.0484  0.5691 -1.6226
 8494SOL     OW36940   0.987   0.462   3.027 -0.0580 -0.3693 -0.2824
 8494SOL    HW136941   1.022   0.380   2.992  0.4857 -1.0462  1.7876
 8494SOL    HW236942   1.028   0.481   3.112  2.1546 -1.7205 -1.0319
 8495SOL     OW36943   0.823   3.343   1.602  0.0376 -0.1558 -0.2007
 8495SOL    HW136944   0.869   3.379   1.678 -1.2258 -0.1782  0.5713
 8495SOL    HW236945   0.872   3.373   1.525 -0.2574  0.9321  0.0334
 8496SOL     OW36946   1.679   1.578   2.172  0.0061  0.2588 -0.5043
 8496SOL    HW136947   1.592   1.554   2.203  0.1185 -1.9737 -1.9365
 8496SOL    HW236948   1.728   1.593   2.253  0.6714 -1.9086 -0.5158
 8497SOL     OW36949   0.513   1.623   0.510 -0.0138  0.4697 -0.3508
 8497SOL    HW136950   0.451   1.643   0.581 -0.1566  0.9722 -0.6147
 8497SOL    HW236951   0.570   1.554   0.542  1.6590  0.6801 -2.9061
 8498SOL     OW36952   1.429   0.819   5.275  0.5638  0.5450  0.1319
 8498SOL    HW136953   1.360   0.885   5.276  1.0382  1.0627 -0.8084
 8498SOL    HW236954   1.509   0.872   5.278  3.3714 -3.5506 -1.8130
 8499SOL     OW36955   0.845   3.654  16.452  0.1732  0.0359 -0.5767
 8499SOL    HW136956   0.815   3.682  16.539  0.8982  0.1419 -0.3567
 8499SOL    HW236957   0.841   3.742  16.417  0.4938 -0.5274 -2.0319
 8500SOL     OW36958   3.110   2.342   7.023 -0.6874 -0.2505  0.3408
 8500SOL    HW136959   3.015   2.353   7.025 -0.7091 -1.0247  2.7173
 8500SOL    HW236960   3.143   2.431   7.020  0.7773 -0.7899  0.5176
 8501SOL     OW36961   2.079   4.534   7.801  0.3397  0.4067 -0.6448
 8501SOL    HW136962   2.092   4.611   7.746 -0.2431 -0.9505 -2.6623
 8501SOL    HW236963   2.146   4.466   7.790  1.2295  1.3565 -1.1062
 8502SOL     OW36964   2.724   0.863  13.094 -0.5107  1.1772 -0.4504
 8502SOL    HW136965   2.695   0.844  13.005 -2.7475 -0.5072  0.6348
 8502SOL    HW236966   2.683   0.947  13.116 -0.3887  0.6055  1.9756
 8503SOL     OW36967   1.277   1.424   3.844  0.9109  0.3123 -0.6143
 8503SOL    HW136968   1.238   1.424   3.756  0.8430  0.4704 -0.5833
 8503SOL    HW236969   1.255   1.335   3.871 -0.5017  0.4925 -1.1670
 8504SOL     OW36970   2.102   1.845   3.859  0.1812  0.1770 -0.2884
 8504SOL    HW136971   2.146   1.759   3.853 -0.4774 -0.1203 -0.8540
 8504SOL    HW236972   2.030   1.818   3.915  2.1198 -4.9250 -0.1794
 8505SOL     OW36973   0.024   0.530   9.849  0.1567 -0.0547  0.3833
 8505SOL    HW136974   0.079   0.461   9.811 -0.4746 -0.8378  0.8918
 8505SOL    HW236975   4.671   0.475   9.867 -1.8261  2.2732 -1.0086
 8506SOL     OW36976   2.883   1.069   3.885 -0.4373 -0.6042 -0.1546
 8506SOL    HW136977   2.874   1.148   3.832 -0.0494 -0.3430  0.1633
 8506SOL    HW236978   2.908   1.107   3.970 -0.4682 -2.0059  0.4749
 8507SOL     OW36979   4.525   3.027  12.213 -0.9335  0.6910  0.3130
 8507SOL    HW136980   4.450   2.981  12.250 -0.8474 -1.1813 -1.8713
 8507SOL    HW236981   4.487   3.075  12.140 -0.9231 -0.8289 -0.6799
 8508SOL     OW36982   0.387   3.894   5.410  0.4729 -0.3400 -0.3437
 8508SOL    HW136983   0.316   3.877   5.471 -2.7693  0.3028 -3.9163
 8508SOL    HW236984   0.455   3.937   5.462  2.3123 -3.5813 -0.0393
 8509SOL     OW36985   4.472   3.034   6.416 -0.0848 -0.1716 -0.0015
 8509SOL    HW136986   4.546   2.982   6.383  0.3952 -0.9293  2.1922
 8509SOL    HW236987   4.457   3.105   6.354 -0.4018  1.0815  1.4969
 8510SOL     OW36988   3.380   3.421   0.184  0.7824  0.0436 -0.4505
 8510SOL    HW136989   3.407   3.511   0.166 -1.1845  0.8017  0.3888
 8510SOL    HW236990   3.446   3.411   0.253 -1.2863 -0.3188  1.4619
 8511SOL     OW36991   3.453   1.796   5.308  0.3968  0.3378 -0.0326
 8511SOL    HW136992   3.495   1.717   5.343  0.8605  0.4094 -0.4317
 8511SOL    HW236993   3.435   1.762   5.220 -0.1799  0.6002 -0.0196
 8512SOL     OW36994   2.659   2.740  15.566  0.1224 -0.0941 -0.1107
 8512SOL    HW136995   2.585   2.779  15.614 -0.1979  0.1172 -0.7645
 8512SOL    HW236996   2.726   2.727  15.632  0.1768  1.3524  0.1194
 8513SOL     OW36997   4.240   0.835   5.648 -0.0752  0.2507  0.7032
 8513SOL    HW136998   4.240   0.825   5.743 -0.0171 -0.3708  0.6378
 8513SOL    HW236999   4.300   0.906   5.624 -0.3603  0.5470  0.8727
 8514SOL     OW37000   0.489   1.394   2.702  0.6476 -0.6432  0.3205
 8514SOL    HW137001   0.405   1.439   2.705  0.1740 -1.4614 -0.4556
 8514SOL    HW237002   0.499   1.363   2.792 -0.3997  2.1115  1.3520
 8515SOL     OW37003   1.480   4.581   1.252  0.0281 -0.2488 -0.6365
 8515SOL    HW137004   1.474   4.586   1.156  3.4303  1.9032 -0.7228
 8515SOL    HW237005   1.407   4.637   1.280 -1.0608 -1.5290 -0.8733
 8516SOL     OW37006   1.793   3.491  17.079  0.9145  0.1169 -0.2403
 8516SOL    HW137007   1.882   3.479  17.111 -0.4753 -1.7232  2.8528
 8516SOL    HW237008   1.782   3.586  17.087 -3.3164 -0.5227  1.1110
 8517SOL     OW37009   0.733   2.929  12.228  0.4229  1.3203  0.1648
 8517SOL    HW137010   0.788   2.951  12.304  0.4100  2.5504 -0.1829
 8517SOL    HW237011   0.787   2.980  12.168  0.4467  1.7166  0.5170
 8518SOL     OW37012   1.628   0.265   0.736  0.1015  0.1201  0.0749
 8518SOL    HW137013   1.639   0.304   0.649 -2.2206  0.6414  0.0184
 8518SOL    HW237014   1.549   0.312   0.764  0.5695  0.0675  1.4712
 8519SOL     OW37015   2.004   3.327   6.199  0.0417 -0.7322  0.3018
 8519SOL    HW137016   1.918   3.352   6.165  0.4388 -0.3271 -0.3853
 8519SOL    HW237017   2.069   3.351   6.134  1.0262  1.0781  1.9427
 8520SOL     OW37018   0.548   3.950   8.394  0.4579  0.1129 -1.1374
 8520SOL    HW137019   0.628   3.971   8.441  1.0796 -0.0378 -2.1464
 8520SOL    HW237020   0.554   4.014   8.323 -1.3800  0.8094 -0.6913
 8521SOL     OW37021   4.497   1.429   3.438  0.4816 -0.3019  0.1240
 8521SOL    HW137022   4.420   1.483   3.456 -0.2754 -1.0557 -0.8534
 8521SOL    HW237023   4.558   1.491   3.399  0.0760  0.6661  1.0068
 8522SOL     OW37024   4.096   2.231   6.002  0.0686  0.1040 -0.2810
 8522SOL    HW137025   4.085   2.299   6.069 -2.5791 -1.4613  0.8493
 8522SOL    HW237026   4.017   2.183   6.022 -0.1951  0.7705  0.2721
 8523SOL     OW37027   1.890   0.973   5.147  0.4306 -0.7399  0.1202
 8523SOL    HW137028   1.970   0.985   5.097 -0.4725 -0.1650 -1.1659
 8523SOL    HW237029   1.878   0.878   5.140  0.3964 -0.7228 -0.0499
 8524SOL     OW37030   4.552   0.696   9.726  0.1279 -0.3517 -1.1020
 8524SOL    HW137031   4.640   0.734   9.728 -0.4626  0.9872 -0.5821
 8524SOL    HW237032   4.511   0.765   9.674 -2.4175  0.1398  1.5409
 8525SOL     OW37033   1.673   1.717  14.771 -0.0183  0.0946 -0.0839
 8525SOL    HW137034   1.630   1.796  14.738  0.0710 -0.2641 -1.0713
 8525SOL    HW237035   1.658   1.658  14.697 -2.3476  0.8712 -0.2484
 8526SOL     OW37036   2.762   4.345   6.152 -0.5645 -0.4378  0.4597
 8526SOL    HW137037   2.748   4.382   6.239  1.5318  1.7889 -0.1503
 8526SOL    HW237038   2.755   4.252   6.172  0.5974 -0.8697 -1.1106
 8527SOL     OW37039   4.355   1.360   4.039  0.3738 -0.0746  0.2673
 8527SOL    HW137040   4.414   1.316   4.099  0.8195 -0.6614 -0.6009
 8527SOL    HW237041   4.363   1.320   3.952 -1.2890  2.1470 -0.9494
 8528SOL     OW37042   3.520   4.127   2.434 -0.0407 -0.9590 -0.0135
 8528SOL    HW137043   3.571   4.058   2.392  2.2380  0.2304  0.7963
 8528SOL    HW237044   3.550   4.197   2.375  1.7270 -0.4826  1.4643
 8529SOL     OW37045   4.030   4.285  16.568  0.5262 -0.1363 -0.9222
 8529SOL    HW137046   4.117   4.311  16.539  1.2748  0.7096  2.0255
 8529SOL    HW237047   3.987   4.370  16.583 -0.8854 -0.4379 -3.2948
 8530SOL     OW37048   1.050   3.912   7.143 -0.0787  0.1611 -0.4788
 8530SOL    HW137049   0.983   3.893   7.077 -2.1032 -1.4847  2.0319
 8530SOL    HW237050   1.105   3.834   7.141 -0.4742 -0.1451  0.5865
 8531SOL     OW37051   0.432   2.504   5.728 -0.1321  0.2750  0.0825
 8531SOL    HW137052   0.439   2.446   5.803 -2.4114  0.7664  0.6558
 8531SOL    HW237053   0.341   2.533   5.735 -0.7574 -2.0191  1.6123
 8532SOL     OW37054   4.187   2.885   3.666  0.0814  0.1400  0.3472
 8532SOL    HW137055   4.245   2.857   3.595  1.2487 -0.4897  1.5492
 8532SOL    HW237056   4.258   2.904   3.727 -0.1279  1.3068  0.2245
 8533SOL     OW37057   1.662   3.176  13.375 -0.4629  0.0628 -0.1853
 8533SOL    HW137058   1.585   3.230  13.394 -0.8894 -0.7010  0.2571
 8533SOL    HW237059   1.686   3.174  13.468  0.4429 -0.2509 -0.4225
 8534SOL     OW37060   1.294   0.673  16.388 -0.2365 -0.3773 -1.1099
 8534SOL    HW137061   1.264   0.661  16.478  2.1365  1.5480 -0.0472
 8534SOL    HW237062   1.389   0.685  16.391 -0.3311 -0.1900  1.4022
 8535SOL     OW37063   3.475   3.684   0.140 -0.2337 -0.1098  0.2859
 8535SOL    HW137064   3.470   3.780   0.149  1.6676  0.1188 -1.0644
 8535SOL    HW237065   3.561   3.678   0.098 -1.0719  2.1463 -1.7173
 8536SOL     OW37066   4.476   3.566   2.188  0.0926  0.1957 -0.3586
 8536SOL    HW137067   4.389   3.536   2.210  1.3263 -3.7153 -0.8566
 8536SOL    HW237068   4.512   3.600   2.270  1.3802 -1.1793 -0.3425
 8537SOL     OW37069   4.507   0.394   7.261  0.6731 -0.1969 -0.2177
 8537SOL    HW137070   4.459   0.434   7.333  0.6923 -0.3277 -0.1335
 8537SOL    HW237071   4.441   0.406   7.193  1.2425  0.3730 -0.6718
 8538SOL     OW37072   0.545   1.859   5.237 -0.0137 -0.0122  0.0010
 8538SOL    HW137073   0.591   1.781   5.269  1.5023  0.2256 -1.5968
 8538SOL    HW237074   0.517   1.894   5.321 -0.6331 -1.6223  0.4625
 8539SOL     OW37075   3.710   1.117   0.881 -0.4239 -0.2008  0.0602
 8539SOL    HW137076   3.730   1.124   0.975 -3.5481 -1.3686  0.7907
 8539SOL    HW237077   3.792   1.118   0.832 -1.2299 -0.1371 -1.2750
 8540SOL     OW37078   1.497   3.029   1.349  0.4475 -0.4466  0.5184
 8540SOL    HW137079   1.588   3.057   1.345  0.2487  0.3649  1.7370
 8540SOL    HW237080   1.460   3.063   1.267  3.2031 -1.4596 -1.1532
 8541SOL     OW37081   1.131   0.177  14.410  0.4148 -0.0478  0.8258
 8541SOL    HW137082   1.183   0.135  14.478  1.8680  0.0525 -0.2357
 8541SOL    HW237083   1.116   0.105  14.348  1.6861 -2.6138  3.4895
 8542SOL     OW37084   1.987   1.635  15.773  0.3680 -0.1428  0.3527
 8542SOL    HW137085   1.966   1.725  15.799 -0.2021 -0.6498  1.6364
 8542SOL    HW237086   2.033   1.648  15.690 -0.4615 -0.2608 -0.1193
 8543SOL     OW37087   0.136   0.636   0.774 -0.0530  0.2177 -0.2889
 8543SOL    HW137088   0.216   0.602   0.735 -1.1434 -1.1122 -1.3490
 8543SOL    HW237089   0.111   0.701   0.708  2.7323  1.1986 -0.3733
 8544SOL     OW37090   1.487   0.248   0.135  0.2498  0.2930  0.9816
 8544SOL    HW137091   1.446   0.328   0.103 -0.1533  0.2314  1.3394
 8544SOL    HW237092   1.569   0.247   0.085 -0.2214 -2.4849  0.2693
 8545SOL     OW37093   4.161   0.334   2.870 -0.1118  0.3637  0.0541
 8545SOL    HW137094   4.088   0.291   2.914  0.7782  0.3154  1.4579
 8545SOL    HW237095   4.227   0.266   2.886  0.8709  1.3693  0.3067
 8546SOL     OW37096   1.516   1.087   5.502 -0.4755 -0.0278 -0.1067
 8546SOL    HW137097   1.573   1.066   5.428 -0.9394 -0.8991 -0.2233
 8546SOL    HW237098   1.540   1.005   5.546  1.1695  0.6103  0.1994
 8547SOL     OW37099   4.537   3.109   6.695 -0.1574 -0.4087 -0.3765
 8547SOL    HW137100   4.564   3.197   6.669  0.3975 -0.8462 -1.2449
 8547SOL    HW237101   4.551   3.050   6.621  0.4062 -0.2866 -0.3716
 8548SOL     OW37102   2.826   1.169   6.612 -0.1471  0.0345  0.7092
 8548SOL    HW137103   2.765   1.140   6.679  0.8643  0.4987  1.8419
 8548SOL    HW237104   2.830   1.098   6.547  1.7679  1.4272 -0.6899
 8549SOL     OW37105   2.729   4.577   7.599 -0.0412 -0.4527  0.4672
 8549SOL    HW137106   2.698   4.521   7.670 -2.0560 -0.0068 -0.0492
 8549SOL    HW237107   2.820   4.548   7.594  0.1660  0.2870 -0.1428
 8550SOL     OW37108   0.835   3.190   6.521 -0.1685 -0.2879  0.1456
 8550SOL    HW137109   0.745   3.161   6.537 -1.4262  2.2320 -2.2232
 8550SOL    HW237110   0.832   3.212   6.428  1.6911  0.3703  0.2533
 8551SOL     OW37111   4.038   2.852  13.523  0.0654 -0.1863 -0.0348
 8551SOL    HW137112   3.947   2.863  13.550  0.2726  2.5555 -0.5132
 8551SOL    HW237113   4.023   2.865  13.429 -1.7293  0.3143  0.3336
 8552SOL     OW37114   4.206   4.667   9.272  0.4661 -0.3050 -0.3231
 8552SOL    HW137115   4.200   4.719   9.192  2.3066  2.1974  1.1582
 8552SOL    HW237116   4.251   4.588   9.239  1.4923 -0.4291  1.4066
 8553SOL     OW37117   1.176   2.492   3.226 -0.1874 -0.4934  0.4130
 8553SOL    HW137118   1.098   2.470   3.174 -1.1560  0.3789  1.5217
 8553SOL    HW237119   1.229   2.412   3.217  1.0191  0.5136 -1.5371
 8554SOL     OW37120   3.485   4.197   4.544 -0.3869 -0.5804  0.7480
 8554SOL    HW137121   3.437   4.237   4.616 -1.6488  2.0852 -1.5730
 8554SOL    HW237122   3.556   4.154   4.592 -1.3263  0.4128  3.0139
 8555SOL     OW37123   3.990   0.214   2.596  0.7514 -0.1962 -0.1903
 8555SOL    HW137124   3.929   0.200   2.523  0.7467 -1.7703  0.1212
 8555SOL    HW237125   3.992   0.128   2.638 -1.9168 -0.9231 -1.5662
 8556SOL     OW37126   1.135   0.344   2.589  0.0636  0.6901 -0.1526
 8556SOL    HW137127   1.220   0.302   2.602 -0.6176 -0.4598  0.5793
 8556SOL    HW237128   1.130   0.363   2.682  3.2927  0.9509 -0.0303
 8557SOL     OW37129   2.493   0.564   6.909 -0.4104  0.1353 -0.1583
 8557SOL    HW137130   2.401   0.584   6.920 -0.0452  0.8583  1.7214
 8557SOL    HW237131   2.480   0.473   6.882 -1.6301  1.2113 -3.1664
 8558SOL     OW37132   0.380   3.329  15.528  0.2875  0.3628  0.1903
 8558SOL    HW137133   0.380   3.397  15.461  0.4682 -0.0609 -0.2442
 8558SOL    HW237134   0.443   3.377  15.581  0.3099  2.0721 -1.3758
 8559SOL     OW37135   0.111   1.816   5.959  0.2609  0.2020 -0.4377
 8559SOL    HW137136   0.091   1.726   5.987 -1.1375  0.9829  1.0147
 8559SOL    HW237137   0.132   1.852   6.044  0.3441  1.1931 -0.8850
 8560SOL     OW37138   2.319   4.046   8.742 -0.2818 -0.0796 -0.0769
 8560SOL    HW137139   2.324   3.958   8.705  2.5027  1.0125 -2.2878
 8560SOL    HW237140   2.342   4.033   8.835  0.0108 -0.4852 -0.2056
 8561SOL     OW37141   3.125   0.214  13.190  0.6890 -0.0486  0.0241
 8561SOL    HW137142   3.045   0.250  13.152  0.5863 -0.3709 -0.0621
 8561SOL    HW237143   3.107   0.219  13.284  0.5877  0.7200 -0.0345
 8562SOL     OW37144   1.436   0.947  12.161  0.0930  0.6093 -0.2369
 8562SOL    HW137145   1.497   0.978  12.095  0.9142 -1.7899 -0.6143
 8562SOL    HW237146   1.416   0.858  12.130 -2.1716  1.0368 -0.0027
 8563SOL     OW37147   3.969   4.222  11.579  0.2104  0.6411 -0.1118
 8563SOL    HW137148   4.036   4.165  11.543 -0.7431 -0.8641  0.4899
 8563SOL    HW237149   3.988   4.240  11.671  2.6891  0.4144 -0.5999
 8564SOL     OW37150   2.821   2.058   6.563 -0.1737 -0.7664  0.1115
 8564SOL    HW137151   2.914   2.042   6.546  0.5461  2.4925  1.0253
 8564SOL    HW237152   2.783   1.990   6.507  3.3950 -2.5001 -0.2153
 8565SOL     OW37153   3.653   4.372  10.631 -0.0900  0.2378  0.3783
 8565SOL    HW137154   3.593   4.366  10.557 -1.6925  0.4532  1.6556
 8565SOL    HW237155   3.698   4.454  10.611  0.2549  0.4294  1.9371
 8566SOL     OW37156   3.186   3.731   6.857  0.0019  0.3846  0.4305
 8566SOL    HW137157   3.107   3.688   6.823  1.2105 -0.5654 -1.1639
 8566SOL    HW237158   3.210   3.798   6.793  1.1422  0.0803  0.5435
 8567SOL     OW37159   3.217   2.114   4.933  0.4648  0.1479 -0.3603
 8567SOL    HW137160   3.199   2.205   4.910  0.1076  0.8002  2.4927
 8567SOL    HW237161   3.307   2.107   4.901 -0.2770 -2.9754 -1.7546
 8568SOL     OW37162   3.044   0.366   4.637  0.4544  0.9754  0.8350
 8568SOL    HW137163   2.997   0.369   4.720 -0.1350  2.6113  0.4386
 8568SOL    HW237164   3.134   0.381   4.667  0.2710  2.1348  0.8087
 8569SOL     OW37165   1.074   4.428  10.151  0.2633  0.1808 -0.0553
 8569SOL    HW137166   1.045   4.345  10.189  1.5499  0.3304  1.2583
 8569SOL    HW237167   0.988   4.467  10.138  0.3352  0.4015  0.1597
 8570SOL     OW37168   2.969   0.540  11.673  0.0335  0.4119 -0.4385
 8570SOL    HW137169   3.062   0.563  11.674  0.1953 -0.2826  0.2258
 8570SOL    HW237170   2.979   0.445  11.677 -2.8557  0.2694  3.4458
 8571SOL     OW37171   2.660   3.350   7.773  0.0421  0.0868 -0.3437
 8571SOL    HW137172   2.606   3.344   7.694  1.9762 -4.1588 -1.3460
 8571SOL    HW237173   2.745   3.317   7.742  1.6690  1.6451  2.4160
 8572SOL     OW37174   4.503   2.106   5.416 -0.4490 -0.4990 -0.2400
 8572SOL    HW137175   4.563   2.159   5.364 -0.5153  1.3446  1.5574
 8572SOL    HW237176   4.504   2.024   5.367  0.8223 -0.5592 -0.1064
 8573SOL     OW37177   0.512   3.379  10.015 -0.3032 -0.9609 -0.7977
 8573SOL    HW137178   0.551   3.348  10.096 -0.1747  0.9838 -0.1096
 8573SOL    HW237179   0.421   3.376  10.044 -0.7154  2.0431 -1.7146
 8574SOL     OW37180   2.453   0.028   8.780 -0.5237  0.4524  0.5083
 8574SOL    HW137181   2.471   4.706   8.698  0.4541 -0.8488  1.4557
 8574SOL    HW237182   2.473   4.672   8.830  0.7119 -2.0329 -3.9702
 8575SOL     OW37183   0.312   2.915   3.810 -0.3154  0.6335 -0.1026
 8575SOL    HW137184   0.359   2.998   3.810 -0.8532  0.9378 -1.5296
 8575SOL    HW237185   0.273   2.919   3.722  2.3873 -1.3816 -1.4187
 8576SOL     OW37186   4.204   4.198   1.630  0.8176  0.0319 -0.7064
 8576SOL    HW137187   4.215   4.169   1.720  1.1915  0.3715 -0.6430
 8576SOL    HW237188   4.133   4.143   1.594 -1.3939  1.6897  1.1222
 8577SOL     OW37189   0.638   1.608   7.230  0.3352  0.2801 -0.1678
 8577SOL    HW137190   0.575   1.647   7.291 -0.4199  0.4245 -1.0548
 8577SOL    HW237191   0.708   1.584   7.292 -0.2482 -0.7909  0.0676
 8578SOL     OW37192   2.501   3.447   0.660 -0.1476  0.0231 -0.3544
 8578SOL    HW137193   2.433   3.450   0.726 -0.3503 -1.1798 -0.5033
 8578SOL    HW237194   2.566   3.509   0.692 -0.5588  0.8341 -1.0885
 8579SOL     OW37195   3.466   2.843   6.000  0.4656 -0.1063  0.2672
 8579SOL    HW137196   3.448   2.789   6.076 -1.0084  0.6306  0.4303
 8579SOL    HW237197   3.535   2.786   5.966  1.2504 -0.1156  1.8994
 8580SOL     OW37198   2.899   0.663   3.637  0.3851 -0.3371 -0.1719
 8580SOL    HW137199   2.979   0.613   3.649 -1.0298 -2.6466 -0.2867
 8580SOL    HW237200   2.893   0.662   3.542 -2.0458 -3.3140  0.0017
 8581SOL     OW37201   0.061   0.641   2.872 -0.3094  0.0655 -0.0332
 8581SOL    HW137202   0.012   0.646   2.954 -0.8700 -3.3990 -0.1893
 8581SOL    HW237203   0.034   0.723   2.830 -2.1212 -1.2100 -1.3409
 8582SOL     OW37204   2.804   1.429   0.210  0.0816 -0.2148  0.3230
 8582SOL    HW137205   2.827   1.340   0.186 -1.4276 -0.9873  1.7994
 8582SOL    HW237206   2.800   1.421   0.306  0.7698  0.3731  0.4079
 8583SOL     OW37207   2.321   3.954  13.153  0.0863  0.5540 -0.3940
 8583SOL    HW137208   2.271   3.895  13.097 -1.4123  0.6752  0.8413
 8583SOL    HW237209   2.403   3.907  13.169 -0.1072 -0.1036 -1.2906
 8584SOL     OW37210   4.145   3.147   8.920  0.0912  0.1735 -0.0271
 8584SOL    HW137211   4.141   3.240   8.940  1.0178  0.1184  0.4003
 8584SOL    HW237212   4.086   3.106   8.983  1.1165  0.1931  0.9432
 8585SOL     OW37213   2.849   2.792  15.835  0.4298 -1.0324  0.0934
 8585SOL    HW137214   2.908   2.821  15.905 -0.1176  1.2424 -0.3946
 8585SOL    HW237215   2.908   2.733  15.788 -1.7762 -3.4083  0.3203
 8586SOL     OW37216   0.045   1.270   8.942  0.1276  0.7508  0.0101
 8586SOL    HW137217   0.077   1.180   8.933 -0.2334  0.6056  0.2172
 8586SOL    HW237218   4.697   1.253   9.002  1.8677  0.3613  1.9590
 8587SOL     OW37219   3.419   1.868   2.668 -0.7243 -0.5200 -0.2327
 8587SOL    HW137220   3.356   1.815   2.619  0.2267  2.0527 -4.2259
 8587SOL    HW237221   3.483   1.879   2.597 -0.2283  0.2316  0.3398
 8588SOL     OW37222   2.566   1.158   6.779 -0.7227  0.1353  0.4219
 8588SOL    HW137223   2.623   1.135   6.852  3.2382  0.2836 -2.5907
 8588SOL    HW237224   2.589   1.250   6.763  2.3949 -0.8242 -0.7349
 8589SOL     OW37225   1.926   4.459  12.967  0.5329 -0.1752  0.1032
 8589SOL    HW137226   1.912   4.375  13.010  0.5662 -1.0936 -1.6893
 8589SOL    HW237227   2.016   4.481  12.992  0.5523 -0.1402 -0.0002
 8590SOL     OW37228   1.585   1.722   4.094  0.0994 -0.5851 -0.0796
 8590SOL    HW137229   1.556   1.641   4.050 -0.0454 -0.3789 -0.3611
 8590SOL    HW237230   1.576   1.785   4.023  0.0727  1.2408  1.5691
 8591SOL     OW37231   2.971   1.066   3.515  0.1587 -0.0493  0.3896
 8591SOL    HW137232   2.964   1.161   3.524  0.0256 -0.1067  0.9190
 8591SOL    HW237233   2.910   1.057   3.442 -0.4602  2.4083  0.6096
 8592SOL     OW37234   2.847   2.612   8.058 -0.0957  0.4270 -0.1103
 8592SOL    HW137235   2.886   2.593   7.973 -0.1912 -0.0666 -0.0467
 8592SOL    HW237236   2.866   2.706   8.059 -1.2839  0.7616 -5.0769
 8593SOL     OW37237   4.217   2.638  11.152 -0.6507 -0.2238 -0.1329
 8593SOL    HW137238   4.133   2.600  11.129  0.5211 -2.1322 -1.2873
 8593SOL    HW237239   4.215   2.598  11.238  1.6546 -1.7099 -0.7705
 8594SOL     OW37240   0.835   3.613   9.319 -0.2662 -0.3638  0.3288
 8594SOL    HW137241   0.915   3.640   9.365  1.1929  0.8154 -2.9020
 8594SOL    HW237242   0.862   3.527   9.286 -0.7803 -0.8724  1.2588
 8595SOL     OW37243   1.701   0.763   3.590 -0.1915 -0.0672  0.4153
 8595SOL    HW137244   1.724   0.851   3.560 -2.3707  1.0838  2.1030
 8595SOL    HW237245   1.735   0.759   3.680  0.6026  0.5853  0.1491
 8596SOL     OW37246   0.997   0.822   1.295 -0.0424  0.2734  0.0508
 8596SOL    HW137247   1.054   0.895   1.273  1.6047 -0.3651  2.1946
 8596SOL    HW237248   1.052   0.749   1.268 -0.6511 -0.8430  1.8001
 8597SOL     OW37249   1.140   0.687  16.167  0.3751  0.4453  0.5179
 8597SOL    HW137250   1.182   0.772  16.152  1.0353  0.2406  1.2572
 8597SOL    HW237251   1.177   0.655  16.249  0.3098  1.2535  0.8607
 8598SOL     OW37252   1.637   3.420  15.478 -0.7439 -0.1268 -0.4982
 8598SOL    HW137253   1.685   3.344  15.445 -1.1308  0.3636 -2.1798
 8598SOL    HW237254   1.558   3.384  15.518  0.1602 -1.1397  0.4069
 8599SOL     OW37255   0.235   3.189  14.210 -0.2340  0.4061  0.0807
 8599SOL    HW137256   0.257   3.141  14.130 -1.1536  1.2307 -0.6737
 8599SOL    HW237257   0.145   3.159  14.221 -0.1324  0.8378  2.0261
 8600SOL     OW37258   4.502   1.363   3.744  0.6942 -0.0384 -0.3370
 8600SOL    HW137259   4.596   1.382   3.748  0.6702  0.2589 -1.1055
 8600SOL    HW237260   4.486   1.297   3.676  1.0770 -1.2865  0.7800
 8601SOL     OW37261   3.500   0.804   9.863 -0.1243 -0.0995 -0.1454
 8601SOL    HW137262   3.575   0.864   9.854 -1.6473  1.3134 -3.1597
 8601SOL    HW237263   3.532   0.735   9.922  1.7207 -0.1008 -1.1479
 8602SOL     OW37264   1.460   3.726  17.564  0.0051 -0.5792 -0.0389
 8602SOL    HW137265   1.424   3.690  17.483  0.4495 -0.2867 -0.3709
 8602SOL    HW237266   1.479   3.815  17.533  2.6007 -0.5046  1.7680
 8603SOL     OW37267   4.560   1.629  12.898 -0.0582  0.2117 -0.4943
 8603SOL    HW137268   4.477   1.643  12.943 -0.0998 -0.1917 -0.4388
 8603SOL    HW237269   4.555   1.541  12.859  1.3720 -0.8841  1.7491
 8604SOL     OW37270   4.206   0.966  11.375  0.7138 -0.7050  0.5686
 8604SOL    HW137271   4.289   1.012  11.369  0.8466 -1.1175 -0.8399
 8604SOL    HW237272   4.234   0.894  11.319  0.2854 -0.8089  0.4862
 8605SOL     OW37273   2.339   3.638   8.329  0.3904 -0.4086  0.2056
 8605SOL    HW137274   2.430   3.623   8.303  1.0208  5.8032 -1.2419
 8605SOL    HW237275   2.339   3.733   8.335  0.2650 -0.2880 -1.5934
 8606SOL     OW37276   2.066   4.538   8.098 -0.5042  0.0678 -0.0287
 8606SOL    HW137277   1.981   4.522   8.140 -0.6570 -0.3053 -0.4759
 8606SOL    HW237278   2.040   4.539   8.006  1.1287  0.1532 -0.4873
 8607SOL     OW37279   2.236   0.069   2.565  0.2604  0.0613  0.5360
 8607SOL    HW137280   2.265   4.722   2.506 -0.6891  0.5335 -0.4873
 8607SOL    HW237281   2.314   0.124   2.573  0.3606 -0.0627  0.4228
 8608SOL     OW37282   4.666   3.373   6.572 -0.5907 -0.8219 -0.5409
 8608SOL    HW137283   4.582   3.418   6.572  0.0450  0.3627 -3.4455
 8608SOL    HW237284   4.707   3.422   6.643  0.1955 -0.1171 -1.4807
 8609SOL     OW37285   1.977   1.649  14.835 -0.1026  0.0023  0.5990
 8609SOL    HW137286   2.016   1.570  14.872 -0.8512 -0.8390 -0.4118
 8609SOL    HW237287   1.888   1.620  14.813  0.1483  0.9148 -1.5776
 8610SOL     OW37288   4.120   4.012   0.395 -0.2000 -0.4252  0.5133
 8610SOL    HW137289   4.215   4.009   0.384 -0.2617 -1.5630  0.2276
 8610SOL    HW237290   4.103   4.078   0.329 -0.4891 -1.8540 -0.8416
 8611SOL     OW37291   4.273   3.159   2.092  0.0232  0.1980 -0.8285
 8611SOL    HW137292   4.279   3.114   2.176 -2.7589  1.2506 -0.0592
 8611SOL    HW237293   4.210   3.098   2.054  1.9135 -1.7148 -0.9036
 8612SOL     OW37294   3.972   0.775   8.971 -0.1308  0.1243 -0.0475
 8612SOL    HW137295   3.879   0.762   8.956 -0.1736 -0.5662  0.8131
 8612SOL    HW237296   4.007   0.688   8.955 -2.9305 -0.9374 -0.2718
 8613SOL     OW37297   4.676   4.180   2.708  0.0066  0.5626 -0.5156
 8613SOL    HW137298   0.039   4.181   2.749 -0.3835  3.6409  0.2655
 8613SOL    HW237299   4.667   4.097   2.661  1.1707  1.5257 -2.4429
 8614SOL     OW37300   3.781   1.497   8.794  0.1407 -0.1718  0.2796
 8614SOL    HW137301   3.725   1.439   8.846 -1.5138  0.8221 -0.3710
 8614SOL    HW237302   3.793   1.558   8.866  2.1236 -1.2169  0.8068
 8615SOL     OW37303   0.639   2.586   2.717 -0.1624  0.1619 -0.5729
 8615SOL    HW137304   0.620   2.559   2.807  1.3941  2.2451  0.3700
 8615SOL    HW237305   0.734   2.579   2.718 -0.0835  1.2405 -0.9188
 8616SOL     OW37306   1.957   4.645   2.196  0.0018  0.1812 -0.6736
 8616SOL    HW137307   2.039   4.596   2.191  1.3378  2.1233  1.8368
 8616SOL    HW237308   1.970   4.696   2.276 -1.0173 -2.0501  0.9173
 8617SOL     OW37309   3.777   4.177  11.395  0.0334 -0.2713  0.1288
 8617SOL    HW137310   3.698   4.229  11.409 -1.3119 -1.8188 -1.6750
 8617SOL    HW237311   3.840   4.202  11.462  0.4267  0.6278 -0.5874
 8618SOL     OW37312   0.494   2.981   6.307 -0.0200 -0.2044 -0.5317
 8618SOL    HW137313   0.401   3.004   6.306  0.4997  2.0559  1.4338
 8618SOL    HW237314   0.509   3.021   6.222 -1.0023  1.0051 -0.1347
 8619SOL     OW37315   2.438   2.020   3.196  0.0855  0.4174 -0.2387
 8619SOL    HW137316   2.534   2.029   3.193 -0.0158  1.2498 -0.8328
 8619SOL    HW237317   2.427   1.934   3.236 -1.6386  1.0741  0.6856
 8620SOL     OW37318   0.154   3.785   3.340 -0.1937  0.4719  0.0087
 8620SOL    HW137319   0.081   3.765   3.399 -0.3434 -2.1478 -1.0846
 8620SOL    HW237320   0.198   3.848   3.397 -1.1043  1.6651 -0.5938
 8621SOL     OW37321   3.773   2.886   8.228  0.4740  0.0818  0.0984
 8621SOL    HW137322   3.838   2.818   8.248 -0.6193 -0.7203  0.8703
 8621SOL    HW237323   3.818   2.953   8.176  0.3058 -1.1252 -1.6455
 8622SOL     OW37324   2.714   4.501  13.622 -0.1023  0.2519 -0.4356
 8622SOL    HW137325   2.756   4.493  13.708  0.3852  1.0808 -0.5888
 8622SOL    HW237326   2.625   4.470  13.634  1.1192 -2.1337  2.4432
 8623SOL     OW37327   2.280   0.866   4.911  0.3370  0.4250  0.7654
 8623SOL    HW137328   2.365   0.893   4.945 -0.1587 -0.2179  2.5131
 8623SOL    HW237329   2.257   0.795   4.970  1.6593 -0.2983  0.3966
 8624SOL     OW37330   1.790   3.120   6.334  0.2711 -0.1670  0.7995
 8624SOL    HW137331   1.789   3.067   6.254 -0.7525  0.1324  0.6154
 8624SOL    HW237332   1.883   3.138   6.323  0.4207 -1.8103 -0.6134
 8625SOL     OW37333   2.374   2.672  12.371 -0.4217 -0.4440 -0.1597
 8625SOL    HW137334   2.452   2.721  12.397  1.3351 -3.5059  0.2713
 8625SOL    HW237335   2.305   2.735  12.392  0.4482  0.8321 -1.0834
 8626SOL     OW37336   3.292   0.777   6.212  0.9504 -0.1025 -0.6891
 8626SOL    HW137337   3.296   0.698   6.266 -0.7331 -0.1374 -0.5881
 8626SOL    HW237338   3.222   0.817   6.264  0.0092  0.0180 -2.0410
 8627SOL     OW37339   0.225   0.834   9.309  0.0617  0.3702 -0.5096
 8627SOL    HW137340   0.259   0.899   9.248  0.0845  2.0201  1.2807
 8627SOL    HW237341   0.277   0.754   9.300  0.9057  0.7746  0.8579
 8628SOL     OW37342   2.246   3.091   2.013  0.5883  0.0669  0.7838
 8628SOL    HW137343   2.317   3.143   2.052  1.4766 -1.6170  1.4302
 8628SOL    HW237344   2.280   3.082   1.925 -1.6704 -2.6459  0.1686
 8629SOL     OW37345   2.980   4.441   6.349  0.7990  0.4844 -0.2605
 8629SOL    HW137346   2.951   4.399   6.268  1.2646  1.3449 -0.8709
 8629SOL    HW237347   3.019   4.521   6.314 -0.3248  1.4929  0.7668
 8630SOL     OW37348   2.686   1.827   5.750  0.6693  0.3515  0.2448
 8630SOL    HW137349   2.648   1.764   5.689  0.2242  0.8204  0.0397
 8630SOL    HW237350   2.754   1.861   5.692  0.8806  1.4213  1.1170
 8631SOL     OW37351   4.571   2.890   7.708 -0.0320  0.0533  0.0780
 8631SOL    HW137352   4.639   2.937   7.660 -1.0391  2.0958  0.6398
 8631SOL    HW237353   4.494   2.922   7.661 -0.9455 -1.9166  0.2286
 8632SOL     OW37354   3.563   1.964   1.118 -0.2471 -0.0732 -0.4737
 8632SOL    HW137355   3.504   1.953   1.192  0.7468  1.3048  0.5158
 8632SOL    HW237356   3.556   1.878   1.077 -0.5762  0.0709 -0.7167
 8633SOL     OW37357   2.872   3.161   8.277  0.5026  0.0596  0.0020
 8633SOL    HW137358   2.855   3.173   8.370  1.7691  2.6297 -0.1024
 8633SOL    HW237359   2.931   3.085   8.286 -2.3526 -2.1664 -0.2080
 8634SOL     OW37360   3.064   1.467   7.518 -0.0157  0.5621 -0.2871
 8634SOL    HW137361   3.123   1.392   7.526 -1.2081 -0.2258  1.2112
 8634SOL    HW237362   2.994   1.423   7.470  0.9586  0.2487 -1.4095
 8635SOL     OW37363   0.675   2.158  14.258  0.0792  0.5844  0.6937
 8635SOL    HW137364   0.730   2.173  14.182  0.3212 -1.0518  0.5379
 8635SOL    HW237365   0.604   2.221  14.252 -0.8942 -0.6347 -0.7519
 8636SOL     OW37366   2.212   4.168   2.225 -0.6321  0.3661  0.0981
 8636SOL    HW137367   2.172   4.082   2.217  1.0810 -0.2924 -1.4063
 8636SOL    HW237368   2.286   4.154   2.166 -0.7294 -0.2488  0.1236
 8637SOL     OW37369   4.299   2.184  13.108 -0.5540 -0.1502 -0.2195
 8637SOL    HW137370   4.216   2.156  13.146 -1.2647  0.1129 -1.5695
 8637SOL    HW237371   4.282   2.277  13.091  0.0605  0.3948  2.2251
 8638SOL     OW37372   3.765   2.162   4.130  0.3034  0.5444 -0.5835
 8638SOL    HW137373   3.735   2.073   4.115 -0.4710  0.9880 -1.6722
 8638SOL    HW237374   3.689   2.218   4.115  2.8181  3.3275 -3.0661
 8639SOL     OW37375   0.198   2.869   0.250 -0.3335 -0.4471 -0.5418
 8639SOL    HW137376   0.273   2.809   0.250 -1.1582 -1.4866  0.7856
 8639SOL    HW237377   0.192   2.896   0.341 -1.6182 -0.7131 -0.5437
 8640SOL     OW37378   1.974   3.487   1.731 -0.4955  0.2197 -1.3532
 8640SOL    HW137379   1.941   3.559   1.677  1.1787  0.5103 -1.9787
 8640SOL    HW237380   1.961   3.401   1.689  1.2319 -1.2108  1.0419
 8641SOL     OW37381   1.636   2.141   7.509 -0.1068  0.4940 -0.1724
 8641SOL    HW137382   1.697   2.212   7.489  0.8480 -0.2000  0.2933
 8641SOL    HW237383   1.666   2.115   7.596  0.7699 -1.2150 -0.9726
 8642SOL     OW37384   3.999   3.484   7.888 -0.4107 -0.0020  0.7174
 8642SOL    HW137385   3.921   3.437   7.857  0.2780 -1.6008  1.3967
 8642SOL    HW237386   3.997   3.453   7.979 -1.0552 -1.0013  0.3657
 8643SOL     OW37387   1.969   3.921   3.200 -0.3646 -0.2143  0.3029
 8643SOL    HW137388   1.971   3.828   3.177  0.0324 -0.1966  0.2612
 8643SOL    HW237389   2.060   3.946   3.184 -1.3420  1.7075 -2.2190
 8644SOL     OW37390   1.967   2.265   2.883  0.3672 -0.1750  0.6833
 8644SOL    HW137391   1.972   2.193   2.946  1.0695 -1.6186 -1.0432
 8644SOL    HW237392   1.873   2.271   2.866  0.6457  1.1362 -0.4593
 8645SOL     OW37393   2.574   2.080   4.499  0.1418  0.1314  0.2302
 8645SOL    HW137394   2.578   2.152   4.436 -0.0146  0.4196  0.5454
 8645SOL    HW237395   2.666   2.065   4.518  0.1262 -1.1316 -0.7638
 8646SOL     OW37396   0.538   1.798   8.294 -0.1707 -0.4273  0.5007
 8646SOL    HW137397   0.499   1.885   8.291  1.1152  0.1918  1.9816
 8646SOL    HW237398   0.561   1.802   8.387 -2.2604 -1.7814  1.0833
 8647SOL     OW37399   1.837   4.377   1.647 -0.0349  0.3296 -0.1276
 8647SOL    HW137400   1.847   4.398   1.739  1.1836 -0.8248 -0.0124
 8647SOL    HW237401   1.768   4.311   1.651 -0.0880  0.2085 -2.6060
 8648SOL     OW37402   4.431   0.224   8.789  0.0691 -0.0586 -0.3952
 8648SOL    HW137403   4.476   0.185   8.715 -0.6433 -2.7373  0.5986
 8648SOL    HW237404   4.340   0.219   8.761  0.0519  0.2876 -0.4009
 8649SOL     OW37405   2.728   3.092  17.315 -0.2614  0.3917  0.6691
 8649SOL    HW137406   2.799   3.113  17.375  0.1202 -1.2319  0.7788
 8649SOL    HW237407   2.698   3.179  17.289 -2.5472 -0.1893  1.3378
 8650SOL     OW37408   4.175   4.595   3.957  0.1798  0.2857 -0.1598
 8650SOL    HW137409   4.240   4.632   3.898  2.7757 -3.8657  0.1294
 8650SOL    HW237410   4.091   4.614   3.914  0.2521  0.4304 -0.2348
 8651SOL     OW37411   1.635   4.284   4.394 -0.0788 -0.2386  0.4543
 8651SOL    HW137412   1.689   4.359   4.421  0.7166  0.0667 -2.0295
 8651SOL    HW237413   1.552   4.332   4.392 -0.3563 -0.7899 -0.9008
 8652SOL     OW37414   2.298   3.037   2.665 -0.0332  0.2409  0.4749
 8652SOL    HW137415   2.321   3.084   2.745  0.3494  0.3554  0.2984
 8652SOL    HW237416   2.380   3.017   2.619 -0.9139 -0.5566 -0.7327
 8653SOL     OW37417   3.376   0.401  11.556 -0.4936 -0.7393  0.2108
 8653SOL    HW137418   3.405   0.318  11.518 -0.0448 -0.5558  0.1591
 8653SOL    HW237419   3.399   0.388  11.648 -0.7821  0.0620  0.3917
 8654SOL     OW37420   2.642   4.466  14.985 -0.2497 -0.4172 -0.8314
 8654SOL    HW137421   2.596   4.488  14.904  0.7370  3.1928 -0.4426
 8654SOL    HW237422   2.594   4.518  15.049 -0.5830 -0.3113 -1.1667
 8655SOL     OW37423   0.165   3.680   9.926 -0.1672  0.2202  0.0723
 8655SOL    HW137424   0.133   3.652   9.841  3.4013 -0.0670 -1.1787
 8655SOL    HW237425   0.091   3.730   9.960  1.1527  2.0635  0.2350
 8656SOL     OW37426   3.772   2.534  16.257  0.2101 -1.0232  0.2581
 8656SOL    HW137427   3.742   2.527  16.348  2.0422  1.3438  1.0637
 8656SOL    HW237428   3.762   2.440  16.244 -1.5658 -0.7145 -0.5959
 8657SOL     OW37429   3.534   4.422   2.635  0.0369 -0.2993 -0.2091
 8657SOL    HW137430   3.599   4.353   2.645 -0.7032 -0.5628  2.8467
 8657SOL    HW237431   3.597   4.473   2.585  0.9034 -1.0424  0.1249
 8658SOL     OW37432   2.630   2.817   9.665  0.4265  0.1932 -0.0727
 8658SOL    HW137433   2.650   2.727   9.692  0.0772  0.7287  1.9535
 8658SOL    HW237434   2.542   2.835   9.699 -0.6602 -2.2374 -1.5788
 8659SOL     OW37435   2.734   2.723   6.578 -0.2524 -0.4548  0.2332
 8659SOL    HW137436   2.785   2.798   6.607 -0.6272 -0.1289  0.0449
 8659SOL    HW237437   2.644   2.755   6.570  0.0708  0.1517 -0.9671
 8660SOL     OW37438   0.098   0.129  11.905  0.5832  0.3053 -0.8188
 8660SOL    HW137439   0.037   0.201  11.916  1.2791  0.7830 -0.1118
 8660SOL    HW237440   0.058   0.089  11.828 -1.1416 -2.7828  1.6455
 8661SOL     OW37441   4.145   1.142  17.225 -0.4732  0.5753 -0.0830
 8661SOL    HW137442   4.123   1.112  17.313  0.4184 -1.0687 -0.4159
 8661SOL    HW237443   4.131   1.062  17.175 -0.9070  0.4900  0.1825
 8662SOL     OW37444   3.362   4.303  10.939 -0.8317  0.2531  0.2407
 8662SOL    HW137445   3.269   4.283  10.945 -0.8420 -0.6280 -3.2050
 8662SOL    HW237446   3.363   4.386  10.987 -2.4352  0.4683 -0.1056
 8663SOL     OW37447   4.369   2.223   7.581 -0.4623  0.2345 -0.4001
 8663SOL    HW137448   4.431   2.163   7.622 -0.6411  0.4404  0.1780
 8663SOL    HW237449   4.409   2.301   7.619  0.9273 -2.0501  2.8308
 8664SOL     OW37450   3.469   2.626  11.906  0.0774  0.6544 -0.2548
 8664SOL    HW137451   3.516   2.682  11.968 -1.2649 -0.2693  1.6103
 8664SOL    HW237452   3.476   2.670  11.822  3.5711 -0.9436 -0.7977
 8665SOL     OW37453   3.210   3.943   4.713  0.7232  0.0096 -0.1080
 8665SOL    HW137454   3.206   3.916   4.621  1.3665 -3.0793  0.7709
 8665SOL    HW237455   3.193   3.856   4.751 -0.9780  0.8760  1.1447
 8666SOL     OW37456   3.209   4.582   5.018 -0.1207 -0.1825 -0.7556
 8666SOL    HW137457   3.226   4.674   4.997 -0.1225  0.2946  1.2495
 8666SOL    HW237458   3.247   4.578   5.106 -1.9783  1.4177  0.1265
 8667SOL     OW37459   2.031   0.234   6.545 -0.6833 -0.4081 -0.0669
 8667SOL    HW137460   2.095   0.222   6.616  0.2819 -1.2482 -1.0719
 8667SOL    HW237461   1.973   0.160   6.565 -1.0723  0.5525  2.4480
 8668SOL     OW37462   1.997   0.301  11.740  0.4894  0.6775  0.2994
 8668SOL    HW137463   2.062   0.312  11.670 -0.3349 -1.5503 -0.8164
 8668SOL    HW237464   1.947   0.382  11.731 -0.5952 -0.0911 -0.5792
 8669SOL     OW37465   2.087   1.777   3.098  0.5217 -0.1845 -0.2472
 8669SOL    HW137466   2.111   1.755   3.008  0.8488 -0.4093 -0.1054
 8669SOL    HW237467   2.081   1.872   3.092  2.0943 -0.0239  0.6773
 8670SOL     OW37468   1.905   0.671   7.319  0.2755  0.2566  0.3998
 8670SOL    HW137469   1.861   0.688   7.403 -0.1196  1.5178 -0.0602
 8670SOL    HW237470   1.868   0.585   7.301  2.4451  0.1557 -3.5524
 8671SOL     OW37471   2.909   1.634   9.156 -0.7406  0.0761 -0.5427
 8671SOL    HW137472   2.850   1.559   9.168  0.6940 -1.1955 -1.3611
 8671SOL    HW237473   2.990   1.590   9.130  0.2935  0.5995  1.8166
 8672SOL     OW37474   4.024   0.662   3.524 -0.0099  0.1846 -0.3471
 8672SOL    HW137475   3.969   0.610   3.582 -0.7697  2.9498  1.4046
 8672SOL    HW237476   3.980   0.746   3.533  1.2538  0.5532  2.6587
 8673SOL     OW37477   0.532   3.379  12.869 -0.1041 -0.3957 -0.0990
 8673SOL    HW137478   0.619   3.350  12.895 -0.2461 -1.0903 -0.3978
 8673SOL    HW237479   0.487   3.294  12.863  0.0327 -0.3058 -2.4125
 8674SOL     OW37480   0.217   2.997   8.144 -0.1145 -0.4867 -0.1451
 8674SOL    HW137481   0.234   2.953   8.227 -2.0397 -1.0217 -0.0371
 8674SOL    HW237482   0.122   2.990   8.135  0.0365 -1.4135 -1.1536
 8675SOL     OW37483   1.790   1.484   8.275  0.3122  0.0661 -0.3212
 8675SOL    HW137484   1.740   1.440   8.344  1.9067 -1.0986  0.0943
 8675SOL    HW237485   1.717   1.514   8.221  1.6624 -1.6718 -3.0674
 8676SOL     OW37486   3.259   0.052   6.517  0.1013 -0.0184  0.1909
 8676SOL    HW137487   3.231   0.018   6.602  2.2270 -0.3513  0.7541
 8676SOL    HW237488   3.339   0.100   6.539  0.7326 -0.8199 -0.3464
 8677SOL     OW37489   3.367   2.509   6.756 -0.6180  0.3336  0.3467
 8677SOL    HW137490   3.401   2.586   6.802 -2.7741  0.0014  2.5084
 8677SOL    HW237491   3.279   2.543   6.740  0.8256  3.2291 -1.6326
 8678SOL     OW37492   4.618   3.863  14.609 -0.2298  0.2080 -0.1638
 8678SOL    HW137493   4.585   3.932  14.551  1.8643  1.1526 -0.2493
 8678SOL    HW237494   4.548   3.822  14.659  0.4841 -0.7190  0.0705
 8679SOL     OW37495   3.537   1.415   5.966 -0.2849 -0.6054  0.5196
 8679SOL    HW137496   3.584   1.347   6.015 -0.3782 -0.6300  0.5770
 8679SOL    HW237497   3.454   1.371   5.946 -0.0410  0.0450 -1.9451
 8680SOL     OW37498   2.658   3.665   7.574 -0.2551 -0.2011  0.5834
 8680SOL    HW137499   2.582   3.613   7.601  0.0470  0.4097  2.6142
 8680SOL    HW237500   2.636   3.748   7.616  0.0224  0.0648  0.2010
 8681SOL     OW37501   0.832   4.509   9.743  0.1729  0.7223 -0.3496
 8681SOL    HW137502   0.815   4.534   9.653 -2.0777 -0.4992 -0.2647
 8681SOL    HW237503   0.860   4.417   9.735 -1.4002  0.0971  1.2449
 8682SOL     OW37504   1.912   0.115  13.085  0.0287 -0.0755  0.4547
 8682SOL    HW137505   1.957   0.195  13.114 -0.5486  0.5605 -0.4166
 8682SOL    HW237506   1.841   0.151  13.032 -1.0052 -1.9513  0.5901
 8683SOL     OW37507   3.544   1.877   6.227 -0.3438  0.0594 -0.4946
 8683SOL    HW137508   3.597   1.930   6.286  0.7268  1.3065 -2.5377
 8683SOL    HW237509   3.607   1.842   6.163  1.9043  2.2238  0.5443
 8684SOL     OW37510   2.567   1.061  13.252  0.2439  0.1930  0.2580
 8684SOL    HW137511   2.608   1.146  13.236 -0.5979  0.5247 -0.1416
 8684SOL    HW237512   2.588   1.051  13.345 -0.1388 -0.4417  0.2757
 8685SOL     OW37513   4.476   0.546   8.704  0.0793  0.6684  0.6042
 8685SOL    HW137514   4.416   0.518   8.635 -0.3205  2.1351  0.3553
 8685SOL    HW237515   4.548   0.483   8.703 -2.6616 -2.5098  2.2877
 8686SOL     OW37516   4.519   2.335  16.672 -0.3400  0.3797  0.2497
 8686SOL    HW137517   4.479   2.307  16.590  0.9313 -2.7555  0.7210
 8686SOL    HW237518   4.454   2.402  16.692 -1.4246 -0.6075 -0.0072
 8687SOL     OW37519   0.697   1.053   7.006 -0.0613 -0.3520 -0.3260
 8687SOL    HW137520   0.699   1.127   7.067 -3.7552 -0.7249  0.2462
 8687SOL    HW237521   0.770   1.009   7.049 -0.6616 -0.0611  1.0154
 8688SOL     OW37522   0.453   0.480   2.687 -0.6857  0.1672  0.1015
 8688SOL    HW137523   0.374   0.523   2.652 -0.8559  0.8591  1.3356
 8688SOL    HW237524   0.500   0.464   2.606  0.2818 -3.0307  1.3097
 8689SOL     OW37525   1.903   1.403   7.049 -0.1000 -0.6218 -0.2536
 8689SOL    HW137526   1.987   1.433   7.083 -1.3819  1.0406  1.4871
 8689SOL    HW237527   1.920   1.312   7.026  1.6215 -0.3638 -0.0075
 8690SOL     OW37528   2.280   1.433  15.184 -0.5600 -0.2747  0.0545
 8690SOL    HW137529   2.306   1.468  15.099 -0.3882  1.3834  0.7849
 8690SOL    HW237530   2.306   1.342  15.175  1.2456  0.3073 -0.5505
 8691SOL     OW37531   3.993   1.237  12.719 -0.7436 -0.2073  0.2565
 8691SOL    HW137532   4.024   1.150  12.695 -3.1745 -0.8366 -0.6637
 8691SOL    HW237533   3.922   1.251  12.657 -0.9573  1.2581  0.8392
 8692SOL     OW37534   4.691   1.341   5.384 -0.1783 -0.1442  0.3057
 8692SOL    HW137535   0.063   1.340   5.369 -0.5891 -1.0184 -2.1916
 8692SOL    HW237536   4.684   1.319   5.477 -0.0397  0.0674  0.3658
 8693SOL     OW37537   1.828   2.227  13.959 -0.2322  0.4264  0.0590
 8693SOL    HW137538   1.868   2.313  13.943 -1.8059  0.9269 -1.0441
 8693SOL    HW237539   1.739   2.261  13.963 -1.1741 -1.9520 -1.5599
 8694SOL     OW37540   0.460   1.506   6.523 -0.4167  0.0317  0.2275
 8694SOL    HW137541   0.375   1.538   6.553 -1.0106 -0.7903 -0.5957
 8694SOL    HW237542   0.511   1.587   6.525 -2.3015  1.2384 -0.5934
 8695SOL     OW37543   2.673   1.700   4.032 -0.0445 -0.1476  0.4645
 8695SOL    HW137544   2.699   1.686   4.123  0.5707 -0.8580  0.1754
 8695SOL    HW237545   2.757   1.680   3.992 -0.6228 -1.4074 -0.1232
 8696SOL     OW37546   3.716   1.156  11.202 -0.0061  0.1571 -0.5182
 8696SOL    HW137547   3.754   1.221  11.142 -0.9028 -0.3542 -1.6372
 8696SOL    HW237548   3.688   1.211  11.275 -4.2553 -0.3926 -1.7744
 8697SOL     OW37549   4.567   0.055   7.406 -0.3016  0.2171  0.1344
 8697SOL    HW137550   4.641   0.076   7.464 -0.9445  0.3401  0.9069
 8697SOL    HW237551   4.581   0.107   7.327 -1.1025  1.3475  0.7345
 8698SOL     OW37552   2.218   4.270   2.474  0.1632  0.0972  0.4683
 8698SOL    HW137553   2.138   4.225   2.501 -0.7689  1.7041  0.4118
 8698SOL    HW237554   2.238   4.234   2.388  0.2741  2.2148 -0.4059
 8699SOL     OW37555   0.397   2.210   5.024  0.0186  0.1680 -0.6591
 8699SOL    HW137556   0.481   2.252   5.008  0.7393 -1.3184 -0.7994
 8699SOL    HW237557   0.342   2.253   4.960 -0.9532  0.2832  0.2454
 8700SOL     OW37558   3.882   3.074   2.160 -0.6809 -0.3436  0.4876
 8700SOL    HW137559   3.901   2.987   2.195  1.4862 -0.0245  0.1115
 8700SOL    HW237560   3.914   3.061   2.070 -2.1495 -2.0257  0.2087
 8701SOL     OW37561   1.065   2.976   5.283 -0.1247 -0.1333  0.2449
 8701SOL    HW137562   1.053   2.904   5.222 -1.1983  0.3131 -0.0615
 8701SOL    HW237563   1.154   2.957   5.314 -0.5404 -1.6864  0.4694
 8702SOL     OW37564   2.523   1.963   4.726 -0.2568 -0.4973  0.0802
 8702SOL    HW137565   2.527   2.005   4.640  2.7119 -0.0263  0.4403
 8702SOL    HW237566   2.431   1.941   4.737  0.3693 -2.0357  2.2905
 8703SOL     OW37567   1.989   4.560   0.165 -0.2272  0.5589  0.3512
 8703SOL    HW137568   2.005   4.556   0.260  0.1181 -0.2222  0.2552
 8703SOL    HW237569   2.054   4.622   0.133  0.1241  1.3005  2.4942
 8704SOL     OW37570   2.295   1.806   5.552 -0.1241  0.3679  0.2418
 8704SOL    HW137571   2.248   1.744   5.495  1.4419 -0.2749 -0.3310
 8704SOL    HW237572   2.357   1.746   5.593  1.3674  1.7748  0.0404
 8705SOL     OW37573   1.646   3.058   5.377  0.2597 -0.1777 -0.5667
 8705SOL    HW137574   1.634   3.080   5.469  0.5281 -0.5781 -0.4369
 8705SOL    HW237575   1.698   3.131   5.343 -0.2089  1.0470  1.3690
 8706SOL     OW37576   3.992   1.242  12.985  0.0721  0.1230  0.7274
 8706SOL    HW137577   4.078   1.209  13.013  0.1739  1.0757  1.5582
 8706SOL    HW237578   4.001   1.256  12.891  0.5192  0.4903  0.8260
 8707SOL     OW37579   2.890   3.408   7.074  0.2192 -0.1366 -0.1714
 8707SOL    HW137580   2.813   3.447   7.032  1.6164  2.0586 -0.6772
 8707SOL    HW237581   2.930   3.482   7.119  2.3501 -1.9796  0.9949
 8708SOL     OW37582   0.188   3.185   7.118  0.0589 -0.5274  0.0994
 8708SOL    HW137583   0.132   3.246   7.165 -0.9566  1.4215 -3.6595
 8708SOL    HW237584   0.272   3.165   7.161 -0.0753 -0.9874  0.1504
 8709SOL     OW37585   4.167   0.570   8.959 -0.3478  0.3631 -0.3733
 8709SOL    HW137586   4.219   0.605   9.032  2.6307 -2.0357 -1.3435
 8709SOL    HW237587   4.222   0.499   8.925  1.0347  1.3673 -0.2353
 8710SOL     OW37588   0.612   1.497   0.843  0.5604 -0.7523  0.3564
 8710SOL    HW137589   0.703   1.498   0.872  0.3834 -2.5948  0.9899
 8710SOL    HW237590   0.617   1.434   0.771  0.6591 -0.3311 -0.0088
 8711SOL     OW37591   3.608   1.229   3.205 -0.2539  0.2844  0.5102
 8711SOL    HW137592   3.610   1.143   3.246 -0.6614  0.1529  0.2481
 8711SOL    HW237593   3.668   1.223   3.131  0.2669 -0.1762  0.9757
 8712SOL     OW37594   0.958   3.276  14.555 -0.6289  0.3860  0.4303
 8712SOL    HW137595   0.896   3.207  14.577  1.7303 -2.1015 -0.6656
 8712SOL    HW237596   0.923   3.360  14.586  2.0922  1.1882  1.3834
 8713SOL     OW37597   0.782   3.104   2.634 -0.0054  0.0648 -0.0537
 8713SOL    HW137598   0.858   3.151   2.668 -0.3840  1.5877 -1.3102
 8713SOL    HW237599   0.745   3.063   2.713 -0.1880 -1.9281 -1.1585
 8714SOL     OW37600   1.308   1.236  17.114  0.3577 -0.1095 -0.2381
 8714SOL    HW137601   1.270   1.323  17.106 -0.0020 -0.1070  1.5522
 8714SOL    HW237602   1.240   1.176  17.083 -0.1100  0.4667 -0.3326
 8715SOL     OW37603   3.814   2.749   5.318  0.2561 -0.4892 -0.3023
 8715SOL    HW137604   3.879   2.682   5.337  0.3072 -0.6311 -0.9724
 8715SOL    HW237605   3.757   2.696   5.262 -1.0213 -0.4910  1.0109
 8716SOL     OW37606   2.526   0.243   9.311  0.1669  0.5685  0.1622
 8716SOL    HW137607   2.460   0.264   9.377  1.9062  0.6842  1.8637
 8716SOL    HW237608   2.476   0.235   9.230  1.2261  0.7049 -0.4984
 8717SOL     OW37609   3.452   2.773  11.675 -0.0040 -0.6627  0.2944
 8717SOL    HW137610   3.399   2.707  11.631  2.3605 -0.5174 -2.8036
 8717SOL    HW237611   3.481   2.828  11.602  1.3204  0.0957  1.3694
 8718SOL     OW37612   0.914   1.226  17.099 -0.6063  0.0035 -0.2971
 8718SOL    HW137613   0.856   1.227  17.175 -1.1263 -1.6153 -0.6658
 8718SOL    HW237614   0.857   1.273  17.038 -2.0330  1.3004  2.0306
 8719SOL     OW37615   3.293   3.446  10.686 -0.3032 -0.3500  0.5679
 8719SOL    HW137616   3.354   3.378  10.656 -0.0772  0.1234 -0.0602
 8719SOL    HW237617   3.210   3.407  10.659 -0.3166 -0.6698  1.0733
 8720SOL     OW37618   3.264   2.277   9.686  0.0966 -0.6480  0.6220
 8720SOL    HW137619   3.201   2.251   9.618 -0.3850  0.8968  0.4791
 8720SOL    HW237620   3.260   2.370   9.663 -3.1532 -0.4064  2.0853
 8721SOL     OW37621   3.172   4.258  11.207  0.1697  0.4964  0.2921
 8721SOL    HW137622   3.109   4.279  11.275 -2.1330 -1.0404 -1.3523
 8721SOL    HW237623   3.114   4.213  11.146 -1.6033 -0.0638  2.3934
 8722SOL     OW37624   0.876   3.245  12.429  0.4590  0.0545  0.1890
 8722SOL    HW137625   0.875   3.152  12.405  1.5804  0.4869 -1.5535
 8722SOL    HW237626   0.930   3.285  12.361  2.5746 -0.5757  1.4929
 8723SOL     OW37627   3.171   2.836   7.912 -0.0014 -1.1258 -0.0774
 8723SOL    HW137628   3.092   2.881   7.943  0.3408 -1.2029  0.8913
 8723SOL    HW237629   3.172   2.767   7.978 -1.0550 -0.6041  0.4879
 8724SOL     OW37630   0.104   0.110   1.991 -0.1962 -0.4682 -0.0546
 8724SOL    HW137631   0.045   0.185   1.987  0.5436  0.1935  1.5514
 8724SOL    HW237632   0.061   0.054   1.927 -1.4467  2.2403 -1.6083
 8725SOL     OW37633   4.488   0.076   9.411 -0.0768 -0.6163 -0.0887
 8725SOL    HW137634   4.526   0.122   9.486  1.7166 -0.8689 -0.8313
 8725SOL    HW237635   4.570   0.035   9.383  0.0342 -1.2658  1.1744
 8726SOL     OW37636   2.116   4.492   8.632  0.2191  0.5048 -0.2398
 8726SOL    HW137637   2.109   4.444   8.714 -0.1570 -1.3403 -1.3325
 8726SOL    HW237638   2.207   4.483   8.602  0.1050  0.1123 -0.4738
 8727SOL     OW37639   1.766   1.487  12.885 -0.6855  0.2838  0.2644
 8727SOL    HW137640   1.805   1.400  12.893 -0.8596  0.3179  1.5351
 8727SOL    HW237641   1.810   1.514  12.805 -2.0747  0.1628 -0.5342
 8728SOL     OW37642   3.779   2.338   8.126  0.7123 -0.1232 -0.0530
 8728SOL    HW137643   3.705   2.303   8.175  0.0317  0.1490 -0.8973
 8728SOL    HW237644   3.728   2.368   8.052  0.6580  0.8137  0.3678
 8729SOL     OW37645   0.271   0.190   0.360  0.1139  0.4869 -0.0666
 8729SOL    HW137646   0.323   0.112   0.380  1.1029  1.0324 -0.5344
 8729SOL    HW237647   0.183   0.152   0.358  0.2455  0.2735 -1.7305
 8730SOL     OW37648   0.026   2.956   7.139  0.1743  0.0924 -0.4444
 8730SOL    HW137649   0.071   3.038   7.119 -1.9288  0.9263 -1.6508
 8730SOL    HW237650   0.082   2.910   7.203 -1.8619  0.0631  1.3127
 8731SOL     OW37651   0.405   2.688   3.334 -0.2734  0.0316 -0.6356
 8731SOL    HW137652   0.474   2.747   3.364  1.7901 -2.4483 -0.5168
 8731SOL    HW237653   0.349   2.753   3.292 -0.5744 -0.2379 -0.6475
 8732SOL     OW37654   3.121   0.879   2.802 -0.8118  0.2998 -0.4437
 8732SOL    HW137655   3.120   0.795   2.848  0.6400 -0.1270 -1.1985
 8732SOL    HW237656   3.196   0.914   2.849 -0.4333  0.0643 -0.8734
 8733SOL     OW37657   0.333   4.150   9.919 -0.1298 -0.4833  0.1418
 8733SOL    HW137658   0.420   4.184   9.899 -0.7933  0.8062 -0.5886
 8733SOL    HW237659   0.345   4.060   9.949  0.7711 -0.7717 -1.0892
 8734SOL     OW37660   0.479   1.358  14.448 -0.1095 -0.1222 -0.3608
 8734SOL    HW137661   0.482   1.326  14.358 -0.2809 -0.4327 -0.2536
 8734SOL    HW237662   0.409   1.423  14.441 -0.3765 -0.4949 -1.2467
 8735SOL     OW37663   2.667   4.507   3.699 -0.4328 -0.5059  0.4251
 8735SOL    HW137664   2.762   4.495   3.705 -0.3809 -0.4494 -0.2388
 8735SOL    HW237665   2.659   4.577   3.763  0.6511 -1.2469  1.3775
 8736SOL     OW37666   2.617   2.819   1.053  0.4586  0.4762 -0.1058
 8736SOL    HW137667   2.656   2.855   0.973  1.1914 -0.3500 -0.1171
 8736SOL    HW237668   2.615   2.901   1.102  0.6623  1.6251 -2.0150
 8737SOL     OW37669   3.671   1.378  17.105 -0.1776  0.5093  0.1461
 8737SOL    HW137670   3.668   1.308  17.170  1.4261  0.8436  0.5803
 8737SOL    HW237671   3.763   1.379  17.079  0.1584 -0.0003  1.3219
 8738SOL     OW37672   4.670   1.306   9.641 -0.1158 -0.3260 -0.0459
 8738SOL    HW137673   0.013   1.366   9.605 -0.5616  0.2522  0.1097
 8738SOL    HW237674   4.697   1.311   9.733 -2.1015 -2.7047  0.6637
 8739SOL     OW37675   0.397   1.534   4.563 -1.1835 -0.0594 -0.1504
 8739SOL    HW137676   0.324   1.523   4.503 -1.4812 -1.4945  0.4896
 8739SOL    HW237677   0.463   1.488   4.511 -0.4235  0.3681  0.4226
 8740SOL     OW37678   0.429   3.467   7.698  0.8023  0.1053  0.3202
 8740SOL    HW137679   0.514   3.424   7.702  0.3917 -1.0143 -3.6057
 8740SOL    HW237680   0.448   3.559   7.715 -0.0903  0.6107 -1.4242
 8741SOL     OW37681   0.773   3.700   0.198  0.7372 -0.4995 -0.0068
 8741SOL    HW137682   0.802   3.764   0.263  1.6604 -1.3239  0.3927
 8741SOL    HW237683   0.718   3.740   0.131  3.2802  0.2810 -1.6334
 8742SOL     OW37684   4.447   4.367   4.951 -0.0838 -0.1540  0.0724
 8742SOL    HW137685   4.542   4.358   4.955 -0.0749 -0.1778 -0.1843
 8742SOL    HW237686   4.428   4.459   4.973 -1.8573 -1.1465  2.7182
 8743SOL     OW37687   0.760   3.754   3.374 -0.1976  0.4275 -0.4464
 8743SOL    HW137688   0.763   3.778   3.282  0.3671  0.5063 -0.4134
 8743SOL    HW237689   0.853   3.768   3.395 -0.5710  0.0063  1.4510
 8744SOL     OW37690   3.504   2.640   9.941 -0.2572 -0.4712 -0.3228
 8744SOL    HW137691   3.429   2.661   9.997 -0.7745 -3.2343 -0.0017
 8744SOL    HW237692   3.539   2.730   9.945  1.9367 -1.2663 -1.3149
 8745SOL     OW37693   0.385   3.950   2.599  0.6100  0.3671 -0.6612
 8745SOL    HW137694   0.477   3.953   2.627  0.8776  0.8864 -1.6056
 8745SOL    HW237695   0.390   3.970   2.506  0.1588 -0.2052 -0.8124
 8746SOL     OW37696   2.969   4.559  12.801 -0.2996  0.7069  0.0142
 8746SOL    HW137697   3.043   4.504  12.826  0.8325  1.4628 -1.7049
 8746SOL    HW237698   2.966   4.571  12.706  1.2374 -0.7152 -0.2058
 8747SOL     OW37699   3.135   4.217   7.998  0.3174  0.7027  0.1224
 8747SOL    HW137700   3.169   4.137   7.958 -1.7442 -1.1638  2.0502
 8747SOL    HW237701   3.096   4.179   8.077  1.5380 -2.3679 -0.7622
 8748SOL     OW37702   1.827   1.461   2.909 -0.1477 -0.4907  0.6302
 8748SOL    HW137703   1.877   1.407   2.971 -0.7567  0.6251  2.0992
 8748SOL    HW237704   1.906   1.486   2.861 -0.3860  0.5885  0.7916
 8749SOL     OW37705   3.545   2.663   3.741  0.6209 -0.0168 -1.0264
 8749SOL    HW137706   3.450   2.663   3.734  0.5834 -0.6934 -0.4708
 8749SOL    HW237707   3.564   2.745   3.696  0.9932 -0.0665 -0.9618
 8750SOL     OW37708   2.846   2.883   3.300  0.2188 -0.1973  0.3004
 8750SOL    HW137709   2.803   2.941   3.361 -0.1980  1.2507 -1.3675
 8750SOL    HW237710   2.795   2.911   3.224  1.4497 -0.1896 -0.5284
 8751SOL     OW37711   0.513   4.381   7.037  0.3293  0.5169  0.1013
 8751SOL    HW137712   0.540   4.456   7.089  1.0591 -0.3873  1.0391
 8751SOL    HW237713   0.419   4.395   7.027  0.2629 -0.0599 -0.0693
 8752SOL     OW37714   1.453   4.595   5.687  0.1395 -0.8236  0.0355
 8752SOL    HW137715   1.508   4.585   5.765  0.0270 -2.6868 -0.1181
 8752SOL    HW237716   1.519   4.617   5.621  0.3215 -1.2672  0.0723
 8753SOL     OW37717   0.208   1.683   8.346  0.3609  0.0148  0.0770
 8753SOL    HW137718   0.176   1.773   8.338 -0.3873 -0.0226  2.6336
 8753SOL    HW237719   0.161   1.650   8.423  0.8434 -1.1608 -0.1420
 8754SOL     OW37720   0.789   1.655   5.702 -0.7390 -0.3180  0.0871
 8754SOL    HW137721   0.797   1.594   5.776  1.3064 -0.4910 -0.2656
 8754SOL    HW237722   0.880   1.654   5.673 -0.5722 -1.3077  0.6049
 8755SOL     OW37723   3.334   2.455   4.157 -0.1388  0.1500  0.4856
 8755SOL    HW137724   3.305   2.543   4.184 -0.5919  0.3416 -0.6448
 8755SOL    HW237725   3.322   2.460   4.063  0.5936 -0.4205  0.3636
 8756SOL     OW37726   3.266   0.139   6.871 -0.0848  0.1004  0.4553
 8756SOL    HW137727   3.222   0.213   6.913 -0.7734  0.2196 -0.4909
 8756SOL    HW237728   3.341   0.136   6.930 -1.4052  0.7576  2.1852
 8757SOL     OW37729   1.964   0.115  13.601 -0.2393 -0.1067  0.5043
 8757SOL    HW137730   2.015   0.179  13.651 -1.3798  1.5355 -0.4263
 8757SOL    HW237731   1.906   0.164  13.542  1.2227  1.2305  0.1897
 8758SOL     OW37732   1.386   4.688   3.981  0.2737 -0.1321 -0.6375
 8758SOL    HW137733   1.333   4.706   4.059  2.3310 -0.7432  0.9091
 8758SOL    HW237734   1.459   4.640   4.021 -0.3636  0.3792  1.1819
 8759SOL     OW37735   3.258   3.012   5.917  0.0830  0.1854 -0.0918
 8759SOL    HW137736   3.337   2.959   5.922 -0.4294 -0.4939  0.7083
 8759SOL    HW237737   3.210   2.979   5.992  0.4774  1.0021  0.5291
 8760SOL     OW37738   3.570   2.715  13.293  0.4537  0.2782 -0.2884
 8760SOL    HW137739   3.543   2.661  13.218  1.4932 -2.1066  1.0266
 8760SOL    HW237740   3.524   2.675  13.366 -0.6409  1.6193 -0.2542
 8761SOL     OW37741   0.090   2.877  14.997  0.8036  0.1010  0.0182
 8761SOL    HW137742   0.001   2.890  14.965  0.8087 -0.5083 -0.2353
 8761SOL    HW237743   0.098   2.954  15.054  1.0541  0.2242 -0.1832
 8762SOL     OW37744   4.046   0.341  17.190  0.3153  0.1201  0.2345
 8762SOL    HW137745   4.123   0.285  17.182  1.1178  1.3044 -0.4942
 8762SOL    HW237746   4.077   0.390  17.266  0.1314 -0.0749  0.4342
 8763SOL     OW37747   1.771   4.662  17.622  0.1823  0.2585  0.3389
 8763SOL    HW137748   1.855   4.636  17.660 -1.0334 -1.2190  2.0667
 8763SOL    HW237749   1.737   4.574  17.604 -0.3004  0.0634  2.1880
 8764SOL     OW37750   0.391   4.291  14.613  0.5904 -0.3551 -0.2896
 8764SOL    HW137751   0.333   4.262  14.542  1.4993 -0.5051 -0.9775
 8764SOL    HW237752   0.474   4.250  14.588  0.5456 -0.2130 -0.6624
 8765SOL     OW37753   0.732   0.882   2.340  0.1103 -0.0318  0.1371
 8765SOL    HW137754   0.764   0.892   2.429  1.6437  0.5525 -0.4821
 8765SOL    HW237755   0.637   0.888   2.341 -0.0404 -1.8040 -2.5037
 8766SOL     OW37756   2.482   0.203   9.037 -0.7608 -0.1978  0.6480
 8766SOL    HW137757   2.438   0.251   8.967 -0.0810 -0.5939 -0.0544
 8766SOL    HW237758   2.456   0.112   9.023 -0.8298 -0.1832  0.6845
 8767SOL     OW37759   2.866   2.719  12.000  0.5200  0.4733 -0.2968
 8767SOL    HW137760   2.820   2.683  12.076  1.7699  0.6970  0.5558
 8767SOL    HW237761   2.947   2.742  12.046  1.8281 -0.3949 -2.1591
 8768SOL     OW37762   3.033   1.362   5.832 -0.1480 -0.1975 -0.0918
 8768SOL    HW137763   3.125   1.388   5.824 -0.4698  1.5245  1.8164
 8768SOL    HW237764   2.992   1.448   5.826 -2.0988 -1.1444 -0.0921
 8769SOL     OW37765   0.918   3.209   4.142  0.7214  0.1475 -0.5821
 8769SOL    HW137766   0.901   3.115   4.148  0.0718  0.2498 -0.7796
 8769SOL    HW237767   1.005   3.209   4.181 -0.2980  0.2028  1.6763
 8770SOL     OW37768   1.068   2.524  14.377 -0.0012 -0.7397  0.0291
 8770SOL    HW137769   1.086   2.618  14.373  1.8642 -1.0845  0.4778
 8770SOL    HW237770   1.154   2.488  14.355 -0.7528 -0.8851 -2.6912
 8771SOL     OW37771   2.526   2.943   7.741 -0.9886 -0.2990  0.3436
 8771SOL    HW137772   2.457   2.909   7.684  0.1877  1.4970 -2.1424
 8771SOL    HW237773   2.600   2.905   7.694  0.4290 -0.0435  2.3516
 8772SOL     OW37774   2.208   2.072  12.099  0.0845 -0.2000  0.0250
 8772SOL    HW137775   2.264   2.030  12.033 -1.8177  1.8222 -2.8951
 8772SOL    HW237776   2.160   1.993  12.125 -1.0362  0.0035 -1.4144
 8773SOL     OW37777   1.748   0.048   4.209  0.1816 -0.5040  0.2455
 8773SOL    HW137778   1.692   0.059   4.286 -0.4821 -4.3001  0.3222
 8773SOL    HW237779   1.698   4.703   4.165  0.8082 -0.6015 -0.3057
 8774SOL     OW37780   0.325   2.482   2.800  0.5660  0.2567  0.3321
 8774SOL    HW137781   0.239   2.489   2.841 -0.7682 -1.1530 -2.1710
 8774SOL    HW237782   0.386   2.466   2.871  2.2092  2.5432 -0.5375
 8775SOL     OW37783   0.956   3.527   6.093 -0.0674 -0.0058  0.3355
 8775SOL    HW137784   1.041   3.484   6.079  0.3931  0.3405  2.1111
 8775SOL    HW237785   0.897   3.453   6.077 -2.2934  1.7912  0.2865
 8776SOL     OW37786   4.045   4.616  14.757 -0.5483 -0.4677 -0.0203
 8776SOL    HW137787   4.026   4.653  14.671  2.1463  1.2694  0.1410
 8776SOL    HW237788   4.089   4.532  14.740 -2.7937 -1.5453 -0.5139
 8777SOL     OW37789   4.657   0.328  11.927  0.1741  0.3729 -0.0562
 8777SOL    HW137790   4.590   0.384  11.887 -0.4249 -1.4769 -1.6733
 8777SOL    HW237791   4.671   0.364  12.014 -0.9622 -0.2367  0.3798
 8778SOL     OW37792   1.364   2.958   6.882  0.0294 -0.3497 -0.4920
 8778SOL    HW137793   1.297   2.900   6.845 -1.5095  0.0421  1.6963
 8778SOL    HW237794   1.424   2.972   6.809 -0.3143  0.3561 -0.6294
 8779SOL     OW37795   3.781   0.474  14.119  0.3164  0.5675  0.5790
 8779SOL    HW137796   3.691   0.506  14.115  0.1191 -0.3318 -2.1109
 8779SOL    HW237797   3.790   0.434  14.032 -0.7702 -0.3936  0.9084
 8780SOL     OW37798   4.680   2.911  16.200 -0.0383 -0.3097  0.8795
 8780SOL    HW137799   4.644   2.987  16.154 -0.5279 -1.6389 -0.9166
 8780SOL    HW237800   4.616   2.891  16.268 -1.4073  2.5552  0.4617
 8781SOL     OW37801   2.614   1.767  13.289  0.7765 -0.1692 -0.2983
 8781SOL    HW137802   2.646   1.733  13.206  3.1249  0.2815  0.4429
 8781SOL    HW237803   2.691   1.793  13.339  0.3142 -1.5831  1.1519
 8782SOL     OW37804   3.950   0.243   9.638 -0.1260  0.4141  0.1360
 8782SOL    HW137805   3.919   0.167   9.590  2.8586 -1.2998  0.9356
 8782SOL    HW237806   4.042   0.245   9.612 -0.1239  2.4704  0.2852
 8783SOL     OW37807   1.721   2.979   4.904  0.0190  0.4923  0.5004
 8783SOL    HW137808   1.705   3.038   4.830 -1.0298  1.7334  1.7299
 8783SOL    HW237809   1.778   3.036   4.955  0.2256  1.0530 -0.3459
 8784SOL     OW37810   0.539   1.984   7.397  0.9774 -0.2913  0.2181
 8784SOL    HW137811   0.494   1.901   7.379  2.3155 -1.1812  1.0094
 8784SOL    HW237812   0.562   2.021   7.312  0.6483 -2.6112 -0.8997
 8785SOL     OW37813   0.335   4.176  17.587  0.2228 -0.1337 -0.2949
 8785SOL    HW137814   0.264   4.137  17.535  0.2862 -0.3646 -0.2076
 8785SOL    HW237815   0.291   4.193  17.670  0.6112 -1.1543  0.1240
 8786SOL     OW37816   3.547   1.406   1.931 -0.0068 -0.2747  0.1784
 8786SOL    HW137817   3.601   1.347   1.983  1.0430 -0.0051 -0.5890
 8786SOL    HW237818   3.604   1.483   1.935  0.9683 -1.0337  0.9506
 8787SOL     OW37819   1.900   2.754   1.534  0.1748  0.1178  0.1637
 8787SOL    HW137820   1.851   2.697   1.594 -0.1382  1.0610  0.7926
 8787SOL    HW237821   1.979   2.771   1.585 -0.8694 -1.0787  2.1608
 8788SOL     OW37822   0.178   4.636  16.883 -0.7209 -0.7395 -0.2954
 8788SOL    HW137823   0.264   4.608  16.852  0.3684 -0.7533  2.7668
 8788SOL    HW237824   0.137   4.677  16.807 -0.8418 -0.7135 -0.2173
 8789SOL     OW37825   2.271   1.303   9.068 -0.1741 -0.1939 -1.0021
 8789SOL    HW137826   2.358   1.333   9.040 -1.0327  0.7006 -2.6979
 8789SOL    HW237827   2.285   1.209   9.065 -0.0788 -0.2119  0.0421
 8790SOL     OW37828   4.239   3.172   8.672  0.5661  0.3972  0.2013
 8790SOL    HW137829   4.221   3.136   8.759  3.4445  0.3767  0.7760
 8790SOL    HW237830   4.319   3.126   8.649  0.7633  0.7821  0.1254
 8791SOL     OW37831   2.408   4.390   6.758 -0.2469 -0.1154  0.0776
 8791SOL    HW137832   2.385   4.351   6.842 -4.4702 -0.2673 -1.1958
 8791SOL    HW237833   2.503   4.378   6.762 -0.1661  0.8899  1.1185
 8792SOL     OW37834   4.426   1.093   8.249  0.1546 -0.0795  0.4600
 8792SOL    HW137835   4.362   1.041   8.298 -0.3400 -0.2263 -0.3327
 8792SOL    HW237836   4.381   1.088   8.164  0.7357 -2.3154  0.2609
 8793SOL     OW37837   0.311   0.864   2.572 -0.6738  0.5968 -0.7225
 8793SOL    HW137838   0.307   0.784   2.625 -3.5413 -0.7453 -2.9612
 8793SOL    HW237839   0.241   0.851   2.508 -3.1663  1.5891  1.7904
 8794SOL     OW37840   0.329   3.480   5.152  0.0954  0.3522  0.4860
 8794SOL    HW137841   0.361   3.570   5.147 -0.6578  0.5554 -0.6662
 8794SOL    HW237842   0.404   3.422   5.161 -0.3443 -0.4433 -0.9578
 8795SOL     OW37843   2.791   3.702   1.988  0.3489 -0.0073 -0.3998
 8795SOL    HW137844   2.725   3.766   2.015 -1.8740 -2.5689  0.2591
 8795SOL    HW237845   2.748   3.655   1.916 -1.7286  0.3688  0.6087
 8796SOL     OW37846   3.790   2.648   7.866 -0.3920 -0.2407  0.5760
 8796SOL    HW137847   3.879   2.636   7.897  0.1333  2.8876  0.2638
 8796SOL    HW237848   3.743   2.671   7.946 -0.3925 -0.2033  0.5651
 8797SOL     OW37849   1.303   3.461   5.546  0.2562 -0.0753 -0.2186
 8797SOL    HW137850   1.218   3.437   5.511 -0.1341 -1.0230  1.3787
 8797SOL    HW237851   1.336   3.505   5.467 -0.8637 -2.6334 -2.1097
 8798SOL     OW37852   2.756   1.088   8.192 -0.4043 -0.8217 -0.0157
 8798SOL    HW137853   2.819   1.129   8.250 -1.5449  2.1921 -0.9169
 8798SOL    HW237854   2.684   1.150   8.182  0.5322  0.6189  2.4039
 8799SOL     OW37855   3.945   0.237  10.214  0.2043 -0.3938  0.2441
 8799SOL    HW137856   3.863   0.280  10.192  0.7773 -0.6047 -2.3226
 8799SOL    HW237857   4.003   0.308  10.240 -1.0026  0.2520  1.1987
 8800SOL     OW37858   4.654   3.719   8.609  0.7400  0.3868  0.4387
 8800SOL    HW137859   4.603   3.785   8.656  0.3707  0.8169 -0.5541
 8800SOL    HW237860   4.686   3.771   8.535  0.0854  1.9402  1.2260
 8801SOL     OW37861   2.341   3.601   9.013 -0.9062  0.0996 -0.6972
 8801SOL    HW137862   2.434   3.623   9.002 -1.0971  1.2811  0.1271
 8801SOL    HW237863   2.341   3.527   9.073 -0.1587 -0.6384 -1.6061
 8802SOL     OW37864   1.118   0.110   3.416 -0.5317  0.1884 -0.1551
 8802SOL    HW137865   1.055   0.098   3.487  0.4800 -2.2557  0.3414
 8802SOL    HW237866   1.126   0.022   3.377  0.1863 -1.0925  2.9401
 8803SOL     OW37867   2.922   2.709   7.746 -0.4140 -0.2489 -1.0059
 8803SOL    HW137868   2.878   2.755   7.675 -0.5288  0.4055 -0.5141
 8803SOL    HW237869   3.013   2.740   7.749 -0.5702  0.2094 -1.1126
 8804SOL     OW37870   3.054   4.588  14.137  0.9653  0.3588  0.2161
 8804SOL    HW137871   3.085   4.600  14.048 -0.2675  3.5520  0.2388
 8804SOL    HW237872   2.994   4.515  14.122  0.4604  0.7885  0.1386
 8805SOL     OW37873   0.779   0.898   4.800  0.4937  0.0684  0.0756
 8805SOL    HW137874   0.845   0.957   4.765 -1.0221  0.7699 -1.5982
 8805SOL    HW237875   0.796   0.820   4.746 -2.3322 -0.0684 -0.6476
 8806SOL     OW37876   0.077   0.605   1.267  0.1993 -0.4613  0.7886
 8806SOL    HW137877   0.000   0.641   1.312 -1.5682 -0.6564 -2.0561
 8806SOL    HW237878   0.143   0.601   1.336  0.4498  0.1036  0.5820
 8807SOL     OW37879   2.984   0.563   7.311  0.2794  0.1304 -0.0205
 8807SOL    HW137880   2.994   0.625   7.383  0.1853  2.4665 -2.0344
 8807SOL    HW237881   2.891   0.551   7.294  0.4501 -2.2534  0.6839
 8808SOL     OW37882   4.026   3.222  11.572  0.2115 -0.2843 -0.1443
 8808SOL    HW137883   4.005   3.251  11.483 -0.9686  0.9674  0.5425
 8808SOL    HW237884   4.061   3.299  11.616  2.9531 -1.0166 -1.0444
 8809SOL     OW37885   4.184   0.346   8.724  0.2061  0.4004  0.1006
 8809SOL    HW137886   4.244   0.374   8.656 -2.4691  1.7892 -1.6904
 8809SOL    HW237887   4.102   0.345   8.675 -0.6112  0.2543  1.4586
 8810SOL     OW37888   1.125   0.239   1.406  0.1511 -0.1578  0.3638
 8810SOL    HW137889   1.041   0.196   1.390  1.1498 -1.6880 -0.7940
 8810SOL    HW237890   1.099   0.288   1.483  0.9910 -0.6144  0.9433
 8811SOL     OW37891   4.621   4.637   8.653  0.0444 -0.0363 -0.7777
 8811SOL    HW137892   4.669   4.583   8.590  1.8844  0.6629  0.0350
 8811SOL    HW237893   4.615   4.580   8.730  1.2385 -1.6921 -1.9159
 8812SOL     OW37894   2.320   3.559   1.687 -0.3200 -0.1910 -0.0132
 8812SOL    HW137895   2.392   3.496   1.685  0.8284  1.1823 -1.5208
 8812SOL    HW237896   2.335   3.593   1.600  0.5490 -0.4950  0.0235
 8813SOL     OW37897   0.622   1.124   2.677 -0.5702 -0.4736 -0.0013
 8813SOL    HW137898   0.583   1.111   2.591  1.7760  0.2119 -1.1614
 8813SOL    HW237899   0.577   1.204   2.702  1.8227  0.8544  0.0321
 8814SOL     OW37900   3.852   2.809  11.440 -0.3647  0.4504 -0.2002
 8814SOL    HW137901   3.936   2.828  11.399  0.0755 -0.1365  0.4248
 8814SOL    HW237902   3.807   2.759  11.372 -0.4036 -0.4748  0.4988
 8815SOL     OW37903   1.916   3.866   6.308 -0.1358  0.0850 -0.6791
 8815SOL    HW137904   1.995   3.876   6.360 -3.2071  1.0354  3.8102
 8815SOL    HW237905   1.860   3.844   6.382 -0.2117 -0.0007 -0.7621
 8816SOL     OW37906   2.521   0.736  10.406 -0.4256  0.1911  0.7226
 8816SOL    HW137907   2.462   0.696  10.342  0.9099  0.3446 -0.6165
 8816SOL    HW237908   2.496   0.827  10.389 -0.1229  0.2716  0.7030
 8817SOL     OW37909   1.707   1.612  12.482  0.0585  0.1089  0.5858
 8817SOL    HW137910   1.619   1.631  12.516 -0.3104 -0.0225 -0.2838
 8817SOL    HW237911   1.689   1.630  12.390  1.0223 -1.2963  0.1157
 8818SOL     OW37912   0.940   4.519  17.407 -0.1734 -0.3336 -0.2303
 8818SOL    HW137913   0.900   4.437  17.377 -1.9709  0.3108  0.4243
 8818SOL    HW237914   1.022   4.494  17.365 -0.1260  0.9817 -0.9036
 8819SOL     OW37915   1.810   2.503   9.911  0.8238  0.3029 -0.4923
 8819SOL    HW137916   1.733   2.461   9.871  0.3850  0.6527 -0.0135
 8819SOL    HW237917   1.857   2.434   9.958 -0.0674 -0.7834 -1.1793
 8820SOL     OW37918   0.214   0.478   3.969  0.4251 -0.2543 -0.5065
 8820SOL    HW137919   0.233   0.442   3.883  1.2389 -1.1395  0.0459
 8820SOL    HW237920   0.199   0.571   3.952  0.0950 -0.3895 -0.9257
 8821SOL     OW37921   1.638   3.691  14.283  0.0944  0.3932  0.0590
 8821SOL    HW137922   1.583   3.748  14.230  1.1375  0.0957 -1.3471
 8821SOL    HW237923   1.575   3.637  14.330  0.3425 -0.6328 -0.7755
 8822SOL     OW37924   2.435   3.344   5.072  0.4735 -0.2234  0.2311
 8822SOL    HW137925   2.461   3.361   5.163 -0.0797 -0.8174  0.4963
 8822SOL    HW237926   2.496   3.279   5.036 -2.0592 -1.5340 -1.6685
 8823SOL     OW37927   2.737   0.616   5.113 -0.1607  0.0173 -0.2056
 8823SOL    HW137928   2.691   0.624   5.197  1.3900 -0.4761  0.6997
 8823SOL    HW237929   2.818   0.575   5.143  0.0200  0.6570  0.1912
 8824SOL     OW37930   4.651   1.697   1.487 -0.0422  0.3013 -0.4782
 8824SOL    HW137931   4.592   1.692   1.412  1.0104 -0.4756 -1.2578
 8824SOL    HW237932   4.640   1.603   1.501  2.5550  0.0804  0.0532
 8825SOL     OW37933   1.562   2.474   4.130  0.0257  0.3199 -0.2110
 8825SOL    HW137934   1.473   2.448   4.105 -0.8402  0.7341  2.4491
 8825SOL    HW237935   1.596   2.386   4.147 -1.8211 -0.3318  0.1397
 8826SOL     OW37936   2.957   3.957   6.393 -0.6868  0.4604  0.0009
 8826SOL    HW137937   3.046   3.965   6.427 -0.4636  0.0553 -0.4826
 8826SOL    HW237938   2.955   3.861   6.391  0.6264  0.4789 -1.4980
 8827SOL     OW37939   0.692   3.734  13.041 -0.2332  0.4037  0.5206
 8827SOL    HW137940   0.643   3.741  12.959 -1.5617  0.4890  1.3072
 8827SOL    HW237941   0.727   3.645  13.041 -1.8751 -0.2392  0.2046
 8828SOL     OW37942   3.518   0.671   4.260 -0.4019  0.1685 -0.6896
 8828SOL    HW137943   3.494   0.611   4.189 -0.7335  0.8059 -1.1088
 8828SOL    HW237944   3.568   0.734   4.208 -1.6676  2.0745  0.4174
 8829SOL     OW37945   2.900   4.130   7.695  0.4474 -0.1388  0.1810
 8829SOL    HW137946   2.975   4.072   7.706  0.5564 -0.4739 -2.3380
 8829SOL    HW237947   2.934   4.217   7.676 -0.7862  0.0726 -1.0678
 8830SOL     OW37948   2.941   2.375   6.163  0.4089  0.2863 -0.3506
 8830SOL    HW137949   2.958   2.469   6.162  1.8468  0.0178 -2.2882
 8830SOL    HW237950   3.030   2.341   6.151  0.1651 -0.6854  0.6116
 8831SOL     OW37951   3.493   2.429   4.749 -0.2852  0.2185 -0.1059
 8831SOL    HW137952   3.553   2.354   4.749  0.9623  1.2013 -0.1495
 8831SOL    HW237953   3.557   2.486   4.705 -0.8457  1.8915  1.2587
 8832SOL     OW37954   1.947   4.233  13.164  0.2617 -0.1325  0.6178
 8832SOL    HW137955   2.042   4.229  13.149  0.1614  0.6769 -0.2422
 8832SOL    HW237956   1.939   4.266  13.254 -0.1704 -0.3993  0.6753
 8833SOL     OW37957   1.592   2.140   6.203  0.2053  0.3861 -0.5648
 8833SOL    HW137958   1.688   2.143   6.206  0.1909 -0.4997  0.4863
 8833SOL    HW237959   1.582   2.054   6.161 -0.4674  1.6598 -3.0337
 8834SOL     OW37960   0.470   1.369   7.143  0.2082 -0.0545  0.0177
 8834SOL    HW137961   0.527   1.312   7.195  1.4727  0.3905 -0.8818
 8834SOL    HW237962   0.492   1.460   7.163  2.2800 -0.0313 -2.3289
 8835SOL     OW37963   3.047   2.809   6.393  0.2943  0.1877  0.1582
 8835SOL    HW137964   3.059   2.725   6.438  0.1526  0.7349  1.2265
 8835SOL    HW237965   3.015   2.863   6.465 -1.5545 -0.2666 -0.2983
 8836SOL     OW37966   1.018   4.162   1.410  0.3619 -0.1146 -0.0939
 8836SOL    HW137967   1.042   4.242   1.364  2.7480 -0.6921  0.1707
 8836SOL    HW237968   0.923   4.173   1.419  0.1200 -1.4157 -0.9787
 8837SOL     OW37969   1.861   1.701   5.989 -0.0638  0.2723 -0.4940
 8837SOL    HW137970   1.881   1.773   5.928  1.1964 -0.0812 -0.5124
 8837SOL    HW237971   1.922   1.634   5.957  0.5166  0.3179  0.5192
 8838SOL     OW37972   0.749   3.150   1.999 -0.2612 -0.1798  0.4380
 8838SOL    HW137973   0.748   3.070   1.946 -1.5185  0.5044 -0.5596
 8838SOL    HW237974   0.659   3.178   1.983 -0.2280 -0.4660 -0.2674
 8839SOL     OW37975   1.187   3.225   4.228  0.1407 -0.8636 -0.9705
 8839SOL    HW137976   1.255   3.220   4.296  1.2511 -0.4590 -2.0580
 8839SOL    HW237977   1.238   3.246   4.150  0.5247  2.2826  0.1090
 8840SOL     OW37978   1.182   4.336   0.821  0.4145  0.0817  0.1942
 8840SOL    HW137979   1.095   4.299   0.834  1.1679 -1.4385  0.7960
 8840SOL    HW237980   1.209   4.298   0.737  0.5631 -1.0442  0.7603
 8841SOL     OW37981   0.333   1.516   5.471 -0.1856 -0.1028 -0.2619
 8841SOL    HW137982   0.270   1.533   5.401 -1.5270  1.7103  1.3748
 8841SOL    HW237983   0.341   1.421   5.464  1.7216  0.2144 -2.5543
 8842SOL     OW37984   0.606   2.172   3.426  0.1154  0.1159 -0.0647
 8842SOL    HW137985   0.639   2.243   3.481 -2.2372  0.5542  0.7698
 8842SOL    HW237986   0.635   2.200   3.339  0.7425 -0.3067  0.0076
 8843SOL     OW37987   3.717   0.173   6.284 -0.1287 -0.1388  0.2177
 8843SOL    HW137988   3.693   0.193   6.193  1.3591 -2.9083 -0.8147
 8843SOL    HW237989   3.778   0.105   6.254 -0.9157  0.0117 -1.7495
 8844SOL     OW37990   2.518   1.568   9.506  0.1033 -0.0491  0.2645
 8844SOL    HW137991   2.440   1.612   9.541  0.4719 -0.0553  1.0688
 8844SOL    HW237992   2.554   1.528   9.585  1.4502  1.4728  0.4270
 8845SOL     OW37993   4.316   3.372   3.807 -0.0443  0.0333 -0.6160
 8845SOL    HW137994   4.232   3.419   3.807  0.1768  0.4159  1.6711
 8845SOL    HW237995   4.303   3.306   3.875  1.2091  0.2091 -0.2052
 8846SOL     OW37996   2.571   2.491  17.006 -0.0241 -0.4014  0.2191
 8846SOL    HW137997   2.623   2.446  16.940 -0.6434 -1.0244  0.1551
 8846SOL    HW237998   2.482   2.463  16.984 -0.0028 -0.6529  0.4592
 8847SOL     OW37999   3.775   0.967   7.189 -0.1539  0.0381 -0.2319
 8847SOL    HW138000   3.838   1.039   7.177  1.1480 -1.2058 -0.8289
 8847SOL    HW238001   3.706   1.006   7.243 -0.3535 -0.0135 -0.4519
 8848SOL     OW38002   4.377   0.637   0.783 -0.0029  0.8031  0.0303
 8848SOL    HW138003   4.423   0.608   0.704 -1.7969 -1.3605 -0.2219
 8848SOL    HW238004   4.296   0.586   0.774  0.7482 -0.2467 -0.8376
 8849SOL     OW38005   4.456   0.991   2.747  0.3880  0.8198  0.2111
 8849SOL    HW138006   4.446   1.086   2.744  2.2760  0.9890 -1.0707
 8849SOL    HW238007   4.507   0.988   2.665  1.2583 -0.8827  0.8254
 8850SOL     OW38008   3.224   0.690   7.847 -0.1063 -0.0373 -0.2130
 8850SOL    HW138009   3.213   0.624   7.916 -0.6947 -1.8377 -2.0279
 8850SOL    HW238010   3.290   0.665   7.783 -1.5060  0.0924 -1.6969
 8851SOL     OW38011   4.563   3.117   0.696  0.6959  0.1449  0.0936
 8851SOL    HW138012   4.616   3.069   0.760 -0.7247 -1.3689  0.1642
 8851SOL    HW238013   4.596   3.206   0.701  0.7378  0.0376  1.6942
 8852SOL     OW38014   3.381   3.135   1.662 -0.2884  0.4194 -0.4636
 8852SOL    HW138015   3.302   3.177   1.696  0.5233  2.0977 -0.6856
 8852SOL    HW238016   3.416   3.101   1.744 -0.9641  2.3733  0.6176
 8853SOL     OW38017   0.423   1.050   3.405 -0.9314  0.3542 -0.4384
 8853SOL    HW138018   0.359   0.995   3.359 -2.0658 -0.5495  2.2394
 8853SOL    HW238019   0.499   1.036   3.348  0.3676 -0.7974  1.5782
 8854SOL     OW38020   1.549   2.814   4.514  0.1135 -0.2139  0.3179
 8854SOL    HW138021   1.530   2.749   4.446 -0.2857  0.4343 -0.1857
 8854SOL    HW238022   1.571   2.765   4.593  0.1654  0.0025  0.4377
 8855SOL     OW38023   1.094   4.682   7.447 -0.4275  0.4184 -0.1164
 8855SOL    HW138024   1.097   0.020   7.373 -0.0766  0.1145 -0.3530
 8855SOL    HW238025   1.029   4.619   7.417  0.0042  0.6722 -1.5798
 8856SOL     OW38026   4.381   1.331   1.847 -0.1821 -0.0380  0.1389
 8856SOL    HW138027   4.374   1.242   1.813 -0.8499  0.7216 -1.7588
 8856SOL    HW238028   4.436   1.312   1.923 -1.1922 -3.3555  0.0213
 8857SOL     OW38029   0.720   1.232  16.268  0.3517 -0.3477 -0.0097
 8857SOL    HW138030   0.629   1.212  16.247  0.6233  0.9511 -2.4247
 8857SOL    HW238031   0.715   1.305  16.330  2.0305 -0.9791  0.8875
 8858SOL     OW38032   1.068   1.629   3.103 -0.2332  0.1612 -0.0194
 8858SOL    HW138033   1.148   1.683   3.102 -1.1692  1.5378 -0.9824
 8858SOL    HW238034   1.103   1.549   3.142 -0.0506 -0.1094 -0.7366
 8859SOL     OW38035   0.430   3.959  14.386 -0.6393  0.2348  0.3969
 8859SOL    HW138036   0.373   3.897  14.431 -0.3938  0.7432  1.4224
 8859SOL    HW238037   0.410   3.930  14.297  0.6097  1.1336 -0.1770
 8860SOL     OW38038   0.305   4.221   0.972  0.7397 -0.7072 -0.1779
 8860SOL    HW138039   0.257   4.180   1.044 -1.8230  1.1577 -0.8290
 8860SOL    HW238040   0.349   4.153   0.921  1.8359  1.3801 -2.0300
 8861SOL     OW38041   1.282   2.699   2.715  0.2362 -0.2008 -0.2149
 8861SOL    HW138042   1.210   2.671   2.659  0.4601  0.2073 -0.7058
 8861SOL    HW238043   1.280   2.627   2.778  1.1857  0.9942  1.2105
 8862SOL     OW38044   2.948   2.630  15.376  0.2884 -0.0889 -0.7024
 8862SOL    HW138045   2.981   2.578  15.303 -0.8597 -1.5340 -0.1783
 8862SOL    HW238046   2.858   2.597  15.367  0.6566 -0.7178 -2.1060
 8863SOL     OW38047   0.103   2.847   6.225  0.2062 -0.2556 -0.0686
 8863SOL    HW138048   0.062   2.847   6.311  0.8643  0.5381  0.2403
 8863SOL    HW238049   0.170   2.914   6.237 -0.1564 -0.0880  1.0550
 8864SOL     OW38050   0.912   0.159   6.109 -0.2409  0.2900  0.0159
 8864SOL    HW138051   0.949   0.176   6.022  1.0663 -2.2003  0.0873
 8864SOL    HW238052   0.907   0.063   6.107  1.3058  0.1769  1.7130
 8865SOL     OW38053   3.245   3.734   2.645 -0.6932 -0.9255  0.1599
 8865SOL    HW138054   3.311   3.751   2.577 -1.1032  0.3822  0.0869
 8865SOL    HW238055   3.176   3.719   2.580  0.4373 -1.2995 -0.9493
 8866SOL     OW38056   3.410   2.966   9.197 -0.3772 -0.3920  0.2853
 8866SOL    HW138057   3.394   3.042   9.253  0.9732 -0.5393  0.8602
 8866SOL    HW238058   3.386   2.892   9.253 -0.3453  0.0794  0.9178
 8867SOL     OW38059   0.277   3.133   3.112  0.2613 -0.2468  0.3875
 8867SOL    HW138060   0.201   3.131   3.053  1.8178 -0.3484 -1.5922
 8867SOL    HW238061   0.331   3.194   3.062  1.6214 -1.8155 -0.0679
 8868SOL     OW38062   2.994   0.048  13.451  0.4398  0.3103 -0.3040
 8868SOL    HW138063   2.918   0.040  13.508  0.9141  2.6338  0.6301
 8868SOL    HW238064   3.018   4.680  13.433  0.9660  0.7585 -1.8094
 8869SOL     OW38065   2.494   0.160  10.459 -0.1698  0.0368 -0.4128
 8869SOL    HW138066   2.509   0.249  10.428 -2.9100  0.4102 -0.6759
 8869SOL    HW238067   2.412   0.178  10.506 -0.1594 -1.2701  0.0951
 8870SOL     OW38068   3.982   3.705   1.962 -0.2401  0.1851 -0.3807
 8870SOL    HW138069   4.009   3.678   1.875  1.8543  2.2573 -0.3721
 8870SOL    HW238070   3.894   3.669   1.958 -0.3587  0.2948  1.2926
 8871SOL     OW38071   4.321   1.670   4.383 -0.0192 -0.8578 -0.0564
 8871SOL    HW138072   4.340   1.673   4.289 -1.6073 -0.1913 -0.3759
 8871SOL    HW238073   4.407   1.678   4.424  1.0286 -0.8764 -2.2567
 8872SOL     OW38074   0.805   2.663   7.020 -0.0467  0.0289 -0.2236
 8872SOL    HW138075   0.839   2.577   7.045 -0.5849  0.0331  0.5263
 8872SOL    HW238076   0.712   2.643   7.003  0.0694  0.9181 -1.9669
 8873SOL     OW38077   4.601   3.302   3.815  0.0394 -0.9138 -0.4634
 8873SOL    HW138078   4.597   3.246   3.737 -0.3746 -1.0821 -0.3180
 8873SOL    HW238079   4.513   3.340   3.812 -0.8099 -2.9466 -0.7739
 8874SOL     OW38080   3.185   2.139   6.024  0.4538 -0.3585 -0.2299
 8874SOL    HW138081   3.268   2.114   5.984  2.4124  2.4287  2.0227
 8874SOL    HW238082   3.207   2.156   6.116  1.6381 -1.3560 -0.3209
 8875SOL     OW38083   0.084   0.856   0.324  0.8850 -0.2261 -0.6800
 8875SOL    HW138084   0.040   0.916   0.264 -0.3935  1.2948  1.7967
 8875SOL    HW238085   0.078   0.779   0.267 -0.3482  0.2454 -1.1994
 8876SOL     OW38086   3.801   1.669   3.823 -0.5517 -0.6313  0.3415
 8876SOL    HW138087   3.816   1.752   3.869 -0.8110 -0.6549  0.4688
 8876SOL    HW238088   3.794   1.701   3.733  1.6249 -1.4746 -0.1235
 8877SOL     OW38089   3.365   4.360  13.852 -0.2432 -0.4315  0.1766
 8877SOL    HW138090   3.458   4.355  13.831 -0.3788  1.9965 -1.0538
 8877SOL    HW238091   3.327   4.293  13.796  1.0170 -0.4724 -0.6128
 8878SOL     OW38092   0.473   0.675   8.355 -0.2426 -0.4511 -1.1052
 8878SOL    HW138093   0.382   0.648   8.340 -0.5942  0.2782 -0.2693
 8878SOL    HW238094   0.491   0.628   8.437 -0.3762 -1.4575 -1.6455
 8879SOL     OW38095   4.255   4.482  16.287 -0.5006 -0.0868 -0.2208
 8879SOL    HW138096   4.209   4.504  16.368 -0.3297  0.4653 -0.2713
 8879SOL    HW238097   4.226   4.549  16.225  0.6136 -0.9482 -1.6764
 8880SOL     OW38098   4.521   1.436   1.487  0.2068 -0.3241  0.1316
 8880SOL    HW138099   4.482   1.406   1.569  0.5668 -1.1856 -0.0129
 8880SOL    HW238100   4.509   1.363   1.426  1.2619 -0.7479  0.4215
 8881SOL     OW38101   1.838   2.496   4.004 -0.0545  0.3389  0.7716
 8881SOL    HW138102   1.802   2.414   4.038 -0.1859  0.8024  1.7490
 8881SOL    HW238103   1.757   2.539   3.977 -0.2433 -0.9192 -0.6454
 8882SOL     OW38104   1.149   1.588   3.469 -0.3590  0.4477 -0.2845
 8882SOL    HW138105   1.114   1.675   3.452 -3.1679 -0.4496  0.9492
 8882SOL    HW238106   1.081   1.546   3.522 -0.6359  2.2601  0.7716
 8883SOL     OW38107   0.032   0.118   6.472 -0.1104 -0.0027 -0.3776
 8883SOL    HW138108   4.674   0.166   6.490 -0.5687 -1.0419  0.3401
 8883SOL    HW238109   4.715   0.036   6.445 -0.3171 -0.0554  0.0948
 8884SOL     OW38110   3.757   4.026  11.917 -0.2010 -0.6919 -0.8247
 8884SOL    HW138111   3.825   4.093  11.917  0.3326 -1.2082  2.2944
 8884SOL    HW238112   3.720   4.024  11.829 -2.5665  1.3989  0.1256
 8885SOL     OW38113   0.129   2.488  14.821  0.4549 -0.4873  0.0993
 8885SOL    HW138114   0.176   2.471  14.739  0.8507  0.5768  0.1039
 8885SOL    HW238115   0.155   2.578  14.843 -0.4780 -0.0573 -0.5028
 8886SOL     OW38116   1.650   3.802  11.995  0.3431  0.1064  0.4280
 8886SOL    HW138117   1.612   3.828  11.911  0.9145 -1.1558 -0.2107
 8886SOL    HW238118   1.584   3.745  12.034  0.4617 -1.1775 -1.2648
 8887SOL     OW38119   2.601   3.230  10.896 -0.1664  0.0362 -0.8810
 8887SOL    HW138120   2.606   3.163  10.964 -0.4764  0.1629 -0.7306
 8887SOL    HW238121   2.515   3.272  10.910  0.3367  1.7731 -3.0191
 8888SOL     OW38122   3.588   0.725   7.755 -0.2383 -0.1493 -0.2301
 8888SOL    HW138123   3.524   0.679   7.701 -0.1940  0.0157 -0.4222
 8888SOL    HW238124   3.661   0.664   7.750 -1.3677 -1.5086 -0.4146
 8889SOL     OW38125   0.199   4.197   2.273 -0.1148 -0.0284  0.2765
 8889SOL    HW138126   0.201   4.237   2.186  0.0858 -1.3611 -0.3307
 8889SOL    HW238127   0.191   4.273   2.330 -2.3770 -0.9150  1.1215
 8890SOL     OW38128   0.204   2.852   5.812  0.2710  0.4113  0.4658
 8890SOL    HW138129   0.184   2.779   5.871 -0.9760 -0.1062 -0.6074
 8890SOL    HW238130   0.126   2.835   5.759  0.2335 -1.1484  1.0120
 8891SOL     OW38131   0.235   2.445   8.461 -0.3295 -0.9484  0.0544
 8891SOL    HW138132   0.275   2.499   8.529 -2.6612  1.8337 -0.7521
 8891SOL    HW238133   0.157   2.425   8.511 -0.0692 -2.5608 -0.2003
 8892SOL     OW38134   4.100   2.141   4.484  0.5834 -0.3811 -0.5017
 8892SOL    HW138135   4.191   2.160   4.462  0.1857  1.6911 -0.2871
 8892SOL    HW238136   4.063   2.201   4.420  0.9490  0.4134  0.0392
 8893SOL     OW38137   0.453   0.839   7.824 -0.0067  0.3951 -0.4441
 8893SOL    HW138138   0.449   0.755   7.779  0.3066 -0.0960  0.4428
 8893SOL    HW238139   0.451   0.896   7.747 -1.2544  2.5322  1.1428
 8894SOL     OW38140   3.381   3.879   6.087 -0.1616  0.2354  0.6227
 8894SOL    HW138141   3.409   3.891   5.996 -0.3903 -1.0070  0.3862
 8894SOL    HW238142   3.289   3.854   6.077  0.1626 -0.7729  0.1381
 8895SOL     OW38143   0.750   0.921   1.481  0.1306  0.4744  0.4889
 8895SOL    HW138144   0.703   0.860   1.424  1.7035  0.7477 -1.0953
 8895SOL    HW238145   0.841   0.929   1.451  0.1491 -2.7108 -0.3069
 8896SOL     OW38146   1.527   1.975  16.668 -0.0898 -0.2848 -0.4044
 8896SOL    HW138147   1.612   1.958  16.709  0.2805  0.0074 -1.0466
 8896SOL    HW238148   1.520   2.070  16.678 -2.4146 -0.5255  0.1356
 8897SOL     OW38149   0.868   2.945   9.132  0.6980 -0.3718 -0.4622
 8897SOL    HW138150   0.888   2.932   9.225  0.3031  2.3178 -0.0052
 8897SOL    HW238151   0.954   2.958   9.092  1.2782 -3.3398 -0.1847
 8898SOL     OW38152   4.477   2.186   6.944 -0.1711 -0.3983  0.0088
 8898SOL    HW138153   4.446   2.097   6.927 -1.2850  0.0209 -0.1086
 8898SOL    HW238154   4.534   2.207   6.870 -0.2889 -1.1989 -0.3053
 8899SOL     OW38155   3.596   3.524  12.539  0.3400 -0.5618  0.4793
 8899SOL    HW138156   3.594   3.620  12.539  3.1003 -0.5224  2.1348
 8899SOL    HW238157   3.536   3.512  12.465 -1.2190  0.2256  1.6074
 8900SOL     OW38158   1.638   4.458  14.469 -0.3837  0.4131 -0.3996
 8900SOL    HW138159   1.596   4.498  14.544  0.3181  0.3722  0.0092
 8900SOL    HW238160   1.708   4.407  14.509 -1.8311 -1.7223 -0.5998
 8901SOL     OW38161   2.851   1.368   9.730 -0.4569  0.1505  0.2284
 8901SOL    HW138162   2.908   1.291   9.734  0.5964  0.7922 -2.8352
 8901SOL    HW238163   2.831   1.362   9.637  1.0715  1.9216 -0.2275
 8902SOL     OW38164   4.176   0.732  17.394  0.2258  0.7738 -0.1848
 8902SOL    HW138165   4.124   0.765  17.321 -1.6737 -1.6446  0.0671
 8902SOL    HW238166   4.189   0.639  17.378  0.4233  0.1843  3.3406
 8903SOL     OW38167   1.014   0.257   6.366 -0.5935  0.5788 -0.9739
 8903SOL    HW138168   0.959   0.208   6.304  1.4427  0.2360 -2.5089
 8903SOL    HW238169   1.098   0.238   6.325  0.6015  2.7787  0.4832
 8904SOL     OW38170   1.581   1.944   5.854  0.3560 -0.0116  0.5747
 8904SOL    HW138171   1.629   1.999   5.916  0.8734 -1.0772  1.1295
 8904SOL    HW238172   1.593   1.861   5.899  0.8986 -0.4481 -0.3754
 8905SOL     OW38173   4.175   3.283   3.097  0.4853  0.8394 -0.3376
 8905SOL    HW138174   4.221   3.365   3.113  1.5188 -0.1225  1.5906
 8905SOL    HW238175   4.237   3.236   3.040  0.6230  0.9341 -0.2654
 8906SOL     OW38176   2.439   0.080   3.109  0.0062  0.0210  0.4392
 8906SOL    HW138177   2.531   0.064   3.088 -0.3417 -0.8684 -0.4085
 8906SOL    HW238178   2.394   4.720   3.093  0.3171 -0.6132  2.7879
 8907SOL     OW38179   4.158   0.634   7.901  0.3507  0.2611  0.2920
 8907SOL    HW138180   4.238   0.595   7.866 -0.7665 -1.1159 -0.7218
 8907SOL    HW238181   4.193   0.717   7.932  0.2020  0.6521 -0.5765
 8908SOL     OW38182   3.747   0.062   3.624 -0.0840  0.3967 -0.2009
 8908SOL    HW138183   3.710   0.139   3.668 -3.0409 -0.4364 -1.2276
 8908SOL    HW238184   3.814   0.043   3.690  0.3206  1.9177 -0.1821
 8909SOL     OW38185   1.561   3.931   8.355 -0.3343 -0.0850 -0.0269
 8909SOL    HW138186   1.593   3.845   8.327 -0.5969 -0.6238  1.2884
 8909SOL    HW238187   1.630   3.981   8.312 -1.4306  0.6643 -0.8891
 8910SOL     OW38188   1.884   4.259   2.789  0.4059 -0.3815 -0.2913
 8910SOL    HW138189   1.974   4.282   2.811  0.2120 -0.7251  0.8576
 8910SOL    HW238190   1.885   4.168   2.821  0.3594 -1.1362 -2.4031
 8911SOL     OW38191   0.001   3.998   6.939 -0.0296 -0.2431  0.3564
 8911SOL    HW138192   4.671   4.031   6.867 -0.5691 -0.4698  0.6429
 8911SOL    HW238193   4.662   3.989   7.012  0.2615 -2.0714  0.3859
 8912SOL     OW38194   1.772   3.475  12.796  0.1251 -0.5056 -0.1824
 8912SOL    HW138195   1.745   3.518  12.878  0.0657 -0.8358 -0.0308
 8912SOL    HW238196   1.835   3.538  12.760  0.9058 -1.9317 -1.2687
 8913SOL     OW38197   4.341   3.846   5.397 -0.0231 -0.0145  0.7890
 8913SOL    HW138198   4.427   3.833   5.436 -0.1864  0.5329  1.3461
 8913SOL    HW238199   4.296   3.871   5.478 -1.4825 -0.5811  0.1609
 8914SOL     OW38200   1.334   4.001   5.897 -0.6730 -0.2624  0.7980
 8914SOL    HW138201   1.374   3.925   5.940  0.1666  0.2269  0.8924
 8914SOL    HW238202   1.295   3.975   5.813 -1.1342  2.0312  0.2906
 8915SOL     OW38203   0.625   2.470   1.586 -0.1238 -0.2695 -0.6598
 8915SOL    HW138204   0.714   2.497   1.562  0.5389 -2.2685 -0.4832
 8915SOL    HW238205   0.593   2.457   1.497 -0.5521 -0.5153 -0.4680
 8916SOL     OW38206   3.831   2.235  13.317 -0.0557  0.2167  0.3626
 8916SOL    HW138207   3.874   2.257  13.400  2.0630 -0.1742 -0.6437
 8916SOL    HW238208   3.743   2.272  13.321 -0.2339 -0.3418  1.8572
 8917SOL     OW38209   3.807   2.228   7.589 -0.5742  0.5911 -0.5252
 8917SOL    HW138210   3.734   2.247   7.530 -0.3537  3.9826  0.2891
 8917SOL    HW238211   3.771   2.156   7.642  0.9440  0.2963  0.1271
 8918SOL     OW38212   4.464   2.622   4.395  0.5284  0.6573  0.4348
 8918SOL    HW138213   4.439   2.714   4.396 -0.9939  0.2410  0.1047
 8918SOL    HW238214   4.560   2.627   4.387  0.6785  3.1983  3.8919
 8919SOL     OW38215   3.447   4.445  15.512  0.2264  0.5051 -0.5559
 8919SOL    HW138216   3.531   4.463  15.471  1.3745  0.0281  1.5685
 8919SOL    HW238217   3.446   4.350  15.512 -0.6447  0.5159 -0.2544
 8920SOL     OW38218   2.161   2.721   9.276 -0.3547 -0.3668 -0.5704
 8920SOL    HW138219   2.083   2.775   9.267 -1.5052 -1.9947 -0.3153
 8920SOL    HW238220   2.217   2.787   9.318 -0.2598 -0.2949 -0.8125
 8921SOL     OW38221   2.279   4.043   6.263  0.2367 -0.1873  0.3508
 8921SOL    HW138222   2.238   4.068   6.180  0.1400 -0.3022  0.3655
 8921SOL    HW238223   2.361   4.011   6.225 -0.2411 -1.4554  0.4022
 8922SOL     OW38224   0.188   2.199   2.147  0.4189  0.0708  0.9268
 8922SOL    HW138225   0.104   2.245   2.152  0.4131 -0.0800  2.3289
 8922SOL    HW238226   0.233   2.232   2.070 -1.8188  1.8349  0.3658
 8923SOL     OW38227   0.013   1.025   3.325  0.8089  0.1049  0.5370
 8923SOL    HW138228   4.670   0.988   3.384  0.1249  0.8748  0.2434
 8923SOL    HW238229   0.012   1.118   3.349  0.8802 -0.0352  1.0959
 8924SOL     OW38230   0.133   0.768   4.594 -0.1536  0.2255 -0.6998
 8924SOL    HW138231   0.068   0.732   4.654  2.4146 -0.3900  1.6727
 8924SOL    HW238232   0.134   0.858   4.626  0.8286 -0.3760  0.9449
 8925SOL     OW38233   0.279   3.205   9.364 -0.1574  0.2623 -0.0152
 8925SOL    HW138234   0.257   3.128   9.311 -0.6674  2.0557 -2.3912
 8925SOL    HW238235   0.363   3.232   9.327  0.0471  0.9124  0.9150
 8926SOL     OW38236   0.492   3.416  16.139  0.2976  0.1655 -0.5726
 8926SOL    HW138237   0.557   3.346  16.129  0.3240  0.1367 -0.2067
 8926SOL    HW238238   0.424   3.391  16.077 -0.1195 -0.0274 -0.0455
 8927SOL     OW38239   1.251   3.592   9.071  0.1508  0.4888  0.5391
 8927SOL    HW138240   1.284   3.669   9.117 -3.9005  2.6031 -0.1028
 8927SOL    HW238241   1.254   3.521   9.135 -0.8329  0.8066  0.9319
 8928SOL     OW38242   3.522   3.335   3.696 -0.4283 -0.3453  0.1209
 8928SOL    HW138243   3.503   3.429   3.704 -1.1090 -0.5815  1.2937
 8928SOL    HW238244   3.434   3.299   3.706 -0.2542 -0.5292  0.9910
 8929SOL     OW38245   0.516   3.661  14.060 -0.5495 -0.9606  1.5213
 8929SOL    HW138246   0.502   3.604  13.984 -1.6845  0.8531  0.3669
 8929SOL    HW238247   0.545   3.740  14.015 -0.2608 -0.7922  2.0136
 8930SOL     OW38248   1.318   4.505   7.528  0.0576  0.0567  0.1137
 8930SOL    HW138249   1.249   4.554   7.482  0.2758  0.9351  0.7306
 8930SOL    HW238250   1.268   4.484   7.607  1.3863  0.7371  1.1363
 8931SOL     OW38251   4.117   3.405   9.033  0.3811 -0.1005  0.1849
 8931SOL    HW138252   4.169   3.483   9.013  0.9288 -0.7020 -0.7673
 8931SOL    HW238253   4.034   3.444   9.059 -1.3593 -0.6966 -4.6504
 8932SOL     OW38254   4.494   0.998   4.870  0.3085  0.1103  0.4220
 8932SOL    HW138255   4.446   0.947   4.935 -0.3103 -0.0228 -0.1445
 8932SOL    HW238256   4.493   1.088   4.901  0.4111  0.3860 -0.3737
 8933SOL     OW38257   3.113   2.868   3.182  0.6330 -0.4551 -0.8552
 8933SOL    HW138258   3.046   2.804   3.157  1.8028 -1.5681 -1.0639
 8933SOL    HW238259   3.105   2.922   3.103  0.8663  0.4953 -0.2316
 8934SOL     OW38260   0.225   4.145  13.789  0.1356 -0.0256  0.1300
 8934SOL    HW138261   0.306   4.109  13.826  1.6452  0.4428 -2.7737
 8934SOL    HW238262   0.222   4.090  13.711  0.4057  1.3443 -0.8396
 8935SOL     OW38263   0.757   4.330   5.319 -0.0110  0.0338 -0.0780
 8935SOL    HW138264   0.664   4.351   5.326 -0.0724 -1.0306  2.3338
 8935SOL    HW238265   0.749   4.244   5.361  0.4579  0.0214 -0.0109
 8936SOL     OW38266   3.913   1.559   6.565 -0.0925  0.5952  0.1572
 8936SOL    HW138267   3.873   1.557   6.651 -1.9580 -3.1742 -0.7898
 8936SOL    HW238268   3.975   1.486   6.565 -0.0566  0.6223 -0.4185
 8937SOL     OW38269   3.573   3.760  12.801 -0.5347 -0.1121  0.3290
 8937SOL    HW138270   3.639   3.780  12.868  0.5282 -2.5933  0.0445
 8937SOL    HW238271   3.618   3.776  12.718 -1.2440 -1.2397 -0.2649
 8938SOL     OW38272   4.447   3.060   9.332 -0.0185 -0.1413  0.1282
 8938SOL    HW138273   4.532   3.084   9.368  0.3996  2.3934 -2.5494
 8938SOL    HW238274   4.393   3.100   9.401 -0.0556  1.8024 -1.0309
 8939SOL     OW38275   3.631   2.306   5.178 -0.4757 -0.1974  0.3058
 8939SOL    HW138276   3.579   2.226   5.187  2.3031 -2.0567 -0.1439
 8939SOL    HW238277   3.588   2.347   5.103  1.0708 -3.0033 -2.1143
 8940SOL     OW38278   3.519   1.110   5.548  0.1173  0.1821 -0.2974
 8940SOL    HW138279   3.429   1.106   5.516  0.4607  1.4692 -1.4236
 8940SOL    HW238280   3.532   1.197   5.586  1.1730  0.6085 -1.6113
 8941SOL     OW38281   0.181   2.506   4.176 -0.1797  0.1702 -0.1254
 8941SOL    HW138282   0.177   2.488   4.082 -1.1567  0.9851 -0.2410
 8941SOL    HW238283   0.272   2.530   4.188  0.5329 -1.3859 -2.3883
 8942SOL     OW38284   4.579   1.759   4.775  0.3396 -0.1776  0.0940
 8942SOL    HW138285   4.566   1.671   4.809 -0.3878 -0.5921 -1.2688
 8942SOL    HW238286   4.662   1.753   4.727 -0.1125  0.5600 -0.7843
 8943SOL     OW38287   2.968   0.480   7.697  0.2261  0.4328  0.6212
 8943SOL    HW138288   3.029   0.452   7.629  0.5866 -0.8315  1.4605
 8943SOL    HW238289   2.882   0.480   7.656  0.1915 -0.1213  0.6966
 8944SOL     OW38290   2.591   4.310   5.345  0.4744 -0.2061  0.5974
 8944SOL    HW138291   2.563   4.260   5.269  0.3128 -0.5091  0.8549
 8944SOL    HW238292   2.574   4.400   5.317 -0.5221 -0.6324 -0.1377
 8945SOL     OW38293   2.455   2.548   1.958 -0.2423  0.0614  0.4490
 8945SOL    HW138294   2.397   2.616   1.925  0.1431 -0.6814 -1.7577
 8945SOL    HW238295   2.396   2.475   1.979 -0.0605 -0.3726 -0.5627
 8946SOL     OW38296   3.209   0.764  12.216 -0.5181 -0.5701 -0.1989
 8946SOL    HW138297   3.116   0.748  12.201 -0.2629 -1.3145 -0.9214
 8946SOL    HW238298   3.263   0.736  12.143 -0.6695  0.8135 -0.8430
 8947SOL     OW38299   0.835   1.352   4.952  0.1261  0.6285  0.1342
 8947SOL    HW138300   0.849   1.417   4.884  0.8147  1.1344  0.7593
 8947SOL    HW238301   0.743   1.375   4.967  0.1694  1.2899 -0.6019
 8948SOL     OW38302   3.092   1.992   7.978  0.8707 -0.0853  0.3284
 8948SOL    HW138303   3.002   2.025   7.980  0.7916 -0.2409 -0.6941
 8948SOL    HW238304   3.077   1.898   7.969 -1.7985  0.4329 -0.5320
 8949SOL     OW38305   0.004   2.170   5.135 -0.2249 -0.0347  0.0315
 8949SOL    HW138306   0.082   2.180   5.080  0.5609 -1.0834  0.9346
 8949SOL    HW238307   4.688   2.256   5.123 -1.4591 -0.5165  0.6151
 8950SOL     OW38308   0.265   4.421   6.623 -0.2597  0.6884 -0.2024
 8950SOL    HW138309   0.353   4.414   6.585 -0.3757 -0.2004 -0.3193
 8950SOL    HW238310   0.209   4.393   6.550 -0.3709  0.4213 -0.0138
 8951SOL     OW38311   0.300   2.937   1.629  0.0731  0.0585  0.1808
 8951SOL    HW138312   0.263   2.858   1.669  3.2953  0.0665  3.1800
 8951SOL    HW238313   0.396   2.929   1.632  0.0630  0.5823  1.9917
 8952SOL     OW38314   4.089   2.692   0.674  0.4566 -0.0571 -0.4266
 8952SOL    HW138315   4.110   2.739   0.755 -2.5813 -0.4035  0.5689
 8952SOL    HW238316   3.995   2.679   0.687  0.3224  1.4323  0.1131
 8953SOL     OW38317   4.342   3.315   5.215  0.5395  0.1863 -0.5631
 8953SOL    HW138318   4.326   3.409   5.204 -1.6792 -0.0074  0.9963
 8953SOL    HW238319   4.433   3.306   5.184  1.0230 -0.0599  0.9364
 8954SOL     OW38320   0.481   0.167   4.551 -0.0256 -0.2482  0.2746
 8954SOL    HW138321   0.440   0.249   4.524 -1.4480 -0.8659  0.5761
 8954SOL    HW238322   0.546   0.214   4.603 -1.2309  1.5181  0.1802
 8955SOL     OW38323   2.860   3.131   9.125  0.0192 -0.5077  0.2537
 8955SOL    HW138324   2.840   3.102   9.214 -2.6645  1.7478  0.4251
 8955SOL    HW238325   2.955   3.122   9.130 -0.1795 -1.2366  2.6507
 8956SOL     OW38326   0.974   1.309   3.288 -0.4563 -0.0256 -0.5865
 8956SOL    HW138327   0.968   1.215   3.273  3.0688 -0.3992  0.3889
 8956SOL    HW238328   1.065   1.314   3.316 -0.6877 -1.8692  0.4889
 8957SOL     OW38329   4.301   0.113   7.495 -0.1227  0.2152 -0.4966
 8957SOL    HW138330   4.391   0.089   7.472  0.1602 -1.6167  2.5544
 8957SOL    HW238331   4.306   0.208   7.492  0.3843  0.1571 -1.3648
 8958SOL     OW38332   3.663   3.797  12.520  0.2767 -0.0616 -0.1059
 8958SOL    HW138333   3.751   3.834  12.531  0.0409 -0.2508  2.3622
 8958SOL    HW238334   3.620   3.856  12.458 -1.0774 -0.4406  0.4876
 8959SOL     OW38335   0.011   0.417   5.422 -0.2312  0.3065 -0.5211
 8959SOL    HW138336   4.645   0.404   5.454  0.3585 -0.3098  0.8463
 8959SOL    HW238337   0.008   0.512   5.411  0.5570  0.3905  0.0051
 8960SOL     OW38338   0.759   0.915  17.576 -0.1011  0.1886 -0.3166
 8960SOL    HW138339   0.841   0.927  17.527 -0.1283  2.9533  0.2862
 8960SOL    HW238340   0.752   0.821  17.594  0.1799  0.2371  0.0393
 8961SOL     OW38341   2.110   4.202   8.276 -0.1778 -0.0197 -0.2017
 8961SOL    HW138342   2.140   4.226   8.364  2.3579 -0.9769 -0.8178
 8961SOL    HW238343   2.054   4.128   8.299  0.1401 -0.1860  0.0280
 8962SOL     OW38344   4.218   3.076  17.337  0.5346  0.4018 -0.4024
 8962SOL    HW138345   4.131   3.110  17.360  0.1912  0.2631 -1.4830
 8962SOL    HW238346   4.199   2.983  17.346  0.7154  0.4879  0.8630
 8963SOL     OW38347   4.017   2.082  16.985 -0.2643 -0.1463  0.2485
 8963SOL    HW138348   4.109   2.107  16.992 -0.3569  0.3468 -0.2645
 8963SOL    HW238349   4.016   2.028  16.907 -1.0148 -0.9440  0.8142
 8964SOL     OW38350   2.326   3.889   4.239  0.3841 -0.4167 -0.2412
 8964SOL    HW138351   2.242   3.928   4.218  0.6202 -0.2911 -0.9478
 8964SOL    HW238352   2.317   3.880   4.334  3.1594 -0.9511 -0.0134
 8965SOL     OW38353   0.286   3.329   4.926  0.1897  0.4964 -0.6527
 8965SOL    HW138354   0.307   3.358   5.014 -0.6701 -0.5442 -0.1023
 8965SOL    HW238355   0.362   3.351   4.872  0.3732  0.7147 -0.2993
 8966SOL     OW38356   1.516   1.846  10.573 -0.0624  0.2673  0.1495
 8966SOL    HW138357   1.513   1.855  10.669 -2.4209 -0.2721  0.1290
 8966SOL    HW238358   1.589   1.902  10.548  0.0204 -0.1720 -0.5748
 8967SOL     OW38359   0.860   2.243   3.273  0.3221  0.2552 -0.6240
 8967SOL    HW138360   0.801   2.169   3.257  1.0165  0.0136 -2.0251
 8967SOL    HW238361   0.933   2.186   3.299  2.2807  3.5855  1.2765
 8968SOL     OW38362   1.288   3.886  12.174 -0.1185 -0.3906  0.1236
 8968SOL    HW138363   1.381   3.911  12.180 -0.3558  0.0530  2.0887
 8968SOL    HW238364   1.285   3.792  12.191 -2.1252 -0.3507 -0.0858
 8969SOL     OW38365   4.078   4.211   2.866 -0.1689  0.4153  0.0814
 8969SOL    HW138366   4.053   4.122   2.841  2.4597 -0.9182  2.1571
 8969SOL    HW238367   4.006   4.237   2.923 -0.8932 -2.3010  0.3630
 8970SOL     OW38368   2.684   0.624   6.588  0.3695  0.6420  0.2582
 8970SOL    HW138369   2.622   0.654   6.521  0.5567  0.8457  0.1772
 8970SOL    HW238370   2.661   0.669   6.669  2.6799 -0.3275  1.4612
 8971SOL     OW38371   2.328   2.842   3.311 -0.5163  0.0518 -0.4165
 8971SOL    HW138372   2.382   2.798   3.377  0.1642 -0.7190 -1.4743
 8971SOL    HW238373   2.276   2.894   3.372 -0.2875  1.1717 -1.1840
 8972SOL     OW38374   4.538   1.539   2.960 -0.2247 -0.2317  0.0545
 8972SOL    HW138375   4.566   1.613   3.014 -0.4152 -0.7004  0.7976
 8972SOL    HW238376   4.513   1.479   3.030  1.0509 -0.2743  0.4661
 8973SOL     OW38377   0.270   2.916  15.356 -0.3326 -0.3931 -0.5387
 8973SOL    HW138378   0.182   2.884  15.337  0.0223 -0.2462 -2.3840
 8973SOL    HW238379   0.300   2.833  15.393 -1.9876 -0.7160  0.0864
 8974SOL     OW38380   2.644   1.213   4.971 -0.2258 -0.2528  0.1247
 8974SOL    HW138381   2.702   1.227   4.895 -0.3190  0.7306  0.2341
 8974SOL    HW238382   2.687   1.136   5.008  2.5436  0.5584 -1.4131
 8975SOL     OW38383   3.308   0.615   3.853  0.5056 -0.5653 -0.0035
 8975SOL    HW138384   3.287   0.572   3.936 -1.5759 -0.6142 -0.5631
 8975SOL    HW238385   3.299   0.707   3.877  2.4584  0.0965 -1.7530
 8976SOL     OW38386   4.289   1.703   5.439  0.4133  0.0473 -0.3200
 8976SOL    HW138387   4.375   1.674   5.469 -1.0101 -0.5995  3.0523
 8976SOL    HW238388   4.261   1.778   5.491  1.2371  0.2176 -0.1214
 8977SOL     OW38389   3.201   2.185   6.809  0.4560 -0.3467  0.3462
 8977SOL    HW138390   3.170   2.109   6.858  1.5147 -0.4895  0.8021
 8977SOL    HW238391   3.173   2.257   6.866  0.0594 -0.5882  0.4583
 8978SOL     OW38392   0.027   0.987   4.845 -0.0094  0.0278 -0.0822
 8978SOL    HW138393   4.655   0.974   4.836 -0.2168  3.2715 -2.5262
 8978SOL    HW238394   0.060   1.017   4.761  2.5868 -0.0591  0.9318
 8979SOL     OW38395   1.045   0.001   1.157  0.2252 -0.1829 -0.1145
 8979SOL    HW138396   1.038   0.048   1.240  3.2806 -0.3332  0.2166
 8979SOL    HW238397   1.134   0.014   1.125 -0.2372  2.0674 -0.4705
 8980SOL     OW38398   1.333   3.318   9.007 -0.0480  0.3099  0.0581
 8980SOL    HW138399   1.337   3.242   9.066 -1.6985  0.2077  0.0253
 8980SOL    HW238400   1.296   3.285   8.925  1.6190 -3.2507  0.7229
 8981SOL     OW38401   3.497   4.374  14.516  0.9971  0.2261 -0.6202
 8981SOL    HW138402   3.502   4.285  14.481  2.3947  0.1246 -0.1587
 8981SOL    HW238403   3.432   4.370  14.586  0.8509 -0.2994 -0.7861
 8982SOL     OW38404   3.516   4.264  11.465  0.1799  0.0108 -0.6144
 8982SOL    HW138405   3.450   4.332  11.477  2.1691  2.0386 -1.0251
 8982SOL    HW238406   3.469   4.200  11.412  0.0064 -0.8789  0.6191
 8983SOL     OW38407   1.474   4.392  11.662 -0.0003  0.0870 -0.1279
 8983SOL    HW138408   1.380   4.375  11.660  0.2991 -1.8039  1.4937
 8983SOL    HW238409   1.506   4.315  11.614 -1.7433  0.8260 -2.4865
 8984SOL     OW38410   1.287   0.248   3.091  0.3396  0.0390 -0.3142
 8984SOL    HW138411   1.363   0.229   3.035 -0.5763  0.4586 -1.6798
 8984SOL    HW238412   1.222   0.194   3.046 -0.2681  0.1318  0.4528
 8985SOL     OW38413   3.569   1.649   3.141  0.4281  0.0964  0.3126
 8985SOL    HW138414   3.638   1.592   3.107  0.1966 -0.7660  1.3039
 8985SOL    HW238415   3.623   1.688   3.210  0.4098 -1.6886  1.3348
 8986SOL     OW38416   1.898   1.893  13.271 -0.5367 -0.3284 -0.4659
 8986SOL    HW138417   1.834   1.957  13.239 -1.5580 -0.8706  0.5338
 8986SOL    HW238418   1.976   1.947  13.288 -0.1900 -0.7548 -0.7039
 8987SOL     OW38419   3.582   4.018   8.993 -0.0121 -0.1120 -0.2824
 8987SOL    HW138420   3.589   4.041   9.085  0.6835 -0.2701 -0.2953
 8987SOL    HW238421   3.513   3.951   8.994 -0.7706  0.6616 -0.8739
 8988SOL     OW38422   1.760   3.426  11.486 -0.5916 -0.5921 -0.3811
 8988SOL    HW138423   1.741   3.424  11.393 -2.6544  0.0670  0.0242
 8988SOL    HW238424   1.735   3.518  11.492  0.2390 -0.3839 -0.0878
 8989SOL     OW38425   1.629   4.198   3.217  0.0363 -0.2519  0.6946
 8989SOL    HW138426   1.622   4.225   3.308 -0.5878 -2.7483  1.3866
 8989SOL    HW238427   1.581   4.262   3.163  3.3880 -0.3930 -2.4729
 8990SOL     OW38428   4.638   3.924   6.128  0.2571 -0.6071  0.0315
 8990SOL    HW138429   4.565   3.961   6.078  1.6507  0.9195 -0.8711
 8990SOL    HW238430   4.690   3.909   6.049 -0.9590 -2.8284 -0.3445
 8991SOL     OW38431   2.961   3.587   6.099  0.0014  0.0764 -0.6665
 8991SOL    HW138432   2.951   3.557   6.189  1.4076 -0.2234 -0.6159
 8991SOL    HW238433   2.919   3.511   6.057  1.9413 -0.1762 -2.1523
 8992SOL     OW38434   0.781   4.506   1.644 -0.4516  0.2663  0.3334
 8992SOL    HW138435   0.871   4.501   1.610 -0.4077 -3.8843  1.1005
 8992SOL    HW238436   0.743   4.429   1.603 -0.9965  0.4324  0.5367
 8993SOL     OW38437   0.656   0.393   8.008 -0.5273 -0.2670  0.4579
 8993SOL    HW138438   0.750   0.393   8.029 -0.7725 -1.6027  1.5572
 8993SOL    HW238439   0.659   0.332   7.935 -0.4608 -0.2086  0.4115
 8994SOL     OW38440   1.715   3.686   4.241 -0.3491  0.0755  0.1764
 8994SOL    HW138441   1.651   3.743   4.197  1.0233  1.4405 -0.0663
 8994SOL    HW238442   1.779   3.673   4.171  1.1066 -0.9328  1.6870
 8995SOL     OW38443   1.557   3.429  11.205  0.0917  0.1426 -0.0704
 8995SOL    HW138444   1.642   3.462  11.176 -0.7444  1.8143 -0.6200
 8995SOL    HW238445   1.515   3.511  11.230  0.9463 -0.2140  2.5051
 8996SOL     OW38446   2.719   0.276   8.997 -0.2637 -0.2685 -0.6005
 8996SOL    HW138447   2.628   0.252   9.009 -0.2301 -0.7625 -1.3477
 8996SOL    HW238448   2.713   0.371   9.008  1.7707 -0.3565  1.3274
 8997SOL     OW38449   3.374   3.838   6.673 -0.2897  0.3372 -0.2571
 8997SOL    HW138450   3.468   3.818   6.670  0.1277  2.4765 -1.2603
 8997SOL    HW238451   3.347   3.774   6.608  0.2255 -0.5644  0.4090
 8998SOL     OW38452   4.253   3.442   1.901  0.4202  0.3667 -0.0001
 8998SOL    HW138453   4.290   3.519   1.858  0.0709 -0.8559 -2.5029
 8998SOL    HW238454   4.263   3.379   1.830 -0.1243 -0.9542  1.0961
 8999SOL     OW38455   2.830   4.168   4.083 -0.5943  0.0145 -0.3401
 8999SOL    HW138456   2.736   4.164   4.100 -0.6554  2.9618 -0.0149
 8999SOL    HW238457   2.832   4.204   3.994  0.1462  1.5024  0.2801
 9000SOL     OW38458   4.575   1.920   8.317 -0.3583  0.0091  0.0673
 9000SOL    HW138459   4.664   1.947   8.342  0.0046 -1.0167 -0.1159
 9000SOL    HW238460   4.589   1.825   8.324  0.8336  0.3453  2.1549
 9001SOL     OW38461   1.543   2.596   6.855 -0.0797 -0.2973  0.6258
 9001SOL    HW138462   1.492   2.523   6.893  0.3453 -1.1236 -0.4061
 9001SOL    HW238463   1.607   2.552   6.799  0.9035 -0.6415  2.0140
 9002SOL     OW38464   1.854   2.426   5.920 -0.0153  0.0407  0.6382
 9002SOL    HW138465   1.863   2.489   5.848  0.4961  2.2872  2.6624
 9002SOL    HW238466   1.805   2.355   5.879 -0.0693  0.4343 -0.0003
 9003SOL     OW38467   1.399   3.655  11.319 -0.5348  0.3660  0.0664
 9003SOL    HW138468   1.381   3.610  11.402  0.6492 -2.1642 -1.0528
 9003SOL    HW238469   1.348   3.732  11.345 -0.7506 -0.4959  2.2568
 9004SOL     OW38470   1.392   3.532  11.868 -0.2533 -0.1708  0.0526
 9004SOL    HW138471   1.319   3.594  11.871 -1.4219 -1.3646 -3.5603
 9004SOL    HW238472   1.435   3.546  11.952  0.8112 -1.0827 -0.3415
 9005SOL     OW38473   2.457   1.008   2.753  0.0847 -0.1592  0.2134
 9005SOL    HW138474   2.534   1.048   2.713 -0.8981  0.9019 -0.6316
 9005SOL    HW238475   2.439   0.923   2.712  0.7886  0.9147 -2.3132
 9006SOL     OW38476   2.449   3.551   1.210 -0.1328 -0.0462  0.4932
 9006SOL    HW138477   2.404   3.467   1.203 -0.4556  0.1620  0.0987
 9006SOL    HW238478   2.527   3.528   1.160 -1.6775 -0.3637 -1.7231
 9007SOL     OW38479   4.240   0.727   3.720  0.5362  0.5152  0.1003
 9007SOL    HW138480   4.179   0.788   3.762 -0.0107  1.2113 -1.7246
 9007SOL    HW238481   4.200   0.715   3.634  2.2151 -1.4943 -0.3981
 9008SOL     OW38482   3.301   4.518   3.806  0.5569 -0.2579 -0.6370
 9008SOL    HW138483   3.325   4.455   3.874  1.4605 -0.6400 -1.3149
 9008SOL    HW238484   3.302   4.601   3.854  2.3194 -0.2170 -0.7421
 9009SOL     OW38485   0.685   3.712   0.954 -0.4305 -0.3061  0.1204
 9009SOL    HW138486   0.592   3.710   0.977 -0.6234  1.9561 -0.4879
 9009SOL    HW238487   0.696   3.804   0.928  2.3611 -0.3921  0.9675
 9010SOL     OW38488   4.658   3.641   6.026  0.0759 -0.0696  0.1958
 9010SOL    HW138489   4.566   3.664   6.042 -0.0049  0.6122 -1.2214
 9010SOL    HW238490   4.691   3.625   6.114  1.6797 -1.1898 -0.6234
 9011SOL     OW38491   0.749   1.826   8.747  0.0953 -0.5850  0.1473
 9011SOL    HW138492   0.739   1.879   8.826  1.0132  1.2988 -1.0098
 9011SOL    HW238493   0.838   1.851   8.724  0.1624 -1.0049 -0.0393
 9012SOL     OW38494   0.150   1.002   6.599 -0.0867 -0.2111 -0.1039
 9012SOL    HW138495   0.243   0.984   6.583  0.3276  1.7216  0.2232
 9012SOL    HW238496   0.125   1.077   6.545 -1.2665 -0.4036  0.1778
 9013SOL     OW38497   4.584   0.551   4.068 -0.4783 -0.2085  0.6110
 9013SOL    HW138498   4.531   0.539   4.146 -1.6717 -1.1523 -0.3472
 9013SOL    HW238499   4.516   0.530   4.004 -1.2656  2.6829  0.5338
 9014SOL     OW38500   3.629   4.267  10.893 -0.0386  0.2511 -0.2331
 9014SOL    HW138501   3.539   4.274  10.923  0.5591 -3.9541  2.5830
 9014SOL    HW238502   3.622   4.319  10.813  0.0015 -0.0740 -0.4523
 9015SOL     OW38503   4.051   0.483   6.427  0.5054 -0.4211 -0.1591
 9015SOL    HW138504   4.040   0.393   6.397 -0.7268  0.1586 -1.4776
 9015SOL    HW238505   3.979   0.519   6.375  1.0147  0.5094 -0.2229
 9016SOL     OW38506   4.590   2.258  14.638 -0.5006  0.1997 -0.1369
 9016SOL    HW138507   4.576   2.352  14.649 -1.6852 -0.3837  3.1499
 9016SOL    HW238508   4.649   2.240  14.711 -2.3724  0.5208  1.4508
 9017SOL     OW38509   4.001   4.422   5.861  0.1837  0.0476  0.1816
 9017SOL    HW138510   3.979   4.339   5.904 -1.3426 -0.6726 -1.9961
 9017SOL    HW238511   3.988   4.491   5.926  5.3918 -0.0537  1.2931
 9018SOL     OW38512   0.318   1.745  15.756  0.2659  0.0364  0.1940
 9018SOL    HW138513   0.405   1.706  15.754  0.1836 -0.1487  0.2084
 9018SOL    HW238514   0.274   1.662  15.778  0.5301 -0.6120 -1.7819
 9019SOL     OW38515   0.082   2.159   3.416 -0.0029 -0.1609 -0.3443
 9019SOL    HW138516   0.007   2.144   3.473 -0.3307 -0.3193 -0.8161
 9019SOL    HW238517   0.066   2.248   3.384 -0.0903  0.0566  0.2991
 9020SOL     OW38518   2.021   4.215  13.528 -0.1222 -0.3008  0.0983
 9020SOL    HW138519   1.939   4.248  13.491  0.6546  1.1401 -0.3549
 9020SOL    HW238520   1.988   4.130  13.555 -0.0828 -0.5985 -0.7746
 9021SOL     OW38521   0.619   3.471  13.399  0.2033  0.3616  0.1391
 9021SOL    HW138522   0.679   3.397  13.400  2.4576  2.1753 -0.6531
 9021SOL    HW238523   0.614   3.499  13.491 -0.6275  1.0459 -0.1122
 9022SOL     OW38524   1.302   1.293  15.619 -0.2659  0.0994 -0.3510
 9022SOL    HW138525   1.361   1.332  15.554  1.1707  0.9684  1.4606
 9022SOL    HW238526   1.228   1.271  15.563 -1.6266  1.7086  0.7960
 9023SOL     OW38527   3.833   0.813   9.424 -0.2747  0.4627 -0.2945
 9023SOL    HW138528   3.834   0.760   9.503  0.0548  1.3175  0.2840
 9023SOL    HW238529   3.891   0.885   9.449  2.0476 -0.5913 -2.5487
 9024SOL     OW38530   2.112   1.328   4.022  0.0195  0.0094  0.3889
 9024SOL    HW138531   2.115   1.419   3.992 -1.3912 -0.2820 -0.6248
 9024SOL    HW238532   2.016   1.320   4.026  0.0152  0.1501  0.6325
 9025SOL     OW38533   3.733   2.093   6.346  0.4636 -0.3231 -0.5412
 9025SOL    HW138534   3.746   2.064   6.437 -1.2080 -1.3308 -0.6229
 9025SOL    HW238535   3.641   2.120   6.351  0.3410 -0.4299 -2.2140
 9026SOL     OW38536   0.313   4.031   4.353  0.3640 -1.0568  0.4957
 9026SOL    HW138537   0.220   4.018   4.335  0.4592 -1.9735  0.6782
 9026SOL    HW238538   0.348   3.967   4.292  1.8357 -1.4041  1.7029
 9027SOL     OW38539   0.486   4.616   5.498  0.6008  0.3248  0.3480
 9027SOL    HW138540   0.528   4.537   5.465 -1.8815 -0.9925  0.3683
 9027SOL    HW238541   0.564   4.671   5.494  0.5363  0.3489 -0.5001
 9028SOL     OW38542   3.939   2.942   8.522  0.6140  0.5025 -0.4250
 9028SOL    HW138543   3.939   3.037   8.530  1.2217  0.4610  0.0683
 9028SOL    HW238544   3.973   2.939   8.433  1.9948  0.0214  0.1300
 9029SOL     OW38545   3.981   0.743   8.403  0.1083 -0.2995 -0.0063
 9029SOL    HW138546   3.963   0.837   8.405  2.0249  0.1092 -1.1912
 9029SOL    HW238547   3.966   0.728   8.496  0.4235  0.1640  0.1216
 9030SOL     OW38548   1.544   0.905   4.605 -0.3989  0.6728  0.4739
 9030SOL    HW138549   1.610   0.867   4.663  0.3884  0.6868 -0.4060
 9030SOL    HW238550   1.546   0.997   4.634  1.1715  0.1783  1.9513
 9031SOL     OW38551   4.651   3.356  15.802 -0.2783  0.0349 -0.5629
 9031SOL    HW138552   4.612   3.442  15.816 -0.1831 -0.0343  0.1307
 9031SOL    HW238553   4.579   3.301  15.770 -0.5153  0.1652 -0.2554
 9032SOL     OW38554   1.824   1.363   4.433  0.2286  0.1775  0.3494
 9032SOL    HW138555   1.856   1.407   4.354  0.0198 -0.8422 -0.3119
 9032SOL    HW238556   1.891   1.383   4.497 -2.0824  0.5763  2.6641
 9033SOL     OW38557   3.964   4.618   7.165  0.6760 -0.4261  0.0858
 9033SOL    HW138558   3.995   4.528   7.168 -1.4754 -1.2799 -2.7772
 9033SOL    HW238559   4.004   4.660   7.089 -3.3902  0.6517 -1.5094
 9034SOL     OW38560   0.135   0.941   4.095  0.0589 -0.1305  0.5338
 9034SOL    HW138561   0.124   0.875   4.027  0.1491  0.4558 -0.0445
 9034SOL    HW238562   0.224   0.914   4.120 -0.1458 -1.1020  0.1877
 9035SOL     OW38563   3.948   2.499   8.792  0.0779 -0.4742 -0.2092
 9035SOL    HW138564   3.900   2.562   8.846  0.6885  0.2387 -0.5091
 9035SOL    HW238565   3.988   2.555   8.726 -0.9978 -0.8252 -1.1598
 9036SOL     OW38566   1.347   3.644   5.025 -0.1495 -0.0607  0.6489
 9036SOL    HW138567   1.320   3.734   5.010  1.0818  0.1376 -0.3450
 9036SOL    HW238568   1.392   3.633   4.942  0.2530  2.6424  0.5427
 9037SOL     OW38569   3.284   3.671   8.544 -0.5220 -0.0525  0.8742
 9037SOL    HW138570   3.325   3.747   8.584  0.9228 -0.6757  0.5737
 9037SOL    HW238571   3.364   3.626   8.519 -0.0118  0.5021  1.5108
 9038SOL     OW38572   4.402   1.466  15.013 -0.1229 -0.1885  0.0320
 9038SOL    HW138573   4.491   1.457  14.981 -0.1427  0.8397 -0.3165
 9038SOL    HW238574   4.374   1.550  14.976  0.4590 -0.2155 -0.4659
 9039SOL     OW38575   4.507   0.355   3.705  0.4053  0.0141  0.0271
 9039SOL    HW138576   4.571   0.322   3.768  1.0175 -0.0849 -0.6535
 9039SOL    HW238577   4.446   0.404   3.761  1.9054 -0.4130  2.0514
 9040SOL     OW38578   0.017   0.589   8.992 -0.3605 -0.1338  0.2237
 9040SOL    HW138579   0.065   0.528   9.048  0.8461  0.5490 -0.0733
 9040SOL    HW238580   4.722   0.536   8.914 -0.5679  0.7881 -0.3439
 9041SOL     OW38581   1.270   3.753  12.827 -0.1108  0.4755  0.5202
 9041SOL    HW138582   1.343   3.751  12.888  2.1071  0.6721 -2.1556
 9041SOL    HW238583   1.201   3.704  12.874 -0.3624  0.8707  0.5654
 9042SOL     OW38584   3.278   0.590   5.983  0.4227 -0.0693  0.2188
 9042SOL    HW138585   3.291   0.495   5.978 -0.8863 -0.2933  1.0890
 9042SOL    HW238586   3.349   0.619   6.040 -0.0189 -0.8622  1.1737
 9043SOL     OW38587   1.435   0.189   3.338 -0.3373 -0.2740  0.4724
 9043SOL    HW138588   1.361   0.194   3.278 -0.3035 -1.1916  0.3555
 9043SOL    HW238589   1.476   0.114   3.295 -1.1410 -0.7107  0.4786
 9044SOL     OW38590   1.183   1.650  13.788  0.2475 -0.2723 -0.4866
 9044SOL    HW138591   1.206   1.654  13.881  1.9304  0.4891 -0.9287
 9044SOL    HW238592   1.221   1.732  13.756  0.3745  0.7315  2.2248
 9045SOL     OW38593   0.978   1.644  10.060 -0.4029  0.6658 -0.4603
 9045SOL    HW138594   1.070   1.657  10.085 -0.4133 -1.2994  0.6252
 9045SOL    HW238595   0.939   1.717  10.107  0.7904  0.8114  0.3121
 9046SOL     OW38596   3.678   2.080   7.778  0.0662  0.3075 -0.1337
 9046SOL    HW138597   3.686   2.148   7.845 -1.3433 -0.3442  0.6942
 9046SOL    HW238598   3.630   2.016   7.831  1.8017 -0.5134  0.4684
 9047SOL     OW38599   1.740   1.308  13.193  0.3234  0.5955 -0.2271
 9047SOL    HW138600   1.690   1.278  13.116 -0.0319  1.6265 -0.3866
 9047SOL    HW238601   1.816   1.346  13.148  0.2290  1.4432  0.3512
 9048SOL     OW38602   3.708   2.215   9.041 -0.2678  0.1403  0.5517
 9048SOL    HW138603   3.803   2.198   9.040 -0.5040 -1.0434 -0.7727
 9048SOL    HW238604   3.705   2.304   9.078 -0.5839  1.0489 -1.6817
 9049SOL     OW38605   1.220   3.609   5.768  0.1444 -0.1856  0.3108
 9049SOL    HW138606   1.309   3.645   5.762 -0.5262  1.0987 -1.5106
 9049SOL    HW238607   1.230   3.536   5.706 -2.3491 -1.1818  1.0863
 9050SOL     OW38608   3.933   2.234   8.310  0.2095 -0.3589 -0.0264
 9050SOL    HW138609   3.850   2.199   8.342 -1.1467  0.4244 -2.7253
 9050SOL    HW238610   3.908   2.248   8.219  1.8850 -2.8192 -0.8753
 9051SOL     OW38611   3.054   3.213   5.567  0.0454 -1.0447  0.4046
 9051SOL    HW138612   3.081   3.264   5.644 -1.1733  0.4457 -0.1614
 9051SOL    HW238613   3.136   3.185   5.526  0.0140 -2.4758  1.3115
 9052SOL     OW38614   3.409   4.653  11.910 -0.7037 -0.2627  0.0138
 9052SOL    HW138615   3.434   4.568  11.947 -1.0985  0.0083  0.9162
 9052SOL    HW238616   3.442   4.707  11.982 -2.3233  1.3513 -0.4693
 9053SOL     OW38617   3.744   0.501   9.303  0.5496  0.2100 -0.0687
 9053SOL    HW138618   3.702   0.502   9.217 -0.6576  2.3175  0.5365
 9053SOL    HW238619   3.794   0.421   9.315 -0.9468 -0.6114  0.6741
 9054SOL     OW38620   0.572   1.985   5.011 -0.3042 -0.2624  0.2920
 9054SOL    HW138621   0.574   1.935   5.092  2.4716 -0.0576  0.3552
 9054SOL    HW238622   0.501   2.044   5.034 -0.7037  0.4461 -2.7615
 9055SOL     OW38623   2.765   0.383   6.183 -0.1969 -0.2496  0.5296
 9055SOL    HW138624   2.857   0.408   6.188  0.0146 -1.1448  1.1143
 9055SOL    HW238625   2.733   0.393   6.272 -0.5696  0.1235  0.3548
 9056SOL     OW38626   0.610   2.890  12.005  0.2607 -0.0687 -0.1024
 9056SOL    HW138627   0.667   2.908  12.080 -0.1359 -1.0031  0.4233
 9056SOL    HW238628   0.554   2.819  12.037  1.5385 -1.0717 -0.0975
 9057SOL     OW38629   4.417   1.385   6.582 -0.4061 -0.7549  0.5166
 9057SOL    HW138630   4.497   1.334   6.566  0.5215  1.3650 -1.5812
 9057SOL    HW238631   4.449   1.465   6.541 -0.4391 -0.2647  1.4736
 9058SOL     OW38632   3.343   2.716   4.268 -0.1741  0.6341  0.1616
 9058SOL    HW138633   3.361   2.759   4.352  0.1244  1.2448 -0.2156
 9058SOL    HW238634   3.327   2.787   4.207  0.1787  0.0300 -0.6259
 9059SOL     OW38635   3.632   0.764  10.540  0.0040 -0.2419 -0.9605
 9059SOL    HW138636   3.586   0.755  10.623 -2.0506  1.4709 -1.9275
 9059SOL    HW238637   3.677   0.849  10.541  1.9233 -1.2787 -0.4369
 9060SOL     OW38638   1.715   4.000   5.039 -0.2218  0.0701  0.0344
 9060SOL    HW138639   1.694   4.087   5.005  0.7055 -1.1279 -3.6393
 9060SOL    HW238640   1.771   3.971   4.966  2.2701  0.9443  1.5967
 9061SOL     OW38641   1.833   0.356   8.447 -0.1735  0.3033  0.4472
 9061SOL    HW138642   1.911   0.339   8.499  1.0449  0.1889 -1.4166
 9061SOL    HW238643   1.788   0.424   8.496 -0.1152  0.4453  0.3039
 9062SOL     OW38644   4.589   3.548   4.473  0.0835 -0.8338  0.5976
 9062SOL    HW138645   4.649   3.568   4.400  0.5436  1.3994  1.6004
 9062SOL    HW238646   4.650   3.537   4.546  0.5718 -0.0941  0.3029
 9063SOL     OW38647   3.145   2.154   5.336 -0.2365  0.1666 -0.3691
 9063SOL    HW138648   3.216   2.215   5.352 -0.5548  0.3114  0.5040
 9063SOL    HW238649   3.187   2.075   5.369 -0.8213 -0.8223 -1.9328
 9064SOL     OW38650   1.803   3.160  11.357 -0.6745 -0.7622 -0.2591
 9064SOL    HW138651   1.765   3.218  11.423 -0.0071  0.2414 -0.7647
 9064SOL    HW238652   1.727   3.155  11.299  0.4486  1.1121 -1.8889
 9065SOL     OW38653   0.559   2.949   3.194  0.1575  0.5283 -0.3548
 9065SOL    HW138654   0.522   2.894   3.125  1.0389 -1.5771  0.8211
 9065SOL    HW238655   0.491   3.015   3.193 -0.2908  0.0918  1.0049
 9066SOL     OW38656   2.792   0.761   2.687 -0.3173 -0.0503 -0.0365
 9066SOL    HW138657   2.835   0.679   2.666 -1.6114 -0.3069 -1.6108
 9066SOL    HW238658   2.844   0.828   2.643 -0.4282  2.0859  3.0847
 9067SOL     OW38659   2.544   0.605   2.297  0.4394  0.5928 -0.0060
 9067SOL    HW138660   2.605   0.667   2.257  1.4715 -1.4636 -1.6300
 9067SOL    HW238661   2.578   0.518   2.276  0.1078  0.6727 -0.8888
 9068SOL     OW38662   4.386   0.272  10.708  0.2941 -0.0529 -0.1214
 9068SOL    HW138663   4.314   0.211  10.693  1.3439 -1.7329  1.7635
 9068SOL    HW238664   4.344   0.356  10.687  0.5850  0.3579  0.9373
 9069SOL     OW38665   3.624   4.641   6.778 -0.2093 -0.1722 -0.2469
 9069SOL    HW138666   3.629   0.004   6.736  0.1621 -0.4294 -0.7335
 9069SOL    HW238667   3.569   4.661   6.853  1.2391 -2.3500  1.4299
 9070SOL     OW38668   0.678   4.223   9.194  0.2710  0.1515 -0.0881
 9070SOL    HW138669   0.707   4.159   9.259  4.1053  0.7575 -1.1990
 9070SOL    HW238670   0.687   4.308   9.237 -0.5693  1.4356 -2.4595
 9071SOL     OW38671   0.129   3.672   7.214  0.4671 -0.0046 -0.0981
 9071SOL    HW138672   0.056   3.690   7.273  0.8002  0.6515  0.1133
 9071SOL    HW238673   0.177   3.755   7.221 -2.5769  1.6176  1.4703
 9072SOL     OW38674   4.520   3.419   9.355 -0.3048  0.8534 -0.1195
 9072SOL    HW138675   4.469   3.347   9.317  1.4291  0.9730 -2.6799
 9072SOL    HW238676   4.611   3.395   9.336 -0.9431 -2.8396  1.3959
 9073SOL     OW38677   1.295   2.726   5.165 -0.3371 -0.1503  0.1180
 9073SOL    HW138678   1.201   2.721   5.149 -0.4434 -2.2788  1.3651
 9073SOL    HW238679   1.334   2.800   5.118  0.9246 -0.5209  0.5664
 9074SOL     OW38680   0.120   0.274   3.011 -0.4613 -0.6468  0.1648
 9074SOL    HW138681   0.135   0.366   3.033 -1.7222 -0.1885 -0.9301
 9074SOL    HW238682   0.039   0.256   3.058 -0.6980 -0.7517 -0.2817
 9075SOL     OW38683   2.308   0.393  10.736  0.3901  0.1788  0.1432
 9075SOL    HW138684   2.344   0.482  10.736 -0.6972  0.6054 -2.9931
 9075SOL    HW238685   2.282   0.380  10.827 -0.6534  0.2552 -0.1460
 9076SOL     OW38686   0.424   2.745   8.966  0.1982  0.2957  0.1540
 9076SOL    HW138687   0.486   2.811   8.997 -0.7384  1.9001 -1.3856
 9076SOL    HW238688   0.429   2.771   8.874  1.2761 -0.8703 -0.1035
 9077SOL     OW38689   2.736   1.195   2.174 -0.7850  0.3716 -0.1764
 9077SOL    HW138690   2.773   1.145   2.102  0.6403 -0.9261  1.4433
 9077SOL    HW238691   2.671   1.130   2.202  0.2572 -0.8209 -0.5494
 9078SOL     OW38692   3.411   4.177   6.052  0.7818  0.1440  0.0118
 9078SOL    HW138693   3.477   4.246   6.039 -1.8550  2.2704 -2.1607
 9078SOL    HW238694   3.362   4.215   6.125  2.2015 -0.1473  1.1206
 9079SOL     OW38695   0.512   4.446   5.723 -0.1039 -0.7399 -0.5366
 9079SOL    HW138696   0.427   4.443   5.679 -0.0781 -0.3984 -0.6084
 9079SOL    HW238697   0.540   4.360   5.692  0.7789  0.2407 -2.4706
 9080SOL     OW38698   2.625   0.302   0.086 -0.0884  0.2410  0.0951
 9080SOL    HW138699   2.582   0.366   0.142 -2.6345 -0.7584 -0.6976
 9080SOL    HW238700   2.688   0.349   0.032 -0.6894  2.4687  1.3275
 9081SOL     OW38701   1.061   2.064   4.121 -0.0155  0.4833 -0.4815
 9081SOL    HW138702   1.104   2.138   4.163  1.8087 -0.4517 -0.6791
 9081SOL    HW238703   1.037   2.018   4.202  1.8423  1.8305  0.8266
 9082SOL     OW38704   1.150   2.257   8.145  0.3504 -0.2366 -0.3977
 9082SOL    HW138705   1.067   2.212   8.126  0.5577 -0.8938  0.2683
 9082SOL    HW238706   1.136   2.332   8.203 -0.6698  0.9642 -2.1844
 9083SOL     OW38707   1.008   1.899  11.457  0.1263  0.0586 -0.5651
 9083SOL    HW138708   0.974   1.988  11.456 -1.1532 -0.4120 -0.2883
 9083SOL    HW238709   1.057   1.912  11.539 -2.1235  1.6640  0.5129
 9084SOL     OW38710   4.196   4.102   9.393 -0.4222  0.0737 -0.2247
 9084SOL    HW138711   4.185   4.107   9.488 -0.4039  2.7012 -0.3403
 9084SOL    HW238712   4.169   4.191   9.370 -1.6549  0.5283  2.9645
 9085SOL     OW38713   1.305   2.330   9.605 -0.6498 -0.2722 -0.5532
 9085SOL    HW138714   1.289   2.236   9.601 -0.2004 -0.4631  1.7539
 9085SOL    HW238715   1.264   2.357   9.688 -2.3920 -1.2305 -1.1095
 9086SOL     OW38716   2.511   3.504  16.824 -0.2080 -0.0886  0.3751
 9086SOL    HW138717   2.532   3.596  16.837  0.7684 -0.3037  0.3350
 9086SOL    HW238718   2.601   3.476  16.807 -0.2232 -0.7552  1.4268
 9087SOL     OW38719   0.889   1.655  13.896 -0.2845  0.4311 -0.4310
 9087SOL    HW138720   0.907   1.613  13.812  0.4963  1.2019 -0.6579
 9087SOL    HW238721   0.923   1.593  13.961 -2.0087 -2.4314 -2.2961
 9088SOL     OW38722   2.502   0.984  11.802 -1.0380 -0.0349  0.1726
 9088SOL    HW138723   2.563   1.020  11.737  0.2437 -2.1063  0.2446
 9088SOL    HW238724   2.547   0.903  11.826 -1.0423 -0.4058 -1.0769
 9089SOL     OW38725   2.884   3.641   2.810  0.8232  0.0575  0.2477
 9089SOL    HW138726   2.927   3.679   2.733  1.9149  0.8326  1.2296
 9089SOL    HW238727   2.813   3.593   2.767 -0.0778  0.3720  1.3856
 9090SOL     OW38728   1.448   4.582  15.268  0.1445  0.7415  0.1066
 9090SOL    HW138729   1.459   4.675  15.289  0.6285  0.0445  2.8749
 9090SOL    HW238730   1.374   4.576  15.207  0.6571 -0.1721 -0.4205
 9091SOL     OW38731   4.331   2.006  10.350  0.5791  0.1068  0.3901
 9091SOL    HW138732   4.335   1.992  10.445  0.5858 -1.0797  0.2216
 9091SOL    HW238733   4.390   2.081  10.346 -0.0286  0.3672 -3.9084
 9092SOL     OW38734   1.158   2.911  10.657  0.4751 -0.3194 -0.0901
 9092SOL    HW138735   1.106   2.873  10.587 -0.0576  1.2486 -0.5424
 9092SOL    HW238736   1.082   2.946  10.704  0.0201 -0.6271 -0.6001
 9093SOL     OW38737   4.641   3.049   2.008  0.2767  0.6915  0.1336
 9093SOL    HW138738   4.706   3.064   2.077 -0.7742  0.3627  1.1979
 9093SOL    HW238739   4.666   2.963   1.972  0.6090 -0.4791  3.1916
 9094SOL     OW38740   4.168   3.381  12.035  0.6435 -0.3167  0.0803
 9094SOL    HW138741   4.079   3.373  12.069  0.4166  2.8615  0.2057
 9094SOL    HW238742   4.225   3.408  12.107 -0.1947  2.1256 -0.1930
 9095SOL     OW38743   4.660   0.558   6.640  0.2203  0.0115  0.4615
 9095SOL    HW138744   4.683   0.517   6.557 -0.2544  1.5288 -0.4318
 9095SOL    HW238745   0.022   0.536   6.677  0.2995 -0.6770 -0.1163
 9096SOL     OW38746   2.289   0.436  12.462 -0.2995  0.1645 -0.5205
 9096SOL    HW138747   2.263   0.523  12.431  0.0866 -0.0267 -1.4064
 9096SOL    HW238748   2.374   0.452  12.504 -0.8764 -0.3218  0.8291
 9097SOL     OW38749   3.964   1.977   5.058  0.2810  0.2614 -0.0661
 9097SOL    HW138750   4.025   1.956   4.986  1.0907  0.6783  0.5022
 9097SOL    HW238751   3.966   2.072   5.061  1.6913  0.2250  0.2090
 9098SOL     OW38752   1.312   0.349   7.930 -0.4660  0.0454 -0.0704
 9098SOL    HW138753   1.260   0.377   8.005 -0.1200 -1.3723  0.6904
 9098SOL    HW238754   1.395   0.327   7.973 -0.2801 -0.3653 -0.6311
 9099SOL     OW38755   3.571   4.323   3.018  0.1893  0.0045 -0.1548
 9099SOL    HW138756   3.502   4.378   2.981 -1.1989  1.1919  4.2373
 9099SOL    HW238757   3.582   4.261   2.945  1.1351  1.1580 -1.0125
 9100SOL     OW38758   2.962   1.730   8.615 -0.1041 -0.1649  0.2816
 9100SOL    HW138759   2.923   1.734   8.527 -1.5896 -0.7881  0.9183
 9100SOL    HW238760   2.893   1.769   8.667  1.2644  1.8409  0.6309
 9101SOL     OW38761   2.961   3.124   6.135  0.5079 -0.2456 -0.0128
 9101SOL    HW138762   3.031   3.060   6.124  4.1072  4.0149 -1.5757
 9101SOL    HW238763   2.993   3.182   6.204  2.8491  0.1930 -1.4701
 9102SOL     OW38764   1.512   1.494   3.942  0.0740  0.1033  0.1026
 9102SOL    HW138765   1.565   1.454   3.873 -0.3236  0.3432 -0.3378
 9102SOL    HW238766   1.427   1.486   3.899 -0.2787  0.1823  0.7843
 9103SOL     OW38767   3.843   1.923   3.920  0.2796 -0.3429 -0.5437
 9103SOL    HW138768   3.848   2.019   3.920  2.2122 -0.4291 -1.1160
 9103SOL    HW238769   3.767   1.907   3.975  0.8943 -0.6024  0.2457
 9104SOL     OW38770   0.169   1.885   9.426  0.3028  0.1750  0.3313
 9104SOL    HW138771   0.082   1.854   9.402  0.8685 -0.3647 -1.0522
 9104SOL    HW238772   0.216   1.836   9.358 -1.7421 -1.7173  0.2648
 9105SOL     OW38773   0.949   3.720   1.009 -0.3803 -0.1949  0.2965
 9105SOL    HW138774   0.962   3.676   1.093 -1.9299 -0.7394  0.2399
 9105SOL    HW238775   0.855   3.712   0.992 -0.2609 -2.1679  0.5691
 9106SOL     OW38776   4.151   4.414   8.967 -0.2990  0.0409  0.2612
 9106SOL    HW138777   4.223   4.432   9.027 -0.3461 -1.1142  0.6613
 9106SOL    HW238778   4.150   4.492   8.912  2.8918 -0.1167  0.0062
 9107SOL     OW38779   1.842   4.424   8.506  0.5710  0.5972  0.1356
 9107SOL    HW138780   1.902   4.497   8.525 -0.7635  1.7007  0.1228
 9107SOL    HW238781   1.857   4.370   8.584 -2.0943 -0.4048 -0.0641
 9108SOL     OW38782   4.287   0.663   3.388 -0.1443 -0.6053  0.1847
 9108SOL    HW138783   4.206   0.645   3.436  0.6196 -0.7802  1.4012
 9108SOL    HW238784   4.275   0.676   3.294 -1.3364 -1.1012  0.2654
 9109SOL     OW38785   3.122   4.678   7.072  0.1101  0.2738  0.5241
 9109SOL    HW138786   3.132   4.701   6.980  1.2497  0.0320  0.5953
 9109SOL    HW238787   3.214   4.659   7.091  0.5728 -0.6303 -2.6596
 9110SOL     OW38788   1.028   0.747  17.041 -0.3018 -0.1615  0.2834
 9110SOL    HW138789   0.978   0.807  17.096 -0.7060 -0.4992  0.2874
 9110SOL    HW238790   1.114   0.771  17.076  0.6701 -1.2312 -1.3745
 9111SOL     OW38791   1.707   3.824   2.206  0.1613  0.4993 -0.0302
 9111SOL    HW138792   1.700   3.737   2.246  0.9479  0.5705  0.2734
 9111SOL    HW238793   1.800   3.845   2.200  0.5399 -1.3349 -0.6209
 9112SOL     OW38794   1.086   0.188  12.272  0.0361  0.0178  0.6370
 9112SOL    HW138795   1.089   0.205  12.178 -0.8442  0.5592  0.7152
 9112SOL    HW238796   1.179   0.187  12.296  0.3533  0.5009 -0.5858
 9113SOL     OW38797   0.238   2.341   5.881  0.2055  0.2316 -0.2653
 9113SOL    HW138798   0.264   2.307   5.967 -1.6896 -0.1258  0.1858
 9113SOL    HW238799   0.255   2.266   5.824 -1.1555 -0.9168  0.8341
 9114SOL     OW38800   3.237   2.194   1.463 -0.4797 -0.6867  0.6440
 9114SOL    HW138801   3.314   2.224   1.415 -2.5770  0.9150 -1.7030
 9114SOL    HW238802   3.284   2.172   1.543 -1.7217 -1.3516  1.1898
 9115SOL     OW38803   2.626   2.100   9.375  0.7419  0.6232 -0.0284
 9115SOL    HW138804   2.644   2.007   9.363  1.8100  1.1059 -2.3197
 9115SOL    HW238805   2.530   2.106   9.375  0.6824 -0.4066  1.4552
 9116SOL     OW38806   3.151   4.368   0.182 -0.7386  0.5867  0.0611
 9116SOL    HW138807   3.068   4.333   0.148  0.1311 -0.2153 -1.2347
 9116SOL    HW238808   3.196   4.286   0.199  0.1010  1.1023  0.3129
 9117SOL     OW38809   0.844   4.287   4.612  0.1689 -0.1144  0.3635
 9117SOL    HW138810   0.925   4.338   4.604 -0.5544  0.9991  0.1630
 9117SOL    HW238811   0.877   4.199   4.591 -1.4209 -1.1163  2.1015
 9118SOL     OW38812   1.596   1.169   5.029 -0.4241 -0.6050 -0.3987
 9118SOL    HW138813   1.661   1.230   5.066 -0.1141 -1.4279  0.4015
 9118SOL    HW238814   1.518   1.222   5.044  0.5731  1.1037 -1.2615
 9119SOL     OW38815   1.544   3.799   5.466 -0.1583 -0.1367 -0.2213
 9119SOL    HW138816   1.518   3.784   5.375 -0.6825 -1.0415  0.0775
 9119SOL    HW238817   1.582   3.715   5.492  1.3576  0.3836 -0.7486
 9120SOL     OW38818   1.752   3.356   2.819 -0.1426 -0.4653  0.6566
 9120SOL    HW138819   1.791   3.280   2.776  1.6947  0.4157  0.7883
 9120SOL    HW238820   1.821   3.378   2.882  0.5879 -2.8005  0.6784
 9121SOL     OW38821   3.214   3.589  11.452  0.3051  0.1803  0.0147
 9121SOL    HW138822   3.144   3.635  11.407 -0.5121  1.2631  2.4071
 9121SOL    HW238823   3.172   3.504  11.465 -0.8189  0.7494  0.1125
 9122SOL     OW38824   2.240   0.231  10.537  0.1634 -0.1259  0.7918
 9122SOL    HW138825   2.206   0.273  10.458 -0.3144  0.3396  1.2422
 9122SOL    HW238826   2.255   0.296  10.605  2.2871 -0.1817  0.3760
 9123SOL     OW38827   3.813   4.311   5.583 -0.3526  0.9191 -0.3752
 9123SOL    HW138828   3.908   4.322   5.579 -0.2509  0.1562 -0.0438
 9123SOL    HW238829   3.788   4.381   5.523  0.7503  1.0190 -0.7171
 9124SOL     OW38830   2.886   4.208   9.986  0.2800 -0.2394 -0.1182
 9124SOL    HW138831   2.940   4.281   9.956  2.5113 -2.1170 -0.6600
 9124SOL    HW238832   2.954   4.141   9.986 -0.4792 -1.0338  3.2736
 9125SOL     OW38833   0.256   3.649   2.085  0.3285  0.1777  0.2477
 9125SOL    HW138834   0.346   3.670   2.058 -0.6520  2.0255 -1.5986
 9125SOL    HW238835   0.274   3.669   2.177  1.6466  2.2561 -0.4545
 9126SOL     OW38836   3.641   1.542   3.421  0.0431  0.3416 -0.4436
 9126SOL    HW138837   3.580   1.511   3.355  0.6468  0.9148 -1.2754
 9126SOL    HW238838   3.598   1.616   3.463 -2.6223 -1.0992 -0.6494
 9127SOL     OW38839   1.076   3.986   8.464 -0.1627  0.0567  0.0686
 9127SOL    HW138840   1.067   3.923   8.392 -0.7680  1.8219 -1.3919
 9127SOL    HW238841   1.152   4.034   8.432 -1.4610  1.8284 -0.3807
 9128SOL     OW38842   3.668   3.607  17.508 -0.2254 -0.3722 -0.3198
 9128SOL    HW138843   3.609   3.678  17.483  0.4833  0.6089  0.8288
 9128SOL    HW238844   3.695   3.632  17.596  1.6523 -1.5542 -0.5672
 9129SOL     OW38845   1.771   3.861   3.613  0.1074  0.5155  0.2370
 9129SOL    HW138846   1.794   3.872   3.520  1.9693 -0.9075  0.5121
 9129SOL    HW238847   1.678   3.841   3.601  0.0478  1.2173 -0.4707
 9130SOL     OW38848   1.201   0.024   1.965  0.1546 -0.2115  0.0028
 9130SOL    HW138849   1.149   0.077   2.026  0.1654 -0.4835  0.2481
 9130SOL    HW238850   1.197   4.662   2.009  1.1329 -0.3623 -0.2169
 9131SOL     OW38851   3.539   3.561   5.651 -0.3803 -0.5111 -0.8295
 9131SOL    HW138852   3.525   3.614   5.729  1.4174 -0.4639 -0.5447
 9131SOL    HW238853   3.463   3.504   5.665 -1.1955  0.1066 -2.7871
 9132SOL     OW38854   4.069   2.616   5.700  0.4991 -0.2112 -0.2346
 9132SOL    HW138855   3.979   2.584   5.696  0.5181 -0.2927 -0.0076
 9132SOL    HW238856   4.121   2.536   5.712  1.8170  0.8233  1.0146
 9133SOL     OW38857   0.098   3.482   4.661 -0.3032  0.4096 -0.5745
 9133SOL    HW138858   0.134   3.411   4.607 -1.7410  0.2494 -1.3191
 9133SOL    HW238859   0.179   3.533   4.667  0.0088 -0.2480  0.7087
 9134SOL     OW38860   2.418   3.540   9.373  0.2823 -0.3224  0.3323
 9134SOL    HW138861   2.393   3.483   9.301  0.8987  0.7445 -0.7111
 9134SOL    HW238862   2.355   3.509   9.438  2.5008 -0.5131  2.3918
 9135SOL     OW38863   4.134   0.248  12.495  0.3501  0.2175 -0.9940
 9135SOL    HW138864   4.123   0.188  12.569  0.3424  1.9450  0.4095
 9135SOL    HW238865   4.148   0.178  12.431 -0.6723  0.4323 -1.4439
 9136SOL     OW38866   4.143   0.171  16.223 -0.7353 -0.6643  0.1409
 9136SOL    HW138867   4.123   0.162  16.316 -2.2108 -1.2546 -0.2331
 9136SOL    HW238868   4.086   0.107  16.179 -0.9642 -0.4649  0.1470
 9137SOL     OW38869   2.116   4.341   0.017 -0.0951 -0.0240 -0.2299
 9137SOL    HW138870   2.053   4.270   0.025 -1.2583  0.7791 -2.2794
 9137SOL    HW238871   2.090   4.401   0.087 -3.0557  0.5749 -1.8357
 9138SOL     OW38872   0.314   0.317   3.736 -0.0874 -0.0122 -0.0938
 9138SOL    HW138873   0.323   0.387   3.670 -3.1558 -1.0292 -1.6130
 9138SOL    HW238874   0.259   0.251   3.694 -1.8598  0.9921  0.6144
 9139SOL     OW38875   1.339   2.951  13.381 -0.6468 -0.1776  0.2568
 9139SOL    HW138876   1.369   2.961  13.471  0.5495  0.3749 -0.2108
 9139SOL    HW238877   1.395   2.878  13.356  1.3397  1.4659 -0.0349
 9140SOL     OW38878   2.522   4.562  15.967  0.5911  0.1415  0.2385
 9140SOL    HW138879   2.495   4.653  15.967  1.5027  0.4103  0.4929
 9140SOL    HW238880   2.604   4.562  16.017  1.1494 -2.5496 -0.6823
 9141SOL     OW38881   0.928   0.270  14.717  0.6622 -0.5986 -0.3296
 9141SOL    HW138882   1.016   0.286  14.751  0.6506 -0.3546 -0.4167
 9141SOL    HW238883   0.891   0.232  14.796 -0.6333  0.6023 -0.3597
 9142SOL     OW38884   0.609   1.773   3.314  0.0974 -0.3247 -0.9489
 9142SOL    HW138885   0.657   1.692   3.294  0.6568 -0.0926 -0.5428
 9142SOL    HW238886   0.569   1.750   3.398 -0.4118  0.2455 -1.0396
 9143SOL     OW38887   1.492   3.616   3.841 -0.9315  0.0525 -0.1378
 9143SOL    HW138888   1.431   3.650   3.907  0.0815  0.5376  0.5400
 9143SOL    HW238889   1.465   3.673   3.769  0.0328  0.6255 -0.0338
 9144SOL     OW38890   4.559   3.911   3.753  0.2198  0.4207 -0.0123
 9144SOL    HW138891   4.489   3.911   3.688 -0.6601  1.7777  0.9392
 9144SOL    HW238892   4.571   4.005   3.765 -2.0483  0.9442 -1.7806
 9145SOL     OW38893   4.501   4.337   2.299  0.2311  0.3528  0.2920
 9145SOL    HW138894   4.534   4.310   2.385  0.8063  1.0684  0.2936
 9145SOL    HW238895   4.505   4.432   2.298  0.4703  0.3287 -1.4403
 9146SOL     OW38896   0.443   2.614  16.970  0.1863 -0.3541  0.4165
 9146SOL    HW138897   0.506   2.620  17.042 -0.0325  1.1370  0.4932
 9146SOL    HW238898   0.363   2.629  17.021 -0.5091 -0.0682 -0.7693
 9147SOL     OW38899   3.667   0.171   9.702 -1.0412 -0.5524  0.8726
 9147SOL    HW138900   3.607   0.237   9.738 -1.1108  1.2510 -2.5322
 9147SOL    HW238901   3.745   0.227   9.700 -0.1795 -1.8452 -1.3966
 9148SOL     OW38902   0.017   0.626  12.792  0.5421 -0.2565 -0.1330
 9148SOL    HW138903   4.661   0.603  12.840  1.0173  1.2794  1.3802
 9148SOL    HW238904   0.000   0.575  12.712  0.6169  1.2848 -1.1331
 9149SOL     OW38905   1.978   0.967  10.620  0.0420 -0.3022 -0.4432
 9149SOL    HW138906   2.067   0.962  10.586 -0.6028 -2.4658 -1.8047
 9149SOL    HW238907   1.985   0.921  10.704  1.9369 -1.0393 -0.9998
 9150SOL     OW38908   4.540   1.259   9.092  0.5196 -0.7628 -0.2962
 9150SOL    HW138909   4.537   1.205   9.171  0.1540 -1.3612 -0.7233
 9150SOL    HW238910   4.518   1.349   9.117 -1.0187 -1.2956  0.2141
 9151SOL     OW38911   2.710   1.612   8.941 -0.0026  0.1827 -0.1467
 9151SOL    HW138912   2.622   1.645   8.923  0.0425  0.4417  0.1064
 9151SOL    HW238913   2.741   1.682   8.998 -3.7477  2.5879 -1.0891
 9152SOL     OW38914   2.345   4.193   6.563  0.6490  0.2498 -0.4293
 9152SOL    HW138915   2.302   4.246   6.496 -1.5420 -0.6239  0.2574
 9152SOL    HW238916   2.357   4.268   6.621 -1.3968 -0.6855  1.2533
 9153SOL     OW38917   2.838   2.788  11.602 -0.0897  0.0847 -0.5854
 9153SOL    HW138918   2.926   2.774  11.568 -0.1092  0.0367 -0.6171
 9153SOL    HW238919   2.866   2.837  11.679 -0.2446 -1.0889  0.2344
 9154SOL     OW38920   3.840   4.579   8.995  0.1035  0.0366 -0.0318
 9154SOL    HW138921   3.877   4.658   8.957  1.3702 -0.9093 -0.7589
 9154SOL    HW238922   3.808   4.618   9.076 -0.8329 -0.2341 -0.2687
 9155SOL     OW38923   3.123   0.946  10.094 -0.0573 -0.5375  0.1749
 9155SOL    HW138924   3.128   0.870  10.151 -1.0016 -1.3705 -0.8668
 9155SOL    HW238925   3.066   1.008  10.140 -0.4698  0.5027 -1.7292
 9156SOL     OW38926   1.913   0.379   8.824 -0.5095  0.0837  0.3176
 9156SOL    HW138927   1.983   0.368   8.760 -0.8729 -0.5206  0.0164
 9156SOL    HW238928   1.832   0.355   8.779 -0.8460 -0.2137  1.0879
 9157SOL     OW38929   3.965   3.593   8.490 -0.1143  0.1905  0.6415
 9157SOL    HW138930   4.021   3.661   8.453 -2.7938  2.6635  1.1460
 9157SOL    HW238931   3.917   3.640   8.557 -1.1017  0.7955 -0.4817
 9158SOL     OW38932   3.810   3.799  12.935  0.0847  0.0524  0.0463
 9158SOL    HW138933   3.865   3.722  12.926 -0.9983 -0.9512  2.0158
 9158SOL    HW238934   3.889   3.854  12.939 -0.1457  0.5597 -2.5281
 9159SOL     OW38935   4.673   0.010  10.894 -0.0599 -0.4325  0.1932
 9159SOL    HW138936   4.699   4.643  10.875 -0.7199 -0.9905  1.9462
 9159SOL    HW238937   4.578   4.723  10.898 -0.1208  0.6498  1.6099
 9160SOL     OW38938   2.619   0.834   7.833  0.4068 -0.2601  1.1818
 9160SOL    HW138939   2.705   0.831   7.791 -0.9334 -0.6467 -1.5359
 9160SOL    HW238940   2.641   0.846   7.926  0.6126 -1.8557  1.3445
 9161SOL     OW38941   2.865   1.875   9.381  0.0576  0.2910 -0.5856
 9161SOL    HW138942   2.923   1.861   9.456  0.4080 -0.4492 -0.9850
 9161SOL    HW238943   2.917   1.915   9.311 -0.9916  0.3130 -1.3570
 9162SOL     OW38944   3.735   2.836  13.540 -0.1045 -0.0511  0.0236
 9162SOL    HW138945   3.677   2.853  13.614  0.4855 -0.4401  0.5748
 9162SOL    HW238946   3.665   2.823  13.475 -2.4155 -0.2789  2.5859
 9163SOL     OW38947   4.500   2.611   8.132 -0.3886 -0.0416  0.4806
 9163SOL    HW138948   4.412   2.592   8.163  0.4113 -2.6922  1.1796
 9163SOL    HW238949   4.545   2.542   8.182  0.1365 -1.3406 -1.7792
 9164SOL     OW38950   0.212   1.483   4.368 -0.4669  0.1187  0.6464
 9164SOL    HW138951   0.239   1.408   4.315 -0.8871  0.7438 -0.4365
 9164SOL    HW238952   0.151   1.437   4.426 -1.1196  1.5539  1.0931
 9165SOL     OW38953   0.640   1.396   0.583  0.2142  0.3129 -0.1906
 9165SOL    HW138954   0.654   1.317   0.636 -1.0444 -1.7532 -2.9444
 9165SOL    HW238955   0.595   1.345   0.516  1.8821 -2.4353  0.7375
 9166SOL     OW38956   1.902   4.220  17.026 -0.0810 -0.3987  0.4759
 9166SOL    HW138957   1.962   4.287  16.992 -0.3836 -0.6417 -0.5403
 9166SOL    HW238958   1.917   4.150  16.962  1.0571 -1.2399  1.6689
 9167SOL     OW38959   1.481   1.597   8.736 -0.4205  0.3413 -0.1357
 9167SOL    HW138960   1.456   1.533   8.669 -1.3067  0.1484  0.3743
 9167SOL    HW238961   1.570   1.568   8.753 -0.2991  0.5475 -0.4241
 9168SOL     OW38962   2.545   2.235  15.444 -0.3338  0.9423  0.2515
 9168SOL    HW138963   2.629   2.269  15.474  0.4230  0.2183 -1.0951
 9168SOL    HW238964   2.553   2.231  15.349  1.6285  2.2964  0.3710
 9169SOL     OW38965   1.886   0.964   4.571 -0.1461 -0.1419  0.0147
 9169SOL    HW138966   1.899   0.876   4.535  2.4578 -0.1241  0.8394
 9169SOL    HW238967   1.864   1.020   4.497  0.4808  0.9575  0.6500
 9170SOL     OW38968   2.021   3.332  15.587 -0.3808 -0.4874 -0.1553
 9170SOL    HW138969   2.113   3.306  15.596 -0.6461 -1.5000 -0.3558
 9170SOL    HW238970   2.014   3.416  15.631 -1.3574 -0.3800 -0.5081
 9171SOL     OW38971   2.344   0.238   5.700  0.2942 -0.8108 -0.0230
 9171SOL    HW138972   2.425   0.255   5.749  0.2188 -2.2367  0.5963
 9171SOL    HW238973   2.285   0.189   5.757 -0.4898 -1.5805 -1.5056
 9172SOL     OW38974   4.453   4.563  15.076  0.0382 -0.2281 -0.1841
 9172SOL    HW138975   4.460   4.568  14.980  1.0916 -1.2699 -0.1461
 9172SOL    HW238976   4.547   4.551  15.090 -0.4836 -1.1186  2.5218
 9173SOL     OW38977   0.238   2.635   0.713 -0.0746 -0.2896 -0.7850
 9173SOL    HW138978   0.311   2.647   0.773  0.1158  0.3775 -1.1453
 9173SOL    HW238979   0.271   2.560   0.662  0.2634 -0.3680 -0.4520
 9174SOL     OW38980   2.613   3.670   8.179  0.2846  0.0637 -0.4747
 9174SOL    HW138981   2.698   3.697   8.145  0.8292 -0.0304  0.8129
 9174SOL    HW238982   2.612   3.577   8.154 -0.5133  0.1496 -0.7786
 9175SOL     OW38983   4.335   0.836  10.797 -0.5376  0.6788 -0.2215
 9175SOL    HW138984   4.364   0.792  10.717 -0.6353  0.3954 -0.1017
 9175SOL    HW238985   4.393   0.794  10.860 -0.4833 -0.6788 -1.1665
 9176SOL     OW38986   2.709   0.404   9.433  0.4197  0.0873  0.2572
 9176SOL    HW138987   2.729   0.315   9.461 -0.1627  0.2515  1.2150
 9176SOL    HW238988   2.632   0.387   9.378  0.8802  0.6149 -0.5451
 9177SOL     OW38989   0.030   2.420   8.665 -0.3921 -0.0937 -0.1127
 9177SOL    HW138990   4.660   2.421   8.646 -0.9266 -2.1529  2.3880
 9177SOL    HW238991   0.028   2.371   8.747 -0.8780  1.5191  0.8489
 9178SOL     OW38992   2.340   3.544   2.102 -0.0870 -0.0844  0.5308
 9178SOL    HW138993   2.434   3.560   2.112  0.0543 -0.8583  0.4148
 9178SOL    HW238994   2.326   3.462   2.055  0.5651 -0.1082  0.3767
 9179SOL     OW38995   3.427   3.207  16.659  0.6820 -0.5078 -0.6924
 9179SOL    HW138996   3.433   3.145  16.586  0.9421 -1.6493  0.2949
 9179SOL    HW238997   3.423   3.144  16.732 -1.6281  1.3899  0.8085
 9180SOL     OW38998   2.566   1.357   5.303 -0.1657  0.4307 -0.3468
 9180SOL    HW138999   2.543   1.436   5.255  0.5638  1.0614  0.3395
 9180SOL    HW239000   2.512   1.363   5.382 -0.2961  0.0715 -0.4093
 9181SOL     OW39001   0.406   3.662   3.060 -0.1708 -0.2525 -0.2446
 9181SOL    HW139002   0.498   3.658   3.033  0.0013 -0.6235  0.3844
 9181SOL    HW239003   0.426   3.669   3.154  1.4159 -1.3376 -0.4979
 9182SOL     OW39004   1.146   0.694   0.017 -0.1004  0.3861  0.3277
 9182SOL    HW139005   1.065   0.718  17.667 -0.1422  2.0252  1.2798
 9182SOL    HW239006   1.213   0.708  17.644  1.4065 -0.6176  1.6129
 9183SOL     OW39007   2.782   4.439  12.205 -0.4667  0.5729  0.0512
 9183SOL    HW139008   2.748   4.372  12.145  0.6314 -1.2603  1.4881
 9183SOL    HW239009   2.751   4.400  12.287 -1.6755  1.0129 -0.1963
 9184SOL     OW39010   4.172   2.391  13.034 -0.1875  0.0816 -0.2214
 9184SOL    HW139011   4.078   2.378  13.042  0.1145 -2.1278 -0.4154
 9184SOL    HW239012   4.186   2.381  12.940 -0.3750 -2.0306 -0.0077
 9185SOL     OW39013   3.725   0.162   4.731 -0.1999 -0.0954 -0.1605
 9185SOL    HW139014   3.752   0.240   4.683  0.3544 -0.9143 -1.1825
 9185SOL    HW239015   3.717   0.101   4.657  0.8303 -1.8259  1.1621
 9186SOL     OW39016   2.307   2.247   7.902 -0.2551 -0.4660  0.5532
 9186SOL    HW139017   2.385   2.222   7.951  0.4942  0.9474  0.0636
 9186SOL    HW239018   2.277   2.328   7.942  1.0185 -0.0733  0.7037
 9187SOL     OW39019   3.561   0.154   6.046 -0.1333 -0.3752  0.3523
 9187SOL    HW139020   3.532   0.234   6.002  0.3648 -1.5301 -2.0326
 9187SOL    HW239021   3.480   0.126   6.089 -0.0588  0.0413  0.7675
 9188SOL     OW39022   1.627   4.236   4.678 -0.0814  0.4763 -0.6441
 9188SOL    HW139023   1.627   4.314   4.622  1.7221  0.3423 -0.8289
 9188SOL    HW239024   1.651   4.162   4.622  0.2210  1.4659 -1.8412
 9189SOL     OW39025   3.459   0.382   2.842 -0.3151  0.0919 -0.2052
 9189SOL    HW139026   3.418   0.296   2.835  1.5261 -0.7985 -0.0744
 9189SOL    HW239027   3.477   0.386   2.936 -1.7464 -0.0688  0.0803
 9190SOL     OW39028   1.430   2.452  10.206  0.3291  0.1901  0.8597
 9190SOL    HW139029   1.352   2.487  10.249 -1.6664 -2.4069 -0.6166
 9190SOL    HW239030   1.472   2.531  10.173 -1.9863  0.5025 -1.3583
 9191SOL     OW39031   1.392   0.296   8.683 -0.4799 -0.1109 -0.4791
 9191SOL    HW139032   1.409   0.205   8.657 -1.9163  0.0063 -1.8302
 9191SOL    HW239033   1.479   0.335   8.686 -0.4114 -0.3888  1.0532
 9192SOL     OW39034   0.635   3.249   3.802 -0.2538  0.3890 -0.8057
 9192SOL    HW139035   0.702   3.315   3.782 -0.8010  0.9783 -0.7173
 9192SOL    HW239036   0.673   3.177   3.751 -1.7241 -0.5365 -0.5851
 9193SOL     OW39037   1.026   3.104   8.594 -0.0822 -0.4640  0.0095
 9193SOL    HW139038   0.937   3.132   8.572  0.3652  2.3371  1.7698
 9193SOL    HW239039   1.021   3.025   8.541  2.2228 -1.8840  1.9309
 9194SOL     OW39040   3.598   1.768   4.265 -0.4724  0.2256 -0.3794
 9194SOL    HW139041   3.533   1.779   4.334  0.2312 -1.0588  0.4907
 9194SOL    HW239042   3.664   1.712   4.305 -0.7665 -1.1569 -1.8595
 9195SOL     OW39043   3.494   1.909   7.231 -0.4909  0.3501 -0.3599
 9195SOL    HW139044   3.441   1.832   7.252  2.1710 -1.2761  0.3075
 9195SOL    HW239045   3.575   1.864   7.208  0.6710  1.5224  1.3806
 9196SOL     OW39046   1.986   2.217  10.474 -0.6091  0.2320 -0.0553
 9196SOL    HW139047   1.894   2.197  10.490 -0.5002  2.1864  2.9352
 9196SOL    HW239048   1.978   2.302  10.430 -0.1513  0.7480  0.8624
 9197SOL     OW39049   1.334   1.791   5.712  0.0899 -0.2322  1.0859
 9197SOL    HW139050   1.418   1.826   5.683 -0.0505 -0.7508  0.0378
 9197SOL    HW239051   1.290   1.868   5.750 -0.3350  0.5487 -1.0060
 9198SOL     OW39052   4.498   3.740   1.206  0.3923  0.5513 -0.4087
 9198SOL    HW139053   4.567   3.697   1.257  0.4277 -1.0971 -1.8565
 9198SOL    HW239054   4.463   3.671   1.150  3.5283 -0.5189 -1.0778
 9199SOL     OW39055   1.735   3.265  14.626  0.4218 -0.1022  0.4145
 9199SOL    HW139056   1.817   3.315  14.628  0.0936  0.3788  1.7264
 9199SOL    HW239057   1.769   3.189  14.577  1.1520 -1.6078  3.2525
 9200SOL     OW39058   3.838   2.766   4.674  0.7874 -0.6049 -0.3141
 9200SOL    HW139059   3.909   2.818   4.712 -0.1926  0.6059 -0.1386
 9200SOL    HW239060   3.780   2.839   4.651  2.7199  0.8726 -0.4731
 9201SOL     OW39061   0.953   1.579   7.073  0.5561 -0.1867 -0.1655
 9201SOL    HW139062   0.920   1.501   7.118 -0.7465  0.1877 -0.5014
 9201SOL    HW239063   0.977   1.636   7.146  0.5146 -0.4687  0.0706
 9202SOL     OW39064   1.380   0.311   5.427  0.1801 -0.3147  0.0520
 9202SOL    HW139065   1.305   0.366   5.403  0.8727  0.3168 -0.6395
 9202SOL    HW239066   1.328   0.237   5.460  1.1971 -0.1737  1.9805
 9203SOL     OW39067   0.898   1.220   8.409 -0.6496  0.6286  0.3032
 9203SOL    HW139068   0.992   1.204   8.399 -0.7462  0.1192  0.1713
 9203SOL    HW239069   0.890   1.312   8.386 -0.9027  0.4290 -0.4335
 9204SOL     OW39070   4.592   3.245   3.482  0.4674  0.4100  0.4161
 9204SOL    HW139071   4.645   3.310   3.436  0.7501  0.7398  1.2097
 9204SOL    HW239072   4.537   3.218   3.409  0.9985  0.6868 -0.0823
 9205SOL     OW39073   4.164   0.165  14.232 -0.1494 -0.3011  0.9511
 9205SOL    HW139074   4.070   0.180  14.226 -0.2746 -1.3137  0.4104
 9205SOL    HW239075   4.181   0.237  14.293  0.7614 -0.8074  1.2967
 9206SOL     OW39076   3.261   2.683   3.753  0.2132  0.0146 -0.1189
 9206SOL    HW139077   3.267   2.760   3.810 -2.0496  0.2840 -0.2694
 9206SOL    HW239078   3.209   2.705   3.676 -0.3333  2.3466  0.9188
 9207SOL     OW39079   3.402   2.964  11.955  0.4713 -0.2633  0.0106
 9207SOL    HW139080   3.339   3.034  11.972  0.7267 -0.0345  0.0182
 9207SOL    HW239081   3.430   2.993  11.868  0.1909  0.8083  0.2706
 9208SOL     OW39082   4.575   0.361   1.074 -0.3946  0.3777 -0.3966
 9208SOL    HW139083   4.538   0.448   1.058  0.6019  0.6705 -1.0927
 9208SOL    HW239084   4.497   0.317   1.109 -0.6537 -0.0296 -1.4763
 9209SOL     OW39085   1.418   2.561   3.657 -0.1710  0.3046  0.3080
 9209SOL    HW139086   1.404   2.482   3.709  0.1567 -0.2438 -0.4247
 9209SOL    HW239087   1.426   2.506   3.579 -3.4823  0.4409 -0.0976
 9210SOL     OW39088   3.152   1.006  17.287  0.2290  0.1458 -0.3449
 9210SOL    HW139089   3.092   0.935  17.307 -0.4636  0.6932 -0.4888
 9210SOL    HW239090   3.110   1.039  17.208  0.6831 -0.3968 -0.8152
 9211SOL     OW39091   1.499   4.172   5.515 -0.4974 -0.3758  0.0155
 9211SOL    HW139092   1.478   4.236   5.583 -2.3866 -0.7734 -0.1937
 9211SOL    HW239093   1.492   4.228   5.437 -3.5217 -1.3812 -0.4351
 9212SOL     OW39094   0.460   4.066   2.967  0.0150  0.0022 -0.0404
 9212SOL    HW139095   0.537   4.117   2.941  1.6794 -2.7044 -0.4342
 9212SOL    HW239096   0.499   3.980   2.983 -0.9796 -0.4270  0.0569
 9213SOL     OW39097   2.719   0.989  11.475 -0.1464 -0.1570  0.4860
 9213SOL    HW139098   2.707   0.929  11.402 -0.6753  1.2230 -0.5837
 9213SOL    HW239099   2.756   0.930  11.540  3.4965  1.9329  0.3225
 9214SOL     OW39100   2.222   0.409   7.077 -0.1135 -0.5237 -0.1785
 9214SOL    HW139101   2.166   0.451   7.012  1.1425  0.6613 -0.4833
 9214SOL    HW239102   2.213   0.470   7.150 -0.2234 -1.9313  1.0003
 9215SOL     OW39103   4.667   0.243  12.421 -0.3762 -0.2290 -0.2577
 9215SOL    HW139104   0.006   0.217  12.490 -0.1185  0.2834 -0.2938
 9215SOL    HW239105   4.584   0.209  12.455 -0.7415  0.4842 -0.4212
 9216SOL     OW39106   2.250   3.170   0.057 -0.5544 -0.5086  0.4152
 9216SOL    HW139107   2.218   3.108  17.686 -0.8790  1.8132 -1.6389
 9216SOL    HW239108   2.253   3.110   0.132 -2.1047  1.7290  2.2735
 9217SOL     OW39109   2.601   4.569   7.335 -0.1588  0.3030 -0.7816
 9217SOL    HW139110   2.595   4.542   7.243 -1.2973  0.2535 -0.7020
 9217SOL    HW239111   2.656   4.500   7.372  0.5294  1.2342 -0.0783
 9218SOL     OW39112   1.403   1.512   3.495 -0.0417 -0.7978 -0.1885
 9218SOL    HW139113   1.425   1.498   3.403  1.4246  0.6831 -0.0422
 9218SOL    HW239114   1.310   1.534   3.485 -1.0297 -4.2987  1.2844
 9219SOL     OW39115   3.173   1.981  11.724  0.6248  0.2235 -0.3927
 9219SOL    HW139116   3.212   2.046  11.665 -0.2536  2.0197  1.0018
 9219SOL    HW239117   3.094   2.027  11.753  1.0697 -0.8272  2.5611
 9220SOL     OW39118   0.884   1.408   2.173  0.1789 -0.3865 -0.0765
 9220SOL    HW139119   0.807   1.445   2.216  0.0594 -0.2018 -0.4459
 9220SOL    HW239120   0.886   1.313   2.188  1.1743 -0.3674 -0.1176
 9221SOL     OW39121   4.340   3.502   3.171 -0.3563 -0.2920  0.1192
 9221SOL    HW139122   4.304   3.542   3.250  1.7049  1.6488  0.0671
 9221SOL    HW239123   4.406   3.567   3.146  1.1012 -1.6735  0.4408
 9222SOL     OW39124   1.970   2.279  12.919 -0.3524 -0.6100 -0.1752
 9222SOL    HW139125   2.052   2.247  12.956 -1.3005 -1.0094  1.5440
 9222SOL    HW239126   1.919   2.202  12.898  0.4615 -1.1268 -0.2603
 9223SOL     OW39127   1.881   0.125   0.237 -0.0752  0.1956  0.6256
 9223SOL    HW139128   1.896   0.032   0.254  0.4293  0.2593  0.5362
 9223SOL    HW239129   1.809   0.118   0.174  0.5221 -2.2508  0.1879
 9224SOL     OW39130   1.051   2.688   1.929  0.1053  0.3653  0.4187
 9224SOL    HW139131   1.038   2.672   2.023 -0.3197 -0.0493  0.2923
 9224SOL    HW239132   0.962   2.687   1.895  0.4741 -0.2046 -0.5266
 9225SOL     OW39133   2.878   3.822   8.858 -0.3260  0.2125 -0.2490
 9225SOL    HW139134   2.877   3.728   8.842  1.3439  0.4654 -1.7639
 9225SOL    HW239135   2.841   3.864   8.780 -0.0731 -0.4180 -0.7053
 9226SOL     OW39136   1.424   0.060   8.612  0.0348  0.6778 -0.8208
 9226SOL    HW139137   1.501   0.015   8.578  0.5504  0.8681  0.1158
 9226SOL    HW239138   1.360   0.040   8.543 -2.5552 -0.0450  1.7634
 9227SOL     OW39139   1.427   2.316  13.840  0.2554 -0.0006  0.0512
 9227SOL    HW139140   1.337   2.287  13.848 -0.0130  1.4315  2.1449
 9227SOL    HW239141   1.462   2.286  13.924 -1.0343  0.9199  0.9069
 9228SOL     OW39142   0.903   2.560   2.808 -0.0430  0.7270 -0.7429
 9228SOL    HW139143   0.903   2.599   2.896 -4.0975  0.0591 -0.4466
 9228SOL    HW239144   0.995   2.535   2.801  0.5125  2.7562 -0.6500
 9229SOL     OW39145   1.967   4.204   0.643  0.7800  0.9385  0.2421
 9229SOL    HW139146   2.047   4.159   0.670  0.3857  1.1107  1.6919
 9229SOL    HW239147   1.900   4.156   0.691 -0.7522  1.6529 -1.1558
 9230SOL     OW39148   3.809   3.563   4.843  0.0291  0.5071 -0.6127
 9230SOL    HW139149   3.882   3.583   4.902 -0.7964 -1.5459  1.0933
 9230SOL    HW239150   3.751   3.636   4.865  0.9203  0.0883  3.2316
 9231SOL     OW39151   4.644   0.328   2.027  0.2056 -0.0317 -0.4639
 9231SOL    HW139152   4.583   0.399   2.006 -0.8721 -1.2324 -1.4569
 9231SOL    HW239153   0.005   0.373   2.025  0.9540 -1.4994 -2.0410
 9232SOL     OW39154   0.226   4.642   3.568 -0.2288  0.0373 -0.0108
 9232SOL    HW139155   0.167   4.584   3.520 -1.3260  1.4986 -0.4209
 9232SOL    HW239156   0.302   4.646   3.509 -0.6195 -1.3835 -0.6003
 9233SOL     OW39157   3.008   3.749  13.366  0.1638 -0.8585 -0.0981
 9233SOL    HW139158   3.084   3.806  13.376 -1.4972  1.1306  1.3769
 9233SOL    HW239159   2.965   3.799  13.296 -0.0065 -1.4359 -0.4006
 9234SOL     OW39160   0.284   1.839   6.212  0.1923 -0.0329 -0.4755
 9234SOL    HW139161   0.342   1.762   6.210 -1.8650 -1.5869  0.0282
 9234SOL    HW239162   0.352   1.903   6.190  1.1569 -0.6562  0.7117
 9235SOL     OW39163   4.127   2.202   6.743 -0.1247  0.1064 -0.5432
 9235SOL    HW139164   4.135   2.294   6.719  1.0747  0.6756  2.0986
 9235SOL    HW239165   4.059   2.161   6.688  1.0804  0.1019 -2.0389
 9236SOL     OW39166   2.960   2.138   8.306 -0.0173 -0.3251  0.5719
 9236SOL    HW139167   3.052   2.163   8.291  0.1196 -1.6912 -0.8160
 9236SOL    HW239168   2.948   2.159   8.399 -1.9388  3.0455 -0.4208
 9237SOL     OW39169   4.434   1.496   9.212  0.2347 -0.2400 -0.7485
 9237SOL    HW139170   4.479   1.560   9.158  2.1249  0.8874  2.1312
 9237SOL    HW239171   4.478   1.504   9.297  0.1691 -1.4476 -0.5938
 9238SOL     OW39172   1.406   2.361   2.702  0.1130 -0.0992 -0.0118
 9238SOL    HW139173   1.464   2.399   2.769 -1.8412  2.7957  0.0119
 9238SOL    HW239174   1.456   2.383   2.623  1.4141  0.1687  0.8765
 9239SOL     OW39175   0.859   4.082   5.459  0.3244 -0.0768 -0.0160
 9239SOL    HW139176   0.859   4.027   5.537 -1.4104  0.1060  0.1058
 9239SOL    HW239177   0.845   4.016   5.391  0.9580 -0.4522  0.2252
 9240SOL     OW39178   0.767   0.931   1.895  0.6188  0.6136 -0.7045
 9240SOL    HW139179   0.693   0.876   1.924  0.7361  0.4990 -0.6182
 9240SOL    HW239180   0.717   1.003   1.856  0.8794  1.0480 -0.2332
 9241SOL     OW39181   0.008   2.752   1.920 -0.3323  0.4294  0.3421
 9241SOL    HW139182   0.051   2.766   2.004 -0.9460 -0.9056  0.8850
 9241SOL    HW239183   4.657   2.695   1.942  0.2701 -0.5366 -0.1377
 9242SOL     OW39184   2.438   3.779   8.641 -0.5110  0.3683  0.2644
 9242SOL    HW139185   2.504   3.732   8.589  0.6546  2.6146 -0.3203
 9242SOL    HW239186   2.416   3.841   8.571  2.3197 -0.6724 -1.5776
 9243SOL     OW39187   0.073   0.539  10.110 -0.3160  0.2748 -0.0303
 9243SOL    HW139188   0.051   0.535  10.017 -2.3294 -0.8272  0.4894
 9243SOL    HW239189   0.154   0.487  10.116  0.1285  1.0548  0.8216
 9244SOL     OW39190   2.360   3.719   4.977 -0.1240  0.2675  0.2894
 9244SOL    HW139191   2.273   3.678   4.977  0.1378 -0.2926  0.2041
 9244SOL    HW239192   2.343   3.809   4.949 -0.8277  0.5008  1.4561
 9245SOL     OW39193   1.357   1.706   2.545  0.2414 -0.1394 -0.0799
 9245SOL    HW139194   1.337   1.612   2.546 -0.7577  0.0469 -2.2583
 9245SOL    HW239195   1.370   1.722   2.638  0.0673 -0.4555  0.0011
 9246SOL     OW39196   1.062   4.061   4.841 -0.0311 -0.5174 -0.4666
 9246SOL    HW139197   1.115   4.003   4.786 -1.0996 -1.2437 -0.7250
 9246SOL    HW239198   1.056   4.141   4.788 -0.7972 -1.3080 -1.5658
 9247SOL     OW39199   0.958   2.833  14.742  0.3821  0.1274  0.7033
 9247SOL    HW139200   1.003   2.901  14.793 -0.7530  1.4449 -0.0622
 9247SOL    HW239201   1.031   2.781  14.708  1.9423  2.4266  0.5308
 9248SOL     OW39202   3.912   2.630   6.582 -0.1820  0.1036  0.1445
 9248SOL    HW139203   3.836   2.639   6.639  0.8324 -0.8023  1.6344
 9248SOL    HW239204   3.963   2.693   6.632  0.8227 -0.2985 -0.3600
 9249SOL     OW39205   1.047   3.356   8.921  0.1629 -0.3838 -0.1160
 9249SOL    HW139206   1.129   3.406   8.925 -0.1409  0.2314 -1.4586
 9249SOL    HW239207   1.049   3.307   8.838  1.3353 -1.8977  0.7939
 9250SOL     OW39208   3.991   2.368   0.773 -0.3647  0.1290  0.3316
 9250SOL    HW139209   3.914   2.316   0.796 -0.0232 -1.5215 -2.2906
 9250SOL    HW239210   3.948   2.453   0.765 -0.3137  0.1096 -0.1734
 9251SOL     OW39211   2.638   0.069   5.589 -0.2710  0.7440 -0.0012
 9251SOL    HW139212   2.599   0.123   5.658 -0.6003  0.4212  0.0629
 9251SOL    HW239213   2.680   0.139   5.538 -0.6404  0.9814  0.0204
 9252SOL     OW39214   1.126   3.063  12.508 -0.0727 -0.5317 -0.4303
 9252SOL    HW139215   1.213   3.041  12.540 -0.7772 -3.1988 -0.3174
 9252SOL    HW239216   1.133   3.158  12.497  1.1299 -0.7012 -1.1429
 9253SOL     OW39217   2.435   1.633   8.860 -0.1468 -0.2236  0.3275
 9253SOL    HW139218   2.443   1.602   8.770 -0.2774  1.3244 -0.2094
 9253SOL    HW239219   2.374   1.569   8.897  1.6216 -3.2301 -1.9381
 9254SOL     OW39220   1.596   0.162   2.954 -0.0638  0.0897  0.3440
 9254SOL    HW139221   1.595   0.076   2.996  0.6300 -0.2548 -0.3284
 9254SOL    HW239222   1.597   0.218   3.032 -0.9949 -0.1957  0.5579
 9255SOL     OW39223   2.610   0.437   4.296  0.1831 -0.6535 -0.5205
 9255SOL    HW139224   2.518   0.414   4.304 -0.2260 -0.0638 -3.4912
 9255SOL    HW239225   2.602   0.462   4.204 -0.6864 -0.2684 -0.3447
 9256SOL     OW39226   3.653   1.818  12.823 -0.0636 -0.2881 -0.1633
 9256SOL    HW139227   3.720   1.853  12.881  1.4080  0.4247 -2.3013
 9256SOL    HW239228   3.691   1.738  12.786 -2.6664 -1.6730  0.1095
 9257SOL     OW39229   3.958   4.392  14.908  0.2633  0.1639 -0.4386
 9257SOL    HW139230   3.944   4.440  14.826  0.1797  0.6583 -0.1393
 9257SOL    HW239231   3.871   4.394  14.948  0.0832 -1.3359 -0.7804
 9258SOL     OW39232   3.993   3.177   4.645 -0.3418  0.0526  0.4548
 9258SOL    HW139233   4.050   3.242   4.603 -1.4952 -0.2049 -1.4969
 9258SOL    HW239234   3.946   3.154   4.566 -0.6403  1.8100  0.1199
 9259SOL     OW39235   0.534   4.525   2.905  0.1909  0.2248 -0.3119
 9259SOL    HW139236   0.440   4.514   2.887  0.1279  1.0867 -0.5039
 9259SOL    HW239237   0.567   4.467   2.836 -1.0266  2.3311 -2.6883
 9260SOL     OW39238   3.770   0.183   8.310 -0.0090 -0.5288  0.2735
 9260SOL    HW139239   3.700   0.244   8.288  0.7488  0.2772  0.0994
 9260SOL    HW239240   3.748   0.190   8.403 -3.2514 -1.4991 -0.4195
 9261SOL     OW39241   1.738   3.614   2.369  0.5771  0.2376  0.5358
 9261SOL    HW139242   1.813   3.558   2.391  1.4180  0.5962 -1.3837
 9261SOL    HW239243   1.763   3.687   2.427  1.4951 -0.0318  0.4868
 9262SOL     OW39244   2.641   3.784   5.144 -0.3914 -0.3917 -0.6539
 9262SOL    HW139245   2.706   3.791   5.214 -1.2994  0.2744  0.1139
 9262SOL    HW239246   2.704   3.752   5.079  0.6988  1.6670 -0.6331
 9263SOL     OW39247   0.228   0.496   6.671 -0.3301 -0.0612 -0.0082
 9263SOL    HW139248   0.201   0.410   6.641 -0.2318 -0.0367 -0.1636
 9263SOL    HW239249   0.269   0.479   6.756  2.4543  0.5262 -1.2338
 9264SOL     OW39250   4.269   1.271   9.532 -0.0502  0.0932 -0.3663
 9264SOL    HW139251   4.205   1.238   9.595  2.1168 -1.9066  0.7847
 9264SOL    HW239252   4.344   1.297   9.585 -0.7576  0.5108  0.4242
 9265SOL     OW39253   1.358   0.114  12.010 -0.5275  0.1085 -0.3380
 9265SOL    HW139254   1.310   0.034  11.988  1.9889 -1.9254  1.5433
 9265SOL    HW239255   1.284   0.174  12.020  0.6756  1.4449  0.4910
 9266SOL     OW39256   1.774   0.486  10.881 -0.2694 -0.1540  0.2470
 9266SOL    HW139257   1.695   0.432  10.890 -2.1970  2.6499 -0.0776
 9266SOL    HW239258   1.845   0.423  10.865  0.3080  0.5414  0.0750
 9267SOL     OW39259   3.228   1.633   4.865  0.3833  0.1603 -0.5224
 9267SOL    HW139260   3.225   1.707   4.803  1.6011  1.6948  1.2488
 9267SOL    HW239261   3.202   1.561   4.808  0.4725 -0.9163  0.8098
 9268SOL     OW39262   3.706   2.189   8.498 -0.6779 -0.0769 -0.0847
 9268SOL    HW139263   3.637   2.156   8.442  0.2826  0.4749 -1.5912
 9268SOL    HW239264   3.706   2.143   8.582 -2.0879  0.7415  0.3685
 9269SOL     OW39265   0.228   3.063  13.215 -0.0126  0.0087 -0.0266
 9269SOL    HW139266   0.239   3.155  13.192 -1.5521  0.1605 -0.1304
 9269SOL    HW239267   0.135   3.051  13.197  0.2563  0.6005 -1.8687
 9270SOL     OW39268   4.269   3.912   1.695 -0.0062 -0.2769  0.2051
 9270SOL    HW139269   4.182   3.878   1.712  0.3209 -0.1204  2.1346
 9270SOL    HW239270   4.288   3.975   1.765  0.6481 -0.1690 -0.0629
 9271SOL     OW39271   2.289   1.867   8.543  0.0617  0.9664  0.2717
 9271SOL    HW139272   2.380   1.840   8.549  0.1641  1.3489  0.4711
 9271SOL    HW239273   2.254   1.853   8.631 -2.3769  0.0448 -0.8384
 9272SOL     OW39274   4.546   3.353   1.803 -0.1544 -0.0716  0.1453
 9272SOL    HW139275   4.556   3.260   1.818  1.7367  0.0084 -0.4991
 9272SOL    HW239276   4.526   3.353   1.709  3.1759  0.1060 -0.5723
 9273SOL     OW39277   3.698   0.626   2.145 -0.2419 -0.1363  0.5048
 9273SOL    HW139278   3.726   0.707   2.188  0.5905 -0.1295 -0.0512
 9273SOL    HW239279   3.603   0.630   2.150 -0.4001 -3.4291 -0.4850
 9274SOL     OW39280   2.808   1.608   0.647  0.0115  0.2242  0.6687
 9274SOL    HW139281   2.838   1.643   0.731  3.4112  3.6237 -1.9655
 9274SOL    HW239282   2.755   1.682   0.619 -0.3654  0.4982  2.1298
 9275SOL     OW39283   0.371   0.147   3.222  0.2513  0.3550 -0.3955
 9275SOL    HW139284   0.329   0.062   3.215 -0.1350  0.4956  0.1653
 9275SOL    HW239285   0.294   0.200   3.245  0.9193  0.8232  0.7283
 9276SOL     OW39286   2.433   1.383  17.113 -0.0255 -0.3078 -0.3611
 9276SOL    HW139287   2.440   1.290  17.088  0.4989 -0.0245 -1.2798
 9276SOL    HW239288   2.522   1.414  17.095  0.5509 -1.8334 -0.1960
 9277SOL     OW39289   0.136   0.739   3.664  0.7594  0.0106 -0.5114
 9277SOL    HW139290   0.139   0.822   3.711  2.0222 -0.7111  0.6917
 9277SOL    HW239291   0.049   0.753   3.628  0.2599  0.3591  0.8372
 9278SOL     OW39292   1.869   4.632   6.044  0.3067  0.2700 -0.4171
 9278SOL    HW139293   1.963   4.617   6.027  0.0004  0.5830 -2.4303
 9278SOL    HW239294   1.869   0.004   6.041 -1.7201  0.2706 -0.3077
 9279SOL     OW39295   0.442   0.531   2.391 -0.2673 -0.2369  0.1368
 9279SOL    HW139296   0.457   0.583   2.312 -0.1924 -0.7557 -0.1851
 9279SOL    HW239297   0.394   0.452   2.365 -3.1046  0.9437  1.7988
 9280SOL     OW39298   4.492   0.984   3.484  0.2364  0.7966 -0.5444
 9280SOL    HW139299   4.416   1.042   3.473 -0.8324 -0.4867  0.1264
 9280SOL    HW239300   4.456   0.918   3.426  2.3347 -2.0569  1.4234
 9281SOL     OW39301   0.011   3.296   9.270  0.0479  0.2993  0.8230
 9281SOL    HW139302   0.105   3.294   9.251  0.1197  2.7458  0.9284
 9281SOL    HW239303   4.712   3.245   9.192  0.3623  1.1122  0.2060
 9282SOL     OW39304   0.785   2.757   5.234 -0.2288  0.0257 -0.2629
 9282SOL    HW139305   0.729   2.680   5.232  1.0975 -0.9900  1.5768
 9282SOL    HW239306   0.781   2.793   5.323  1.7191  1.2190 -0.6332
 9283SOL     OW39307   3.362   2.623   6.465  0.2730  0.1591 -0.3353
 9283SOL    HW139308   3.391   2.701   6.511 -0.2582 -0.7798  1.5750
 9283SOL    HW239309   3.402   2.552   6.515 -0.6005  0.1383  0.3290
 9284SOL     OW39310   2.558   2.212  10.766 -0.2636  0.2067 -0.1016
 9284SOL    HW139311   2.634   2.268  10.756  1.1060 -1.8690 -1.3633
 9284SOL    HW239312   2.526   2.252  10.847  1.7233 -1.8963  1.6996
 9285SOL     OW39313   3.801   2.437   3.347 -0.7999 -0.3511  0.2289
 9285SOL    HW139314   3.837   2.485   3.422 -0.3041  0.6256 -0.6493
 9285SOL    HW239315   3.811   2.345   3.373  0.6975 -0.4580 -0.7523
 9286SOL     OW39316   2.654   4.250   1.845 -0.5973  0.2729 -0.2735
 9286SOL    HW139317   2.571   4.201   1.849 -0.2820 -0.2101  0.2527
 9286SOL    HW239318   2.655   4.269   1.751  1.7154 -2.8321 -0.8895
 9287SOL     OW39319   4.146   3.283   2.769  0.2710  0.3820 -0.3025
 9287SOL    HW139320   4.129   3.334   2.848  2.6908  0.7421 -0.0105
 9287SOL    HW239321   4.065   3.239   2.745 -1.0206  1.8425  1.4667
 9288SOL     OW39322   0.669   3.374   1.243 -0.2375 -1.1928 -0.5257
 9288SOL    HW139323   0.745   3.412   1.198 -0.8099  2.0520  1.2357
 9288SOL    HW239324   0.648   3.316   1.170 -1.4714 -2.7590  1.0863
 9289SOL     OW39325   1.068   1.625   0.135  0.9234 -0.0251  0.1234
 9289SOL    HW139326   1.157   1.609   0.166  1.9890  2.1403 -1.8176
 9289SOL    HW239327   1.013   1.635   0.213 -0.6276  1.9066 -1.2178
 9290SOL     OW39328   3.978   1.039   2.722  0.4983 -0.7845 -0.0219
 9290SOL    HW139329   3.987   1.034   2.817  0.4854 -3.4458 -0.1542
 9290SOL    HW239330   4.058   0.990   2.703  0.5558  0.1852 -2.2959
 9291SOL     OW39331   3.098   4.584  13.866 -0.0996  0.1918  0.0281
 9291SOL    HW139332   3.182   4.542  13.846  0.3117  0.4546  1.2136
 9291SOL    HW239333   3.127   4.674  13.852 -1.4427 -0.0277 -4.1683
 9292SOL     OW39334   4.031   4.014  16.549 -0.2700 -0.2170  0.6127
 9292SOL    HW139335   4.034   4.108  16.570 -1.4349  0.2262 -1.2260
 9292SOL    HW239336   3.971   3.975  16.613  0.7828 -1.1619  1.0250
 9293SOL     OW39337   2.161   3.868   6.427 -0.1945  0.4734 -0.2014
 9293SOL    HW139338   2.166   3.896   6.519  1.6939  1.3116 -0.5496
 9293SOL    HW239339   2.230   3.927   6.397  1.1268 -2.6882 -3.4991
 9294SOL     OW39340   1.953   2.947   3.928 -0.1315 -0.4422  0.0201
 9294SOL    HW139341   1.976   2.884   3.997  1.4449 -2.5889 -2.4674
 9294SOL    HW239342   1.877   2.985   3.973 -0.0729  1.1131 -1.2144
 9295SOL     OW39343   2.989   3.040   2.763  0.6680  0.0118  0.5265
 9295SOL    HW139344   2.972   2.949   2.784 -0.7738  0.2938  0.5977
 9295SOL    HW239345   2.995   3.083   2.848  0.0975 -0.6025  0.8765
 9296SOL     OW39346   0.312   1.034   3.678  0.5562  0.1145 -0.0623
 9296SOL    HW139347   0.339   1.015   3.588  1.7888  0.8034  0.1635
 9296SOL    HW239348   0.365   1.110   3.701 -0.6938 -0.1555  3.5542
 9297SOL     OW39349   3.669   1.882   9.489 -0.0658  0.1545 -0.5111
 9297SOL    HW139350   3.696   1.973   9.472 -1.0171  0.1317 -2.1163
 9297SOL    HW239351   3.743   1.862   9.547 -1.6019 -1.9486  0.6963
 9298SOL     OW39352   2.089   0.239   0.664 -0.5900 -0.8786  0.1931
 9298SOL    HW139353   2.127   0.199   0.585 -1.9250  0.4914 -1.1585
 9298SOL    HW239354   2.032   0.305   0.625  0.1257 -0.8193 -0.7879
 9299SOL     OW39355   1.865   1.229   4.814 -0.1811  0.5983  0.7847
 9299SOL    HW139356   1.823   1.309   4.784  0.9047  1.5017  1.7087
 9299SOL    HW239357   1.931   1.263   4.874  1.6895  0.7866 -1.3695
 9300SOL     OW39358   3.771   1.303   2.081  0.2915 -0.1716  0.3327
 9300SOL    HW139359   3.839   1.367   2.101 -0.9379  1.1772  0.2129
 9300SOL    HW239360   3.742   1.271   2.167  1.0012  1.7667  1.2935
 9301SOL     OW39361   0.627   1.192   7.264  0.6684 -0.1802  0.1918
 9301SOL    HW139362   0.590   1.110   7.298  1.6262 -1.0447 -0.8736
 9301SOL    HW239363   0.656   1.233   7.346  1.5856 -0.7759  0.1542
 9302SOL     OW39364   1.784   2.930  11.583 -0.3292 -0.0502 -0.2651
 9302SOL    HW139365   1.699   2.891  11.561  0.3320 -2.4238  1.3831
 9302SOL    HW239366   1.836   2.883  11.518 -0.2464 -0.2351 -0.0639
 9303SOL     OW39367   3.910   1.166   8.724 -0.4118 -0.1885 -0.1248
 9303SOL    HW139368   3.966   1.242   8.707 -2.9174  2.2036  2.2037
 9303SOL    HW239369   3.886   1.192   8.814 -1.2325 -1.2734 -0.0290
 9304SOL     OW39370   0.962   0.966  14.921  0.0307  0.4337 -0.3139
 9304SOL    HW139371   0.995   1.055  14.913  0.9037  0.1948  0.5385
 9304SOL    HW239372   0.870   0.967  14.896  0.3773 -2.2730 -1.7514
 9305SOL     OW39373   2.408   1.277   6.168  0.1614  0.2831 -0.3886
 9305SOL    HW139374   2.393   1.350   6.229  0.3352  0.8816 -1.0539
 9305SOL    HW239375   2.353   1.206   6.203  1.0582 -1.1630 -1.9507
 9306SOL     OW39376   4.497   4.184   0.165  0.0528 -0.3182  0.3561
 9306SOL    HW139377   4.447   4.158   0.242 -0.1974  0.8084  0.5784
 9306SOL    HW239378   4.579   4.223   0.195  0.6036  0.5878 -2.3309
 9307SOL     OW39379   1.038   2.656   3.405  0.0647  0.1789  0.6318
 9307SOL    HW139380   1.092   2.613   3.339  0.0078 -0.4410  0.9891
 9307SOL    HW239381   0.997   2.723   3.351 -1.9888  0.8807  3.0455
 9308SOL     OW39382   3.467   4.381   8.411 -0.3175  0.1923 -0.1368
 9308SOL    HW139383   3.479   4.472   8.384  0.5915 -0.0858 -0.6672
 9308SOL    HW239384   3.548   4.360   8.457 -0.3813  1.5587  0.5951
 9309SOL     OW39385   1.643   1.527   7.747  0.2448 -0.2282  0.2541
 9309SOL    HW139386   1.554   1.519   7.711  0.1750  1.5416  0.0209
 9309SOL    HW239387   1.674   1.600   7.693 -0.7140 -0.3567 -0.4787
 9310SOL     OW39388   4.192   4.107   5.553  0.4374 -0.5141 -0.1892
 9310SOL    HW139389   4.178   4.194   5.591 -1.5184 -1.2479  0.7708
 9310SOL    HW239390   4.249   4.127   5.479 -0.3406  0.0172 -0.6455
 9311SOL     OW39391   2.234   1.658   3.279  0.3438 -0.3926 -0.6418
 9311SOL    HW139392   2.183   1.706   3.214 -1.0850  1.0978  1.5466
 9311SOL    HW239393   2.222   1.570   3.243 -0.3684  0.1449 -1.7058
 9312SOL     OW39394   0.859   3.899   5.231  0.2766 -0.6496  0.2309
 9312SOL    HW139395   0.837   3.926   5.142 -0.9990  1.6641  1.2504
 9312SOL    HW239396   0.954   3.909   5.226  0.0271  1.6156 -0.0587
 9313SOL     OW39397   2.237   1.655   6.903 -0.0447  0.0540 -0.4266
 9313SOL    HW139398   2.324   1.690   6.888  0.3516 -1.5570 -1.9105
 9313SOL    HW239399   2.199   1.695   6.825  1.2730 -0.4184 -1.3097
 9314SOL     OW39400   4.633   3.803   2.837 -0.0901 -0.2926 -0.6249
 9314SOL    HW139401   4.717   3.771   2.805  0.8015  0.3581  1.0440
 9314SOL    HW239402   4.580   3.808   2.758  0.6926  5.6436 -0.7553
 9315SOL     OW39403   1.916   4.091   7.311  0.2481 -0.0990  0.5068
 9315SOL    HW139404   1.921   4.115   7.218 -2.6916  1.1693  0.6726
 9315SOL    HW239405   1.869   4.008   7.304 -1.2088  0.6259  1.5817
 9316SOL     OW39406   0.074   1.356  16.032  0.4063  0.5267  0.8816
 9316SOL    HW139407   4.705   1.379  16.035  1.1021  3.4373  0.0297
 9316SOL    HW239408   0.112   1.392  16.112 -0.9998  0.1279  1.7194
 9317SOL     OW39409   3.403   2.118   0.828  0.3658 -0.0959  0.4442
 9317SOL    HW139410   3.384   2.206   0.861  0.9588  0.4867 -0.7525
 9317SOL    HW239411   3.346   2.062   0.881 -1.7491  0.3783 -1.3416
 9318SOL     OW39412   2.297   3.922   8.172  0.0598 -0.5006 -0.4128
 9318SOL    HW139413   2.356   3.911   8.098  1.2750 -1.6397  0.7141
 9318SOL    HW239414   2.215   3.905   8.127 -0.1854 -3.3384  1.0946
 9319SOL     OW39415   0.564   4.546  12.290  0.3876 -0.4156  0.6130
 9319SOL    HW139416   0.536   4.567  12.379 -1.9532  2.5929 -0.8130
 9319SOL    HW239417   0.533   4.626  12.249 -1.5782 -1.0448  0.8604
 9320SOL     OW39418   1.694   3.562  12.473 -0.1826 -0.1380 -0.4789
 9320SOL    HW139419   1.735   3.538  12.556 -1.6866 -0.6651  0.1180
 9320SOL    HW239420   1.657   3.650  12.483  1.1370  0.1089  2.3113
 9321SOL     OW39421   4.524   4.313   9.295  0.1832 -0.4373  0.2860
 9321SOL    HW139422   4.594   4.351   9.347 -0.8791  1.4165  0.3489
 9321SOL    HW239423   4.570   4.232   9.271  0.8486  0.0303 -0.0307
 9322SOL     OW39424   1.662   1.844   2.863 -0.1355  0.3022  0.5193
 9322SOL    HW139425   1.724   1.844   2.790  0.2711  0.6549  0.8614
 9322SOL    HW239426   1.717   1.796   2.925 -1.2562  1.3569  2.3135
 9323SOL     OW39427   0.812   4.022   8.164  0.2852 -0.0726 -0.2927
 9323SOL    HW139428   0.873   4.093   8.185 -2.5390  2.3419 -0.2095
 9323SOL    HW239429   0.858   3.961   8.108 -1.1140  0.3773 -1.9446
 9324SOL     OW39430   4.489   4.229   8.836  0.4593 -0.1294  0.3784
 9324SOL    HW139431   4.554   4.180   8.787 -0.2102 -0.8025  0.1773
 9324SOL    HW239432   4.522   4.319   8.842 -0.0577 -0.1645  3.7301
 9325SOL     OW39433   3.082   2.890   8.660 -0.4768  0.4131 -0.5586
 9325SOL    HW139434   3.151   2.825   8.669  0.5660  1.3310 -2.0346
 9325SOL    HW239435   3.033   2.859   8.584  0.0937 -2.3637  0.2003
 9326SOL     OW39436   2.500   2.774   5.876 -0.9923 -0.3103  0.7413
 9326SOL    HW139437   2.465   2.714   5.941 -0.0777 -0.5799  0.9943
 9326SOL    HW239438   2.481   2.863   5.908  1.6565 -0.1212  1.8427
 9327SOL     OW39439   0.035   2.225  11.353  0.5719  0.8824  0.5071
 9327SOL    HW139440   0.018   2.258  11.265 -0.5405 -1.7786 -0.2440
 9327SOL    HW239441   4.676   2.242  11.399  0.2588  2.6810 -0.7025
 9328SOL     OW39442   0.844   0.587  10.840  0.9642 -0.5373 -0.3243
 9328SOL    HW139443   0.810   0.655  10.898  0.1654  1.1256 -2.7309
 9328SOL    HW239444   0.792   0.596  10.760 -0.8362 -0.1693  0.8672
 9329SOL     OW39445   2.292   2.967  16.113  0.3011  0.1077 -0.5389
 9329SOL    HW139446   2.258   3.043  16.064 -2.7710 -0.3033  0.9504
 9329SOL    HW239447   2.340   3.008  16.184 -0.2520  0.3995 -0.3338
 9330SOL     OW39448   2.091   3.150  12.407 -0.0007 -0.0146  0.7988
 9330SOL    HW139449   2.003   3.114  12.405  0.4947 -1.2239  1.0796
 9330SOL    HW239450   2.087   3.206  12.485  0.3480  0.2105  0.6579
 9331SOL     OW39451   0.817   1.732  11.367 -0.3192 -0.2113 -0.0735
 9331SOL    HW139452   0.879   1.663  11.391 -0.3055  0.6546  2.3103
 9331SOL    HW239453   0.863   1.809  11.400  0.7737  0.8589 -4.0202
 9332SOL     OW39454   2.833   3.265  13.362 -0.1105  0.4899  0.2676
 9332SOL    HW139455   2.885   3.190  13.390 -1.0513 -0.4142 -0.4425
 9332SOL    HW239456   2.896   3.333  13.340  1.3527 -0.7071  0.7863
 9333SOL     OW39457   4.348   4.656   5.597  0.7922  0.0112  0.1201
 9333SOL    HW139458   4.357   4.693   5.685  0.4978  0.9735 -0.2528
 9333SOL    HW239459   4.411   4.584   5.600  0.1317 -0.4999  1.6645
 9334SOL     OW39460   2.325   0.333   9.498 -0.1257 -0.3757  0.2388
 9334SOL    HW139461   2.323   0.389   9.576  3.6708 -1.4793  1.1161
 9334SOL    HW239462   2.293   0.395   9.432  0.9342  0.8406  0.8657
 9335SOL     OW39463   1.355   4.179   4.648  0.0539  0.1404 -0.3547
 9335SOL    HW139464   1.363   4.085   4.635  0.0426 -0.0720  1.1550
 9335SOL    HW239465   1.444   4.216   4.645 -0.1901  0.8481  1.0308
 9336SOL     OW39466   0.613   4.605   3.166 -0.0766 -0.3165  0.0562
 9336SOL    HW139467   0.587   4.696   3.181  1.4901  0.2246 -0.4590
 9336SOL    HW239468   0.593   4.578   3.076 -0.8480 -0.3415  0.2301
 9337SOL     OW39469   0.006   1.038   8.801 -0.1415 -0.3017 -0.1036
 9337SOL    HW139470   4.654   1.089   8.831  0.1117 -0.7130  1.2307
 9337SOL    HW239471   4.707   0.945   8.811 -0.5198 -0.1230  0.7004
 9338SOL     OW39472   1.524   3.648  15.412  0.7956  0.0478 -0.6411
 9338SOL    HW139473   1.466   3.602  15.351  1.0100 -0.4269 -0.4930
 9338SOL    HW239474   1.564   3.571  15.453 -0.3367  0.6692  1.5677
 9339SOL     OW39475   1.504   3.264  12.102 -0.3269 -0.1038 -0.1178
 9339SOL    HW139476   1.550   3.226  12.027  0.5417  2.3555 -0.8274
 9339SOL    HW239477   1.560   3.321  12.154 -1.0010  1.7010 -1.3887
 9340SOL     OW39478   4.047   0.753   6.952 -0.0533 -0.0653  0.8740
 9340SOL    HW139479   3.992   0.694   7.003 -0.9734  0.4351  0.4504
 9340SOL    HW239480   4.097   0.697   6.892 -2.4332 -0.6439 -0.5749
 9341SOL     OW39481   2.714   1.618  14.395  0.2229 -0.5142 -0.0626
 9341SOL    HW139482   2.789   1.600  14.338  1.4502 -0.1384  1.4483
 9341SOL    HW239483   2.676   1.698  14.360 -0.1470  1.0673  3.9526
 9342SOL     OW39484   4.292   1.382  15.732  0.2495  0.4898  0.7014
 9342SOL    HW139485   4.370   1.436  15.748  2.1890 -1.9903 -0.3278
 9342SOL    HW239486   4.276   1.371  15.638  2.0194 -1.2165  0.5940
 9343SOL     OW39487   1.492   3.508   9.237  0.3995 -0.0505  0.3737
 9343SOL    HW139488   1.438   3.521   9.314 -2.7360 -0.2138 -1.7805
 9343SOL    HW239489   1.583   3.521   9.263  0.8013  0.3534 -1.1946
 9344SOL     OW39490   2.109   2.211   2.667 -0.1560 -0.9003 -0.5570
 9344SOL    HW139491   2.187   2.259   2.694 -0.4121  0.7542 -2.8175
 9344SOL    HW239492   2.050   2.223   2.741 -0.3801 -1.8023 -0.5833
 9345SOL     OW39493   1.227   0.016   6.450  0.0588 -0.1926  0.0941
 9345SOL    HW139494   1.132   0.021   6.448  0.0033 -1.3076 -0.2972
 9345SOL    HW239495   1.245   0.071   6.373  1.8957  2.1323  2.1757
 9346SOL     OW39496   3.186   1.537   0.361 -0.2871  0.3866 -0.0233
 9346SOL    HW139497   3.152   1.495   0.440 -0.3785  0.6743  0.0894
 9346SOL    HW239498   3.188   1.465   0.298 -0.4656 -1.1602  1.7266
 9347SOL     OW39499   1.256   2.661   5.662  0.6845  0.2604  0.1654
 9347SOL    HW139500   1.310   2.711   5.601 -1.3974 -0.7798 -2.5550
 9347SOL    HW239501   1.245   2.581   5.610  1.4247  0.1055  0.2536
 9348SOL     OW39502   1.512   3.865   6.094  0.0797  0.4796 -0.2656
 9348SOL    HW139503   1.595   3.820   6.078 -1.5273 -2.6848  0.1146
 9348SOL    HW239504   1.523   3.909   6.178 -1.8529 -1.2616  0.9102
 9349SOL     OW39505   2.707   0.894   8.408 -0.3747  0.0027 -0.3401
 9349SOL    HW139506   2.619   0.924   8.432 -0.4966  0.5998 -1.5020
 9349SOL    HW239507   2.710   0.936   8.322 -5.0851  1.4523  0.1878
 9350SOL     OW39508   2.530   0.110   0.821  0.2481  0.1263  0.6169
 9350SOL    HW139509   2.448   0.153   0.797  0.5556 -0.1459 -0.9318
 9350SOL    HW239510   2.499   0.046   0.885  0.8351 -1.8264 -1.0762
 9351SOL     OW39511   3.396   1.774   2.283  0.4188 -0.4366 -0.7043
 9351SOL    HW139512   3.338   1.804   2.353  0.0903  1.1705 -1.6743
 9351SOL    HW239513   3.333   1.774   2.211 -0.3996 -1.8707 -0.0087
 9352SOL     OW39514   3.082   0.517  14.511  0.1590  0.3212 -0.3577
 9352SOL    HW139515   3.160   0.502  14.565 -1.0384 -2.6635  0.5503
 9352SOL    HW239516   3.050   0.427  14.520  0.7921 -0.0485 -1.8623
 9353SOL     OW39517   0.616   2.361  10.188 -0.3295  0.1281 -0.7245
 9353SOL    HW139518   0.655   2.289  10.138 -1.5994 -0.9039 -0.1873
 9353SOL    HW239519   0.563   2.404  10.120 -0.1547 -0.1504 -1.0384
 9354SOL     OW39520   0.066   0.729   8.603  0.6533 -0.6366  0.1663
 9354SOL    HW139521   0.102   0.751   8.689  0.8372 -1.9193  0.4211
 9354SOL    HW239522   4.699   0.749   8.627  0.7325  0.4676 -0.4691
 9355SOL     OW39523   1.155   3.947   5.681 -1.1204 -0.5191 -0.4357
 9355SOL    HW139524   1.114   3.860   5.678 -1.9760 -0.1323  0.0435
 9355SOL    HW239525   1.209   3.944   5.602 -1.6029 -2.6695 -0.6880
 9356SOL     OW39526   0.253   0.432   5.531 -0.2461  0.3563  0.1328
 9356SOL    HW139527   0.272   0.516   5.490 -0.8719 -0.0087 -0.8890
 9356SOL    HW239528   0.168   0.402   5.499  0.0919 -0.0734 -0.3627
 9357SOL     OW39529   1.116   3.911  13.533 -0.3247  0.0740  0.2837
 9357SOL    HW139530   1.079   3.823  13.536 -1.4295  0.5627  0.9041
 9357SOL    HW239531   1.207   3.903  13.562 -0.3162 -1.0911 -0.0599
 9358SOL     OW39532   1.894   0.395  16.278  0.3218 -0.3255  0.5692
 9358SOL    HW139533   1.946   0.428  16.204  0.4019 -0.1188  0.7150
 9358SOL    HW239534   1.922   0.455  16.348  1.3316  0.8879 -0.8625
 9359SOL     OW39535   4.445   3.640   5.668 -0.2960  0.2795  0.2857
 9359SOL    HW139536   4.408   3.665   5.753 -0.0137 -1.3301  0.8733
 9359SOL    HW239537   4.491   3.558   5.683  2.2117  2.1428  2.8999
 9360SOL     OW39538   1.376   1.829   0.074  0.0053 -0.0149 -0.0077
 9360SOL    HW139539   1.339   1.869   0.154  1.4524  2.5570 -0.6286
 9360SOL    HW239540   1.392   1.741   0.108  1.0997  0.3021  0.2972
 9361SOL     OW39541   2.552   3.263   3.696 -0.2918  1.1516 -0.4179
 9361SOL    HW139542   2.534   3.312   3.776  0.5334 -1.8217  1.5747
 9361SOL    HW239543   2.571   3.178   3.735 -0.9567  1.0254 -0.3703
 9362SOL     OW39544   0.804   3.170  10.548 -0.0275 -0.2444  0.1609
 9362SOL    HW139545   0.788   3.218  10.467 -4.2418 -0.2795  0.9623
 9362SOL    HW239546   0.835   3.246  10.598 -1.1205 -0.7638  1.6242
 9363SOL     OW39547   4.688   3.677   6.957  0.6988 -0.4235 -0.2452
 9363SOL    HW139548   0.058   3.673   6.978  1.2638  0.7117 -2.4671
 9363SOL    HW239549   4.687   3.772   6.971  0.4848 -0.5822  0.8026
 9364SOL     OW39550   0.553   0.539  12.795  0.1292 -0.2874  0.6973
 9364SOL    HW139551   0.526   0.611  12.852  1.0040  0.8533 -0.3176
 9364SOL    HW239552   0.481   0.534  12.731 -1.4468  2.6268  2.2026
 9365SOL     OW39553   0.517   4.253  15.459 -0.2554  0.7758  0.7429
 9365SOL    HW139554   0.425   4.257  15.433  0.2210  2.7691 -0.7358
 9365SOL    HW239555   0.513   4.320  15.527 -0.1987  1.1851  0.3458
 9366SOL     OW39556   2.343   1.962   4.464  0.1326  0.0372 -0.0079
 9366SOL    HW139557   2.349   1.955   4.369  0.1659  0.5599 -0.0441
 9366SOL    HW239558   2.397   2.039   4.483 -2.1736  2.1012 -1.7979
 9367SOL     OW39559   1.242   3.613  11.077 -0.2084  1.0179 -0.4981
 9367SOL    HW139560   1.280   3.681  11.023  1.3969  1.5046  1.2473
 9367SOL    HW239561   1.297   3.604  11.155  1.0472  2.3271 -1.2426
 9368SOL     OW39562   0.480   1.020  17.278  0.3288  0.1252 -0.4190
 9368SOL    HW139563   0.575   1.016  17.282  0.1583 -1.8039  1.7358
 9368SOL    HW239564   0.462   1.051  17.367  2.1161 -1.0445  0.3401
 9369SOL     OW39565   4.461   4.653   8.290  0.1432 -0.3047 -0.2378
 9369SOL    HW139566   4.411   0.008   8.270  1.3082  0.7890  1.0841
 9369SOL    HW239567   4.395   4.587   8.309  1.4426 -1.3045  0.8720
 9370SOL     OW39568   4.617   0.645  14.592  0.6477  0.1719  0.3700
 9370SOL    HW139569   4.529   0.682  14.598  1.1430  1.4078  0.1209
 9370SOL    HW239570   4.663   0.718  14.634 -2.0790  1.6725  0.8011
 9371SOL     OW39571   4.182   2.812  17.346  0.1974  0.2209  0.1349
 9371SOL    HW139572   4.121   2.777  17.412 -0.8466 -0.7003 -1.3036
 9371SOL    HW239573   4.265   2.775  17.376 -1.2208 -1.6678  1.7892
 9372SOL     OW39574   3.827   3.950   5.224  0.3438 -0.1730  0.4483
 9372SOL    HW139575   3.847   3.981   5.313  0.6053 -1.7482  0.9346
 9372SOL    HW239576   3.904   3.971   5.172 -0.2166 -0.4263 -0.4761
 9373SOL     OW39577   1.614   2.411   2.461 -0.3443  0.2977 -0.3058
 9373SOL    HW139578   1.571   2.446   2.383 -1.5670  0.7567  0.5733
 9373SOL    HW239579   1.624   2.322   2.428 -0.6793  0.2091 -0.1732
 9374SOL     OW39580   4.672   1.100   2.058 -0.4246  0.0266 -0.2011
 9374SOL    HW139581   0.022   1.162   2.066 -0.1138 -0.5165  1.1006
 9374SOL    HW239582   4.677   1.066   1.968  2.7212  0.2784 -0.1276
 9375SOL     OW39583   0.038   2.089   1.902 -0.3383 -0.7069 -0.3384
 9375SOL    HW139584   0.100   2.018   1.885  0.3376 -0.3551  0.6353
 9375SOL    HW239585   0.016   2.107   1.811  1.0138  0.4605 -0.4278
 9376SOL     OW39586   2.060   0.549   9.885  0.3920 -0.1568 -0.2208
 9376SOL    HW139587   2.103   0.484   9.942 -0.8444  1.1853  2.2699
 9376SOL    HW239588   2.015   0.484   9.831 -0.2590  0.5634 -0.5413
 9377SOL     OW39589   0.581   1.653   2.017  0.3013 -0.7730 -0.5216
 9377SOL    HW139590   0.611   1.743   2.004  0.2858 -0.4545  1.6231
 9377SOL    HW239591   0.498   1.667   2.063  1.0220 -1.3834  0.9506
 9378SOL     OW39592   1.742   2.441   3.636 -0.0916  0.1634  0.0495
 9378SOL    HW139593   1.755   2.524   3.682 -0.4405  0.3404 -0.1755
 9378SOL    HW239594   1.830   2.420   3.607  1.3053  1.2556  3.4817
 9379SOL     OW39595   3.158   4.547  17.423 -0.4633  0.4341 -0.0205
 9379SOL    HW139596   3.107   4.555  17.503 -1.7341  0.6386 -0.8553
 9379SOL    HW239597   3.216   4.476  17.451  0.6934  1.4846  0.2779
 9380SOL     OW39598   4.061   4.119  11.276  0.2647  0.0888 -0.0347
 9380SOL    HW139599   3.982   4.082  11.315  0.8086  0.4088  1.3745
 9380SOL    HW239600   4.021   4.192  11.228  0.2103  0.5981  0.7922
 9381SOL     OW39601   0.557   0.710   5.302  0.0029 -0.6690  0.0016
 9381SOL    HW139602   0.546   0.620   5.275 -3.3835 -0.4350  0.6544
 9381SOL    HW239603   0.579   0.745   5.216 -0.1313  0.1861  0.3143
 9382SOL     OW39604   1.393   1.744   1.810 -0.0980  0.7023  0.0700
 9382SOL    HW139605   1.330   1.808   1.843  0.2226  0.3715  1.3255
 9382SOL    HW239606   1.385   1.748   1.715 -0.3487  2.2478  0.1587
 9383SOL     OW39607   2.626   1.707   3.520 -0.4848  0.3026 -0.2123
 9383SOL    HW139608   2.586   1.696   3.434  0.6816  0.1133 -0.7390
 9383SOL    HW239609   2.720   1.708   3.500 -0.2850  0.4933  0.7008
 9384SOL     OW39610   3.729   1.532   0.545  0.3112  0.1457 -0.0757
 9384SOL    HW139611   3.712   1.461   0.606  0.5893  0.6190  0.5466
 9384SOL    HW239612   3.644   1.528   0.501 -0.0663  1.7359  0.4980
 9385SOL     OW39613   1.073   3.980   9.056 -0.1063 -0.5030  0.4028
 9385SOL    HW139614   1.038   4.050   9.112  0.1016  0.6928 -0.9585
 9385SOL    HW239615   0.998   3.920   9.055 -0.8787  0.4327  1.6328
 9386SOL     OW39616   2.454   4.154   2.052  0.0970 -0.4890  0.0315
 9386SOL    HW139617   2.534   4.161   2.103 -0.6374 -1.5185  1.3439
 9386SOL    HW239618   2.460   4.060   2.034  2.1567 -0.0120 -1.7251
 9387SOL     OW39619   1.946   3.420   8.764  0.5211 -0.9395  0.1889
 9387SOL    HW139620   2.012   3.421   8.695  0.1426  0.4259 -0.1377
 9387SOL    HW239621   1.877   3.475   8.729  0.7339 -2.2659 -2.2995
 9388SOL     OW39622   3.524   4.339   3.310  0.4330 -0.1442 -0.2098
 9388SOL    HW139623   3.567   4.383   3.237 -0.5977  0.7024 -0.3050
 9388SOL    HW239624   3.503   4.418   3.361 -2.5138 -0.6572 -0.6087
 9389SOL     OW39625   2.170   4.288   2.751  0.4315 -0.5070  0.2320
 9389SOL    HW139626   2.211   4.301   2.666 -4.0344 -0.2394 -1.8767
 9389SOL    HW239627   2.224   4.219   2.789  0.8060 -1.3621 -1.8280
 9390SOL     OW39628   3.416   0.916   5.758 -0.3184  0.2637  0.3835
 9390SOL    HW139629   3.506   0.939   5.781  0.8825 -1.7008 -2.4136
 9390SOL    HW239630   3.407   0.956   5.672 -0.1360  1.7729  1.0691
 9391SOL     OW39631   1.522   4.279   7.861 -0.0316 -0.2246  0.2333
 9391SOL    HW139632   1.567   4.319   7.786  2.1561  0.6162  2.0136
 9391SOL    HW239633   1.470   4.222   7.804 -0.1522 -2.4627  2.5551
 9392SOL     OW39634   2.125   3.579   4.909 -0.5424 -0.0214 -0.4811
 9392SOL    HW139635   2.138   3.487   4.930  2.9815  0.4529 -0.5447
 9392SOL    HW239636   2.042   3.607   4.947 -1.8865 -2.1871 -1.7999
 9393SOL     OW39637   2.244   1.541  17.249  0.1727 -0.3335  0.2047
 9393SOL    HW139638   2.315   1.488  17.212 -1.0692 -1.8884  0.0789
 9393SOL    HW239639   2.165   1.488  17.237 -0.8173  1.3392 -0.6247
 9394SOL     OW39640   0.675   0.290   5.075  0.1353  0.4752  0.2755
 9394SOL    HW139641   0.766   0.308   5.054 -0.5169  1.8306 -1.3776
 9394SOL    HW239642   0.667   0.195   5.070 -1.1739  0.4497  2.7386
 9395SOL     OW39643   4.134   3.258   7.515  0.1009 -0.3079 -0.2985
 9395SOL    HW139644   4.115   3.312   7.438 -0.5691 -1.8969 -1.2536
 9395SOL    HW239645   4.170   3.324   7.574  1.0109 -0.6488 -0.4645
 9396SOL     OW39646   1.631   3.535   5.441  0.6757  0.2685 -0.0655
 9396SOL    HW139647   1.562   3.513   5.378 -1.1958  0.5418  1.8920
 9396SOL    HW239648   1.694   3.463   5.437 -0.9960 -1.2403  0.3418
 9397SOL     OW39649   0.398   0.697   9.005  0.1832 -0.0211 -0.9573
 9397SOL    HW139650   0.398   0.632   8.935 -0.2265 -2.2998  1.1912
 9397SOL    HW239651   0.396   0.646   9.085 -1.3633 -0.8638 -1.5219
 9398SOL     OW39652   2.490   0.998   5.635 -0.2823 -0.0597  0.1184
 9398SOL    HW139653   2.419   0.935   5.651  0.3622 -0.6318  0.7271
 9398SOL    HW239654   2.502   0.993   5.541  0.4461  2.2931  0.0838
 9399SOL     OW39655   3.793   0.664   6.652  0.5191 -0.3692 -0.1100
 9399SOL    HW139656   3.885   0.642   6.666  1.0929  1.5362 -0.9332
 9399SOL    HW239657   3.794   0.732   6.585  1.7400  1.1583  1.4746
 9400SOL     OW39658   0.315   2.622   6.709  0.3590  0.3211  0.1445
 9400SOL    HW139659   0.270   2.617   6.793 -0.1006 -1.5484 -0.2178
 9400SOL    HW239660   0.405   2.600   6.731  0.8541  0.5035 -1.7043
 9401SOL     OW39661   0.146   1.889   7.960  0.8591  0.1713  0.1567
 9401SOL    HW139662   0.172   1.819   8.019  3.8467  1.0584 -0.0989
 9401SOL    HW239663   0.097   1.835   7.898  0.3158  0.4175  0.3761
 9402SOL     OW39664   2.083   3.129   9.324 -0.2515 -0.7343 -0.4774
 9402SOL    HW139665   2.066   3.036   9.339 -0.2944 -0.7491 -0.6155
 9402SOL    HW239666   2.012   3.157   9.266 -0.1369 -1.6839 -1.0660
 9403SOL     OW39667   4.429   2.237   4.776 -0.1060  0.6148 -0.5779
 9403SOL    HW139668   4.421   2.331   4.761  0.6773  0.3068 -2.8901
 9403SOL    HW239669   4.373   2.226   4.853 -2.1821  0.2827 -2.1385
 9404SOL     OW39670   2.637   3.597   9.921  0.5091  0.2656 -0.4578
 9404SOL    HW139671   2.595   3.648   9.991  1.5874  1.6746 -0.8315
 9404SOL    HW239672   2.584   3.619   9.844  0.7484 -2.1676 -1.3068
 9405SOL     OW39673   2.282   3.596   3.697 -0.1241  0.2427  0.2241
 9405SOL    HW139674   2.347   3.528   3.719 -0.9194 -1.7130 -3.4950
 9405SOL    HW239675   2.279   3.637   3.783 -0.7717 -1.9597  1.2520
 9406SOL     OW39676   1.157   0.410   2.112  0.3281 -0.0511  0.3790
 9406SOL    HW139677   1.175   0.330   2.161  1.9631 -0.3316 -0.6997
 9406SOL    HW239678   1.171   0.480   2.177 -0.2516  1.1971 -0.8340
 9407SOL     OW39679   0.364   4.413   2.492 -0.0015  0.3492  0.1493
 9407SOL    HW139680   0.374   4.500   2.530 -0.3404  0.2674  0.4252
 9407SOL    HW239681   0.271   4.420   2.472 -0.0047 -0.4313 -0.1302
 9408SOL     OW39682   2.402   2.576   5.400  0.2170 -0.6880  0.8122
 9408SOL    HW139683   2.341   2.606   5.468 -0.6318 -0.1878 -0.1686
 9408SOL    HW239684   2.463   2.648   5.414  1.1849 -0.9564 -2.1084
 9409SOL     OW39685   0.227   1.150   2.681  0.4828 -0.0003 -0.5134
 9409SOL    HW139686   0.261   1.091   2.614  0.4950  0.3323 -0.7960
 9409SOL    HW239687   0.133   1.157   2.664  0.4892  2.4982  0.4464
 9410SOL     OW39688   4.398   2.279   0.538  0.0559 -0.3012 -0.1325
 9410SOL    HW139689   4.420   2.229   0.616  0.0352  0.0271  0.0815
 9410SOL    HW239690   4.353   2.358   0.569 -0.2028  0.0413 -1.3829
 9411SOL     OW39691   2.209   3.980   6.684 -0.1907  0.2904  0.2238
 9411SOL    HW139692   2.232   4.008   6.773  4.4987 -0.3766 -0.7389
 9411SOL    HW239693   2.212   4.068   6.646 -1.1652  1.5380  3.0718
 9412SOL     OW39694   3.366   4.649   4.376 -0.0044 -0.0588  0.3587
 9412SOL    HW139695   3.363   4.564   4.332  1.8781 -0.3584  0.8310
 9412SOL    HW239696   3.435   4.643   4.442 -0.9905  1.0797  1.4977
 9413SOL     OW39697   2.723   4.218   4.755 -0.4135  0.1355 -0.5370
 9413SOL    HW139698   2.808   4.179   4.734  0.9700  2.4487  0.9107
 9413SOL    HW239699   2.755   4.280   4.820  1.0052  0.1618 -1.2578
 9414SOL     OW39700   3.947   4.079   8.589 -0.0246  0.6707 -0.5404
 9414SOL    HW139701   4.008   4.149   8.615  0.4194  0.0176  0.1982
 9414SOL    HW239702   3.883   4.097   8.658 -0.0455  0.2239 -0.4460
 9415SOL     OW39703   1.208   1.733   6.064 -0.2002 -0.1696 -0.0537
 9415SOL    HW139704   1.225   1.777   5.981 -1.5526  1.4253  0.5280
 9415SOL    HW239705   1.287   1.750   6.115  0.0073  4.3386 -1.8993
 9416SOL     OW39706   0.887   4.516   7.356  0.0380  0.2082  0.0839
 9416SOL    HW139707   0.855   4.593   7.312 -1.6621  0.4811  1.7906
 9416SOL    HW239708   0.868   4.451   7.289  1.7556  1.5044 -1.6502
 9417SOL     OW39709   0.059   3.136   8.713 -0.2256 -0.2133 -0.1357
 9417SOL    HW139710   0.040   3.214   8.765  2.5051 -0.9670  2.0002
 9417SOL    HW239711   0.004   3.068   8.753  1.3741  0.2230  2.7890
 9418SOL     OW39712   1.754   2.350  10.502  0.9665 -0.2086  0.3585
 9418SOL    HW139713   1.715   2.361  10.589  2.4312 -1.9693  1.2419
 9418SOL    HW239714   1.680   2.336  10.443  0.1577 -1.0716  1.5547
 9419SOL     OW39715   2.323   4.154   7.484 -0.1812  0.4405  0.4726
 9419SOL    HW139716   2.356   4.098   7.554 -0.8303 -1.5167 -0.8100
 9419SOL    HW239717   2.235   4.178   7.512  0.0811  1.7786  0.1793
 9420SOL     OW39718   1.030   4.693  13.647 -0.3050 -0.6570  0.3355
 9420SOL    HW139719   0.989   4.715  13.731 -0.9061 -1.0783  0.1474
 9420SOL    HW239720   0.957   4.678  13.587  0.3872  1.1202 -0.9686
 9421SOL     OW39721   3.264   2.288   7.891  0.1538  0.6571  0.7545
 9421SOL    HW139722   3.290   2.232   7.965  3.5567  0.6130 -0.5242
 9421SOL    HW239723   3.218   2.228   7.832  1.0208  0.7492  0.0047
 9422SOL     OW39724   2.988   2.334   1.177  0.2976 -0.0362  0.7798
 9422SOL    HW139725   2.901   2.299   1.195 -0.3215  1.2118  0.2161
 9422SOL    HW239726   3.011   2.386   1.254 -0.5372 -0.5837  1.4036
 9423SOL     OW39727   3.166   3.549   2.186  0.4255 -0.0591 -0.3003
 9423SOL    HW139728   3.161   3.599   2.105  1.9273  0.3431 -0.1453
 9423SOL    HW239729   3.128   3.466   2.158 -3.2161  0.7282  2.2742
 9424SOL     OW39730   1.646   1.867   1.955 -0.0220 -0.1586 -0.2456
 9424SOL    HW139731   1.642   1.775   1.930  0.0723  0.0431 -0.9775
 9424SOL    HW239732   1.560   1.888   1.992  0.2872 -0.6281  0.7408
 9425SOL     OW39733   1.965   1.021  15.726 -0.2874  0.0839 -0.5134
 9425SOL    HW139734   1.977   0.940  15.675  1.8181 -0.4988  0.9107
 9425SOL    HW239735   2.055   1.052  15.734 -0.8157  1.9058 -1.6259
 9426SOL     OW39736   4.047   2.249  10.285 -1.1873  0.4344 -0.3363
 9426SOL    HW139737   4.111   2.291  10.227 -1.5224  0.3697 -0.7482
 9426SOL    HW239738   4.009   2.180  10.231 -0.5507 -1.6983  1.9410
 9427SOL     OW39739   4.521   0.816   8.693 -0.1242  0.2475  0.6313
 9427SOL    HW139740   4.428   0.840   8.701  1.2161  4.8050  2.1132
 9427SOL    HW239741   4.509   0.721   8.681  0.8551  0.3255 -0.9622
 9428SOL     OW39742   1.001   2.015   3.358 -0.0675  0.2617 -0.3617
 9428SOL    HW139743   0.986   1.926   3.390 -0.7748  0.0331 -1.3379
 9428SOL    HW239744   1.096   2.010   3.349  0.0303  0.5711  0.4543
 9429SOL     OW39745   2.326   3.597   3.269 -0.3129 -0.1589 -0.4475
 9429SOL    HW139746   2.310   3.564   3.357 -1.5785  0.0707 -0.5914
 9429SOL    HW239747   2.393   3.536   3.239  0.3524 -0.1783  1.0564
 9430SOL     OW39748   2.560   2.569   6.346  0.4080 -0.2474 -0.1264
 9430SOL    HW139749   2.522   2.613   6.422  2.5782 -0.3620  1.0153
 9430SOL    HW239750   2.653   2.560   6.367  0.7431  1.9869 -0.6672
 9431SOL     OW39751   3.300   0.053  11.226 -0.6693  0.1991 -0.0023
 9431SOL    HW139752   3.273   0.142  11.252  0.7939  0.4405  0.6535
 9431SOL    HW239753   3.393   0.064  11.207 -0.3782  2.2085  2.5235
 9432SOL     OW39754   1.715   2.304  15.926  0.1843  0.1787  0.1777
 9432SOL    HW139755   1.622   2.315  15.907  0.8469  1.3643 -2.3108
 9432SOL    HW239756   1.737   2.243  15.855  0.7170  1.6946 -0.9615
 9433SOL     OW39757   0.919   1.330   5.620  0.0562  0.0981 -0.3430
 9433SOL    HW139758   0.928   1.275   5.698 -2.9616  0.8632  0.5364
 9433SOL    HW239759   0.954   1.261   5.564  1.8633  1.2796 -0.6616
 9434SOL     OW39760   2.331   1.465  14.653 -0.1783 -0.4909 -0.0681
 9434SOL    HW139761   2.353   1.473  14.560 -1.3749  0.3778 -0.2656
 9434SOL    HW239762   2.269   1.393  14.644 -0.0520 -0.5871 -0.1647
 9435SOL     OW39763   0.560   3.414   2.161  0.4673  0.3475  0.8159
 9435SOL    HW139764   0.555   3.492   2.106 -2.2176 -1.1960 -1.1465
 9435SOL    HW239765   0.521   3.341   2.113  0.7614  1.0993 -0.5460
 9436SOL     OW39766   0.559   2.537   2.967 -0.3255  0.1680  0.1580
 9436SOL    HW139767   0.595   2.618   3.002  0.9045 -0.9371  1.4234
 9436SOL    HW239768   0.578   2.466   3.029 -1.7274  0.1559  0.5756
 9437SOL     OW39769   1.207   3.334   0.310  0.3738  0.4054 -0.3567
 9437SOL    HW139770   1.191   3.403   0.374  1.4910  0.2081  0.1309
 9437SOL    HW239771   1.272   3.279   0.353  2.1024  0.6750 -2.6365
 9438SOL     OW39772   0.293   3.039  13.990  0.4311 -0.1026 -0.2327
 9438SOL    HW139773   0.312   3.049  13.897  0.6340  2.6017  0.1114
 9438SOL    HW239774   0.257   2.951  13.981 -2.1585  0.7814  1.5181
 9439SOL     OW39775   2.922   1.648   7.281  0.1599  1.1567  0.0130
 9439SOL    HW139776   2.958   1.697   7.355  0.3643  3.9647 -1.9565
 9439SOL    HW239777   2.991   1.581   7.275 -0.9636 -0.0588  0.6774
 9440SOL     OW39778   0.954   0.205   8.521 -0.6902 -0.2786  0.2707
 9440SOL    HW139779   0.903   0.281   8.493 -0.3103 -0.1776 -0.1444
 9440SOL    HW239780   1.030   0.256   8.550  2.0539 -3.5889 -1.1943
 9441SOL     OW39781   4.643   0.403   9.494  0.2067  0.4455 -0.6268
 9441SOL    HW139782   4.685   0.484   9.466 -0.0323 -0.0886 -2.4895
 9441SOL    HW239783   4.708   0.334   9.483  0.4041  1.0535 -3.1374
 9442SOL     OW39784   2.756   1.025   5.539  0.2981 -0.5626 -0.2135
 9442SOL    HW139785   2.725   1.058   5.455 -0.1812 -4.0926 -1.4199
 9442SOL    HW239786   2.679   1.031   5.597  0.1264 -0.8515 -0.4147
 9443SOL     OW39787   1.359   1.594   1.041 -0.0820 -0.0515 -0.0192
 9443SOL    HW139788   1.393   1.669   0.992 -1.7951  1.3880  0.9492
 9443SOL    HW239789   1.443   1.552   1.055  0.5836  1.0194 -0.8306
 9444SOL     OW39790   4.114   4.720   9.852  0.2184 -0.2788  0.0152
 9444SOL    HW139791   4.116   0.087   9.885  0.0242 -0.3894  0.3282
 9444SOL    HW239792   4.022   4.715   9.826  0.9563  1.9223 -3.0521
 9445SOL     OW39793   0.660   1.651   9.863 -0.0956 -0.2592 -0.2047
 9445SOL    HW139794   0.687   1.736   9.897 -0.9344 -0.5636  1.2548
 9445SOL    HW239795   0.571   1.661   9.828  0.7210 -1.2977 -2.5141
 9446SOL     OW39796   3.922   4.628   2.227 -0.1469  0.0232 -0.0889
 9446SOL    HW139797   3.885   4.675   2.302  0.6121 -0.8469  0.8375
 9446SOL    HW239798   4.015   4.619   2.247 -0.3487 -0.6372  0.5558
 9447SOL     OW39799   4.397   0.783  13.481 -0.2871 -0.4790 -0.2444
 9447SOL    HW139800   4.427   0.866  13.444  0.0226  0.8373  2.9075
 9447SOL    HW239801   4.322   0.813  13.532  0.0781  0.3265 -0.1905
 9448SOL     OW39802   2.653   4.474  11.179 -0.3390 -0.1064  0.0527
 9448SOL    HW139803   2.703   4.393  11.176  0.4331  0.3563  0.3248
 9448SOL    HW239804   2.631   4.483  11.087  0.1436  2.0833  0.1309
 9449SOL     OW39805   3.373   2.754   8.551 -0.0538  0.0667  0.0452
 9449SOL    HW139806   3.449   2.718   8.506 -0.2128  0.9719 -0.9549
 9449SOL    HW239807   3.399   2.744   8.643 -1.7711 -0.5739  0.4757
 9450SOL     OW39808   3.298   4.354   4.311 -0.3464  0.5838  0.1277
 9450SOL    HW139809   3.210   4.384   4.335 -0.7877 -0.0425 -0.7445
 9450SOL    HW239810   3.306   4.275   4.364  0.8390 -0.3655 -1.4580
 9451SOL     OW39811   0.736   1.721   3.683 -0.0031 -0.3306 -0.3574
 9451SOL    HW139812   0.703   1.785   3.746  1.8671  0.3731 -0.0827
 9451SOL    HW239813   0.829   1.743   3.675  1.0062 -3.7599  2.1066
 9452SOL     OW39814   4.003   3.372   8.139 -1.0113  0.2766 -0.1630
 9452SOL    HW139815   4.090   3.396   8.172 -1.6915 -0.3939  2.1052
 9452SOL    HW239816   3.945   3.372   8.215  1.4393  0.1489  1.7096
 9453SOL     OW39817   0.203   2.295   1.659  0.1256 -0.0242 -0.1764
 9453SOL    HW139818   0.218   2.206   1.689 -1.5545 -0.1710  0.2765
 9453SOL    HW239819   0.137   2.280   1.591 -0.2431  1.4855 -0.1577
 9454SOL     OW39820   3.205   4.283  14.106 -0.4004 -0.3292 -0.2113
 9454SOL    HW139821   3.274   4.329  14.058 -2.8861  1.6530 -1.8914
 9454SOL    HW239822   3.170   4.223  14.040 -0.8904  1.1662 -1.3180
 9455SOL     OW39823   0.500   3.993  13.603 -0.2156  0.1780  0.3563
 9455SOL    HW139824   0.496   4.008  13.698 -0.7133  2.5705 -0.0323
 9455SOL    HW239825   0.405   3.990  13.592 -0.0556 -1.0321 -0.6455
 9456SOL     OW39826   1.708   2.709   3.757  0.0575 -0.7897  0.1621
 9456SOL    HW139827   1.689   2.756   3.675 -2.3471  0.2247  1.2982
 9456SOL    HW239828   1.701   2.784   3.815 -1.9187 -0.7827 -0.0925
 9457SOL     OW39829   2.774   0.020   6.992  0.3681 -0.2804 -0.3708
 9457SOL    HW139830   2.778   4.656   7.031  0.6524  0.1912  0.6442
 9457SOL    HW239831   2.829   0.007   6.914  1.5560 -1.6456  0.6951
 9458SOL     OW39832   3.323   3.920   3.528  0.5566 -0.0868 -0.0933
 9458SOL    HW139833   3.385   3.900   3.598  2.1242  0.7155 -1.2243
 9458SOL    HW239834   3.262   3.847   3.518  0.4129  0.6558 -4.6122
 9459SOL     OW39835   2.939   4.597  15.311  0.4152 -0.2560  0.8986
 9459SOL    HW139836   2.985   4.534  15.366 -0.3177 -0.0871  1.7042
 9459SOL    HW239837   3.012   4.648  15.276 -0.5480  2.2763  2.5707
 9460SOL     OW39838   3.952   2.277   0.495 -0.4523 -0.6242 -0.1770
 9460SOL    HW139839   3.978   2.318   0.578 -0.1128  1.7274 -1.4472
 9460SOL    HW239840   3.890   2.213   0.530 -1.1675  0.3071  0.2770
 9461SOL     OW39841   3.097   3.800  15.622 -0.4806 -0.1903  0.7958
 9461SOL    HW139842   3.051   3.881  15.600 -1.6412 -0.8360  0.8389
 9461SOL    HW239843   3.049   3.771  15.700 -1.1317  2.6906  1.4395
 9462SOL     OW39844   1.278   3.953   1.714  0.0771 -0.9988 -0.4856
 9462SOL    HW139845   1.251   3.982   1.627  0.6557  1.7241  0.2456
 9462SOL    HW239846   1.371   3.975   1.709 -0.2028  0.0863 -0.8765
 9463SOL     OW39847   1.213   4.323  11.639  0.5100  0.2603  0.7127
 9463SOL    HW139848   1.228   4.277  11.721 -2.9798  0.0462  1.2307
 9463SOL    HW239849   1.144   4.384  11.668 -0.8094 -1.2947  0.8331
 9464SOL     OW39850   2.928   2.151   7.393 -0.4284 -0.4051 -0.9876
 9464SOL    HW139851   2.905   2.242   7.414  1.5652 -0.0225 -0.4050
 9464SOL    HW239852   2.912   2.122   7.483 -0.3442  2.1153 -0.1587
 9465SOL     OW39853   4.378   1.624   4.137 -0.5989  0.2529  0.2707
 9465SOL    HW139854   4.451   1.626   4.075  0.1272  0.5413  1.1198
 9465SOL    HW239855   4.324   1.559   4.092 -0.6765  0.9965 -0.7116
 9466SOL     OW39856   4.250   1.117   1.239  0.3370  0.3748 -0.5552
 9466SOL    HW139857   4.196   1.183   1.197 -1.3591 -0.2650  0.6315
 9466SOL    HW239858   4.226   1.044   1.182  1.4497  0.1930 -0.7915
 9467SOL     OW39859   1.363   1.334   8.983  0.3707 -0.3383 -0.4105
 9467SOL    HW139860   1.333   1.295   9.065 -0.8259  0.0621 -0.6550
 9467SOL    HW239861   1.334   1.264   8.925  0.4805 -0.7181 -0.0041
 9468SOL     OW39862   2.205   3.705  10.038  0.0758 -0.0647  0.5540
 9468SOL    HW139863   2.277   3.765  10.019 -0.9341  0.8809 -0.2583
 9468SOL    HW239864   2.167   3.692   9.952 -0.2151 -0.0886  0.6860
 9469SOL     OW39865   2.081   2.350   7.627 -0.1691  0.1939  0.3674
 9469SOL    HW139866   2.007   2.387   7.675 -0.5951  0.0885 -0.2093
 9469SOL    HW239867   2.056   2.268   7.586  0.6085  0.4069 -0.5269
 9470SOL     OW39868   4.304   4.681   6.162  0.6078  0.2275  0.0138
 9470SOL    HW139869   4.279   4.711   6.249  2.5128  0.5248  0.4412
 9470SOL    HW239870   4.313   4.588   6.184  0.6060 -0.2962 -2.1943
 9471SOL     OW39871   3.387   0.580   7.637 -0.0400 -0.5484  0.2325
 9471SOL    HW139872   3.375   0.608   7.546 -3.8835 -1.2457  0.5112
 9471SOL    HW239873   3.380   0.484   7.638  0.5892 -0.5779  1.5025
 9472SOL     OW39874   4.139   2.720   2.666 -0.1075 -0.6914  0.4652
 9472SOL    HW139875   4.098   2.748   2.748 -1.0703 -0.4092 -0.1121
 9472SOL    HW239876   4.066   2.727   2.604 -0.3312  0.5253  0.8585
 9473SOL     OW39877   3.701   4.662  14.636  0.3915 -0.4207  0.3575
 9473SOL    HW139878   3.714   4.576  14.676 -0.4216  0.3682  2.3364
 9473SOL    HW239879   3.739   4.711  14.709  2.3744 -0.1150 -0.8865
 9474SOL     OW39880   1.455   0.664   8.569 -0.1336  0.6300 -0.2016
 9474SOL    HW139881   1.409   0.664   8.653  0.3452 -0.3513  0.0639
 9474SOL    HW239882   1.436   0.755   8.547  0.1038  0.4600 -1.1112
 9475SOL     OW39883   0.576   4.169   1.753  0.6621  0.2875 -0.5808
 9475SOL    HW139884   0.648   4.160   1.816  2.6718 -2.2409 -3.2813
 9475SOL    HW239885   0.515   4.100   1.778 -0.3423  1.0607 -0.8816
 9476SOL     OW39886   0.792   1.860   4.429  0.5896 -0.5770 -0.1199
 9476SOL    HW139887   0.882   1.890   4.429  0.4086 -0.0323 -0.7819
 9476SOL    HW239888   0.755   1.938   4.389  1.7672  0.1713  0.2730
 9477SOL     OW39889   3.319   0.463   8.430 -0.4085  0.1115 -0.1534
 9477SOL    HW139890   3.281   0.493   8.347 -0.1626 -0.2619 -0.4010
 9477SOL    HW239891   3.244   0.460   8.489 -1.5033  0.9117 -1.4807
 9478SOL     OW39892   4.003   1.007   1.430  1.2594 -0.3025 -0.0964
 9478SOL    HW139893   3.962   1.086   1.393  0.1966 -0.6462  0.3531
 9478SOL    HW239894   3.995   0.941   1.362  0.5533 -0.9672  0.6399
 9479SOL     OW39895   3.979   0.232   4.896  0.5759 -0.5184 -0.5428
 9479SOL    HW139896   3.941   0.320   4.906  1.8740  0.0376 -0.4801
 9479SOL    HW239897   3.946   0.210   4.809  0.8932 -0.3504 -0.7055
 9480SOL     OW39898   2.963   4.071  15.591 -0.2172  0.5423  0.0899
 9480SOL    HW139899   3.048   4.115  15.586  0.1286 -0.2446 -0.9242
 9480SOL    HW239900   2.933   4.104  15.506 -2.4313  0.7943  0.9633
 9481SOL     OW39901   1.907   4.717   0.624  0.1157  0.0110 -0.3308
 9481SOL    HW139902   1.811   4.713   0.619 -0.0401 -0.5120  3.4587
 9481SOL    HW239903   1.921   0.089   0.624 -1.2332  0.2025  1.3202
 9482SOL     OW39904   2.771   2.477   5.016 -0.3101  0.2697  0.5339
 9482SOL    HW139905   2.857   2.510   4.990  0.3121 -1.7809  0.0138
 9482SOL    HW239906   2.802   2.425   5.090  4.4655  0.9498 -1.0083
 9483SOL     OW39907   4.569   1.743   4.465 -0.1375 -0.1502 -0.2226
 9483SOL    HW139908   4.599   1.834   4.470  0.7441 -0.5695  2.4143
 9483SOL    HW239909   4.643   1.703   4.511 -2.2283 -1.9244  1.6033
 9484SOL     OW39910   3.622   4.087  17.500 -0.3850 -0.0351 -0.1371
 9484SOL    HW139911   3.671   4.169  17.512  0.1691 -0.3427 -0.3286
 9484SOL    HW239912   3.531   4.111  17.519  0.3273  2.2387  0.4497
 9485SOL     OW39913   1.313   0.188   6.707 -0.4366  0.6151 -0.6977
 9485SOL    HW139914   1.333   0.216   6.618  0.2827 -1.9094 -1.3498
 9485SOL    HW239915   1.218   0.197   6.714 -0.2091  1.0207  2.0570
 9486SOL     OW39916   1.452   1.925  10.212 -0.0660  0.4880  0.2285
 9486SOL    HW139917   1.408   1.883  10.138  2.0865 -0.1849 -0.6802
 9486SOL    HW239918   1.498   1.998  10.169  0.6167  0.3024  0.6483
 9487SOL     OW39919   1.286   0.256  13.698  1.0509  0.0264  0.3243
 9487SOL    HW139920   1.286   0.186  13.633 -1.6012 -0.8360  1.2472
 9487SOL    HW239921   1.218   0.315  13.666  0.7241 -1.1263 -1.1220
 9488SOL     OW39922   4.025   2.438   7.007 -0.3687  0.2897  0.3905
 9488SOL    HW139923   4.030   2.507   7.073  0.5049 -1.9078  2.6081
 9488SOL    HW239924   4.086   2.372   7.041  1.6812  2.3852  0.7834
 9489SOL     OW39925   0.779   2.316   8.608  0.3620 -0.3199  0.1060
 9489SOL    HW139926   0.691   2.352   8.596  1.1448  0.9738 -1.6656
 9489SOL    HW239927   0.775   2.255   8.682  3.0410  1.3898  1.6516
 9490SOL     OW39928   2.510   2.296   0.323  0.0954  0.1737  0.7170
 9490SOL    HW139929   2.572   2.225   0.306  0.7303  0.1201  3.1971
 9490SOL    HW239930   2.474   2.306   0.235 -1.6589  0.6046  1.4915
 9491SOL     OW39931   3.943   1.148   6.605  0.0519 -0.5814  0.5742
 9491SOL    HW139932   4.023   1.183   6.644  1.0482 -1.4314 -0.7069
 9491SOL    HW239933   3.971   1.056   6.604  1.7466 -0.0930  2.8380
 9492SOL     OW39934   3.508   1.003   1.953  0.2255  0.3116  0.5223
 9492SOL    HW139935   3.581   1.023   2.011  0.5339 -0.4314  0.3933
 9492SOL    HW239936   3.440   0.976   2.014  0.9808 -0.1805  1.1394
 9493SOL     OW39937   1.859   4.482  14.163 -0.3005  0.0663  0.1443
 9493SOL    HW139938   1.841   4.570  14.128  0.5578 -1.2150 -3.5466
 9493SOL    HW239939   1.768   4.454  14.173 -0.5278  0.7168 -0.0716
 9494SOL     OW39940   1.837   0.277   0.500 -0.1322 -0.0038 -0.1512
 9494SOL    HW139941   1.852   0.348   0.438  2.1655 -0.2795  0.0961
 9494SOL    HW239942   1.813   0.207   0.440  1.2103 -3.8218  3.7192
 9495SOL     OW39943   2.078   3.855  12.354 -0.3822  0.3771 -0.1281
 9495SOL    HW139944   2.107   3.881  12.441  0.2561  0.6151 -0.4115
 9495SOL    HW239945   1.983   3.850  12.367 -0.1765 -2.2327  0.2344
 9496SOL     OW39946   4.071   0.137  15.740  0.0478 -0.2056  0.1522
 9496SOL    HW139947   4.020   0.196  15.685  1.4972  1.6261  0.7729
 9496SOL    HW239948   3.999   0.105  15.793 -0.8515  1.0897 -0.2920
 9497SOL     OW39949   0.172   3.282   4.484  0.0042 -0.1045  0.0583
 9497SOL    HW139950   0.195   3.191   4.499  0.6903  0.1775  0.7460
 9497SOL    HW239951   0.177   3.304   4.391 -2.3832 -0.9470 -0.2749
 9498SOL     OW39952   1.535   2.038   1.736 -0.4494  0.1923  0.3479
 9498SOL    HW139953   1.556   1.946   1.722  0.6541  0.8826 -2.6095
 9498SOL    HW239954   1.622   2.079   1.737 -1.3379  2.0840 -0.0766
 9499SOL     OW39955   0.824   3.891  10.164  0.5116  0.6179 -0.3103
 9499SOL    HW139956   0.848   3.825  10.230 -3.6858 -2.0296 -1.4354
 9499SOL    HW239957   0.735   3.859  10.149  1.0789  0.4345 -3.2571
 9500SOL     OW39958   2.203   2.335   5.223  0.0376 -0.2385  0.1766
 9500SOL    HW139959   2.224   2.245   5.197 -2.6406 -1.1454  1.1011
 9500SOL    HW239960   2.112   2.343   5.194  1.2016 -0.4339 -3.4750
 9501SOL     OW39961   4.012   3.907   5.615  0.6376 -0.2846 -0.2443
 9501SOL    HW139962   4.056   3.988   5.591  1.9050 -0.3863  1.7122
 9501SOL    HW239963   3.932   3.932   5.569  1.0043 -0.6767 -1.1005
 9502SOL     OW39964   2.603   4.690   5.315  0.3303 -0.3417 -0.2917
 9502SOL    HW139965   2.511   4.714   5.309  1.0136  1.7472 -2.6348
 9502SOL    HW239966   2.619   4.708   5.408  1.3313  2.1866 -0.9573
 9503SOL     OW39967   2.754   4.101   5.620  0.3012 -0.0764  0.1981
 9503SOL    HW139968   2.794   4.134   5.539  0.6375  1.4380  0.9656
 9503SOL    HW239969   2.833   4.084   5.670  1.6739 -1.3408 -2.4103
 9504SOL     OW39970   4.039   2.004   9.223  0.2840  0.2643 -0.6600
 9504SOL    HW139971   3.952   1.975   9.195  1.3683 -2.6977 -0.9922
 9504SOL    HW239972   4.026   2.094   9.251 -1.9530 -0.0376 -0.7143
 9505SOL     OW39973   1.106   3.666  17.362  0.0089 -0.0667 -0.0321
 9505SOL    HW139974   1.131   3.597  17.423 -0.0953 -0.7979 -0.8189
 9505SOL    HW239975   1.098   3.611  17.284 -0.9038  0.0429 -0.0118
 9506SOL     OW39976   0.555   3.787  10.502  0.0503 -0.1451  0.3329
 9506SOL    HW139977   0.508   3.714  10.463 -0.1791 -0.3629  1.0154
 9506SOL    HW239978   0.499   3.860  10.474 -0.3850 -0.8844 -0.7089
 9507SOL     OW39979   0.645   0.280   7.164 -0.1406 -0.4857  0.2148
 9507SOL    HW139980   0.691   0.280   7.248  0.0632 -1.4579  0.0979
 9507SOL    HW239981   0.554   0.274   7.195 -0.6584  0.8655 -1.0114
 9508SOL     OW39982   1.718   3.391   2.110  0.4136 -0.6400  0.0899
 9508SOL    HW139983   1.811   3.368   2.107  0.8645  1.3186 -1.5198
 9508SOL    HW239984   1.721   3.476   2.065  0.0641 -1.1260 -0.8654
 9509SOL     OW39985   1.871   0.939  12.516 -0.1223 -0.1448  0.3259
 9509SOL    HW139986   1.797   0.963  12.461  1.1031  2.0312 -0.3588
 9509SOL    HW239987   1.834   0.929  12.604 -1.2088 -1.7695 -0.3130
 9510SOL     OW39988   0.427   3.917   4.891 -0.3755 -0.0221  0.3141
 9510SOL    HW139989   0.441   3.823   4.878 -0.7535  0.4596 -3.4367
 9510SOL    HW239990   0.354   3.911   4.953 -0.7973 -0.7734 -0.2571
 9511SOL     OW39991   3.143   0.708   6.829 -0.4929 -0.8034  0.3651
 9511SOL    HW139992   3.073   0.667   6.878 -1.3654  0.2360 -0.0058
 9511SOL    HW239993   3.099   0.752   6.756 -1.7084 -1.0285  0.9774
 9512SOL     OW39994   4.553   0.803   2.055 -0.2185 -0.1431  0.2454
 9512SOL    HW139995   4.476   0.856   2.074  0.0111  0.1137  0.4678
 9512SOL    HW239996   4.551   0.763   2.142  1.2029  1.7182  1.1540
 9513SOL     OW39997   3.983   3.714   5.430 -0.3234  0.0694  0.0802
 9513SOL    HW139998   3.917   3.649   5.456  0.5066 -0.8641 -0.1556
 9513SOL    HW239999   4.031   3.731   5.510 -1.2304 -0.6560  0.7884
 9514SOL     OW40000   4.501   2.180   9.382  0.1397  0.7464 -0.2245
 9514SOL    HW140001   4.543   2.143   9.304  1.1899 -0.8527  1.0948
 9514SOL    HW240002   4.547   2.264   9.381  0.3984  0.5810 -2.6981
 9515SOL     OW40003   1.593   1.731   6.055 -0.3413  0.7369 -0.1808
 9515SOL    HW140004   1.566   1.639   6.062  0.8662  0.5016  1.4042
 9515SOL    HW240005   1.686   1.711   6.068 -0.4486  0.2626 -0.1494
 9516SOL     OW40006   2.914   2.551   7.165 -0.4966  0.0956  0.3894
 9516SOL    HW140007   2.982   2.508   7.216 -0.2930  0.4972  0.4613
 9516SOL    HW240008   2.970   2.594   7.100  1.4630  1.2341  2.8508
 9517SOL     OW40009   1.023   2.634   4.424 -0.3555 -0.9669 -0.0497
 9517SOL    HW140010   0.955   2.684   4.379 -0.4910 -2.5513 -1.5939
 9517SOL    HW240011   1.079   2.709   4.444 -1.6559 -0.3223  1.1718
 9518SOL     OW40012   0.355   0.296   7.976  0.0611 -0.2539 -0.0462
 9518SOL    HW140013   0.426   0.300   7.911 -0.2897 -0.1788 -0.4291
 9518SOL    HW240014   0.321   0.385   7.986 -0.0363 -0.1122 -1.5530
 9519SOL     OW40015   2.693   3.360  12.060 -0.4944  0.0343  0.4113
 9519SOL    HW140016   2.668   3.448  12.087  0.3160 -0.2450  2.1122
 9519SOL    HW240017   2.717   3.317  12.143 -1.1743  3.5167  2.4407
 9520SOL     OW40018   2.671   3.691   3.084 -0.0098 -0.7778  0.2163
 9520SOL    HW140019   2.757   3.724   3.057 -0.6515  0.4418 -0.3673
 9520SOL    HW240020   2.707   3.655   3.164 -2.3588  0.8431  1.9886
 9521SOL     OW40021   4.302   2.815   4.065 -0.0940 -0.1426 -0.1564
 9521SOL    HW140022   4.330   2.849   3.980  3.4718 -0.6964  0.7585
 9521SOL    HW240023   4.387   2.808   4.109 -0.7469  0.9401  1.3120
 9522SOL     OW40024   3.962   1.420   7.610 -0.0955 -0.1510  0.2889
 9522SOL    HW140025   4.051   1.429   7.643  0.1098 -1.2787  0.0588
 9522SOL    HW240026   3.971   1.353   7.542 -0.0699 -0.4857  0.6183
 9523SOL     OW40027   0.061   1.384   4.562  0.2966  0.3557 -0.2618
 9523SOL    HW140028   4.690   1.395   4.551  0.5664  2.4245 -0.5607
 9523SOL    HW240029   0.076   1.350   4.650 -0.4804 -1.4190 -0.8154
 9524SOL     OW40030   0.575   4.258  17.161 -0.1153  0.3848  1.1553
 9524SOL    HW140031   0.507   4.320  17.188 -2.5091 -0.7420 -2.1895
 9524SOL    HW240032   0.565   4.188  17.225 -0.4600  0.0537  0.7333
 9525SOL     OW40033   3.251   3.237   8.012 -0.2495 -0.1600 -0.1884
 9525SOL    HW140034   3.234   3.312   8.070  0.7117  0.6321 -0.9368
 9525SOL    HW240035   3.224   3.165   8.069 -1.1544 -0.5169 -1.0720
 9526SOL     OW40036   2.449   4.076  11.123 -0.5049 -0.0563 -0.2494
 9526SOL    HW140037   2.526   4.096  11.176  0.4138  0.7421 -1.8530
 9526SOL    HW240038   2.455   4.124  11.040 -1.0835  1.4497  0.5901
 9527SOL     OW40039   2.499   1.000   7.572  0.2047 -0.0464 -0.5110
 9527SOL    HW140040   2.481   1.073   7.631  1.3627 -0.3806  0.2469
 9527SOL    HW240041   2.509   0.932   7.638  0.4752  2.0003  1.5364
 9528SOL     OW40042   1.234   4.494   7.819  0.0593  0.5958 -0.0815
 9528SOL    HW140043   1.157   4.440   7.832  0.4092  0.2583  0.5755
 9528SOL    HW240044   1.302   4.435   7.852 -0.3443  0.3870  0.3807
 9529SOL     OW40045   1.622   1.330   8.945 -0.2040 -0.9585  0.0907
 9529SOL    HW140046   1.534   1.365   8.956  0.4957  0.9211 -0.1522
 9529SOL    HW240047   1.605   1.245   8.984 -0.2361 -0.4907  1.1005
 9530SOL     OW40048   0.211   2.763  14.590  0.1163  0.1383 -0.2433
 9530SOL    HW140049   0.160   2.780  14.670 -1.0611 -2.4192 -0.4484
 9530SOL    HW240050   0.287   2.722  14.632  2.3194  3.0012 -1.5046
 9531SOL     OW40051   1.860   2.424  17.214 -0.2597  0.6667  0.0353
 9531SOL    HW140052   1.793   2.409  17.148  0.3764 -3.7889  0.4187
 9531SOL    HW240053   1.806   2.437  17.292 -1.5595 -1.5935 -0.4977
 9532SOL     OW40054   2.575   4.186   5.034 -0.6723  0.2981 -0.4772
 9532SOL    HW140055   2.585   4.114   4.971 -1.2889 -0.0967 -0.1239
 9532SOL    HW240056   2.533   4.262   4.993 -1.0062 -0.2494 -1.1576
 9533SOL     OW40057   1.728   2.451   6.486  0.3228 -0.4682 -0.0500
 9533SOL    HW140058   1.730   2.498   6.403 -0.6702  2.0336  1.3294
 9533SOL    HW240059   1.802   2.391   6.483  2.3191  1.9060  1.5263
 9534SOL     OW40060   0.344   2.238   6.383  0.1011 -0.5147  0.1967
 9534SOL    HW140061   0.439   2.247   6.383  0.3678 -3.1880  3.1010
 9534SOL    HW240062   0.313   2.300   6.449 -2.5005 -0.5410 -0.9822
 9535SOL     OW40063   3.987   2.708  12.910 -0.1891 -0.4227  0.4674
 9535SOL    HW140064   3.896   2.699  12.940  0.3197 -1.7185  1.6142
 9535SOL    HW240065   3.987   2.804  12.912  0.3225 -0.4168  0.0122
 9536SOL     OW40066   4.184   0.817   5.145  0.1188 -0.3600  0.0851
 9536SOL    HW140067   4.272   0.847   5.123 -0.4975  2.1476  1.0676
 9536SOL    HW240068   4.139   0.883   5.198  0.9177  0.3413 -0.1138
 9537SOL     OW40069   1.374   2.103   7.626  0.1712 -0.2593  0.4070
 9537SOL    HW140070   1.317   2.067   7.559  1.0892  0.0931 -0.5649
 9537SOL    HW240071   1.460   2.112   7.583 -1.3531  0.4963 -2.4809
 9538SOL     OW40072   4.004   2.104   2.663 -0.5652 -0.0440  0.4793
 9538SOL    HW140073   3.930   2.059   2.621  1.3826 -1.4230 -1.4833
 9538SOL    HW240074   4.044   2.137   2.583 -3.2856  1.9096 -0.0996
 9539SOL     OW40075   4.158   2.684   2.334  0.1696 -0.4514 -0.1481
 9539SOL    HW140076   4.080   2.727   2.299  0.9411 -0.6254 -2.0747
 9539SOL    HW240077   4.119   2.600   2.360  1.2446 -0.3553  1.7050
 9540SOL     OW40078   1.423   2.540   8.382 -0.0925 -0.2585 -0.1101
 9540SOL    HW140079   1.412   2.574   8.471 -1.6089  0.7751 -0.6858
 9540SOL    HW240080   1.512   2.563   8.358 -0.3317  0.2368 -0.5303
 9541SOL     OW40081   4.322   3.112   7.333 -0.5067  0.6274 -0.1468
 9541SOL    HW140082   4.390   3.174   7.360  0.5346  0.0232 -1.4068
 9541SOL    HW240083   4.263   3.112   7.408  2.9902  3.8313  2.6341
 9542SOL     OW40084   2.967   4.509   3.808 -0.1015  0.2688  0.0841
 9542SOL    HW140085   3.046   4.472   3.848 -0.0813  0.2600  0.0366
 9542SOL    HW240086   2.922   4.537   3.887 -2.7152 -3.3385 -0.1218
 9543SOL     OW40087   2.128   1.789   9.784  0.2732 -0.1560 -0.3847
 9543SOL    HW140088   2.189   1.720   9.756  1.5884  0.2446  1.5143
 9543SOL    HW240089   2.144   1.863   9.726  3.0827 -1.1978 -0.9398
 9544SOL     OW40090   4.345   1.064   1.760  0.4164 -0.1478  0.0230
 9544SOL    HW140091   4.328   1.027   1.674 -1.5584  2.8805 -0.8885
 9544SOL    HW240092   4.290   1.007   1.814  0.5428 -0.5177 -0.2497
 9545SOL     OW40093   4.513   3.904   6.668 -0.4380 -1.0745 -0.7438
 9545SOL    HW140094   4.426   3.902   6.628 -0.4275 -0.7208 -0.7857
 9545SOL    HW240095   4.488   3.887   6.759  0.9536 -0.4822 -0.2515
 9546SOL     OW40096   2.180   3.805   8.942 -0.4559 -0.1787 -0.0002
 9546SOL    HW140097   2.225   3.731   8.982 -0.8212  0.6360  1.9289
 9546SOL    HW240098   2.257   3.861   8.943 -0.4591 -0.1757  0.1134
 9547SOL     OW40099   3.776   2.569   9.979 -0.7353  0.2070  0.0602
 9547SOL    HW140100   3.810   2.657   9.998  2.3339 -1.1591  0.7813
 9547SOL    HW240101   3.682   2.584   9.989 -0.6877  1.7040 -1.6895
 9548SOL     OW40102   2.413   2.181  15.663 -1.1268 -0.5089 -0.1655
 9548SOL    HW140103   2.414   2.276  15.679 -1.8337 -1.0569  3.1357
 9548SOL    HW240104   2.475   2.174  15.591  0.1466  1.0947  0.7639
 9549SOL     OW40105   0.745   0.556   4.865 -0.2818  0.6975  0.3894
 9549SOL    HW140106   0.754   0.633   4.809  0.5128 -0.2855 -0.8535
 9549SOL    HW240107   0.768   0.591   4.951  1.5767  1.2553 -0.3359
 9550SOL     OW40108   4.294   4.153   5.102  0.7801 -0.3808 -0.7446
 9550SOL    HW140109   4.316   4.234   5.056  1.1119 -1.3449 -2.3042
 9550SOL    HW240110   4.361   4.104   5.053  0.1604  0.9330 -2.9010
 9551SOL     OW40111   2.046   3.746   4.026  0.2303 -0.0110  0.3663
 9551SOL    HW140112   1.991   3.806   3.976  0.0654  0.6718  1.3588
 9551SOL    HW240113   1.985   3.673   4.031 -0.9924  1.0212  0.2933
 9552SOL     OW40114   4.653   1.580  17.613 -0.0829  0.0646 -0.0541
 9552SOL    HW140115   4.640   1.639  17.538  0.3577 -3.6693 -3.1071
 9552SOL    HW240116   0.008   1.620  17.651  0.6224  0.9456 -2.3926
 9553SOL     OW40117   3.326   0.955   6.020 -0.1923 -0.0441  0.3697
 9553SOL    HW140118   3.324   0.881   6.080  0.0815 -1.0760 -0.8955
 9553SOL    HW240119   3.380   0.922   5.949 -0.2525 -1.5771  1.0336
 9554SOL     OW40120   3.759   0.634   0.511 -0.0274 -0.1112  0.3336
 9554SOL    HW140121   3.766   0.629   0.607 -1.2260 -0.3354  0.3973
 9554SOL    HW240122   3.733   0.544   0.493  0.6440  0.2656 -2.4227
 9555SOL     OW40123   0.670   3.757   2.407  0.5781  0.3808  0.5604
 9555SOL    HW140124   0.708   3.673   2.383 -1.1787 -0.5332  0.9342
 9555SOL    HW240125   0.583   3.758   2.366  0.4824  0.6917  0.7699
 9556SOL     OW40126   2.378   1.415   5.573  0.2126  0.1795  0.6134
 9556SOL    HW140127   2.399   1.339   5.627  2.0162  1.5854  1.9017
 9556SOL    HW240128   2.313   1.389   5.507 -2.4854  0.9388  2.9498
 9557SOL     OW40129   1.269   4.049   2.832 -0.5296  0.3526  0.8832
 9557SOL    HW140130   1.258   3.954   2.837 -1.1961  0.4784  1.8132
 9557SOL    HW240131   1.187   4.075   2.790  0.2452  2.7265  0.8612
 9558SOL     OW40132   4.468   3.235   3.210  0.6142  0.1417 -0.2079
 9558SOL    HW140133   4.447   3.328   3.212  0.3029  0.0318  1.8791
 9558SOL    HW240134   4.430   3.206   3.127 -1.4777 -1.6526  1.3647
 9559SOL     OW40135   3.832   0.988  12.912  0.2713  0.1698 -0.4629
 9559SOL    HW140136   3.804   1.076  12.939 -0.3254 -0.1791  0.0571
 9559SOL    HW240137   3.766   0.972  12.845  1.5330 -0.4996 -1.5287
 9560SOL     OW40138   1.829   4.614   8.222 -0.4666  0.1384 -0.0261
 9560SOL    HW140139   1.822   4.708   8.209 -0.1209  0.1568 -0.0938
 9560SOL    HW240140   1.851   4.607   8.315 -0.2595  1.3478  0.0098
 9561SOL     OW40141   3.164   3.160   4.585 -0.1530 -0.5135 -0.2856
 9561SOL    HW140142   3.117   3.214   4.521 -0.2630 -1.7221 -1.2313
 9561SOL    HW240143   3.136   3.075   4.550  0.8896 -0.8368 -0.3375
 9562SOL     OW40144   1.155   2.055   2.797 -0.1911  0.1793  0.0051
 9562SOL    HW140145   1.200   2.017   2.872 -0.9095  0.6759  0.6894
 9562SOL    HW240146   1.063   2.035   2.818 -0.7872  0.2322 -2.4777
 9563SOL     OW40147   0.291   2.899   7.527 -0.4547  0.2890  0.2761
 9563SOL    HW140148   0.267   2.895   7.619  1.4788  3.1134  0.9010
 9563SOL    HW240149   0.380   2.864   7.518  0.2126  1.7197  1.3204
 9564SOL     OW40150   3.467   3.093   4.055  0.1070 -0.3376 -0.0946
 9564SOL    HW140151   3.549   3.083   4.007 -0.4732 -0.3590 -1.0765
 9564SOL    HW240152   3.497   3.142   4.132 -0.5837  1.7455 -1.1467
 9565SOL     OW40153   2.745   3.985  10.639 -0.1534 -0.2020 -1.0074
 9565SOL    HW140154   2.823   4.031  10.606 -0.1195  0.1681 -0.4110
 9565SOL    HW240155   2.693   4.064  10.655 -0.8291 -0.7237 -0.6658
   4.72310   4.72310  17.69429
