Membrane in water
40155
    1TCq1    O1    1   1.786   2.140  10.834 -0.2018 -0.5987 -0.3956
    1TCq1    C1    2   1.744   2.013  10.874 -0.3061 -0.2988 -0.2403
    1TCq1    O2    3   1.647   1.956  10.841 -0.0953  0.1901  0.3729
    1TCq1    C2    4   1.826   1.954  10.977  0.2761 -0.2348 -0.5566
    1TCq1    C3    5   1.958   1.994  10.975 -0.6017 -0.0293 -0.1588
    1TCq1    C4    6   2.036   1.928  11.065  0.5125 -1.0356 -0.4300
    1TCq1    C5    7   1.990   1.833  11.155  0.1903 -0.7869 -0.0146
    1TCq1    C6    8   1.856   1.813  11.154 -0.4922  0.1707  0.3139
    1TCq1    C7    9   1.767   1.865  11.065  0.9037 -0.2230 -0.0673
    1TCq1    C8   10   1.803   1.734  11.262  0.5044 -0.0000 -0.3399
    1TCq1    O4   11   1.694   1.765  11.310  0.3914  0.5508 -0.0639
    1TCq1    C9   12   2.172   1.968  11.063  0.4981  0.3519  0.1907
    1TCq1    O5   13   2.198   2.079  11.012  0.2007 -0.5904  0.1230
    1TCq1    O6   14   2.256   1.908  11.135 -0.0285 -0.4219  0.6027
    1TCq1    H1   15   1.866   2.175  10.880 -1.7538 -1.4559  3.0065
    1TCq1    H2   16   2.001   2.055  10.896 -0.4231  1.5854  1.1840
    1TCq1    H3   17   2.055   1.777  11.221  1.3956  0.7066  0.0768
    1TCq1    H4   18   1.662   1.836  11.065  1.1821 -1.2373  0.0009
    2MPD2     C   19   1.815   1.300  11.518 -0.2036 -0.4247  0.8992
    2MPD2    C1   20   1.753   1.418  11.553  0.5948  0.8254  0.0587
    2MPD2    C2   21   1.784   1.527  11.472  0.3643 -0.1469 -0.0859
    2MPD2    C3   22   1.868   1.516  11.358 -0.0429  0.3338  0.1170
    2MPD2    C4   23   1.945   1.403  11.343 -0.1519  0.0196  0.4936
    2MPD2    C5   24   1.918   1.295  11.424 -0.6430  0.7020  0.8093
    2MPD2     H   25   1.742   1.624  11.498 -1.1874 -1.0808  0.9234
    2MPD2    H1   26   2.019   1.380  11.266 -1.5799 -0.2679 -0.7886
    2MPD2    H2   27   1.784   1.204  11.557  1.1377 -0.6756  1.3660
    2MPD2    H3   28   1.978   1.207  11.401 -0.9622  1.3089 -2.4129
    2MPD2     N   29   1.885   1.624  11.276  0.1927 -0.4673 -0.2529
    2MPD2    H5   30   1.960   1.605  11.210  0.7378  1.2961 -0.1316
    2MPD2    N1   31   1.668   1.429  11.665  0.1594  0.0681  0.0253
    2MPD2    H7   32   1.659   1.527  11.691  0.1176  0.5800 -1.9838
    3TCq1    O1   33   1.010   2.007  10.972  0.1089 -0.3423 -0.2368
    3TCq1    C1   34   0.885   1.995  11.024  0.3019 -0.3283  0.2545
    3TCq1    O2   35   0.842   1.926  11.112  0.8925 -0.2347  0.4122
    3TCq1    C2   36   0.830   2.114  10.974  0.9028 -0.1398 -0.3607
    3TCq1    C3   37   0.858   2.166  10.849  0.1667 -0.7976  0.4533
    3TCq1    C4   38   0.802   2.283  10.816 -0.7023  0.3545 -0.3883
    3TCq1    C5   39   0.747   2.369  10.902  0.1290  0.1927 -0.0607
    3TCq1    C6   40   0.733   2.319  11.027 -0.6092  0.1605  0.1798
    3TCq1    C7   41   0.770   2.195  11.066  0.1176  0.1005 -0.4513
    3TCq1    C8   42   0.649   2.391  11.119  0.4434 -0.5277 -0.3305
    3TCq1    O4   43   0.584   2.326  11.202 -0.5223 -0.1933  0.5891
    3TCq1    C9   44   0.821   2.328  10.682 -0.0610  0.1932  0.9132
    3TCq1    O5   45   0.779   2.440  10.640  0.4642 -0.0121  0.1945
    3TCq1    O6   46   0.898   2.257  10.608 -0.4644 -0.1784  0.4791
    3TCq1    H1   47   1.008   2.084  10.912 -0.5104 -3.4206 -4.1710
    3TCq1    H2   48   0.906   2.103  10.776  0.7749 -0.2387  0.3722
    3TCq1    H3   49   0.717   2.469  10.872 -1.2782 -0.1527  0.1935
    3TCq1    H4   50   0.751   2.167  11.169  1.0709  2.0663  0.2650
    4MPD2     C   51   0.385   2.814  11.263 -0.1796 -0.3347 -0.1943
    4MPD2    C1   52   0.475   2.850  11.162  0.3430  0.1783 -0.4938
    4MPD2    C2   53   0.560   2.752  11.115 -0.6102  0.4069 -0.5598
    4MPD2    C3   54   0.563   2.618  11.162 -0.1488 -0.1877 -0.3138
    4MPD2    C4   55   0.463   2.585  11.256 -0.2677  0.4899 -1.1482
    4MPD2    C5   56   0.378   2.680  11.307 -0.0396  0.4054  0.2211
    4MPD2     H   57   0.629   2.767  11.032  0.5123  2.0913  0.6972
    4MPD2    H1   58   0.457   2.483  11.290  4.8203  1.4813  2.6950
    4MPD2    H2   59   0.328   2.888  11.319  1.2037  0.4398  0.1793
    4MPD2    H3   60   0.303   2.651  11.380  1.0205  0.3783  1.2928
    4MPD2     N   61   0.651   2.525  11.100 -0.0855 -0.2586  0.0504
    4MPD2    H5   62   0.707   2.559  11.022  0.4950 -1.8933 -0.2346
    4MPD2    N1   63   0.482   2.983  11.117 -0.5582 -0.1373 -0.1665
    4MPD2    H7   64   0.558   3.009  11.056 -0.2806  0.4105  0.4131
    5TCq1    O1   65   2.198   4.198  11.553 -0.5003  0.3273  0.0416
    5TCq1    C1   66   2.289   4.107  11.508 -0.6509  0.7904 -0.2616
    5TCq1    O2   67   2.406   4.136  11.519  0.7252 -0.2542  0.1248
    5TCq1    C2   68   2.233   3.979  11.463  0.6874 -1.1294  0.2634
    5TCq1    C3   69   2.322   3.871  11.465  0.1057  0.7533 -0.3860
    5TCq1    C4   70   2.285   3.762  11.391 -0.2510 -0.4516  0.0193
    5TCq1    C5   71   2.175   3.758  11.307  0.7455 -0.7584  0.7757
    5TCq1    C6   72   2.103   3.873  11.300 -0.6226  0.0275 -0.5154
    5TCq1    C7   73   2.134   3.987  11.372 -1.1580 -0.5120  0.4579
    5TCq1    C8   74   1.990   3.867  11.208 -0.8510  0.1443  0.0574
    5TCq1    O4   75   1.968   3.762  11.149  0.2363  0.6101  0.5728
    5TCq1    C9   76   2.372   3.652  11.395  0.3542  0.4366  0.1041
    5TCq1    O5   77   2.353   3.557  11.317  0.3347 -0.2547 -0.7958
    5TCq1    O6   78   2.460   3.660  11.487 -0.2640  0.2233 -0.4074
    5TCq1    H1   79   2.112   4.151  11.548 -0.5701  0.3870  0.6546
    5TCq1    H2   80   2.413   3.882  11.523 -0.0581  0.5784 -0.0949
    5TCq1    H3   81   2.139   3.673  11.250 -2.1614  2.0472 -1.5654
    5TCq1    H4   82   2.083   4.082  11.358 -0.8767 -0.3404  0.6019
    6MPD2     C   83   1.704   4.094  11.157  0.2207  0.1044 -0.5184
    6MPD2    C1   84   1.782   3.979  11.144  0.2340  0.6805 -0.4003
    6MPD2    C2   85   1.747   3.895  11.041  0.1140  0.0202  0.0285
    6MPD2    C3   86   1.649   3.921  10.951  0.4887  0.3776  0.0932
    6MPD2    C4   87   1.568   4.032  10.974 -0.2225 -1.1262  0.2200
    6MPD2    C5   88   1.602   4.123  11.066  0.9792 -0.3703 -0.3998
    6MPD2     H   89   1.800   3.802  11.022  1.4760  1.3137 -2.5529
    6MPD2    H1   90   1.487   4.055  10.906 -2.0926 -0.8445  2.5547
    6MPD2    H2   91   1.728   4.160  11.240  1.1965  0.3034 -0.9614
    6MPD2    H3   92   1.542   4.211  11.087 -1.2026 -2.2223  1.1511
    6MPD2     N   93   1.638   3.836  10.841  0.2358  0.1527  0.3993
    6MPD2    H5   94   1.715   3.771  10.829  0.3730  0.4263 -0.2230
    6MPD2    N1   95   1.897   3.967  11.221  0.1073  0.0068 -0.4672
    6MPD2    H7   96   1.917   4.037  11.292  0.2459  3.3927 -3.8387
    7TCq1    O1   97   3.059   4.392  12.598  0.8178 -0.8365  0.4022
    7TCq1    C1   98   3.114   4.300  12.684 -0.2914  0.2964 -0.3937
    7TCq1    O2   99   3.223   4.304  12.738 -0.5763 -0.3468  0.1844
    7TCq1    C2  100   2.998   4.234  12.745  0.4474  0.7087  0.3376
    7TCq1    C3  101   2.896   4.195  12.659  0.1192  0.0124 -0.4867
    7TCq1    C4  102   2.822   4.088  12.714 -0.2923 -0.1193 -0.0810
    7TCq1    C5  103   2.846   4.035  12.839 -0.0944 -0.0410 -0.2972
    7TCq1    C6  104   2.950   4.086  12.919  0.3226 -1.4042 -0.4226
    7TCq1    C7  105   3.026   4.188  12.870  0.1736  0.3510  0.7427
    7TCq1    C8  106   3.006   3.989  13.014  0.4136  0.7741 -0.4766
    7TCq1    O4  107   2.971   3.873  12.994 -0.8646  0.1594  0.3174
    7TCq1    C9  108   2.709   4.042  12.640 -0.1711 -0.1652  0.1926
    7TCq1    O5  109   2.685   4.107  12.532  0.1223 -0.0745 -0.2557
    7TCq1    O6  110   2.663   3.927  12.670 -0.5520  0.0693  0.6790
    7TCq1    H1  111   2.961   4.390  12.604  0.9256 -0.7009  2.2921
    7TCq1    H2  112   2.876   4.231  12.559  4.2544  1.3110 -0.8596
    7TCq1    H3  113   2.790   3.949  12.873 -2.5567  1.8135  0.3702
    7TCq1    H4  114   3.122   4.210  12.915  0.5240 -1.7486  1.0288
    8MPD2     C  115   3.321   3.856  13.398  0.3938  0.0146  0.5659
    8MPD2    C1  116   3.273   3.782  13.297  0.0221  0.0202  0.1861
    8MPD2    C2  117   3.197   3.844  13.200  0.0744 -0.1006  0.8115
    8MPD2    C3  118   3.162   3.980  13.206  0.1406 -0.8937 -0.3557
    8MPD2    C4  119   3.222   4.054  13.311 -0.4480  0.7278  0.1920
    8MPD2    C5  120   3.301   3.990  13.395 -0.1816  0.2512  0.3957
    8MPD2     H  121   3.156   3.786  13.117  0.5748 -1.1895  1.3196
    8MPD2    H1  122   3.195   4.158  13.315  0.8641  1.0135  1.5322
    8MPD2    H2  123   3.387   3.813  13.472  0.5735  0.0803  0.4415
    8MPD2    H3  124   3.343   4.048  13.477 -0.0964 -1.3649  1.5037
    8MPD2     N  125   3.082   4.046  13.112 -0.6806  0.3190 -0.4742
    8MPD2    H5  126   3.063   4.144  13.131  3.3311  1.1428 -0.6546
    8MPD2    N1  127   3.313   3.648  13.297  0.8157  0.0748 -0.2006
    8MPD2    H7  128   3.384   3.627  13.366 -1.4420  1.0977  2.4069
    9TCq1    O1  129   0.947   2.681  10.863  0.1739 -0.0996  0.5690
    9TCq1    C1  130   0.999   2.605  10.962 -0.0156  0.1140 -0.2294
    9TCq1    O2  131   0.959   2.609  11.078  0.1481 -0.0827 -0.1031
    9TCq1    C2  132   1.118   2.544  10.906  0.1661  0.2621  0.4003
    9TCq1    C3  133   1.125   2.517  10.768 -0.0179 -0.0448 -0.1753
    9TCq1    C4  134   1.244   2.496  10.712 -0.2644  1.0135 -0.2963
    9TCq1    C5  135   1.360   2.511  10.788  0.1422  0.0514 -0.1247
    9TCq1    C6  136   1.348   2.527  10.926  0.4952  0.3687 -0.0756
    9TCq1    C7  137   1.229   2.539  10.986  0.1770 -0.5284  0.5257
    9TCq1    C8  138   1.474   2.521  11.004 -0.2468 -0.3865  0.2149
    9TCq1    O4  139   1.576   2.535  10.934  0.1891 -0.4753  0.3856
    9TCq1    C9  140   1.254   2.452  10.577  0.1664 -0.7846  0.8884
    9TCq1    O5  141   1.151   2.408  10.529  0.3515  0.6579  0.2266
    9TCq1    O6  142   1.351   2.483  10.512 -0.1226  0.4115  0.2203
    9TCq1    H1  143   0.999   2.674  10.780 -1.1638 -0.3480 -0.2618
    9TCq1    H2  144   1.034   2.495  10.713  1.0161  0.2953 -2.0370
    9TCq1    H3  145   1.456   2.505  10.738  0.4196  2.6278  0.0811
    9TCq1    H4  146   1.223   2.568  11.091 -0.8049 -1.3631  0.6954
   10MPD2     C  147   1.694   2.472  11.194 -0.0072  0.4736 -0.5652
   10MPD2    C1  148   1.562   2.473  11.232 -0.1297 -1.0995  0.3493
   10MPD2    C2  149   1.522   2.457  11.363 -0.2439  0.5553  0.3840
   10MPD2    C3  150   1.625   2.437  11.459 -0.5080 -1.4784 -0.6248
   10MPD2    C4  151   1.757   2.437  11.423  0.0141  0.0640 -0.0817
   10MPD2    C5  152   1.784   2.451  11.291  0.2220  0.6600  0.0100
   10MPD2     H  153   1.420   2.473  11.394 -1.3682 -2.4829 -1.6978
   10MPD2    H1  154   1.847   2.426  11.483  0.9683  0.4121 -1.4280
   10MPD2    H2  155   1.727   2.505  11.096  1.2347  1.5918  0.2248
   10MPD2    H3  156   1.886   2.450  11.254  0.2572  2.2263  0.0343
   10MPD2     N  157   1.594   2.425  11.596 -0.1663 -0.1696 -0.2620
   10MPD2    H5  158   1.672   2.456  11.653 -0.7442  0.7349  0.0401
   10MPD2    N1  159   1.465   2.508  11.138  0.0320  0.3194 -0.0948
   10MPD2    H7  160   1.370   2.516  11.173  0.2557  2.0954  0.1057
   11TCq1    O1  161   2.768   2.648  13.961  0.7208  0.2114 -0.3981
   11TCq1    C1  162   2.649   2.691  14.001  0.2684  0.5648 -0.0691
   11TCq1    O2  163   2.555   2.724  13.931  0.0240  0.0114 -0.6715
   11TCq1    C2  164   2.611   2.634  14.130 -0.3783 -0.4203 -0.2490
   11TCq1    C3  165   2.708   2.628  14.228  0.2423  0.3358 -0.5175
   11TCq1    C4  166   2.664   2.626  14.362 -0.1299  0.2103 -0.2343
   11TCq1    C5  167   2.529   2.614  14.385 -0.4423  1.1097 -0.4477
   11TCq1    C6  168   2.435   2.607  14.289  1.0646  0.5415  0.3223
   11TCq1    C7  169   2.473   2.615  14.158  0.1921 -0.2901 -0.0906
   11TCq1    C8  170   2.298   2.593  14.335 -0.2201  0.0225  0.8103
   11TCq1    O4  171   2.266   2.590  14.456 -0.1490 -0.2083 -0.2732
   11TCq1    C9  172   2.756   2.628  14.467  0.0092 -0.2113  0.3487
   11TCq1    O5  173   2.877   2.652  14.441 -0.1524 -0.5837  0.1012
   11TCq1    O6  174   2.705   2.623  14.582 -0.1029 -0.5070  0.0684
   11TCq1    H1  175   2.809   2.587  14.025 -0.4527  0.5271  0.6542
   11TCq1    H2  176   2.812   2.651  14.210  0.0964  0.4856 -1.1689
   11TCq1    H3  177   2.498   2.605  14.488 -0.3482 -0.9355 -0.5931
   11TCq1    H4  178   2.402   2.619  14.076 -0.3242  0.1379  0.3810
   12MPD2     C  179   1.997   2.564  14.334  0.0397 -0.4636  0.5668
   12MPD2    C1  180   2.085   2.503  14.241 -0.1166  0.0868  0.8968
   12MPD2    C2  181   2.038   2.410  14.149  0.4865 -0.5651 -0.2199
   12MPD2    C3  182   1.910   2.371  14.158 -0.1711 -0.7059 -0.1329
   12MPD2    C4  183   1.815   2.440  14.238  0.1765  0.5644  0.3172
   12MPD2    C5  184   1.863   2.530  14.332 -0.9331 -0.3102 -0.4932
   12MPD2     H  185   2.106   2.362  14.080 -0.5771  1.6440 -2.8060
   12MPD2    H1  186   1.709   2.416  14.234  0.0331  1.4562 -1.2463
   12MPD2    H2  187   2.031   2.639  14.405  1.9437 -0.6682 -0.1159
   12MPD2    H3  188   1.785   2.577  14.391  0.6021  1.9653 -0.2710
   12MPD2     N  189   1.854   2.273  14.068 -0.2801  0.6000  0.5767
   12MPD2    H5  190   1.753   2.270  14.061 -0.3347  0.1114  1.5734
   12MPD2    N1  191   2.219   2.550  14.230 -0.1134  0.2110 -0.1830
   12MPD2    H7  192   2.270   2.538  14.143 -2.4869 -0.3350 -1.4823
   13TCq1    O1  193   1.531   2.037  11.327 -0.8748  0.1958  0.3895
   13TCq1    C1  194   1.547   2.116  11.222  0.4565 -0.2662  0.2724
   13TCq1    O2  195   1.650   2.149  11.161 -0.1562 -0.1131 -0.0972
   13TCq1    C2  196   1.415   2.166  11.180  0.5875  0.4092  1.0653
   13TCq1    C3  197   1.396   2.154  11.048 -0.1437 -0.4697  0.1440
   13TCq1    C4  198   1.271   2.192  11.002 -0.2782 -0.0280 -0.4498
   13TCq1    C5  199   1.172   2.234  11.088  0.4196 -0.3744  0.0389
   13TCq1    C6  200   1.190   2.231  11.222 -0.4303 -0.0760  0.5781
   13TCq1    C7  201   1.313   2.187  11.268  0.4945 -0.3078  0.3569
   13TCq1    C8  202   1.076   2.247  11.321 -0.3908  0.4083  0.0468
   13TCq1    O4  203   0.978   2.318  11.294  0.0382 -0.1795  0.6042
   13TCq1    C9  204   1.254   2.182  10.859  0.5936  0.5597  0.4713
   13TCq1    O5  205   1.346   2.116  10.800  0.1041 -0.3117 -0.5744
   13TCq1    O6  206   1.138   2.198  10.823 -0.2174  0.3885 -0.0726
   13TCq1    H1  207   1.440   2.005  11.347 -1.2402  1.6723  1.1036
   13TCq1    H2  208   1.473   2.116  10.981 -0.8430 -0.0476 -0.8835
   13TCq1    H3  209   1.076   2.267  11.050  0.7336  0.2299 -0.2164
   13TCq1    H4  210   1.336   2.198  11.374  3.9398  3.6239 -0.8011
   14MPD2     C  211   1.073   2.111  11.657  0.3220 -0.4310  0.4803
   14MPD2    C1  212   1.021   2.186  11.554  0.9377  0.1986  0.3778
   14MPD2    C2  213   0.913   2.277  11.578  1.1353  0.4679  0.3873
   14MPD2    C3  214   0.857   2.283  11.710 -0.2231 -0.8448  0.1324
   14MPD2    C4  215   0.908   2.202  11.806  0.2425  0.4934  0.3234
   14MPD2    C5  216   1.015   2.122  11.784  0.2716 -0.6393 -0.3569
   14MPD2     H  217   0.882   2.344  11.499 -2.3317 -0.5627  0.8624
   14MPD2    H1  218   0.870   2.203  11.908 -0.5411 -1.0776  0.0410
   14MPD2    H2  219   1.161   2.048  11.643 -0.2469 -1.1565  0.1219
   14MPD2    H3  220   1.039   2.062  11.871 -0.5737 -0.4223  0.0234
   14MPD2     N  221   0.763   2.380  11.730 -0.0683 -0.7081  0.0306
   14MPD2    H5  222   0.703   2.407  11.653  1.1260 -1.2059 -1.0720
   14MPD2    N1  223   1.096   2.179  11.437 -0.1897  0.5309  0.4029
   14MPD2    H7  224   1.181   2.128  11.460 -0.2884  0.1166 -0.1317
   15TCq1    O1  225   1.975   2.021   1.974  0.4744 -0.0792 -0.0686
   15TCq1    C1  226   2.002   2.025   2.107  0.2788  0.4255 -0.2247
   15TCq1    O2  227   1.916   2.049   2.186  0.0014  0.0250  0.2498
   15TCq1    C2  228   2.146   2.058   2.132 -0.9406  0.2281 -0.7730
   15TCq1    C3  229   2.168   2.121   2.249 -0.0614  0.5305 -0.8620
   15TCq1    C4  230   2.297   2.121   2.302 -0.5933  0.5184  0.1340
   15TCq1    C5  231   2.393   2.058   2.228  0.3055  0.0530 -0.7110
   15TCq1    C6  232   2.366   1.988   2.113 -0.0803  0.1312  0.6248
   15TCq1    C7  233   2.240   1.993   2.057  0.2491 -0.1350  0.1016
   15TCq1    C8  234   2.482   1.920   2.042 -0.1079 -0.0478 -0.0906
   15TCq1    O4  235   2.586   1.902   2.103  0.5163 -0.1573  0.4498
   15TCq1    C9  236   2.334   2.180   2.427  0.6180 -0.7143 -0.3913
   15TCq1    O5  237   2.444   2.153   2.485  0.5876  0.0819  0.0859
   15TCq1    O6  238   2.240   2.251   2.481 -0.4351 -0.4777 -0.7727
   15TCq1    H1  239   2.051   2.033   1.913  0.8001 -1.5279  0.0514
   15TCq1    H2  240   2.101   2.184   2.307 -0.9041 -0.8695 -0.3125
   15TCq1    H3  241   2.493   2.074   2.268  0.5071  0.3992 -1.3499
   15TCq1    H4  242   2.215   1.946   1.962 -0.3566 -2.1306  1.2441
   16MPD2     C  243   2.531   1.881   1.689  0.3300  0.2449  0.1695
   16MPD2    C1  244   2.559   1.869   1.820 -0.4412 -0.5170 -0.1822
   16MPD2    C2  245   2.678   1.802   1.850 -0.4804 -0.0711  0.7270
   16MPD2    C3  246   2.769   1.744   1.760  0.2619  0.2895 -0.2927
   16MPD2    C4  247   2.735   1.767   1.627 -0.6914 -0.0166  0.1876
   16MPD2    C5  248   2.625   1.845   1.600 -0.4442 -0.0250  0.1005
   16MPD2     H  249   2.700   1.771   1.952  1.6606  1.1321  0.6266
   16MPD2    H1  250   2.793   1.735   1.541  1.5788  0.7470  1.4518
   16MPD2    H2  251   2.444   1.930   1.647 -0.3491  2.5336  4.2873
   16MPD2    H3  252   2.594   1.865   1.498 -1.6518  1.3779  0.7389
   16MPD2     N  253   2.877   1.670   1.808 -0.0109 -0.0090  0.4999
   16MPD2    H5  254   2.879   1.655   1.908 -0.0214 -2.4450  0.1296
   16MPD2    N1  255   2.462   1.918   1.907 -0.0136  0.1561  0.1426
   16MPD2    H7  256   2.373   1.945   1.866  2.6037  3.9192 -3.0494
   17TCq1    O1  257   0.744   1.506  10.815  0.1840  0.5115  0.4946
   17TCq1    C1  258   0.785   1.636  10.852  0.2185  0.5071  0.3427
   17TCq1    O2  259   0.707   1.732  10.851 -0.0494 -0.1995  0.0428
   17TCq1    C2  260   0.922   1.660  10.810 -0.4865  0.4729 -0.5905
   17TCq1    C3  261   0.949   1.765  10.723  0.2093 -0.7163 -0.1717
   17TCq1    C4  262   1.083   1.778  10.686  0.7990 -0.5706  0.5049
   17TCq1    C5  263   1.185   1.704  10.738  0.0955 -0.8427 -0.1633
   17TCq1    C6  264   1.149   1.598  10.816  0.7057 -0.6935  0.2975
   17TCq1    C7  265   1.018   1.576  10.854  0.2420 -0.5815 -0.2808
   17TCq1    C8  266   1.256   1.527  10.872  0.6013  0.0646 -0.4687
   17TCq1    O4  267   1.218   1.424  10.929 -0.0530 -0.0909  0.6510
   17TCq1    C9  268   1.110   1.878  10.585  0.7804  0.6315 -0.2073
   17TCq1    O5  269   1.050   1.983  10.592 -1.0656  0.2688 -0.0614
   17TCq1    O6  270   1.227   1.855  10.536  0.1363  0.1166  0.0361
   17TCq1    H1  271   0.815   1.440  10.800 -0.8394 -0.6234  0.7355
   17TCq1    H2  272   0.870   1.812  10.666  1.2522  1.1071 -0.0828
   17TCq1    H3  273   1.282   1.722  10.694 -0.3921 -0.1197 -0.9471
   17TCq1    H4  274   0.993   1.497  10.924  0.0810  0.3441  0.7109
   18MPD2     C  275   1.522   1.438  10.998  0.0762 -0.0972 -0.2811
   18MPD2    C1  276   1.502   1.550  10.917  0.1314  0.5203  0.3678
   18MPD2    C2  277   1.624   1.599  10.864 -0.9749 -0.3301  0.5350
   18MPD2    C3  278   1.750   1.555  10.899 -0.2540  0.0329 -0.5020
   18MPD2    C4  279   1.759   1.445  10.976 -1.2435  0.4996 -0.1115
   18MPD2    C5  280   1.643   1.387  11.026 -0.1788  0.3867 -0.4078
   18MPD2     H  281   1.617   1.683  10.796  0.2764  0.1493  0.9961
   18MPD2    H1  282   1.847   1.383  10.992 -1.7188 -0.2281 -0.3106
   18MPD2    H2  283   1.432   1.387  11.031 -0.6608  2.6746  1.9524
   18MPD2    H3  284   1.659   1.296  11.083 -2.9367  0.8582  1.1297
   18MPD2     N  285   1.861   1.618  10.847  0.0405 -0.3542  0.3177
   18MPD2    H5  286   1.847   1.665  10.758 -1.8314  2.2109  2.0000
   18MPD2    N1  287   1.376   1.597  10.872 -0.0443 -0.5515  0.0343
   18MPD2    H7  288   1.360   1.690  10.835 -1.1780  0.2770  2.5563
   19TMC2    C1  289   2.953   2.084  14.152 -0.5994 -0.5604  0.0816
   19TMC2    C2  290   2.920   2.168  14.051  0.3321  0.3693  0.0558
   19TMC2    C3  291   2.796   2.147  13.991  0.4869  0.3350  0.2903
   19TMC2    C4  292   2.887   1.967  14.174  0.1916 -0.1758  0.3473
   19TMC2    C5  293   2.763   1.965  14.119 -0.0495  0.1338  0.4713
   19TMC2    C6  294   2.712   2.050  14.029  0.1118 -0.5340  0.7078
   19TMC2     C  295   3.088   2.094  14.209  0.0893  0.2859  0.4612
   19TMC2     O  296   3.162   2.174  14.156  0.1655  0.3435 -0.4210
   19TMC2     H  297   2.982   2.254  14.025 -2.6065  2.1060 -1.2441
   19TMC2    H1  298   2.934   1.897  14.242  4.0491 -0.5419 -2.6633
   19TMC2    H2  299   2.625   2.034  13.966  0.1519 -3.1616  1.3183
   19TMC2    C7  300   2.682   1.850  14.163  0.0053 -0.1710  0.8026
   19TMC2    C8  301   2.754   2.241  13.894 -0.0096 -0.4608  0.1128
   19TMC2    O1  302   2.726   1.762  14.239 -0.2858 -0.1395 -0.0875
   19TMC2    O2  303   2.659   2.227  13.816  0.6912  0.0149 -0.3492
   19TMC2    O5  304   2.789   2.361  13.933  0.4180 -0.0603 -0.1566
   19TMC2    H5  305   2.860   2.369  14.000 -0.5822  4.1597  0.4322
   20MPD2     C  306   3.342   2.057  14.367  0.6203 -0.5713 -0.5771
   20MPD2    C1  307   3.218   2.031  14.410  0.3568  0.0119  0.2744
   20MPD2    C2  308   3.212   2.005  14.548  0.3160  0.5277  0.6127
   20MPD2    C3  309   3.333   2.001  14.626 -0.6910 -0.6803  0.2472
   20MPD2    C4  310   3.450   2.031  14.567 -0.0334 -0.0797  0.9547
   20MPD2    C5  311   3.457   2.058  14.434  0.1908 -0.3461  0.2768
   20MPD2     H  312   3.116   2.006  14.598  0.0072 -0.1157  0.0378
   20MPD2    H1  313   3.540   2.042  14.625  0.6911  0.2614 -0.2300
   20MPD2    H2  314   3.344   2.075  14.260  2.6163  0.0472 -0.4396
   20MPD2    H3  315   3.549   2.081  14.382 -0.2636  0.7364 -0.0611
   20MPD2     N  316   3.321   1.984  14.766  0.2001  0.3320 -0.3276
   20MPD2    H5  317   3.397   2.012  14.828  0.1864 -2.6098  0.9860
   20MPD2    N1  318   3.099   2.029  14.330 -0.3062 -0.4432 -0.2973
   20MPD2    H7  319   3.012   1.992  14.367 -0.0251 -0.7058  0.0889
   21MPD2     C  320   1.092   2.997  14.314  0.8747  0.0595 -0.0560
   21MPD2    C1  321   1.036   2.869  14.326 -0.1091  0.5700 -0.2570
   21MPD2    C2  322   0.935   2.840  14.423  0.0277  0.0715 -0.3314
   21MPD2    C3  323   0.903   2.947  14.510 -0.2476  0.4271 -0.5575
   21MPD2    C4  324   0.955   3.074  14.493 -0.4455  0.3770 -0.1895
   21MPD2    C5  325   1.054   3.096  14.400  0.5561  0.5112 -0.1156
   21MPD2     H  326   0.897   2.739  14.436 -0.5375  0.3856  0.4348
   21MPD2    H1  327   0.925   3.156  14.557  1.8600  0.5410  0.6842
   21MPD2    H2  328   1.176   3.015  14.248  0.6786 -0.7008 -0.5197
   21MPD2    H3  329   1.100   3.194  14.387  2.0229 -0.3934 -1.6280
   21MPD2     N  330   0.809   2.944  14.614  0.1767 -0.3246  0.0301
   21MPD2    H5  331   0.791   3.022  14.676  3.2867 -0.4062  1.0019
   21MPD2    N1  332   1.096   2.774  14.239  0.0272 -0.6105 -0.2928
   21MPD2    H7  333   1.177   2.800  14.183  0.2534  1.0798  0.8105
   22TCq2    C1  334   0.752   2.824  14.655  0.4249 -0.3012  0.5340
   22TCq2    O2  335   0.787   2.712  14.632  0.0423 -0.2344 -0.2383
   22TCq2    C2  336   0.616   2.841  14.703  0.1858 -0.1108  0.0095
   22TCq2    C3  337   0.522   2.738  14.685  0.3180  0.6273 -0.3946
   22TCq2    C4  338   0.388   2.760  14.696 -0.7930 -0.3349  0.1001
   22TCq2    C5  339   0.346   2.886  14.734 -0.3437 -0.4997  0.2553
   22TCq2    C6  340   0.443   2.985  14.751  0.7660  0.0133 -0.4585
   22TCq2    C7  341   0.574   2.970  14.721  0.2676  0.1362 -1.0239
   22TCq2    C8  342   0.391   3.120  14.761 -0.0198 -0.4210 -0.7005
   22TCq2    O4  343   0.468   3.209  14.796  0.8661 -0.2395 -0.4700
   22TCq2    C9  344   0.289   2.666  14.658 -0.0691  0.4659  0.0939
   22TCq2    O5  345   0.336   2.571  14.593 -0.2482 -0.2100 -0.1837
   22TCq2    O6  346   0.175   2.716  14.654  0.4917  0.2305  0.3935
   22TCq2    H2  347   0.556   2.637  14.661 -1.1032  0.4520 -1.6853
   22TCq2    H3  348   0.245   2.901  14.769 -0.0691  2.2197 -0.1906
   22TCq2    H4  349   0.643   3.049  14.747 -0.5288  0.1027  1.1506
   23MPD2     C  350   1.869   3.292  14.483 -0.5657  0.1371  0.4665
   23MPD2    C1  351   1.776   3.322  14.573  0.2285  0.0172  0.3944
   23MPD2    C2  352   1.677   3.412  14.540 -0.2052 -0.2944  0.2322
   23MPD2    C3  353   1.669   3.461  14.405  0.5096 -0.1201 -0.2587
   23MPD2    C4  354   1.762   3.421  14.319 -0.3933 -0.0112 -0.1689
   23MPD2    C5  355   1.860   3.336  14.350  0.6121  0.0237 -0.8450
   23MPD2     H  356   1.601   3.436  14.614 -0.4540 -2.0899  0.5615
   23MPD2    H1  357   1.761   3.463  14.219 -2.2552 -0.8620 -0.5130
   23MPD2    H2  358   1.943   3.219  14.511 -0.8277  0.2785  1.5252
   23MPD2    H3  359   1.936   3.308  14.277  1.1323  1.0259 -0.6880
   23MPD2     N  360   1.568   3.552  14.358  0.1575  0.5862 -0.1878
   23MPD2    H5  361   1.577   3.573  14.259  1.6988 -0.1664 -0.1995
   23MPD2    N1  362   1.773   3.272  14.702 -0.3079  0.4441 -0.4175
   23MPD2    H7  363   1.700   3.309  14.763  1.6667 -0.4502  2.4824
   24TCq2    C1  364   1.460   3.600  14.431 -0.1392  0.1451  0.6194
   24TCq2    O2  365   1.431   3.592  14.551 -0.3448 -0.0450 -0.1500
   24TCq2    C2  366   1.393   3.699  14.348 -0.4820 -0.7810  0.2209
   24TCq2    C3  367   1.311   3.781  14.417  0.2246  0.4085 -0.6009
   24TCq2    C4  368   1.200   3.831  14.357 -0.9910  0.5736  0.8692
   24TCq2    C5  369   1.160   3.778  14.237  0.6964 -0.5953 -0.9477
   24TCq2    C6  370   1.245   3.696  14.162  0.3537  0.0068  0.3304
   24TCq2    C7  371   1.362   3.654  14.222 -0.2375 -0.1007  0.0710
   24TCq2    C8  372   1.202   3.646  14.039  0.3247 -0.0383  0.0395
   24TCq2    O4  373   1.293   3.601  13.969 -0.1348  0.8257 -0.2078
   24TCq2    C9  374   1.108   3.908  14.442 -0.9190  0.3829  1.3239
   24TCq2    O5  375   0.985   3.908  14.405 -0.1894 -0.2728  0.5690
   24TCq2    O6  376   1.143   3.964  14.549 -0.2091  0.6331 -0.2454
   24TCq2    H2  377   1.339   3.824  14.513 -0.1339  0.3952 -0.4904
   24TCq2    H3  378   1.066   3.809  14.193 -0.5840 -0.7310  1.7010
   24TCq2    H4  379   1.416   3.573  14.174 -0.4535 -1.2394  1.7706
   25TMC2    C1  380   1.385   0.742  11.562  0.2924 -0.0886  0.0181
   25TMC2    C2  381   1.512   0.788  11.587  0.2854  0.0091  0.0962
   25TMC2    C3  382   1.537   0.844  11.707 -1.0290 -0.5184  0.6741
   25TMC2    C4  383   1.279   0.764  11.643  0.6637 -0.0002 -0.2690
   25TMC2    C5  384   1.307   0.800  11.768 -0.3587 -0.1148 -0.1982
   25TMC2    C6  385   1.440   0.841  11.803 -0.2043  0.2062 -0.6034
   25TMC2     C  386   1.364   0.672  11.432  0.0384  0.3080  0.3636
   25TMC2     O  387   1.465   0.653  11.368  0.3483 -0.0864 -0.9712
   25TMC2     H  388   1.591   0.779  11.514  0.9100 -3.2549  1.1741
   25TMC2    H1  389   1.181   0.717  11.632 -0.1009  1.4661  0.3349
   25TMC2    H2  390   1.457   0.880  11.902  0.8057 -0.5149 -0.4897
   25TMC2    C7  391   1.199   0.833  11.853 -0.6186  0.2698  0.1473
   25TMC2    C8  392   1.666   0.909  11.752 -0.2521  0.8270 -0.4835
   25TMC2    O1  393   1.216   0.823  11.972 -0.0324  0.4979  0.3133
   25TMC2    O2  394   1.690   0.897  11.873  0.2536  0.0050 -0.0118
   25TMC2    O5  395   1.755   0.880  11.658  0.2602  0.0312  0.6118
   25TMC2    H5  396   1.721   0.908  11.570 -0.7089 -0.0023  0.9828
   26MPD2     C  397   1.109   0.414  11.077 -0.2867  1.3341  0.0330
   26MPD2    C1  398   1.017   0.474  11.156  0.6677 -0.0149 -0.0983
   26MPD2    C2  399   1.060   0.557  11.263 -0.3809 -0.3842  0.3230
   26MPD2    C3  400   1.192   0.564  11.287 -0.2912  0.0110  0.4799
   26MPD2    C4  401   1.282   0.499  11.206 -0.2868 -1.3134  0.4771
   26MPD2    C5  402   1.243   0.414  11.108  0.3874 -0.4815  0.6228
   26MPD2     H  403   0.994   0.604  11.335 -0.2396 -2.2582  1.6804
   26MPD2    H1  404   1.389   0.504  11.223 -0.1933  0.2611 -0.5060
   26MPD2    H2  405   1.080   0.360  10.988  0.3170  1.9702 -0.5523
   26MPD2    H3  406   1.313   0.367  11.039  0.7633  1.2820 -0.1837
   26MPD2     N  407   1.234   0.648  11.398 -0.4834  0.6166  0.1004
   26MPD2    H5  408   1.160   0.687  11.456 -0.6800 -0.1514  0.3603
   26MPD2    N1  409   0.882   0.468  11.116 -0.1472 -0.3081  0.1224
   26MPD2    H7  410   0.864   0.419  11.028 -1.0192  0.0139  0.1290
   27TMC2    C1  411   4.236   3.437  11.725 -0.3888  0.1321  0.4412
   27TMC2    C2  412   4.300   3.471  11.613 -0.2591  0.6906  0.1543
   27TMC2    C3  413   4.277   3.590  11.556 -0.7262 -0.8461  0.2810
   27TMC2    C4  414   4.140   3.522  11.773 -0.6411  0.2967 -0.3911
   27TMC2    C5  415   4.120   3.647  11.719 -0.0672 -0.0527 -0.5282
   27TMC2    C6  416   4.179   3.679  11.599  0.1674  0.7591 -0.1087
   27TMC2     C  417   4.258   3.305  11.779 -0.3699 -0.2545  0.4900
   27TMC2     O  418   4.300   3.225  11.700  0.3926  0.3606  0.4728
   27TMC2     H  419   4.362   3.398  11.564  0.0752 -0.6175  2.5162
   27TMC2    H1  420   4.078   3.506  11.860 -0.2547  2.1951  0.2305
   27TMC2    H2  421   4.152   3.762  11.535 -2.6155  0.9005  1.2448
   27TMC2    C7  422   4.082   3.752  11.814 -0.0712  0.3401 -0.6085
   27TMC2    C8  423   4.341   3.605  11.428  0.2377 -0.1478 -0.0439
   27TMC2    O1  424   4.066   3.720  11.931  0.1727  0.1881 -0.2413
   27TMC2    O2  425   4.394   3.512  11.368  0.5678  0.0907  0.1157
   27TMC2    O5  426   4.366   3.736  11.397 -0.1343 -0.6398 -0.6278
   27TMC2    H5  427   4.325   3.801  11.458  0.6184 -0.7145 -0.0520
   28MPD2     C  428   4.291   2.990  12.185 -0.4040  0.0375  0.0923
   28MPD2    C1  429   4.200   3.089  12.215 -0.9205 -0.3317 -0.4140
   28MPD2    C2  430   4.180   3.196  12.121  0.1851  0.2885 -0.1130
   28MPD2    C3  431   4.239   3.190  11.996  0.0616  0.8166  0.0662
   28MPD2    C4  432   4.325   3.082  11.967  0.2015 -0.1301 -0.1973
   28MPD2    C5  433   4.358   2.988  12.060  0.1313  0.2475 -0.2784
   28MPD2     H  434   4.125   3.287  12.140  0.5288  0.1824  1.3762
   28MPD2    H1  435   4.374   3.073  11.870  1.1726 -1.8753  0.4522
   28MPD2    H2  436   4.299   2.902  12.248  0.3908 -0.1709 -0.2939
   28MPD2    H3  437   4.416   2.901  12.031 -0.0762  0.1326 -0.3512
   28MPD2     N  438   4.221   3.301  11.905 -0.1895  0.5458  0.7132
   28MPD2    H5  439   4.178   3.382  11.948  0.7500  1.3096  0.2273
   28MPD2    N1  440   4.144   3.095  12.350 -0.5288  0.3782  0.3501
   28MPD2    H7  441   4.143   3.013  12.410  1.6963  0.4929  0.5541
   29MPD2     C  442   3.304   0.691  14.395  0.3542 -0.0526  0.3742
   29MPD2    C1  443   3.397   0.647  14.484 -0.6013  0.0472  0.1077
   29MPD2    C2  444   3.419   0.713  14.608 -0.4499 -0.3540 -0.1831
   29MPD2    C3  445   3.354   0.834  14.633  0.4008 -0.5105 -0.6231
   29MPD2    C4  446   3.260   0.875  14.546 -0.0771  0.5670  0.2082
   29MPD2    C5  447   3.238   0.806  14.428 -0.0907 -0.0432  0.4467
   29MPD2     H  448   3.504   0.688  14.670 -0.2116 -0.8940 -0.7266
   29MPD2    H1  449   3.217   0.975  14.553  1.4383  0.9942  3.2481
   29MPD2    H2  450   3.272   0.632  14.309 -1.1819  0.4290  0.6109
   29MPD2    H3  451   3.153   0.830  14.365 -0.2720 -3.7382 -0.7196
   29MPD2     N  452   3.374   0.921  14.746 -0.4000 -0.1424 -0.2624
   29MPD2    H5  453   3.327   1.011  14.744  0.2808  0.1962 -0.8613
   29MPD2    N1  454   3.467   0.526  14.467  0.2309  0.5528 -0.3800
   29MPD2    H7  455   3.523   0.493  14.545 -1.5104  2.4495  1.6641
   30TCq2    C1  456   3.449   0.901  14.855  0.6024 -0.3499 -0.4933
   30TCq2    O2  457   3.527   0.810  14.877  0.2508  0.3937  0.0404
   30TCq2    C2  458   3.469   1.021  14.936  0.8426 -0.5225  0.1213
   30TCq2    C3  459   3.504   1.009  15.068 -0.3258  0.3245 -0.3119
   30TCq2    C4  460   3.562   1.114  15.134  0.3951  0.4107  0.4472
   30TCq2    C5  461   3.596   1.227  15.057 -0.8235 -0.1386 -0.1137
   30TCq2    C6  462   3.561   1.241  14.930 -0.7807  0.1653 -0.0057
   30TCq2    C7  463   3.496   1.140  14.861  0.1737 -0.2262  1.2303
   30TCq2    C8  464   3.585   1.354  14.858  0.0444 -0.0905 -0.5427
   30TCq2    O4  465   3.508   1.374  14.767 -0.8777 -0.1495 -0.1323
   30TCq2    C9  466   3.600   1.106  15.271 -0.3136 -0.1420 -0.1112
   30TCq2    O5  467   3.536   1.027  15.342 -0.3762  1.0990  0.1854
   30TCq2    O6  468   3.671   1.200  15.316 -0.5791 -0.0656 -0.0941
   30TCq2    H2  469   3.480   0.916  15.119  0.3776  0.3758  0.1006
   30TCq2    H3  470   3.638   1.303  15.121  1.0902  0.5694 -2.2248
   30TCq2    H4  471   3.461   1.152  14.759  1.4842  3.0754  1.1817
   31MPD2     C  472   1.242   4.549  14.723 -0.2012  1.3369 -0.5322
   31MPD2    C1  473   1.161   4.659  14.734  0.2998  0.1672  0.4901
   31MPD2    C2  474   1.075   4.675  14.846 -0.1707 -0.2439 -0.2017
   31MPD2    C3  475   1.082   4.584  14.954  0.3259  0.7010  0.7871
   31MPD2    C4  476   1.172   4.481  14.950 -0.2730  0.2840 -1.1782
   31MPD2    C5  477   1.254   4.468  14.834  0.6140 -0.9754  0.2587
   31MPD2     H  478   0.994   0.024  14.844 -0.1111 -0.2078 -1.5146
   31MPD2    H1  479   1.188   4.415  15.035  3.3162 -0.8640 -2.7399
   31MPD2    H2  480   1.306   4.523  14.639  1.3368 -1.0114  1.3614
   31MPD2    H3  481   1.326   4.387  14.835 -1.6753 -2.9878  0.8658
   31MPD2     N  482   1.000   4.599  15.071 -0.4504  0.8298  0.2027
   31MPD2    H5  483   1.003   4.521  15.135 -1.2405  2.6891  2.5090
   31MPD2    N1  484   1.163   0.019  14.622  0.4923 -0.1847 -0.3066
   31MPD2    H7  485   1.246   0.019  14.565  0.1243  4.8864 -0.8543
   32TCq2    C1  486   0.924   4.704  15.103 -0.2065 -0.2465 -0.0292
   32TCq2    O2  487   0.905   0.084  15.040 -0.4047  0.6637 -0.5854
   32TCq2    C2  488   0.856   4.689  15.232  0.2839  0.2302 -0.8232
   32TCq2    C3  489   0.739   0.018  15.239  0.7271 -0.1606 -0.7380
   32TCq2    C4  490   0.661   4.711  15.350  0.0942  0.1175 -0.5092
   32TCq2    C5  491   0.712   4.632  15.450 -0.1730  0.1847  0.3312
   32TCq2    C6  492   0.851   4.597  15.444  0.2663  0.3927  0.1439
   32TCq2    C7  493   0.928   4.634  15.335 -1.2111  0.2005  0.1062
   32TCq2    C8  494   0.907   4.495  15.539 -0.0916 -0.4271  0.2610
   32TCq2    O4  495   1.002   4.425  15.507  0.2293 -0.4690  0.1252
   32TCq2    C9  496   0.537   0.058  15.359  0.1622  0.2454 -0.5012
   32TCq2    O5  497   0.521   0.158  15.287 -0.3323 -0.2854  0.2744
   32TCq2    O6  498   0.477   0.046  15.468 -0.0229 -0.6260 -0.2264
   32TCq2    H2  499   0.694   0.080  15.161 -0.4945 -1.8405 -1.3671
   32TCq2    H3  500   0.644   4.614  15.532 -0.8522  1.4225  0.0371
   32TCq2    H4  501   1.030   4.603  15.319 -0.9572  1.9469 -1.6713
   33MPD2     C  502   2.412   2.110  10.381 -0.9351  0.1065  0.3534
   33MPD2    C1  503   2.290   2.059  10.413  0.1279 -1.1259 -0.3044
   33MPD2    C2  504   2.175   2.113  10.355  0.2747  0.1015 -0.5191
   33MPD2    C3  505   2.173   2.231  10.288  0.1638  0.4378 -0.2924
   33MPD2    C4  506   2.294   2.284  10.256 -0.0324  0.2344 -0.6084
   33MPD2    C5  507   2.410   2.227  10.300  0.5498 -0.6848  0.1237
   33MPD2     H  508   2.079   2.066  10.370 -1.3346  2.5253 -3.1749
   33MPD2    H1  509   2.301   2.372  10.193 -1.0663  1.2922  0.7718
   33MPD2    H2  510   2.504   2.081  10.432 -0.1533  1.1474 -0.4471
   33MPD2    H3  511   2.501   2.276  10.266  0.4788 -1.4815 -1.2391
   33MPD2     N  512   2.059   2.289  10.229  0.0922 -0.7131 -0.5071
   33MPD2    H5  513   2.067   2.386  10.199 -1.1163 -0.6647 -0.6861
   33MPD2    N1  514   2.282   1.945  10.501  0.3714 -0.4457 -0.9331
   33MPD2    H7  515   2.371   1.919  10.543  0.0293 -0.7170 -0.3777
   34TCq2    C1  516   1.934   2.236  10.227 -0.5791  0.4447 -0.1287
   34TCq2    O2  517   1.898   2.122  10.258 -0.0972  0.1335  0.1401
   34TCq2    C2  518   1.836   2.326  10.179 -0.0101  0.3953 -0.1135
   34TCq2    C3  519   1.708   2.306  10.201 -0.4091 -0.6858 -0.2569
   34TCq2    C4  520   1.617   2.401  10.150  0.2911 -0.2989  0.1775
   34TCq2    C5  521   1.664   2.518  10.081 -0.5630 -0.0378  0.4649
   34TCq2    C6  522   1.796   2.519  10.051 -0.3021  0.3664  0.1641
   34TCq2    C7  523   1.883   2.427  10.098  0.6804 -0.1577  0.2976
   34TCq2    C8  524   1.856   2.624   9.970  0.3006 -0.7275  0.0124
   34TCq2    O4  525   1.974   2.615   9.946  0.3675 -0.5088  0.5715
   34TCq2    C9  526   1.475   2.384  10.175 -0.3586  0.3176  0.2524
   34TCq2    O5  527   1.393   2.461  10.119 -0.7175 -0.3418  1.0385
   34TCq2    O6  528   1.438   2.310  10.272 -0.1035 -0.0680  0.7701
   34TCq2    H2  529   1.668   2.235  10.273  2.1291 -1.7390  0.1199
   34TCq2    H3  530   1.601   2.599  10.050 -0.7637 -0.1152  0.6711
   34TCq2    H4  531   1.986   2.434  10.066  1.0886 -1.6064  1.2736
   35MPD2     C  532   3.725   3.803  11.619  0.5293  0.2834  1.3838
   35MPD2    C1  533   3.707   3.682  11.671 -0.0776 -0.2420  0.0518
   35MPD2    C2  534   3.636   3.588  11.618  0.0249  0.3484 -0.8063
   35MPD2    C3  535   3.582   3.604  11.491  0.3563 -0.1939  0.3173
   35MPD2    C4  536   3.611   3.717  11.422 -0.4296 -0.1998  0.7083
   35MPD2    C5  537   3.670   3.822  11.496 -0.2191 -0.5457  0.0545
   35MPD2     H  538   3.617   3.495  11.672  1.2885  0.7092  0.2432
   35MPD2    H1  539   3.570   3.735  11.323  0.5375 -0.3441  0.2820
   35MPD2    H2  540   3.764   3.888  11.674  0.8299  1.7229 -1.0595
   35MPD2    H3  541   3.663   3.921  11.453  1.0179 -0.7711 -0.6780
   35MPD2     N  542   3.512   3.497  11.444 -0.8302 -0.1972 -0.1669
   35MPD2    H5  543   3.483   3.421  11.505  1.4759  0.7667  2.0991
   35MPD2    N1  544   3.740   3.673  11.810 -0.5396 -0.3051 -0.1746
   35MPD2    H7  545   3.739   3.761  11.862  0.1384 -1.8508  2.4262
   36TCq2    C1  546   3.462   3.490  11.317  0.2248 -0.4408 -0.2685
   36TCq2    O2  547   3.442   3.583  11.243 -0.2832 -0.8292  0.1446
   36TCq2    C2  548   3.370   3.376  11.311  0.4436  0.0031  0.1104
   36TCq2    C3  549   3.254   3.402  11.246 -0.7800  0.5217  0.3386
   36TCq2    C4  550   3.144   3.320  11.273 -0.4983  0.1315 -0.0803
   36TCq2    C5  551   3.155   3.213  11.358 -0.5653 -0.4430  0.0447
   36TCq2    C6  552   3.273   3.185  11.422 -0.1514  0.3799 -0.1639
   36TCq2    C7  553   3.379   3.269  11.403 -0.5081  0.0809  0.4437
   36TCq2    C8  554   3.279   3.048  11.481  0.2136 -0.1345 -0.0688
   36TCq2    O4  555   3.172   2.988  11.489  0.2193 -0.2424  0.4975
   36TCq2    C9  556   3.018   3.370  11.223  0.0147 -0.7022  0.2712
   36TCq2    O5  557   2.921   3.299  11.237 -0.4895  0.0522  0.1989
   36TCq2    O6  558   3.003   3.479  11.161  0.1277 -0.3462 -0.3581
   36TCq2    H2  559   3.245   3.486  11.177  0.6304 -0.4465 -1.0347
   36TCq2    H3  560   3.065   3.154  11.373  0.0830 -1.4561 -0.0469
   36TCq2    H4  561   3.469   3.252  11.460 -0.7169 -1.5796  0.2666
   37TMC2    C1  562   1.341   3.257  11.254 -0.1243  0.2810 -0.6230
   37TMC2    C2  563   1.386   3.239  11.127  0.5202 -0.5081 -0.3520
   37TMC2    C3  564   1.515   3.223  11.103  1.1049  0.0168 -0.7012
   37TMC2    C4  565   1.433   3.274  11.356  0.1709  0.3517 -0.4029
   37TMC2    C5  566   1.568   3.262  11.328  0.3378  0.5640 -0.1855
   37TMC2    C6  567   1.613   3.229  11.198 -0.5387 -0.2463 -0.5655
   37TMC2     C  568   1.210   3.310  11.269 -0.7989 -1.0627  0.2444
   37TMC2     O  569   1.154   3.357  11.169 -0.4353  0.1096  0.1641
   37TMC2     H  570   1.303   3.241  11.057 -1.3020  0.5337  1.8411
   37TMC2    H1  571   1.401   3.299  11.457 -2.7757 -0.4596 -1.1364
   37TMC2    H2  572   1.715   3.221  11.163  0.2115  0.4070  1.4443
   37TMC2    C7  573   1.655   3.270  11.440 -0.3603  0.2547 -0.0575
   37TMC2    C8  574   1.556   3.166  10.978  0.4995 -0.4533  0.5259
   37TMC2    O1  575   1.615   3.300  11.551  0.6861  0.8588  0.3990
   37TMC2    O2  576   1.639   3.079  10.977 -0.5988  0.6562  0.2709
   37TMC2    O5  577   1.467   3.190  10.878 -0.5816 -0.3513  0.2595
   37TMC2    H5  578   1.410   3.269  10.891 -0.4442 -0.0026 -1.3059
   38MPD2     C  579   0.819   3.475  11.549  0.1709 -0.4849 -0.3053
   38MPD2    C1  580   0.919   3.424  11.637 -0.2208 -1.0548  0.1344
   38MPD2    C2  581   1.038   3.386  11.583  0.1430 -0.3452 -0.2128
   38MPD2    C3  582   1.050   3.369  11.446  0.7694 -0.1533 -0.3981
   38MPD2    C4  583   0.952   3.421  11.361  0.5746 -0.4152 -0.0383
   38MPD2    C5  584   0.835   3.466  11.414  0.1652 -0.5295  0.1139
   38MPD2     H  585   1.126   3.359  11.640  1.2889 -1.9824 -2.7346
   38MPD2    H1  586   0.951   3.415  11.253  1.4739 -0.2767 -0.0489
   38MPD2    H2  587   0.729   3.526  11.579  1.5890  2.0997 -0.4933
   38MPD2    H3  588   0.761   3.504  11.344  1.2482  1.4844  0.0554
   38MPD2     N  589   1.167   3.309  11.398 -0.2897 -0.7555 -0.0251
   38MPD2    H5  590   1.226   3.257  11.462  1.0581  1.7712  0.7811
   38MPD2    N1  591   0.911   3.437  11.778 -0.1130 -0.3393  0.0502
   38MPD2    H7  592   0.992   3.413  11.835 -0.8118 -1.7665  0.4210
   39MPD2     C  593   3.218   1.131   2.265  0.1746 -0.2509  0.4871
   39MPD2    C1  594   3.193   1.269   2.251  0.4584 -0.3803  0.5902
   39MPD2    C2  595   3.067   1.301   2.203  0.1129  0.7742 -0.9040
   39MPD2    C3  596   2.983   1.202   2.154 -0.1010 -0.6859  0.4986
   39MPD2    C4  597   3.012   1.066   2.170  0.1264  0.4954 -0.2347
   39MPD2    C5  598   3.128   1.034   2.233 -0.2345  0.7842 -0.1011
   39MPD2     H  599   3.052   1.406   2.182 -1.1767  0.6869 -0.4071
   39MPD2    H1  600   2.947   0.992   2.125  1.9056 -0.2426 -1.5373
   39MPD2    H2  601   3.309   1.089   2.305  0.3787 -0.5859 -0.3207
   39MPD2    H3  602   3.160   0.932   2.249 -1.8741 -0.0465 -2.0566
   39MPD2     N  603   2.867   1.224   2.066 -0.4486 -0.1723  0.0461
   39MPD2    H5  604   2.803   1.147   2.050  0.5582 -0.7116 -1.4379
   39MPD2    N1  605   3.289   1.365   2.301 -0.1548  0.2895 -0.2044
   39MPD2    H7  606   3.379   1.334   2.335 -1.6689 -2.8455  0.9446
   40TCq2    C1  607   3.267   1.503   2.303  0.3720 -0.5122 -0.0444
   40TCq2    O2  608   3.180   1.575   2.259  0.6908  0.6936 -0.7058
   40TCq2    C2  609   3.372   1.568   2.370 -0.4964  0.0580 -0.1082
   40TCq2    C3  610   3.341   1.686   2.434 -0.0516  0.1615 -0.7732
   40TCq2    C4  611   3.431   1.735   2.518 -0.2913 -0.2738 -0.1693
   40TCq2    C5  612   3.565   1.692   2.514 -0.6264 -0.3274  0.1825
   40TCq2    C6  613   3.598   1.590   2.432  0.7239  0.2812 -0.0519
   40TCq2    C7  614   3.498   1.518   2.361 -0.0731  0.0949 -0.3680
   40TCq2    C8  615   3.739   1.570   2.396 -0.0227  0.5567  0.8358
   40TCq2    O4  616   3.751   1.457   2.348  0.3232  0.5310  0.2784
   40TCq2    C9  617   3.401   1.856   2.597  0.7222 -0.6400 -0.5027
   40TCq2    O5  618   3.284   1.910   2.591 -0.1313 -0.1468 -0.4786
   40TCq2    O6  619   3.493   1.889   2.679 -0.5315 -0.0109  0.2224
   40TCq2    H2  620   3.241   1.727   2.442  0.4358  0.8356  1.7893
   40TCq2    H3  621   3.640   1.739   2.577 -0.7841 -0.3081  0.3552
   40TCq2    H4  622   3.521   1.432   2.300  1.2774  0.7205 -0.7503
   41TMC2    C1  623   2.748   3.491  13.543  0.4787  0.2919  0.5676
   41TMC2    C2  624   2.666   3.576  13.607 -0.4284  0.3768  0.6259
   41TMC2    C3  625   2.544   3.599  13.552  0.1076  0.0442 -0.4048
   41TMC2    C4  626   2.724   3.447  13.421  0.4516  0.7484  0.0377
   41TMC2    C5  627   2.602   3.473  13.361 -0.7228  0.0385  0.0518
   41TMC2    C6  628   2.503   3.547  13.430  1.0030 -0.1757  0.2579
   41TMC2     C  629   2.839   3.414  13.627  0.8095  0.9613  0.0388
   41TMC2     O  630   2.933   3.360  13.573  0.0966  0.0820  0.0050
   41TMC2     H  631   2.692   3.623  13.701 -0.2085 -0.7554  1.1328
   41TMC2    H1  632   2.796   3.382  13.373 -0.2547 -0.6209  0.8154
   41TMC2    H2  633   2.419   3.590  13.376 -0.4357 -2.0790  1.0049
   41TMC2    C7  634   2.559   3.435  13.229  0.5568  0.4216  0.5259
   41TMC2    C8  635   2.462   3.699  13.622 -0.3422  0.2670 -0.2490
   41TMC2    O1  636   2.439   3.448  13.209 -0.2149  0.6352  0.4706
   41TMC2    O2  637   2.503   3.766  13.716 -0.0410 -0.0745 -0.7918
   41TMC2    O5  638   2.334   3.657  13.617  0.0496 -0.7869 -0.2051
   41TMC2    H5  639   2.308   3.582  13.560 -0.2084 -0.1854 -0.8636
   42MPD2     C  640   3.003   3.300  13.839  0.5251  0.1002 -0.1077
   42MPD2    C1  641   2.886   3.363  13.868  0.4712 -0.4355  0.1836
   42MPD2    C2  642   2.853   3.377  14.003 -0.9718  0.0022  0.4548
   42MPD2    C3  643   2.923   3.321  14.108 -0.2709 -0.7567 -0.7562
   42MPD2    C4  644   3.034   3.248  14.074  0.1810 -0.6714  0.1015
   42MPD2    C5  645   3.071   3.232  13.940  0.3672  0.4709  0.4799
   42MPD2     H  646   2.769   3.439  14.031 -0.3261  0.8564  0.5085
   42MPD2    H1  647   3.088   3.196  14.152  0.0005  4.3440  3.5708
   42MPD2    H2  648   3.052   3.294  13.742  1.5878 -1.0734  0.4926
   42MPD2    H3  649   3.167   3.186  13.917  0.0168 -0.1732  0.2806
   42MPD2     N  650   2.876   3.314  14.245 -0.2931 -1.0816 -0.0722
   42MPD2    H5  651   2.938   3.270  14.313  0.9357  0.3866 -0.2354
   42MPD2    N1  652   2.808   3.417  13.767 -0.0160  0.7030  0.1688
   42MPD2    H7  653   2.721   3.463  13.792 -0.2952 -1.4555  3.1235
   43MPD2     C  654   4.644   2.506   1.090  0.1540  0.1810 -0.8985
   43MPD2    C1  655   4.579   2.384   1.127  0.6159  0.8150  0.0086
   43MPD2    C2  656   4.541   2.378   1.259  0.7471 -1.0063  0.3886
   43MPD2    C3  657   4.577   2.477   1.350 -0.1984  0.8231  0.2910
   43MPD2    C4  658   4.642   2.590   1.309 -1.0557  0.7043  0.7456
   43MPD2    C5  659   4.676   2.601   1.180  0.1146 -0.6232  0.4484
   43MPD2     H  660   4.477   2.293   1.279 -2.2826  1.5963  1.9225
   43MPD2    H1  661   4.655   2.674   1.377 -0.3800 -0.1880  1.7263
   43MPD2    H2  662   4.683   2.530   0.992  1.1340 -0.0949 -0.5738
   43MPD2    H3  663   0.014   2.687   1.154  0.6300 -1.0536  0.2469
   43MPD2     N  664   4.541   2.480   1.491 -0.1164  0.0883 -0.4331
   43MPD2    H5  665   4.562   2.560   1.549  1.7291  0.3213 -1.4083
   43MPD2    N1  666   4.549   2.281   1.031 -0.1127 -0.1750 -0.2729
   43MPD2    H7  667   4.474   2.218   1.058 -0.2331  0.5602  1.1111
   44TCq2    C1  668   4.368   2.692   1.909  0.0195 -0.2308  0.0758
   44TCq2    O2  669   4.395   2.793   1.843 -0.1075 -0.7240  0.1520
   44TCq2    C2  670   4.424   2.566   1.873 -0.7710 -0.1373  0.2167
   44TCq2    C3  671   4.379   2.461   1.960 -0.7168  0.7644 -0.3082
   44TCq2    C4  672   4.358   2.341   1.902 -0.8218 -0.6391  0.0848
   44TCq2    C5  673   4.386   2.312   1.765  0.1768  0.7050 -0.0313
   44TCq2    C6  674   4.422   2.412   1.683  0.1593  0.0344  0.3923
   44TCq2    C7  675   4.437   2.542   1.738 -0.8201 -0.7976 -0.3793
   44TCq2    C8  676   4.461   2.386   1.545  0.2350 -0.2889  0.0762
   44TCq2    O4  677   4.418   2.283   1.493  0.2665  0.4130 -0.1208
   44TCq2    C9  678   4.330   2.232   1.987 -0.0965 -0.5778 -0.1296
   44TCq2    O5  679   4.283   2.256   2.101  0.0793 -0.2101  0.5338
   44TCq2    O6  680   4.331   2.116   1.929 -0.1949  0.6211 -0.5153
   44TCq2    H2  681   4.365   2.470   2.067 -4.2429  1.3137 -0.8232
   44TCq2    H3  682   4.379   2.217   1.714 -2.2562  1.1763 -0.5840
   44TCq2    H4  683   4.438   2.627   1.671  2.5730  1.1605  2.1672
   45TMC2    C1  684   0.031   3.746   9.310  0.3941 -0.2846 -0.1661
   45TMC2    C2  685   4.707   3.712   9.432  0.0892  0.2458 -0.1409
   45TMC2    C3  686   0.047   3.755   9.543 -0.2120  0.6011  0.0662
   45TMC2    C4  687   0.146   3.818   9.295  0.0218  0.3746  0.3273
   45TMC2    C5  688   0.214   3.853   9.409 -0.7203  0.5485 -0.4379
   45TMC2    C6  689   0.165   3.823   9.535 -0.6879 -0.6510 -0.3393
   45TMC2     C  690   4.688   3.709   9.190 -0.0649 -0.0612 -0.6735
   45TMC2     O  691   0.023   3.721   9.080  0.5060 -0.3746  0.4478
   45TMC2     H  692   4.623   3.645   9.446 -0.2082  0.5090 -0.6791
   45TMC2    H1  693   0.171   3.855   9.196 -1.3774 -2.8007 -1.2364
   45TMC2    H2  694   0.216   3.861   9.623 -0.4488 -1.5126 -0.1056
   45TMC2    C7  695   0.315   3.950   9.393  0.6015  0.3668  0.1615
   45TMC2    C8  696   4.699   3.767   9.674 -0.1699  0.5333 -0.5280
   45TMC2    O1  697   0.375   3.955   9.284  0.0924 -0.4718 -0.5149
   45TMC2    O2  698   4.715   3.868   9.744  0.1696 -0.4619 -0.0120
   45TMC2    O5  699   4.679   3.641   9.720  0.4249  0.8209  0.0432
   45TMC2    H5  700   4.692   3.570   9.653  0.5948 -1.0934  2.0984
   46MPD2     C  701   4.499   3.599   8.992  0.1352 -0.2998 -0.4647
   46MPD2    C1  702   4.461   3.655   9.119 -0.0343 -0.1981  0.4205
   46MPD2    C2  703   4.328   3.687   9.139  0.1442 -0.5435  0.0556
   46MPD2    C3  704   4.235   3.658   9.040  0.0487 -0.0237 -0.1217
   46MPD2    C4  705   4.273   3.605   8.921 -0.2882 -0.3264 -0.3721
   46MPD2    C5  706   4.406   3.565   8.898  0.2334  0.4618 -0.1707
   46MPD2     H  707   4.305   3.727   9.237  1.5578 -3.5135  1.6334
   46MPD2    H1  708   4.199   3.590   8.843 -1.8513 -2.3263  1.4773
   46MPD2    H2  709   4.602   3.576   8.970 -0.1544 -2.0738  0.0176
   46MPD2    H3  710   4.432   3.528   8.799 -1.9800 -1.4557 -0.0502
   46MPD2     N  711   4.100   3.699   9.065 -0.4681 -0.7571  0.5203
   46MPD2    H5  712   4.084   3.733   9.159 -0.5353  1.5738 -0.3405
   46MPD2    N1  713   4.555   3.694   9.219 -0.6954 -0.5716 -0.2555
   46MPD2    H7  714   4.512   3.743   9.297 -0.4473 -1.2207  0.2896
   47TMC2    C1  715   2.231   4.417   9.164  0.7308  0.1793  0.6473
   47TMC2    C2  716   2.268   4.358   9.046  0.1446  0.1692 -0.4570
   47TMC2    C3  717   2.170   4.270   8.997 -0.0503 -0.3816  0.1760
   47TMC2    C4  718   2.102   4.406   9.217  0.2890 -0.1543  0.5401
   47TMC2    C5  719   2.012   4.318   9.155  0.1400  0.5734 -0.0933
   47TMC2    C6  720   2.038   4.256   9.039 -0.1022  0.2408  0.3889
   47TMC2     C  721   2.333   4.489   9.241 -0.0407 -0.1652  0.6784
   47TMC2     O  722   2.289   4.580   9.312  0.4463 -0.4513 -0.3244
   47TMC2     H  723   2.367   4.372   9.005  0.4804 -1.3532 -0.1756
   47TMC2    H1  724   2.077   4.476   9.296  0.7744  0.3421  0.2593
   47TMC2    H2  725   1.971   4.184   8.993 -0.9777  1.3562 -0.0838
   47TMC2    C7  726   1.881   4.304   9.201 -0.2022 -0.2216 -0.3791
   47TMC2    C8  727   2.206   4.189   8.875 -0.2619  0.6862  0.3914
   47TMC2    O1  728   1.807   4.254   9.119  0.4006  0.0476 -0.1841
   47TMC2    O2  729   2.115   4.122   8.820  0.4661 -0.4809 -0.7715
   47TMC2    O5  730   2.324   4.134   8.917  0.0527  0.1482 -0.2583
   47TMC2    H5  731   2.391   4.185   8.967  0.9892 -0.5274 -0.8065
   48MPD2     C  732   2.593   4.606   9.353 -0.1454 -0.0732  0.5470
   48MPD2    C1  733   2.573   4.480   9.295 -0.3445 -0.1125 -0.2788
   48MPD2    C2  734   2.675   4.390   9.297 -0.5785 -0.4397  0.1004
   48MPD2    C3  735   2.801   4.425   9.350 -0.8988 -0.5454 -0.4171
   48MPD2    C4  736   2.821   4.554   9.402 -0.1603 -0.2132 -0.1359
   48MPD2    C5  737   2.716   4.636   9.404  1.0054  0.4304  0.5050
   48MPD2     H  738   2.666   4.291   9.253 -0.1407 -0.7917  0.8077
   48MPD2    H1  739   2.914   4.592   9.443 -0.2294 -1.7214  1.3949
   48MPD2    H2  740   2.511   4.678   9.357 -0.0362 -0.0087  1.5090
   48MPD2    H3  741   2.726   0.002   9.464  0.4139  0.4628  0.5527
   48MPD2     N  742   2.892   4.318   9.354  0.0391  0.5491  0.0538
   48MPD2    H5  743   2.861   4.233   9.308 -0.5728  0.9861 -0.3394
   48MPD2    N1  744   2.461   4.439   9.232  0.2577  0.3820  0.9915
   48MPD2    H7  745   2.461   4.348   9.187 -2.9063  0.8432 -0.0162
   49MPD2     C  746   1.392   1.464  10.337 -0.2608 -0.6591 -0.1281
   49MPD2    C1  747   1.301   1.364  10.344  0.2018 -0.3095  0.3067
   49MPD2    C2  748   1.283   1.303  10.465 -0.4168  0.2765  0.4121
   49MPD2    C3  749   1.370   1.338  10.566  0.2278 -0.1721 -0.4630
   49MPD2    C4  750   1.465   1.440  10.561 -0.2238 -0.3980 -0.1731
   49MPD2    C5  751   1.475   1.496  10.442  0.2599 -0.4940  0.3158
   49MPD2     H  752   1.212   1.222  10.473  1.0046 -0.8066  2.1000
   49MPD2    H1  753   1.537   1.470  10.637  0.2827 -1.9225 -0.0555
   49MPD2    H2  754   1.415   1.513  10.243  2.9354 -0.1165  0.9452
   49MPD2    H3  755   1.547   1.577  10.429  1.0109 -1.1100  0.6187
   49MPD2     N  756   1.368   1.273  10.688  0.6925  0.2974 -0.0846
   49MPD2    H5  757   1.448   1.293  10.746  0.7938  0.0250 -0.1323
   49MPD2    N1  758   1.208   1.333  10.239 -0.3357  0.2046  0.0127
   49MPD2    H7  759   1.158   1.250  10.271  0.4582 -1.1294 -2.1918
   50TCq2    C1  760   1.194   1.396  10.120 -0.3902  1.0568 -0.3962
   50TCq2    O2  761   1.263   1.486  10.076 -0.3572  0.4045 -0.0050
   50TCq2    C2  762   1.097   1.334  10.034 -0.2482 -0.2426 -0.4633
   50TCq2    C3  763   1.103   1.366   9.897  0.5540 -0.4576 -0.1557
   50TCq2    C4  764   1.013   1.310   9.814  0.8399  0.7490  1.1742
   50TCq2    C5  765   0.914   1.230   9.867  1.0381  0.5629  0.2092
   50TCq2    C6  766   0.900   1.215   9.997  0.5838 -0.0215  0.1488
   50TCq2    C7  767   0.992   1.268  10.091 -0.0479  0.0297  0.5939
   50TCq2    C8  768   0.796   1.123  10.047 -0.2225 -0.4577  0.4606
   50TCq2    O4  769   0.703   1.109   9.970  0.0747 -0.2090 -0.6097
   50TCq2    C9  770   1.019   1.333   9.671  0.1014 -0.6932 -0.0741
   50TCq2    O5  771   1.112   1.407   9.631 -0.1893  0.1958 -0.8646
   50TCq2    O6  772   0.941   1.271   9.596  0.0100 -0.2062  0.1577
   50TCq2    H2  773   1.169   1.445   9.863  1.6521 -1.2106  0.2390
   50TCq2    H3  774   0.839   1.186   9.801 -1.5353  2.3279  1.9687
   50TCq2    H4  775   0.973   1.273  10.198 -0.7859 -2.2237  0.5879
   51MPD2     C  776   0.372   0.800   0.503 -0.5853  1.0112 -0.9605
   51MPD2    C1  777   0.355   0.685   0.578  0.4899 -0.0250  0.3506
   51MPD2    C2  778   0.286   0.688   0.702  0.2341  0.0804 -0.0970
   51MPD2    C3  779   0.250   0.824   0.742  0.7790 -0.1369 -0.5367
   51MPD2    C4  780   0.273   0.935   0.670 -0.0279  0.6265  0.3000
   51MPD2    C5  781   0.324   0.922   0.546  0.1627  0.3315  0.6651
   51MPD2     H  782   0.266   0.598   0.760  0.8129  1.0951  1.6849
   51MPD2    H1  783   0.242   1.034   0.701  1.4109  1.2111 -0.1256
   51MPD2    H2  784   0.411   0.795   0.402 -1.1038 -0.0333 -1.1047
   51MPD2    H3  785   0.348   1.015   0.496  1.2231  0.6617  1.7722
   51MPD2     N  786   0.198   0.860   0.871  0.5433  0.0972  0.1395
   51MPD2    H5  787   0.146   0.946   0.875 -2.9149 -1.9854 -0.6170
   51MPD2    N1  788   0.394   0.556   0.529  0.1690  0.6845 -0.6102
   51MPD2    H7  789   0.376   0.476   0.589 -0.1045  1.4922  0.3931
   52TCq2    C1  790   0.215   0.779   0.978 -0.3860 -0.1465  0.1354
   52TCq2    O2  791   0.264   0.669   0.990 -0.0735  0.2148  0.0536
   52TCq2    C2  792   0.173   0.843   1.099  0.3860 -0.4284  0.4268
   52TCq2    C3  793   0.178   0.757   1.214  0.6597  0.6249  0.2343
   52TCq2    C4  794   0.184   0.812   1.341 -0.4148 -0.0853 -0.2919
   52TCq2    C5  795   0.193   0.950   1.354 -0.7894  0.3869  0.1491
   52TCq2    C6  796   0.189   1.033   1.242 -0.1321 -0.0265  0.0348
   52TCq2    C7  797   0.183   0.979   1.110  0.1755  0.3536  0.3389
   52TCq2    C8  798   0.231   1.171   1.248 -0.2036 -0.3769 -0.3732
   52TCq2    O4  799   0.240   1.243   1.150 -0.2922  0.2372 -0.6767
   52TCq2    C9  800   0.187   0.732   1.458  0.3581  0.7721 -0.5067
   52TCq2    O5  801   0.179   0.606   1.456  0.1438  0.0812 -1.0015
   52TCq2    O6  802   0.218   0.796   1.563 -0.1134  0.2250 -1.1664
   52TCq2    H2  803   0.174   0.650   1.197  0.9213  0.1576  3.1205
   52TCq2    H3  804   0.183   0.999   1.450 -2.8165 -1.5887  0.9486
   52TCq2    H4  805   0.170   1.051   1.031  0.0869  0.3353  0.3371
   53TMC2    C1  806   2.081   3.326  12.061  1.0119 -0.1315  0.0342
   53TMC2    C2  807   2.124   3.260  12.175  0.0845 -0.1251 -0.2491
   53TMC2    C3  808   2.061   3.288  12.292  0.1097 -0.1806 -0.1835
   53TMC2    C4  809   1.993   3.436  12.072  0.5114  0.0450 -0.1717
   53TMC2    C5  810   1.939   3.455  12.195  0.2338 -0.0582 -0.1538
   53TMC2    C6  811   1.961   3.381  12.303 -0.1982 -0.3322  0.5691
   53TMC2     C  812   2.115   3.260  11.937 -0.1869 -0.0690 -0.4863
   53TMC2     O  813   2.209   3.182  11.931  0.0809  0.0544 -0.1305
   53TMC2     H  814   2.207   3.190  12.171  2.4424  2.6815 -1.1581
   53TMC2    H1  815   1.972   3.490  11.981 -0.9065  1.2106  0.8373
   53TMC2    H2  816   1.906   3.393  12.395  0.1737 -2.9919  1.1559
   53TMC2    C7  817   1.870   3.586  12.198 -0.0185  0.3904 -0.4146
   53TMC2    C8  818   2.108   3.223  12.413 -0.1914 -0.0877 -0.1398
   53TMC2    O1  819   1.833   3.648  12.097  0.3393  0.1845 -0.0547
   53TMC2    O2  820   2.084   3.266  12.528  0.2263  0.7826  0.4153
   53TMC2    O5  821   2.160   3.097  12.396 -0.3933  0.3114 -0.1034
   53TMC2    H5  822   2.164   3.058  12.306 -0.1545 -1.2554  0.5791
   54MPD2     C  823   2.118   3.160  11.655  0.0261 -0.5335 -0.0173
   54MPD2    C1  824   2.011   3.226  11.706 -0.0584 -0.4224 -0.3863
   54MPD2    C2  825   1.896   3.239  11.630  0.4487 -1.0145  0.1933
   54MPD2    C3  826   1.888   3.184  11.502 -0.0398  0.0613  0.1398
   54MPD2    C4  827   1.989   3.113  11.454  0.2934  0.5592  0.2283
   54MPD2    C5  828   2.104   3.109  11.528  0.4882 -0.1197 -0.0264
   54MPD2     H  829   1.821   3.294  11.686  0.7403  2.2376 -2.6121
   54MPD2    H1  830   1.990   3.074  11.352 -0.5097  0.3823  0.2924
   54MPD2    H2  831   2.215   3.173  11.701 -0.2287  0.1273  0.3251
   54MPD2    H3  832   2.194   3.077  11.477  0.3216  1.9913 -1.6605
   54MPD2     N  833   1.771   3.201  11.416  0.4348 -0.2379 -0.0647
   54MPD2    H5  834   1.781   3.158  11.325  1.5985 -0.6962  0.2847
   54MPD2    N1  835   2.016   3.287  11.838  0.3285  0.5037  0.3913
   54MPD2    H7  836   1.940   3.350  11.862 -1.9352 -1.2034 -2.2317
   55MPD2     C  837   1.421   0.469   0.769  0.2065 -0.3033 -0.1967
   55MPD2    C1  838   1.358   0.506   0.881 -0.3005 -0.6413 -0.1143
   55MPD2    C2  839   1.264   0.609   0.868  0.0837  0.2509  0.3594
   55MPD2    C3  840   1.218   0.667   0.756  0.1268  0.1665 -0.3079
   55MPD2    C4  841   1.279   0.624   0.641 -0.1748  0.1924  0.4559
   55MPD2    C5  842   1.382   0.529   0.650  0.6424 -1.0410 -0.2368
   55MPD2     H  843   1.220   0.652   0.958  0.9805  1.0080  0.4333
   55MPD2    H1  844   1.252   0.671   0.548 -0.5224 -0.8768  0.0137
   55MPD2    H2  845   1.490   0.385   0.767  0.3813 -0.1357 -1.7694
   55MPD2    H3  846   1.415   0.484   0.556  0.2075  2.5677 -2.1366
   55MPD2     N  847   1.107   0.757   0.754 -0.0601 -0.2996  0.4709
   55MPD2    H5  848   1.063   0.767   0.845 -1.8737  0.3044 -0.4959
   55MPD2    N1  849   1.393   0.436   0.996 -0.4861  0.6673  0.2844
   55MPD2    H7  850   1.468   0.368   0.990  0.0192  1.3313 -1.1033
   56TCq2    C1  851   1.326   0.437   1.109 -0.0660  0.1815 -0.9569
   56TCq2    O2  852   1.226   0.504   1.138  0.2158  0.5065 -0.0805
   56TCq2    C2  853   1.376   0.360   1.218  1.0478  0.1712 -0.0512
   56TCq2    C3  854   1.512   0.333   1.222 -0.1990 -0.0136  0.3179
   56TCq2    C4  855   1.556   0.261   1.333 -0.7252  0.0584 -0.2443
   56TCq2    C5  856   1.473   0.235   1.441  0.7112  1.0223 -0.2781
   56TCq2    C6  857   1.345   0.275   1.434 -0.0721  0.1425  0.0532
   56TCq2    C7  858   1.291   0.330   1.324 -0.2529 -0.1131  0.3322
   56TCq2    C8  859   1.261   0.261   1.553 -0.0158  0.1233 -0.4250
   56TCq2    O4  860   1.275   0.160   1.624  0.0450  0.3388 -0.5036
   56TCq2    C9  861   1.694   0.223   1.339  0.0122 -0.1039  0.2567
   56TCq2    O5  862   1.776   0.283   1.264  0.2120 -0.7298  0.7121
   56TCq2    O6  863   1.737   0.167   1.442 -0.1783 -0.0607  0.1919
   56TCq2    H2  864   1.579   0.353   1.140  2.3052  2.0375  2.8519
   56TCq2    H3  865   1.514   0.188   1.529  0.1498 -0.5944 -0.8738
   56TCq2    H4  866   1.189   0.367   1.322 -0.3469 -0.3807  0.2451
   57TMC2    C1  867   1.276   2.661  13.764 -0.1037 -0.0560 -0.6076
   57TMC2    C2  868   1.359   2.603  13.856 -0.5574 -0.0241 -0.1499
   57TMC2    C3  869   1.468   2.533  13.805 -0.5245 -0.1789  0.3753
   57TMC2    C4  870   1.297   2.644  13.632  0.0718  0.1350  0.6055
   57TMC2    C5  871   1.413   2.581  13.584  0.0364  0.0727  0.7245
   57TMC2    C6  872   1.494   2.509  13.672  0.2970 -0.0747  0.2139
   57TMC2     C  873   1.147   2.701  13.808  0.6723  0.1263 -0.0673
   57TMC2     O  874   1.138   2.740  13.924 -0.4602 -0.2257 -0.2121
   57TMC2     H  875   1.338   2.619  13.961  2.7066 -1.5018  0.7268
   57TMC2    H1  876   1.227   2.686  13.560 -0.3768  0.2939  1.1341
   57TMC2    H2  877   1.578   2.453  13.631  0.6499  0.0111  0.8177
   57TMC2    C7  878   1.426   2.573  13.441 -0.1454  0.3476  0.2626
   57TMC2    C8  879   1.551   2.465  13.903  0.0689  0.7155 -0.1242
   57TMC2    O1  880   1.384   2.665  13.371  0.2304  0.1551  0.0145
   57TMC2    O2  881   1.587   2.513  14.010  0.2587  0.1900  0.9439
   57TMC2    O5  882   1.500   2.341  13.898  0.0903  0.5478 -0.2382
   57TMC2    H5  883   1.464   2.322  13.809  0.4171 -0.6659 -0.1106
   58MPD2     C  884   0.653   2.629  13.880  0.0876 -0.1781 -0.5259
   58MPD2    C1  885   0.738   2.708  13.947  0.9751 -0.3258  0.1345
   58MPD2    C2  886   0.865   2.730  13.898  0.6831 -0.1151  0.4309
   58MPD2    C3  887   0.910   2.671  13.776 -0.1202  0.4111  0.3767
   58MPD2    C4  888   0.818   2.606  13.707  0.4507  0.5461 -0.1508
   58MPD2    C5  889   0.693   2.580  13.757  0.0602 -0.2070 -1.0663
   58MPD2     H  890   0.927   2.804  13.948  0.9221 -0.1902  0.2495
   58MPD2    H1  891   0.853   2.560  13.616  0.1697 -0.5946  0.3113
   58MPD2    H2  892   0.556   2.602  13.920  0.1869  0.2985  0.0461
   58MPD2    H3  893   0.624   2.525  13.695 -2.0335 -0.3352  1.4006
   58MPD2     N  894   1.039   2.675  13.729 -0.2837 -0.2144  0.1982
   58MPD2    H5  895   1.065   2.627  13.644 -2.4369  1.5543 -1.4643
   58MPD2    N1  896   0.710   2.768  14.071 -0.0368  0.1980 -0.5687
   58MPD2    H7  897   0.773   2.842  14.100 -0.0293 -0.4507  1.0948
   59MPD2     C  898   3.718   2.878  12.941  0.9330  0.6328 -0.5563
   59MPD2    C1  899   3.838   2.826  12.905 -0.9698 -0.0958  0.6177
   59MPD2    C2  900   3.953   2.880  12.960 -0.3751  0.0427  0.3188
   59MPD2    C3  901   3.944   2.979  13.053 -0.2980 -0.3986  0.0709
   59MPD2    C4  902   3.819   3.029  13.095  0.0149 -0.1843  0.6134
   59MPD2    C5  903   3.706   2.972  13.037 -0.1294  0.2965 -0.1335
   59MPD2     H  904   4.047   2.837  12.929 -0.3561 -0.9039  1.6607
   59MPD2    H1  905   3.815   3.111  13.165  1.6486 -1.1401  1.8444
   59MPD2    H2  906   3.624   2.851  12.894  2.0344  0.2927 -2.5576
   59MPD2    H3  907   3.608   3.010  13.063 -1.0052 -0.8486 -1.8022
   59MPD2     N  908   4.051   3.033  13.134 -0.1175  0.5054 -0.3963
   59MPD2    H5  909   4.023   3.111  13.192  0.0580 -0.4520  0.9785
   59MPD2    N1  910   3.853   2.727  12.810 -0.2536 -0.5460  0.3255
   59MPD2    H7  911   3.946   2.690  12.798 -0.1357  0.4115 -1.6969
   60TCq2    C1  912   3.748   2.671  12.744 -0.1055 -0.0500 -0.0038
   60TCq2    O2  913   3.627   2.667  12.764  0.0871 -0.8553  0.8825
   60TCq2    C2  914   3.798   2.568  12.653 -0.7400  0.4055 -0.5359
   60TCq2    C3  915   3.743   2.437  12.653 -0.4733 -0.0700 -0.0975
   60TCq2    C4  916   3.781   2.353  12.559 -0.1954 -0.5056  0.3939
   60TCq2    C5  917   3.856   2.397  12.452  0.0888 -0.6547  0.0852
   60TCq2    C6  918   3.888   2.531  12.441  0.8595  0.0616  0.1816
   60TCq2    C7  919   3.877   2.614  12.551  0.5913 -0.2165 -0.3512
   60TCq2    C8  920   3.946   2.588  12.319 -0.0745 -0.0666  0.9138
   60TCq2    O4  921   3.989   2.510  12.234 -0.0983  0.1722 -0.0564
   60TCq2    C9  922   3.756   2.208  12.575 -0.4176 -0.4263 -0.1265
   60TCq2    O5  923   3.800   2.123  12.490 -0.3201 -0.0958  0.5115
   60TCq2    O6  924   3.707   2.173  12.688 -0.5254  0.0526 -0.1971
   60TCq2    H2  925   3.686   2.392  12.733 -0.2885 -0.2129 -0.0472
   60TCq2    H3  926   3.866   2.323  12.373  0.8338  1.1972 -1.5299
   60TCq2    H4  927   3.919   2.711  12.573 -0.0069  0.0601 -0.4169
   61MPD2     C  928   3.044   3.479  14.667 -0.1538  0.2136 -0.4854
   61MPD2    C1  929   3.047   3.573  14.770 -0.1629  0.1269 -0.2513
   61MPD2    C2  930   3.108   3.696  14.746 -0.7543 -0.5762 -0.0489
   61MPD2    C3  931   3.145   3.729  14.616  0.3374  0.1112 -0.3202
   61MPD2    C4  932   3.118   3.639  14.511 -0.3450  0.1996  0.6578
   61MPD2    C5  933   3.069   3.519  14.541 -0.0677  0.1792  0.0928
   61MPD2     H  934   3.110   3.770  14.825  1.3613  0.5870 -1.1893
   61MPD2    H1  935   3.128   3.665  14.406 -0.4124 -0.0817  0.5810
   61MPD2    H2  936   3.006   3.378  14.677  1.3881 -0.2124  1.2067
   61MPD2    H3  937   3.051   3.452  14.457 -1.0712 -2.0614  2.1221
   61MPD2     N  938   3.186   3.855  14.586 -0.2007  0.1545 -0.3184
   61MPD2    H5  939   3.172   3.887  14.490 -2.7068  0.1202  0.0254
   61MPD2    N1  940   3.001   3.542  14.906  0.1827  0.0037  0.6218
   61MPD2    H7  941   2.999   3.615  14.976  1.1194  1.4717 -0.8846
   62TCq2    C1  942   2.936   3.425  14.939  0.0251  0.0064  0.4789
   62TCq2    O2  943   2.943   3.319  14.877 -0.3544  0.3156 -0.4477
   62TCq2    C2  944   2.844   3.429  15.052  0.8927  1.3304 -0.2849
   62TCq2    C3  945   2.793   3.311  15.098  0.1672 -0.2894  0.8861
   62TCq2    C4  946   2.696   3.316  15.195 -0.0195  0.0373 -0.1862
   62TCq2    C5  947   2.657   3.437  15.252 -0.1109  0.1362  0.7382
   62TCq2    C6  948   2.712   3.552  15.207  0.1425  0.7907  0.1995
   62TCq2    C7  949   2.807   3.553  15.108 -0.0432  0.1000 -1.1019
   62TCq2    C8  950   2.640   3.671  15.244 -0.0814  0.3042  0.4988
   62TCq2    O4  951   2.701   3.777  15.242  0.1825  0.1161  0.4093
   62TCq2    C9  952   2.630   3.192  15.235  0.3309 -0.1928  0.6052
   62TCq2    O5  953   2.664   3.082  15.185 -0.3429 -0.0655 -0.2693
   62TCq2    O6  954   2.573   3.209  15.342 -0.3048  0.7461  0.1645
   62TCq2    H2  955   2.820   3.216  15.055 -0.8480 -0.7953  1.3541
   62TCq2    H3  956   2.584   3.433  15.332 -0.3456  2.3731  0.6255
   62TCq2    H4  957   2.840   3.652  15.077 -0.7801  1.9327  3.8579
   63TMC2    C1  958   2.552   3.816  10.702  0.0881 -0.2643 -0.4538
   63TMC2    C2  959   2.601   3.764  10.817 -0.4116 -0.4781 -0.7754
   63TMC2    C3  960   2.731   3.810  10.843 -0.7934  0.4792  0.2204
   63TMC2    C4  961   2.619   3.889  10.615 -0.9043  0.9277  0.3306
   63TMC2    C5  962   2.746   3.914  10.634 -0.4577  0.1338 -0.0005
   63TMC2    C6  963   2.799   3.886  10.756 -0.2576 -0.9247 -0.2933
   63TMC2     C  964   2.419   3.773  10.659  0.3290  0.1006  0.2357
   63TMC2     O  965   2.361   3.828  10.568  0.3354 -0.1416  0.7498
   63TMC2     H  966   2.538   3.722  10.895  2.5340  0.0557  1.8898
   63TMC2    H1  967   2.577   3.922  10.521  0.4916  0.8671 -0.3082
   63TMC2    H2  968   2.902   3.910  10.783 -1.4999  1.6130  2.1704
   63TMC2    C7  969   2.823   3.998  10.544 -0.1537  1.3320  0.4063
   63TMC2    C8  970   2.786   3.774  10.974 -0.5654  0.2577 -0.0616
   63TMC2    O1  971   2.909   4.059  10.603  0.5168 -0.0898  0.1627
   63TMC2    O2  972   2.760   3.666  11.027 -0.2924 -0.2006  0.5285
   63TMC2    O5  973   2.846   3.884  11.028 -0.4515  0.0719 -0.3698
   63TMC2    H5  974   2.825   3.959  10.969  1.0273  1.2941  0.6327
   64MPD2     C  975   2.099   3.373  10.604  0.3048  0.0947 -0.2810
   64MPD2    C1  976   2.220   3.334  10.655 -0.0097  0.4328  0.8101
   64MPD2    C2  977   2.315   3.429  10.690 -0.2300  0.6115 -0.1122
   64MPD2    C3  978   2.295   3.562  10.665 -0.1348  0.1110 -0.0623
   64MPD2    C4  979   2.175   3.599  10.600  0.2856  0.2566  0.2774
   64MPD2    C5  980   2.075   3.505  10.585 -0.1229 -0.2039  0.1139
   64MPD2     H  981   2.410   3.401  10.734  0.2407  1.1568 -0.7919
   64MPD2    H1  982   2.151   3.704  10.586  0.1622 -0.0038 -1.5096
   64MPD2    H2  983   2.024   3.304  10.566  2.2130 -0.5657 -2.9254
   64MPD2    H3  984   1.974   3.525  10.553  0.8796  0.2809 -2.8186
   64MPD2     N  985   2.403   3.646  10.707 -0.0540  0.2867  0.0106
   64MPD2    H5  986   2.483   3.609  10.756  0.8934  1.5696 -0.5797
   64MPD2    N1  987   2.257   3.203  10.658 -0.0398 -0.1661  0.2605
   64MPD2    H7  988   2.347   3.185  10.702  1.5521  1.2710 -2.3952
   65MPD2     C  989   3.592   3.452  15.940  0.3484  0.1604 -0.2580
   65MPD2    C1  990   3.562   3.457  15.808 -0.9938  0.7078 -0.4360
   65MPD2    C2  991   3.501   3.347  15.746 -0.1088  0.6954  0.4113
   65MPD2    C3  992   3.447   3.246  15.817 -0.3508 -0.4920 -0.1465
   65MPD2    C4  993   3.477   3.247  15.956  0.7966  0.3291  0.6242
   65MPD2    C5  994   3.548   3.353  16.012  0.0765 -0.8520 -0.1282
   65MPD2     H  995   3.497   3.355  15.638 -1.3112  1.5886  0.5215
   65MPD2    H1  996   3.440   3.170  16.023 -0.1972  0.2684  0.0137
   65MPD2    H2  997   3.644   3.538  15.983 -0.4558  0.5468 -0.0676
   65MPD2    H3  998   3.555   3.339  16.119  1.4049 -0.1914 -0.1357
   65MPD2     N  999   3.369   3.146  15.762  0.5887  0.4278 -0.8223
   65MPD2    H5 1000   3.329   3.078  15.826  1.6304 -0.7210 -1.3858
   65MPD2    N1 1001   3.608   3.558  15.715  0.5013 -0.3236 -0.2361
   65MPD2    H7 1002   3.571   3.550  15.621  0.5489  2.3562 -0.4733
   66TCq2    C1 1003   3.675   3.670  15.743 -0.6331 -0.6918 -0.1480
   66TCq2    O2 1004   3.725   3.713  15.849 -0.1592 -0.3002 -0.4383
   66TCq2    C2 1005   3.681   3.765  15.632 -0.2086 -0.7105  0.3362
   66TCq2    C3 1006   3.678   3.726  15.503  0.0964 -0.2210 -0.5947
   66TCq2    C4 1007   3.694   3.825  15.405  0.1280  0.1082 -0.0326
   66TCq2    C5 1008   3.720   3.955  15.439 -0.3609  0.1545  0.3278
   66TCq2    C6 1009   3.729   3.990  15.571  0.0618 -0.1580 -0.1619
   66TCq2    C7 1010   3.706   3.894  15.668  0.5229 -0.1865 -0.1556
   66TCq2    C8 1011   3.776   4.117  15.608  0.2074  0.9023 -1.0375
   66TCq2    O4 1012   3.846   4.175  15.523  0.0292 -0.3426 -0.1862
   66TCq2    C9 1013   3.697   3.786  15.268  0.2576 -0.8958  0.1212
   66TCq2    O5 1014   3.675   3.660  15.242  0.1141  0.2514 -0.3539
   66TCq2    O6 1015   3.673   3.872  15.182 -0.3006  0.0665 -0.1346
   66TCq2    H2 1016   3.678   3.620  15.480 -2.2472 -0.4987  0.6550
   66TCq2    H3 1017   3.739   4.019  15.354 -1.4511 -1.3939 -1.0855
   66TCq2    H4 1018   3.701   3.921  15.772  0.9517 -2.6144  0.4977
   67MPD2     C 1019   3.855   3.032  13.947 -0.1271 -0.0992  0.2754
   67MPD2    C1 1020   3.787   2.984  14.057 -0.2425 -0.1500  0.4385
   67MPD2    C2 1021   3.690   2.883  14.041  0.2439 -0.0257  0.2047
   67MPD2    C3 1022   3.663   2.824  13.923 -0.3683 -0.2244  0.6197
   67MPD2    C4 1023   3.737   2.870  13.820  0.3853 -0.7749  0.4074
   67MPD2    C5 1024   3.832   2.965  13.835 -0.2875 -0.0853  0.0611
   67MPD2     H 1025   3.647   2.845  14.133 -1.7962 -0.0616 -0.7825
   67MPD2    H1 1026   3.723   2.818  13.727  0.0901 -0.2497  0.1561
   67MPD2    H2 1027   3.927   3.113  13.942  0.7062 -0.8320  0.3611
   67MPD2    H3 1028   3.880   2.994  13.742  0.4052  1.1028  0.7854
   67MPD2     N 1029   3.557   2.733  13.904  0.0568  0.0717 -0.4409
   67MPD2    H5 1030   3.544   2.704  13.808 -1.4158 -0.2279 -0.1459
   67MPD2    N1 1031   3.801   3.044  14.175  0.2303 -0.2121 -0.2864
   67MPD2    H7 1032   3.736   3.005  14.242 -0.0218  0.3370 -0.2131
   68TCq2    C1 1033   3.901   3.131  14.215  0.0313  0.4375  0.3015
   68TCq2    O2 1034   4.007   3.156  14.165 -0.8140  0.3339  0.2532
   68TCq2    C2 1035   3.873   3.173  14.351  0.0044  0.5669  0.6091
   68TCq2    C3 1036   3.738   3.168  14.388  0.6607  0.1795 -0.0704
   68TCq2    C4 1037   3.701   3.159  14.518 -0.4901 -0.4232 -0.6486
   68TCq2    C5 1038   3.802   3.153  14.611  0.3825 -0.8152 -0.2306
   68TCq2    C6 1039   3.932   3.148  14.574  0.0733 -0.3918 -0.4996
   68TCq2    C7 1040   3.969   3.169  14.444 -0.4157 -0.0662  0.0083
   68TCq2    C8 1041   4.043   3.128  14.668  0.4781 -0.0451 -0.0188
   68TCq2    O4 1042   4.156   3.105  14.623 -0.1381  0.3914  0.1618
   68TCq2    C9 1043   3.561   3.150  14.554 -0.2501 -0.2915 -0.5890
   68TCq2    O5 1044   3.527   3.208  14.660 -0.3636  0.4277 -0.3567
   68TCq2    O6 1045   3.483   3.107  14.466  0.3753 -0.5029 -1.0049
   68TCq2    H2 1046   3.663   3.179  14.311 -1.0191 -0.4543  1.4763
   68TCq2    H3 1047   3.763   3.159  14.711 -0.5138  0.5586 -0.6645
   68TCq2    H4 1048   4.074   3.165  14.416 -1.1761 -2.5279 -2.4983
   69TMC2    C1 1049   1.008   4.222  11.951  0.0167  0.4651  0.3064
   69TMC2    C2 1050   0.890   4.181  11.902  0.2605 -0.0430  0.2558
   69TMC2    C3 1051   0.873   4.168  11.767  0.3329 -0.7622  0.1907
   69TMC2    C4 1052   1.118   4.244  11.870 -0.3398 -0.4048 -0.3206
   69TMC2    C5 1053   1.095   4.240  11.735  0.4003  0.7422 -0.8618
   69TMC2    C6 1054   0.973   4.203  11.685 -0.2990  0.8089 -0.4038
   69TMC2     C 1055   1.032   4.203  12.101  0.0763  0.5023 -0.0880
   69TMC2     O 1056   0.934   4.166  12.167  0.1326 -0.1338  0.1581
   69TMC2     H 1057   0.813   4.144  11.969 -0.4763 -1.1691 -1.1872
   69TMC2    H1 1058   1.218   4.273  11.898 -0.1589 -3.3207  2.0876
   69TMC2    H2 1059   0.947   4.196  11.580  0.6623  0.2357 -0.6101
   69TMC2    C7 1060   1.195   4.163  11.671 -0.1855 -0.6685  0.1486
   69TMC2    C8 1061   0.735   4.135  11.712  0.6781 -0.3157  0.4297
   69TMC2    O1 1062   1.283   4.117  11.742 -0.4475 -0.2697 -0.1939
   69TMC2    O2 1063   0.644   4.169  11.780  0.1220 -0.4449 -0.9448
   69TMC2    O5 1064   0.755   4.066  11.597  0.2219  0.7367 -0.8906
   69TMC2    H5 1065   0.846   4.032  11.580 -0.6396 -0.0226 -3.8988
   70MPD2     C 1066   1.349   4.256  12.290  0.7314  0.7857 -0.6204
   70MPD2    C1 1067   1.216   4.219  12.271  0.6540  0.3450 -0.7119
   70MPD2    C2 1068   1.141   4.174  12.381  0.0646 -0.1854 -0.4379
   70MPD2    C3 1069   1.212   4.147  12.499  0.1615  0.3730  0.7391
   70MPD2    C4 1070   1.350   4.162  12.506 -0.2168  0.2196 -0.3291
   70MPD2    C5 1071   1.417   4.219  12.408 -0.2462 -0.2476  0.2119
   70MPD2     H 1072   1.035   4.157  12.372  0.2446 -1.8647  0.6193
   70MPD2    H1 1073   1.401   4.133  12.597  0.0588 -0.9428 -0.8557
   70MPD2    H2 1074   1.407   4.298  12.209  0.8928  0.9632 -0.4149
   70MPD2    H3 1075   1.522   4.243  12.424 -0.4283  0.9658 -0.3665
   70MPD2     N 1076   1.165   4.071  12.604 -0.2147  0.2645 -0.2203
   70MPD2    H5 1077   1.233   4.049  12.676  0.4804 -1.1312 -1.3257
   70MPD2    N1 1078   1.161   4.243  12.142 -0.1858 -0.1363 -0.7415
   70MPD2    H7 1079   1.232   4.286  12.083  1.5620  1.3397  2.4177
   71TMC2    C1 1080   2.080   4.548   2.381  0.6531  0.2966  0.9212
   71TMC2    C2 1081   2.116   4.421   2.413 -1.3267  0.8370 -0.1958
   71TMC2    C3 1082   2.010   4.332   2.414  0.1016  0.0211  0.5388
   71TMC2    C4 1083   1.951   4.588   2.357  0.1613  0.0251  0.3513
   71TMC2    C5 1084   1.853   4.496   2.365  0.2593  0.0246 -0.3088
   71TMC2    C6 1085   1.881   4.364   2.398  0.0895 -0.1585 -0.2185
   71TMC2     C 1086   2.183   4.648   2.336 -0.2345  0.5373  0.4506
   71TMC2     O 1087   2.153   0.046   2.319 -0.4579  0.2196  0.0315
   71TMC2     H 1088   2.213   4.392   2.451 -1.7791  2.4907  2.2391
   71TMC2    H1 1089   1.924   4.692   2.341  1.2327  0.2168 -0.2292
   71TMC2    H2 1090   1.811   4.283   2.412 -1.6120  1.8777  3.1466
   71TMC2    C7 1091   1.717   4.530   2.350  0.3498  0.0608 -0.3355
   71TMC2    C8 1092   2.038   4.196   2.462  0.4639  0.2700  0.1559
   71TMC2    O1 1093   1.640   4.444   2.394  0.3480 -0.5720 -0.3667
   71TMC2    O2 1094   1.952   4.133   2.524 -0.9491  0.3701  0.2419
   71TMC2    O5 1095   2.149   4.150   2.404 -0.2233 -0.2961 -0.5094
   71TMC2    H5 1096   2.196   4.219   2.352 -1.1444  0.1225 -0.7976
   72MPD2     C 1097   2.659   4.708   2.162  0.6027  0.1753  0.8667
   72MPD2    C1 1098   2.554   0.075   2.181 -0.2588  0.6712 -0.0307
   72MPD2    C2 1099   2.434   0.027   2.218  0.0597 -0.6799  0.5214
   72MPD2    C3 1100   2.415   4.616   2.254  0.3619  0.8546 -0.9108
   72MPD2    C4 1101   2.522   4.526   2.250 -0.0015  0.3547  1.2636
   72MPD2    C5 1102   2.643   4.574   2.194 -0.6258 -0.3935  0.3703
   72MPD2     H 1103   2.349   0.093   2.209 -1.2279 -2.3857  0.0531
   72MPD2    H1 1104   2.507   4.421   2.275 -2.2552 -0.5110 -3.6931
   72MPD2    H2 1105   2.753   0.017   2.118 -0.1435 -0.7600 -1.4492
   72MPD2    H3 1106   2.718   4.502   2.161  0.6701  0.1659  2.0958
   72MPD2     N 1107   2.289   4.565   2.299 -0.4082 -0.4084  0.7729
   72MPD2    H5 1108   2.280   4.465   2.314 -0.9215 -0.2848  1.2919
   72MPD2    N1 1109   2.567   0.212   2.132  0.0137 -0.4452  0.6137
   72MPD2    H7 1110   2.480   0.263   2.141  0.9653  0.9970  1.6109
   73TMC2    C1 1111   2.665   1.811  13.647  0.2431  0.0670 -0.5993
   73TMC2    C2 1112   2.664   1.750  13.525 -0.6993 -0.3176 -0.3098
   73TMC2    C3 1113   2.679   1.617  13.528  0.3857 -0.3675 -0.1687
   73TMC2    C4 1114   2.690   1.740  13.763 -0.2991  0.3160  0.3229
   73TMC2    C5 1115   2.718   1.606  13.759  0.5515 -0.3040  0.2453
   73TMC2    C6 1116   2.708   1.541  13.638 -0.1163 -0.4477  0.2287
   73TMC2     C 1117   2.726   1.941  13.656  0.0320  0.2916  0.3953
   73TMC2     O 1118   2.792   1.960  13.757 -0.4614  0.2673  0.6355
   73TMC2     H 1119   2.644   1.798  13.430 -0.4099  1.2228  0.4158
   73TMC2    H1 1120   2.693   1.800  13.854  1.6784 -1.4817  1.4524
   73TMC2    H2 1121   2.743   1.439  13.621 -2.0028 -1.1190  0.4127
   73TMC2    C7 1122   2.837   1.570  13.829 -0.8007  0.5839  0.3807
   73TMC2    C8 1123   2.711   1.562  13.401 -0.5078  0.5536 -0.1844
   73TMC2    O1 1124   2.864   1.457  13.868 -0.8280 -0.0018 -0.6598
   73TMC2    O2 1125   2.639   1.597  13.310  0.4152  0.3479 -0.2631
   73TMC2    O5 1126   2.849   1.552  13.399  0.6670  0.7305 -0.5933
   73TMC2    H5 1127   2.896   1.533  13.483  0.0275 -1.9508 -0.8431
   74MPD2     C 1128   2.922   2.377  13.473  0.3894 -0.3398  0.0181
   74MPD2    C1 1129   2.972   2.291  13.568  0.6816 -0.1253 -0.3675
   74MPD2    C2 1130   2.902   2.176  13.591  0.1354 -0.3854 -0.6365
   74MPD2    C3 1131   2.790   2.135  13.522 -0.1231  0.7654  0.4851
   74MPD2    C4 1132   2.751   2.217  13.421 -0.6977 -0.1079  0.3022
   74MPD2    C5 1133   2.809   2.341  13.404  0.4701  0.1578 -0.1497
   74MPD2     H 1134   2.939   2.106  13.664 -1.2582  0.3705  0.8044
   74MPD2    H1 1135   2.664   2.196  13.360 -0.4907  0.3405 -0.1451
   74MPD2    H2 1136   2.974   2.471  13.456 -2.2106  0.8456 -1.3730
   74MPD2    H3 1137   2.770   2.409  13.329  2.4674  0.8705 -0.5397
   74MPD2     N 1138   2.719   2.018  13.541 -0.0132 -0.4912  0.2163
   74MPD2    H5 1139   2.654   1.993  13.467  0.5379  0.5698 -0.6174
   74MPD2    N1 1140   3.101   2.313  13.621  0.4857 -0.2244  0.5312
   74MPD2    H7 1141   3.146   2.399  13.590  1.1528 -1.2550 -1.3395
   75TCq2    C1 1142   3.472   2.693  14.002  0.1607  0.3891  0.1408
   75TCq2    O2 1143   3.474   2.707  14.125 -0.6736 -0.4127 -0.2880
   75TCq2    C2 1144   3.362   2.621  13.938 -0.7643  0.0287 -0.3375
   75TCq2    C3 1145   3.272   2.573  14.028 -0.1117  0.1048  0.2697
   75TCq2    C4 1146   3.144   2.545  13.996  0.1374 -0.0691 -0.0010
   75TCq2    C5 1147   3.093   2.578  13.874 -0.1137  0.1959  0.3035
   75TCq2    C6 1148   3.187   2.616  13.782 -0.0615  0.2207  0.6368
   75TCq2    C7 1149   3.323   2.630  13.810  0.3941  0.3878 -0.3548
   75TCq2    C8 1150   3.142   2.678  13.665 -0.8316  0.4371 -0.0118
   75TCq2    O4 1151   3.043   2.635  13.611  0.5478 -0.1120  0.5452
   75TCq2    C9 1152   3.055   2.504  14.103 -0.5921 -1.1406 -0.0925
   75TCq2    O5 1153   3.104   2.502  14.220  0.2016  0.1704  0.2039
   75TCq2    O6 1154   2.937   2.479  14.087  0.0037  0.0541 -0.0250
   75TCq2    H2 1155   3.294   2.578  14.134  1.3285 -1.6798  0.0564
   75TCq2    H3 1156   2.987   2.584  13.854  0.1125 -0.1780 -0.9856
   75TCq2    H4 1157   3.398   2.665  13.740  0.7209 -2.3955 -1.3922
   76MPD2     C 1158   2.273   3.561  11.867 -0.5386  0.5064  0.6084
   76MPD2    C1 1159   2.244   3.518  11.737 -0.2217  0.7537 -0.1756
   76MPD2    C2 1160   2.328   3.415  11.690 -0.6131  0.0689 -0.0511
   76MPD2    C3 1161   2.431   3.361  11.763 -0.1048 -0.1266  0.2339
   76MPD2    C4 1162   2.454   3.408  11.886  0.3586  0.2851 -0.3716
   76MPD2    C5 1163   2.380   3.510  11.936 -0.6443 -0.0384  0.8764
   76MPD2     H 1164   2.315   3.377  11.589  1.3073  1.5792 -0.8847
   76MPD2    H1 1165   2.538   3.370  11.943  0.1062 -0.0344 -0.2072
   76MPD2    H2 1166   2.215   3.636  11.920 -0.3009  0.9744  0.1926
   76MPD2    H3 1167   2.406   3.558  12.030  1.3625  0.2151  0.1996
   76MPD2     N 1168   2.520   3.257  11.710 -0.0765  0.1231  1.4059
   76MPD2    H5 1169   2.596   3.225  11.770 -0.0688 -0.7764  0.9194
   76MPD2    N1 1170   2.144   3.565  11.647 -0.4864 -0.0520 -0.3941
   76MPD2    H7 1171   2.121   3.523  11.557  0.2997  0.2852 -0.7515
   77TCq2    C1 1172   2.503   3.187  11.589 -0.4105  0.8334 -0.2214
   77TCq2    O2 1173   2.427   3.196  11.493 -0.2183  0.0204  0.8712
   77TCq2    C2 1174   2.576   3.066  11.589 -0.0287 -0.5477 -0.2191
   77TCq2    C3 1175   2.517   2.955  11.539 -0.8617 -0.1264 -0.7398
   77TCq2    C4 1176   2.565   2.831  11.572 -0.7405  0.2317 -0.2026
   77TCq2    C5 1177   2.660   2.815  11.662  0.1631  0.0159 -0.0633
   77TCq2    C6 1178   2.715   2.928  11.718 -0.0067 -0.2570  0.5763
   77TCq2    C7 1179   2.679   3.052  11.677  0.2383 -0.3273 -0.1735
   77TCq2    C8 1180   2.850   2.920  11.781  0.2521  0.0278 -0.4528
   77TCq2    O4 1181   2.904   2.812  11.786 -0.6732 -0.5138 -0.4379
   77TCq2    C9 1182   2.477   2.723  11.538  0.1206 -0.1978  0.5516
   77TCq2    O5 1183   2.383   2.741  11.458 -0.6295 -0.2131  0.4702
   77TCq2    O6 1184   2.479   2.624  11.612  0.1138  0.2974  0.1493
   77TCq2    H2 1185   2.416   2.960  11.498 -1.7770  0.3173  1.5940
   77TCq2    H3 1186   2.683   2.720  11.708 -0.0741 -0.6140 -1.2713
   77TCq2    H4 1187   2.739   3.137  11.709  1.2091 -1.1773  0.2684
   78MPD1     C 1188   2.259   0.417   1.651 -0.2568 -0.4373 -0.5980
   78MPD1    C1 1189   2.173   0.323   1.687  0.1541  0.1781  0.6140
   78MPD1    C2 1190   2.221   0.194   1.700  0.0845  0.0528 -0.0195
   78MPD1    C3 1191   2.351   0.160   1.714 -0.1806  0.1278 -0.2984
   78MPD1    C4 1192   2.442   0.262   1.686  0.0101  0.0491  0.3827
   78MPD1    C5 1193   2.395   0.383   1.646  0.0756 -0.0843 -0.9231
   78MPD1     H 1194   2.145   0.120   1.722 -0.5593  1.3165  2.1000
   78MPD1    H1 1195   2.548   0.242   1.688 -0.1762 -1.2044 -2.1783
   78MPD1    H2 1196   2.235   0.520   1.629 -2.0051 -1.3999 -3.2067
   78MPD1    H3 1197   2.475   0.453   1.626 -0.7337  0.8590 -0.8861
   78MPD1     N 1198   2.388   0.033   1.757 -0.5615 -0.3360  0.2007
   78MPD1    H5 1199   2.485   0.005   1.752 -0.5512 -0.7143  2.7956
   78MPD1    N1 1200   2.035   0.339   1.672 -0.0768  0.0307 -0.7235
   78MPD1    H6 1201   2.015   0.433   1.708  1.6008  0.6854 -1.4983
   78MPD1    H7 1202   1.993   0.274   1.738  3.1772 -0.3221  1.0157
   79TCq2    C1 1203   2.310   4.675   1.836 -0.1158  0.0078 -0.4552
   79TCq2    O2 1204   2.209   4.705   1.895 -0.2327 -0.1922 -0.9817
   79TCq2    C2 1205   2.379   4.549   1.871 -0.2408  0.3214  0.2710
   79TCq2    C3 1206   2.323   4.467   1.967  0.0565 -0.5732 -0.5277
   79TCq2    C4 1207   2.397   4.356   2.007  0.1117  0.3641  0.3069
   79TCq2    C5 1208   2.516   4.325   1.946  0.8809 -0.1489 -0.2074
   79TCq2    C6 1209   2.569   4.400   1.838  1.0027  0.3964  0.4799
   79TCq2    C7 1210   2.493   4.510   1.808 -0.4302  0.4548  1.4856
   79TCq2    C8 1211   2.678   4.352   1.760 -0.1002  0.2362 -0.5028
   79TCq2    O4 1212   2.768   4.290   1.813  0.2262 -0.5104  0.3036
   79TCq2    C9 1213   2.337   4.275   2.104  0.0592  0.0707  1.0025
   79TCq2    O5 1214   2.234   4.326   2.166  0.6215 -0.7511  0.8611
   79TCq2    O6 1215   2.406   4.183   2.150 -0.3845 -0.0823  0.5983
   79TCq2    H2 1216   2.232   4.497   2.017 -0.2839  3.0857 -3.2739
   79TCq2    H3 1217   2.570   4.242   1.990 -1.3741 -1.8310 -0.5807
   79TCq2    H4 1218   2.543   4.580   1.742 -0.3449 -1.7432 -0.7760
   80MPD2     C 1219   1.602   3.363  12.390 -0.3805 -0.2739  0.1154
   80MPD2    C1 1220   1.550   3.297  12.278 -0.7736  0.0207  0.4887
   80MPD2    C2 1221   1.420   3.322  12.243 -0.4794 -0.5070 -0.0828
   80MPD2    C3 1222   1.342   3.408  12.317  0.2169  0.2719  0.1534
   80MPD2    C4 1223   1.392   3.459  12.434  0.9894 -1.0948  0.0093
   80MPD2    C5 1224   1.520   3.435  12.469  0.4917 -0.2013 -0.1003
   80MPD2     H 1225   1.386   3.284  12.147  0.6501 -0.1924 -0.6123
   80MPD2    H1 1226   1.329   3.517  12.500  0.4150 -0.1954 -1.3174
   80MPD2    H2 1227   1.706   3.346  12.418 -0.9917 -1.9168  1.4116
   80MPD2    H3 1228   1.565   3.474  12.560 -0.1866  2.2894 -0.8337
   80MPD2     N 1229   1.208   3.446  12.282 -0.2764 -0.2599  0.0594
   80MPD2    H5 1230   1.152   3.503  12.345 -1.2624 -1.4436  0.2632
   80MPD2    N1 1231   1.625   3.207  12.203  0.1723 -0.5876  0.7686
   80MPD2    H7 1232   1.576   3.156  12.130 -1.7009  0.5385  1.2302
   81TCq2    C1 1233   1.740   3.140  12.248  0.2624  0.1816  0.3520
   81TCq2    O2 1234   1.798   3.145  12.355  0.3232 -0.6760 -0.8580
   81TCq2    C2 1235   1.795   3.060  12.147 -0.0047 -0.5738  0.5302
   81TCq2    C3 1236   1.921   3.009  12.165 -0.3474  0.3570 -0.1530
   81TCq2    C4 1237   1.991   2.955  12.058 -0.4275 -0.3398  0.0194
   81TCq2    C5 1238   1.936   2.936  11.931 -0.6062 -0.0449 -1.5495
   81TCq2    C6 1239   1.813   2.996  11.914  0.1452  0.4123 -0.5552
   81TCq2    C7 1240   1.747   3.061  12.014  0.0482 -0.0905 -1.0230
   81TCq2    C8 1241   1.724   2.928  11.818  0.0232 -0.3345  0.0498
   81TCq2    O4 1242   1.787   2.871  11.730  0.3235 -0.3325  0.1361
   81TCq2    C9 1243   2.122   2.906  12.085  0.1081  0.4756 -0.0849
   81TCq2    O5 1244   2.177   2.961  12.187 -0.7378  0.7439  0.0624
   81TCq2    O6 1245   2.181   2.838  11.997 -0.5112 -0.5315  0.1252
   81TCq2    H2 1246   1.955   3.001  12.267  2.3105  1.4730 -0.9412
   81TCq2    H3 1247   1.992   2.871  11.865  1.5071  0.3647 -0.1754
   81TCq2    H4 1248   1.667   3.126  11.982  0.2496  0.8261  0.3257
   82MPD2     C 1249   4.300   2.769  10.486 -0.3572  0.0585  0.5138
   82MPD2    C1 1250   4.228   2.652  10.480 -0.7783 -0.0799 -0.9452
   82MPD2    C2 1251   4.300   2.529  10.465  1.0569 -0.3474  0.4350
   82MPD2    C3 1252   4.437   2.530  10.462  0.5619  0.0074  0.5704
   82MPD2    C4 1253   4.500   2.652  10.474  0.4960  0.3594 -0.1419
   82MPD2    C5 1254   4.435   2.773  10.484  0.2281  0.3832 -0.4335
   82MPD2     H 1255   4.238   2.440  10.467 -1.5643  1.4082 -1.8068
   82MPD2    H1 1256   4.608   2.655  10.467  0.4689 -0.3328 -0.8092
   82MPD2    H2 1257   4.250   2.866  10.484  0.4992  0.5172  1.9663
   82MPD2    H3 1258   4.484   2.870  10.487  0.4789  0.2784 -1.1389
   82MPD2     N 1259   4.520   2.417  10.460  0.3252  0.0825  0.6472
   82MPD2    H5 1260   4.617   2.446  10.470  0.2144  1.2275 -1.6035
   82MPD2    N1 1261   4.084   2.660  10.485  0.5446 -0.2464 -0.1369
   82MPD2    H7 1262   4.038   2.751  10.483 -2.0620 -1.5559  0.8634
   83TCq2    C1 1263   4.475   2.290  10.480 -0.1051  0.1142  0.1528
   83TCq2    O2 1264   4.360   2.245  10.476  0.1733  0.0907 -0.4955
   83TCq2    C2 1265   4.579   2.192  10.505 -0.6627  0.2252  0.0009
   83TCq2    C3 1266   4.711   2.223  10.513 -0.2414 -0.1615  0.4802
   83TCq2    C4 1267   0.073   2.124  10.567 -0.0729  0.3778  0.0419
   83TCq2    C5 1268   0.033   2.001  10.608 -0.0794 -0.4433 -0.5860
   83TCq2    C6 1269   4.627   1.972  10.585 -0.4055 -0.3488  0.0729
   83TCq2    C7 1270   4.542   2.064  10.530 -0.1127 -0.2694 -0.2147
   83TCq2    C8 1271   4.568   1.875  10.676 -0.1479 -0.3518 -0.3087
   83TCq2    O4 1272   4.611   1.863  10.789  0.2432  1.0966 -0.0186
   83TCq2    C9 1273   0.213   2.165  10.590  0.7843  0.0930 -0.2786
   83TCq2    O5 1274   0.289   2.080  10.635 -0.4433 -0.1214 -0.4027
   83TCq2    O6 1275   0.246   2.272  10.535 -0.6069  0.1327  0.0003
   83TCq2    H2 1276   0.031   2.322  10.504  0.5869 -0.5060  0.6481
   83TCq2    H3 1277   0.109   1.927  10.632  0.7019  0.6284  0.2715
   83TCq2    H4 1278   4.439   2.035  10.510  0.3160 -0.6273 -1.9720
   84TCq2    C1 1279   1.270   1.188  10.745 -0.2638 -1.1692 -0.1861
   84TCq2    O2 1280   1.155   1.174  10.718  0.1975 -0.9360 -0.7361
   84TCq2    C2 1281   1.320   1.132  10.872 -0.0237 -0.3626  0.7948
   84TCq2    C3 1282   1.457   1.098  10.883 -0.0953  0.5154  0.4365
   84TCq2    C4 1283   1.495   1.036  10.996  0.4651 -0.6078  0.4942
   84TCq2    C5 1284   1.407   1.021  11.101 -0.1869 -0.4475 -0.7522
   84TCq2    C6 1285   1.280   1.067  11.094 -0.8313  0.6561  0.0946
   84TCq2    C7 1286   1.226   1.100  10.970 -0.4355  0.1464 -0.4212
   84TCq2    C8 1287   1.191   1.098  11.203 -0.5512  0.7250 -0.1132
   84TCq2    O4 1288   1.075   1.110  11.177  0.3964 -0.1145  0.3819
   84TCq2    C9 1289   1.634   0.988  11.017  0.3316 -0.0071  0.2009
   84TCq2    O5 1290   1.657   0.923  11.123 -0.5240  0.5071  0.3753
   84TCq2    O6 1291   1.712   0.994  10.922  0.0871 -0.4051 -0.2357
   84TCq2    H2 1292   1.533   1.113  10.807  0.4915  0.2368  0.9567
   84TCq2    H3 1293   1.435   0.971  11.193  0.7698 -0.4687 -1.0550
   84TCq2    H4 1294   1.124   1.129  10.948 -0.5689  0.4505  0.5722
   85MPD2     C 1295   1.174   4.157  16.465  0.0243 -0.0144  0.6049
   85MPD2    C1 1296   1.065   4.233  16.423  0.1712  0.4018 -0.1022
   85MPD2    C2 1297   1.091   4.339  16.334 -0.3418 -0.3901  0.8838
   85MPD2    C3 1298   1.223   4.372  16.303 -0.0422 -0.7118 -0.1567
   85MPD2    C4 1299   1.323   4.299  16.355  0.8942 -0.2775  0.0659
   85MPD2    C5 1300   1.298   4.195  16.436  0.1086  0.1060 -1.1205
   85MPD2     H 1301   1.014   4.397  16.284  0.4704 -0.9195 -0.9832
   85MPD2    H1 1302   1.429   4.316  16.336  1.2167 -0.2817  1.8397
   85MPD2    H2 1303   1.160   4.063  16.517  0.9628 -0.3432  0.2602
   85MPD2    H3 1304   1.385   4.137  16.465  1.2168  1.8657 -0.9173
   85MPD2     N 1305   1.250   4.480  16.221  0.2058  0.1910  0.0932
   85MPD2    H5 1306   1.166   4.522  16.184 -0.0786  1.5100  2.2845
   85MPD2    N1 1307   0.932   4.181  16.449  0.4975  0.0300 -0.2579
   85MPD2    H7 1308   0.922   4.095  16.501  1.3136 -0.7981 -1.4976
   86TCq2    C1 1309   1.371   4.526  16.179 -0.0342 -0.3448  0.6251
   86TCq2    O2 1310   1.480   4.497  16.220 -0.1826 -0.1356  0.1738
   86TCq2    C2 1311   1.357   4.652  16.109 -0.2320 -0.1388  0.6037
   86TCq2    C3 1312   1.263   0.018  16.162 -0.2242 -0.5974 -0.1172
   86TCq2    C4 1313   1.268   0.143  16.122 -0.5183  1.0815  0.2427
   86TCq2    C5 1314   1.370   0.193  16.048  0.1296 -0.5258  0.5377
   86TCq2    C6 1315   1.471   0.107  16.014  0.0558  0.6824 -0.7281
   86TCq2    C7 1316   1.468   4.697  16.052 -0.0649 -0.0342 -0.4226
   86TCq2    C8 1317   1.537   0.136  15.892  0.2559  0.4549 -0.8790
   86TCq2    O4 1318   1.640   0.068  15.865  0.2109  0.3634 -0.1044
   86TCq2    C9 1319   1.152   0.221  16.147  0.3087 -1.3883 -0.3136
   86TCq2    O5 1320   1.070   0.188  16.234 -0.2270  0.2555  0.7064
   86TCq2    O6 1321   1.152   0.335  16.098 -0.5998 -0.4948 -0.5163
   86TCq2    H2 1322   1.170   4.712  16.208 -0.0401 -1.4844 -0.3067
   86TCq2    H3 1323   1.374   0.299  16.022 -1.2583 -0.4908  0.4920
   86TCq2    H4 1324   1.553   4.636  16.024  0.8468  0.3924  1.3989
   87MPD2     C 1325   3.096   3.954   2.173  0.3861 -0.2501 -0.5679
   87MPD2    C1 1326   3.122   3.874   2.068 -0.4961 -0.3457 -0.4839
   87MPD2    C2 1327   3.061   3.899   1.947 -0.5887  0.6013 -0.6718
   87MPD2    C3 1328   2.966   3.999   1.938 -0.2555 -0.1152  0.3673
   87MPD2    C4 1329   2.924   4.057   2.052 -0.1405 -0.3349 -0.9892
   87MPD2    C5 1330   2.986   4.036   2.173 -0.1733 -0.9577 -0.0209
   87MPD2     H 1331   3.080   3.838   1.859  0.9501 -1.4818  1.0911
   87MPD2    H1 1332   2.848   4.134   2.047 -0.3219 -0.5148 -0.9781
   87MPD2    H2 1333   3.145   3.946   2.269  3.6122 -0.4081 -2.2007
   87MPD2    H3 1334   2.947   4.102   2.251 -0.0149 -0.6771 -0.1788
   87MPD2     N 1335   2.901   4.036   1.818  0.1744 -0.2135  0.5633
   87MPD2    H5 1336   2.832   4.110   1.825  0.7909  0.5333 -1.3246
   87MPD2    N1 1337   3.218   3.775   2.088 -0.5031  0.2416  0.2713
   87MPD2    H7 1338   3.250   3.755   2.182  0.7095  0.1619 -0.1593
   88TCq2    C1 1339   3.282   3.705   1.986  0.7467  0.4591 -0.0128
   88TCq2    O2 1340   3.273   3.737   1.867 -0.6019  0.0882 -0.1368
   88TCq2    C2 1341   3.378   3.603   2.033 -0.3389  0.0088  0.5124
   88TCq2    C3 1342   3.393   3.572   2.164 -0.2288 -0.0947  0.3863
   88TCq2    C4 1343   3.466   3.454   2.179  0.7024 -0.5822  0.1336
   88TCq2    C5 1344   3.521   3.385   2.073  0.2262  0.3338 -0.5592
   88TCq2    C6 1345   3.507   3.425   1.947  0.3826 -0.3944 -0.2053
   88TCq2    C7 1346   3.421   3.524   1.929  0.0012  0.1422 -0.0489
   88TCq2    C8 1347   3.527   3.333   1.830  0.2002  0.2715 -0.1255
   88TCq2    O4 1348   3.522   3.385   1.722  0.0348 -0.1405 -0.2031
   88TCq2    C9 1349   3.482   3.403   2.312  0.6872 -0.2178 -0.3573
   88TCq2    O5 1350   3.458   3.480   2.409  0.1639 -0.1513 -0.6601
   88TCq2    O6 1351   3.538   3.289   2.323 -0.1953 -0.1998  0.1294
   88TCq2    H2 1352   3.359   3.634   2.246  1.5255 -0.0685  1.1061
   88TCq2    H3 1353   3.590   3.307   2.105 -1.1803 -0.5806  0.2755
   88TCq2    H4 1354   3.390   3.545   1.827 -0.7976 -3.1835 -0.5004
   89MPD2     C 1355   4.012   1.608   2.279  0.6951  0.1311 -0.0530
   89MPD2    C1 1356   3.958   1.692   2.366 -0.0847  0.3376 -0.2766
   89MPD2    C2 1357   4.038   1.795   2.412  0.2540  1.1244  0.1950
   89MPD2    C3 1358   4.161   1.816   2.362 -0.3692  0.3247 -0.3754
   89MPD2    C4 1359   4.219   1.713   2.287 -0.8381  0.1909 -0.5739
   89MPD2    C5 1360   4.147   1.606   2.251 -0.2943 -0.3156 -0.5198
   89MPD2     H 1361   3.999   1.863   2.487  0.7999 -0.3193  1.8093
   89MPD2    H1 1362   4.324   1.714   2.257 -0.6857 -0.3315 -0.0691
   89MPD2    H2 1363   3.948   1.528   2.244  0.7719 -0.4339  1.1167
   89MPD2    H3 1364   4.185   1.521   2.196 -0.3039  0.3811 -1.5947
   89MPD2     N 1365   4.234   1.932   2.408  0.3794 -0.1858  0.4737
   89MPD2    H5 1366   4.184   2.006   2.457 -0.0318 -0.6227  0.7080
   89MPD2    N1 1367   3.827   1.672   2.424 -0.3386  0.6387 -0.1066
   89MPD2    H7 1368   3.788   1.751   2.474 -2.1683 -1.3369  1.5534
   90TCq2    C1 1369   4.371   1.960   2.377 -0.0288  0.1666 -0.6280
   90TCq2    O2 1370   4.443   1.904   2.296 -0.0580 -0.4557  0.8641
   90TCq2    C2 1371   4.412   2.077   2.444 -0.2773  0.0705 -0.1132
   90TCq2    C3 1372   4.394   2.092   2.584  0.0410 -0.1546  0.5305
   90TCq2    C4 1373   4.424   2.214   2.637 -0.4027  0.6703 -0.4797
   90TCq2    C5 1374   4.497   2.311   2.568 -0.0825 -0.3628  0.5847
   90TCq2    C6 1375   4.536   2.279   2.438  0.2103 -0.0280 -0.1956
   90TCq2    C7 1376   4.497   2.164   2.377  0.1120 -0.3065 -0.5616
   90TCq2    C8 1377   4.573   2.394   2.357  0.0703 -0.0093 -0.1487
   90TCq2    O4 1378   4.590   2.506   2.414  0.8517 -0.2255 -0.2312
   90TCq2    C9 1379   4.373   2.240   2.768  0.2868  0.3969  0.0737
   90TCq2    O5 1380   4.284   2.154   2.807  0.2580 -0.0797 -0.1067
   90TCq2    O6 1381   4.440   2.319   2.838  0.1414 -0.1588  0.0036
   90TCq2    H2 1382   4.331   2.022   2.637  0.9541 -0.6481  0.9544
   90TCq2    H3 1383   4.519   2.404   2.620 -0.5343  1.3376 -2.2623
   90TCq2    H4 1384   4.495   2.159   2.268 -0.2610 -2.0302 -0.4834
   91TMC2    C1 1385   1.396   0.801  16.041  0.1060 -0.4641  0.1176
   91TMC2    C2 1386   1.360   0.750  15.920  0.5360 -0.1967  0.5954
   91TMC2    C3 1387   1.286   0.821  15.832 -0.1353 -0.0625 -0.5136
   91TMC2    C4 1388   1.344   0.923  16.077  0.1338  0.4643  0.2800
   91TMC2    C5 1389   1.274   0.996  15.985  1.0710  0.0420 -1.0311
   91TMC2    C6 1390   1.252   0.953  15.859 -0.1964 -0.2542 -0.5957
   91TMC2     C 1391   1.446   0.707  16.143 -0.3753  0.0363 -0.6214
   91TMC2     O 1392   1.376   0.606  16.160 -0.0654 -0.2135 -0.5052
   91TMC2     H 1393   1.400   0.652  15.896  0.1564 -0.5638  1.4592
   91TMC2    H1 1394   1.359   0.957  16.179  1.3255 -0.4957  0.4212
   91TMC2    H2 1395   1.188   1.006  15.789  1.2472  1.1746 -0.8326
   91TMC2    C7 1396   1.182   1.101  16.029  0.3260 -0.0405  0.3122
   91TMC2    C8 1397   1.272   0.788  15.694 -0.1537 -0.0483  0.2699
   91TMC2    O1 1398   1.230   1.188  16.102 -0.0608 -0.1889  0.0307
   91TMC2    O2 1399   1.319   0.868  15.618  0.4284 -0.1893 -0.6775
   91TMC2    O5 1400   1.296   0.656  15.688  0.8497 -0.0144 -0.0750
   91TMC2    H5 1401   1.240   0.612  15.755  0.1693 -1.7703 -1.8059
   92MPD2     C 1402   1.648   0.523  16.254  0.0695 -0.3369 -0.1951
   92MPD2    C1 1403   1.651   0.657  16.269 -0.5363  0.1803  0.3005
   92MPD2    C2 1404   1.751   0.713  16.343 -0.4250 -0.3670  0.2616
   92MPD2    C3 1405   1.841   0.637  16.418  0.1781 -0.5140  0.2357
   92MPD2    C4 1406   1.826   0.499  16.404 -0.2942  0.2435  0.0348
   92MPD2    C5 1407   1.735   0.443  16.318  0.0339 -0.4761 -0.2247
   92MPD2     H 1408   1.747   0.821  16.354 -1.4345 -0.3083 -0.6840
   92MPD2    H1 1409   1.876   0.436  16.477 -2.2036  1.0692  2.0762
   92MPD2    H2 1410   1.579   0.475  16.185 -0.4218 -1.2341  0.9279
   92MPD2    H3 1411   1.725   0.339  16.289  0.4871 -0.8781  1.0281
   92MPD2     N 1412   1.948   0.697  16.487 -0.0990 -0.6098 -0.3636
   92MPD2    H5 1413   1.939   0.798  16.495  2.4755 -0.2539 -1.8403
   92MPD2    N1 1414   1.567   0.744  16.198  1.1279 -0.0497  0.1035
   92MPD2    H7 1415   1.596   0.841  16.198 -0.7482  0.4844  2.4231
   93MPD2     C 1416   2.810   0.379  14.152  0.4054  0.3768  0.3084
   93MPD2    C1 1417   2.758   0.511  14.160  0.4800  0.9946 -0.0011
   93MPD2    C2 1418   2.620   0.535  14.155 -0.2899  0.5280  0.0794
   93MPD2    C3 1419   2.541   0.419  14.127  0.5954  0.8437  0.2656
   93MPD2    C4 1420   2.591   0.292  14.122 -0.0886  0.3061 -0.4295
   93MPD2    C5 1421   2.724   0.272  14.130 -0.0434 -0.6490 -0.1409
   93MPD2     H 1422   2.566   0.628  14.166 -0.9273  0.0539  1.0707
   93MPD2    H1 1423   2.523   0.209  14.105 -0.2220  0.3327 -0.0216
   93MPD2    H2 1424   2.916   0.356  14.161  0.5683  0.3210 -1.8549
   93MPD2    H3 1425   2.763   0.171  14.125 -0.2139 -0.7135 -0.1534
   93MPD2     N 1426   2.402   0.428  14.115  0.1462  0.2964  0.0955
   93MPD2    H5 1427   2.359   0.354  14.060 -0.8841 -0.4798  1.9497
   93MPD2    N1 1428   2.838   0.623  14.162  0.0297  0.0562 -0.2824
   93MPD2    H7 1429   2.795   0.714  14.154  2.6719  1.3398  0.1174
   94TCq2    C1 1430   2.973   0.634  14.161  0.2702 -0.2559 -0.4963
   94TCq2    O2 1431   3.055   0.550  14.132  0.4291 -0.6377  0.1734
   94TCq2    C2 1432   3.025   0.771  14.147 -0.0934  0.6740  0.2216
   94TCq2    C3 1433   2.931   0.879  14.139  0.0908 -0.3592  0.4521
   94TCq2    C4 1434   2.967   0.991  14.068  0.4174  0.5313  0.1843
   94TCq2    C5 1435   3.096   1.008  14.023  0.3173 -0.1410 -0.3515
   94TCq2    C6 1436   3.184   0.902  14.029 -0.2137 -0.1093 -0.0384
   94TCq2    C7 1437   3.148   0.784  14.085  0.0142  0.1778 -0.6193
   94TCq2    C8 1438   3.332   0.926  14.045 -0.0430 -0.4075 -0.0211
   94TCq2    O4 1439   3.412   0.832  14.029 -0.3952 -0.2461  0.0045
   94TCq2    C9 1440   2.871   1.098  14.048 -0.0326  0.6990  0.5758
   94TCq2    O5 1441   2.756   1.086  14.091  0.1300 -0.3548  0.6837
   94TCq2    O6 1442   2.915   1.201  13.989 -0.0180  0.2668 -0.5535
   94TCq2    H2 1443   2.827   0.876  14.169 -0.3393 -0.0497 -1.0037
   94TCq2    H3 1444   3.109   1.089  13.953 -0.1080 -0.9500 -1.3824
   94TCq2    H4 1445   3.205   0.693  14.074 -0.2236 -0.3363  2.4870
   95TMC2    C1 1446   2.666   2.464  16.247 -0.1612  0.3292  0.1169
   95TMC2    C2 1447   2.696   2.329  16.267  0.5364 -0.5263 -0.0801
   95TMC2    C3 1448   2.642   2.276  16.380 -0.3156  0.0010 -0.8662
   95TMC2    C4 1449   2.581   2.535  16.332  1.3470  0.1873  0.4034
   95TMC2    C5 1450   2.519   2.464  16.434 -0.3884  0.1010  0.8788
   95TMC2    C6 1451   2.548   2.335  16.465 -0.1138 -0.0660 -0.4323
   95TMC2     C 1452   2.714   2.527  16.122 -0.2854 -0.2638  0.3475
   95TMC2     O 1453   2.733   2.649  16.123  0.2159  0.3632  0.1134
   95TMC2     H 1454   2.777   2.280  16.215  1.5018 -0.9101  1.7749
   95TMC2    H1 1455   2.547   2.634  16.307  2.5128  0.6158  0.5108
   95TMC2    H2 1456   2.471   2.271  16.508  0.3877  0.7496  1.6806
   95TMC2    C7 1457   2.427   2.533  16.521  0.5421  0.2040  0.4966
   95TMC2    C8 1458   2.674   2.132  16.405 -0.2606 -0.4207  0.2746
   95TMC2    O1 1459   2.411   2.648  16.484 -0.0903 -0.6664 -0.0180
   95TMC2    O2 1460   2.738   2.063  16.329  0.0756 -0.0581 -0.0801
   95TMC2    O5 1461   2.658   2.095  16.533  0.7058 -0.1435 -0.0333
   95TMC2    H5 1462   2.635   2.180  16.577 -2.7373 -1.3777  0.5042
   96MPD2     C 1463   2.863   2.451  15.625 -0.0743 -0.0555  0.0843
   96MPD2    C1 1464   2.917   2.542  15.716  0.9137  0.0972  0.1171
   96MPD2    C2 1465   2.863   2.543  15.842 -0.7873  0.1410  0.5037
   96MPD2    C3 1466   2.782   2.441  15.896 -0.2267 -0.2063 -0.2983
   96MPD2    C4 1467   2.753   2.334  15.815 -0.2336 -0.1354  0.1869
   96MPD2    C5 1468   2.786   2.349  15.679 -0.1935 -0.5829 -0.2579
   96MPD2     H 1469   2.881   2.622  15.914  0.6686  0.9058 -0.6959
   96MPD2    H1 1470   2.699   2.248  15.852  0.5915 -0.8974 -0.3742
   96MPD2    H2 1471   2.886   2.450  15.519  0.8345  0.2618  0.2772
   96MPD2    H3 1472   2.750   2.273  15.611  0.3818 -1.0254 -0.0688
   96MPD2     N 1473   2.726   2.434  16.024  0.2560 -0.3688 -0.0326
   96MPD2    H5 1474   2.676   2.348  16.044  1.1253 -1.0395 -0.7589
   96MPD2    N1 1475   3.010   2.631  15.654 -0.0806 -0.2954 -0.7234
   96MPD2    H7 1476   3.040   2.618  15.558 -0.0692 -0.7668 -0.6558
   97MPD2     C 1477   4.164   4.550   1.290 -0.1182  0.0885  0.3464
   97MPD2    C1 1478   4.213   4.677   1.277 -0.3681  0.2190  0.2589
   97MPD2    C2 1479   4.273   4.717   1.155  0.3553  0.9127 -0.0626
   97MPD2    C3 1480   4.283   4.628   1.048  0.5269  0.0413 -0.4558
   97MPD2    C4 1481   4.241   4.497   1.072 -0.3054  0.0875 -0.0839
   97MPD2    C5 1482   4.183   4.464   1.193 -0.6364  0.5222  0.7839
   97MPD2     H 1483   4.301   0.097   1.141  0.2877  1.0106  0.5318
   97MPD2    H1 1484   4.250   4.421   0.995  1.0145  0.2906 -0.1226
   97MPD2    H2 1485   4.112   4.504   1.373 -1.2541  1.9860  0.6907
   97MPD2    H3 1486   4.151   4.362   1.208 -1.9493  1.3034  3.1971
   97MPD2     N 1487   4.332   4.658   0.919  0.1388  0.0283  0.1324
   97MPD2    H5 1488   4.343   4.587   0.847 -0.6772 -1.2666  1.2858
   97MPD2    N1 1489   4.209   0.036   1.392 -0.4644  0.3257  0.1598
   97MPD2    H7 1490   4.174   4.711   1.474  0.7667  0.6748  0.8800
   98TCq2    C1 1491   4.377   0.059   0.878  0.8038 -1.1203  0.0386
   98TCq2    O2 1492   4.405   0.160   0.946  0.5335  0.7838 -0.0125
   98TCq2    C2 1493   4.408   0.069   0.742 -0.1004 -0.3074  0.6228
   98TCq2    C3 1494   4.350   4.709   0.655  1.0561 -0.2655  0.3327
   98TCq2    C4 1495   4.380   0.004   0.520 -0.0604 -0.6762  0.3837
   98TCq2    C5 1496   4.445   0.117   0.484 -0.1107 -0.2945 -0.1549
   98TCq2    C6 1497   4.497   0.199   0.576  0.8977 -0.1342  0.1572
   98TCq2    C7 1498   4.471   0.182   0.709 -0.4800  0.2950 -0.1785
   98TCq2    C8 1499   4.565   0.319   0.531 -0.1033  0.5888  0.2124
   98TCq2    O4 1500   4.627   0.312   0.424  0.6424 -0.2680 -0.1320
   98TCq2    C9 1501   4.331   4.631   0.423  0.0075 -0.1761  0.8452
   98TCq2    O5 1502   4.310   4.515   0.462 -0.3156  0.3087 -0.0065
   98TCq2    O6 1503   4.322   4.677   0.308 -0.9367  0.7541 -0.2493
   98TCq2    H2 1504   4.278   4.635   0.689  1.6573 -0.9026  0.2110
   98TCq2    H3 1505   4.483   0.120   0.383 -0.1237  1.7256 -0.0924
   98TCq2    H4 1506   4.520   0.243   0.784  0.4689  0.7196 -1.1406
   99MPD2     C 1507   4.019   2.980   2.166  0.6152 -0.3672  0.0811
   99MPD2    C1 1508   4.009   2.853   2.211  0.0028  0.6709  0.5598
   99MPD2    C2 1509   4.098   2.756   2.163  0.2321  0.4932 -0.1304
   99MPD2    C3 1510   4.199   2.787   2.071 -0.0286  0.1523  0.1095
   99MPD2    C4 1511   4.212   2.919   2.031 -0.0149 -0.4155 -0.6213
   99MPD2    C5 1512   4.123   3.015   2.081  0.1561 -0.0485  1.1984
   99MPD2     H 1513   4.091   2.655   2.202  0.2222  0.7234  0.4631
   99MPD2    H1 1514   4.298   2.950   1.972 -0.6004  0.5781 -0.9529
   99MPD2    H2 1515   3.942   3.053   2.189  1.0574  0.6073 -1.5294
   99MPD2    H3 1516   4.129   3.120   2.055  0.7436 -1.0430 -2.6660
   99MPD2     N 1517   4.277   2.682   2.014  0.8231  0.5601 -0.0813
   99MPD2    H5 1518   4.254   2.585   2.032  0.8508  0.9700  2.1411
   99MPD2    N1 1519   3.906   2.801   2.297 -0.3536  0.7053  0.0879
   99MPD2    H7 1520   3.907   2.701   2.313  1.2496  0.4030 -1.7791
  100TCq2    C1 1521   3.805   2.877   2.352 -0.1149  0.2927  0.4463
  100TCq2    O2 1522   3.767   2.992   2.326 -0.4254  0.0750  0.5476
  100TCq2    C2 1523   3.731   2.791   2.446 -0.1493  0.5953 -0.3131
  100TCq2    C3 1524   3.604   2.826   2.472 -0.0680  0.0872  0.5023
  100TCq2    C4 1525   3.508   2.731   2.476 -0.2250  0.1092 -0.1115
  100TCq2    C5 1526   3.540   2.599   2.477 -0.2495  0.1720  0.5223
  100TCq2    C6 1527   3.671   2.573   2.465  0.6003 -0.3829  0.4343
  100TCq2    C7 1528   3.770   2.661   2.451 -0.4427  0.7230  0.3599
  100TCq2    C8 1529   3.702   2.435   2.420  0.1727 -0.2617  0.6079
  100TCq2    O4 1530   3.822   2.412   2.416 -0.1587 -0.3662  0.4885
  100TCq2    C9 1531   3.374   2.772   2.495  0.6420  0.1331 -0.0675
  100TCq2    O5 1532   3.295   2.701   2.430  0.2547  0.2819  0.1565
  100TCq2    O6 1533   3.344   2.875   2.561 -0.6782 -0.0081  0.1333
  100TCq2    H2 1534   3.574   2.930   2.464 -1.1601 -0.4421 -2.2783
  100TCq2    H3 1535   3.459   2.530   2.499 -1.0132  0.7815 -0.3834
  100TCq2    H4 1536   3.873   2.628   2.457  0.6997  4.3666  0.5931
  101MPD2     C 1537   0.235   3.374  12.862 -0.3869 -0.0161 -0.5739
  101MPD2    C1 1538   0.109   3.395  12.809  0.5076  0.6782  0.4283
  101MPD2    C2 1539   4.721   3.339  12.867 -0.3728  0.3627  0.2468
  101MPD2    C3 1540   0.012   3.253  12.975  0.5763  0.0759  0.1898
  101MPD2    C4 1541   0.135   3.232  13.033  0.9877  0.3818 -0.6110
  101MPD2    C5 1542   0.245   3.294  12.973 -0.2231 -0.8119  0.3959
  101MPD2     H 1543   4.623   3.347  12.820 -0.1252 -1.1534 -0.5281
  101MPD2    H1 1544   0.156   3.154  13.105 -0.0622  0.2642 -0.4306
  101MPD2    H2 1545   0.330   3.403  12.819  0.2418 -2.0277 -0.5690
  101MPD2    H3 1546   0.343   3.262  13.006 -0.5578 -0.6039  1.5788
  101MPD2     N 1547   4.626   3.185  13.030  0.3795  0.6889  0.4818
  101MPD2    H5 1548   4.534   3.190  12.986  0.5406  0.7285  0.1537
  101MPD2    N1 1549   0.095   3.472  12.691  0.8893 -0.0444  0.6156
  101MPD2    H7 1550   0.181   3.518  12.661  0.1168 -0.3493 -2.0079
  102TCq2    C1 1551   0.276   3.796  12.360 -0.4357 -0.2232  0.0151
  102TCq2    O2 1552   0.368   3.716  12.363 -0.2022 -0.1394 -0.3616
  102TCq2    C2 1553   0.138   3.755  12.391  0.6698  0.3374 -0.8571
  102TCq2    C3 1554   0.033   3.826  12.343 -0.2913 -0.0382  0.2414
  102TCq2    C4 1555   4.630   3.791  12.392  0.4779 -0.4227  0.5817
  102TCq2    C5 1556   4.619   3.698  12.490  0.0016  0.5878  0.0351
  102TCq2    C6 1557   0.005   3.626  12.537 -0.3504 -0.0103 -0.0023
  102TCq2    C7 1558   0.129   3.656  12.485 -0.2479 -0.3881 -0.0316
  102TCq2    C8 1559   4.704   3.529  12.641  0.3582 -0.1746 -0.6857
  102TCq2    O4 1560   4.590   3.522  12.685  0.3143  0.5609  0.3070
  102TCq2    C9 1561   4.513   3.864  12.347  0.1965  0.1421  0.9480
  102TCq2    O5 1562   4.402   3.836  12.400  0.6578 -0.4223 -0.3526
  102TCq2    O6 1563   4.531   3.928  12.241 -0.8947  0.6827 -0.1493
  102TCq2    H2 1564   0.037   3.905  12.269 -1.5612  1.1449  1.4158
  102TCq2    H3 1565   4.521   3.668  12.525  0.0284 -0.5520 -0.8744
  102TCq2    H4 1566   0.219   3.618  12.532 -0.4684 -1.1963 -0.2674
  103TMC2    C1 1567   3.130   3.292  12.411  0.0454  0.4273 -0.3272
  103TMC2    C2 1568   3.262   3.274  12.432 -0.1058  0.2493 -0.3687
  103TMC2    C3 1569   3.306   3.290  12.561  0.7046 -0.1815  0.4970
  103TMC2    C4 1570   3.039   3.307  12.513  0.3360 -1.1367  0.4960
  103TMC2    C5 1571   3.087   3.317  12.643 -0.1653 -0.0815  0.0061
  103TMC2    C6 1572   3.217   3.311  12.665  0.1357  0.0953 -0.4862
  103TMC2     C 1573   3.082   3.230  12.289  0.2445  0.2620 -0.2607
  103TMC2     O 1574   2.979   3.160  12.292 -0.0865 -0.0039  0.3490
  103TMC2     H 1575   3.337   3.239  12.362  1.2900 -1.7558  2.1795
  103TMC2    H1 1576   2.937   3.329  12.484  0.6155 -1.4921 -0.7778
  103TMC2    H2 1577   3.256   3.334  12.764  1.3821 -0.2857 -0.8814
  103TMC2    C7 1578   3.002   3.320  12.758  0.0702 -0.1457 -0.4437
  103TMC2    C8 1579   3.441   3.290  12.610 -0.6201  0.4147 -0.1971
  103TMC2    O1 1580   3.053   3.345  12.865 -0.3714  0.2798 -0.0258
  103TMC2    O2 1581   3.488   3.227  12.704 -0.3489 -0.3274  0.5025
  103TMC2    O5 1582   3.499   3.343  12.500  0.0970  0.8227  0.0502
  103TMC2    H5 1583   3.454   3.425  12.471  1.1496  1.5188  0.3560
  104MPD2     C 1584   3.273   3.116  11.987  0.6224 -0.3695  0.0407
  104MPD2    C1 1585   3.164   3.152  12.063 -0.3936  0.8583 -0.0750
  104MPD2    C2 1586   3.044   3.128  12.006  0.2967 -0.4965 -0.2878
  104MPD2    C3 1587   3.024   3.057  11.890  0.1639  0.2402  0.0691
  104MPD2    C4 1588   3.127   3.010  11.823  0.2402  0.3674 -0.5553
  104MPD2    C5 1589   3.256   3.038  11.872  0.0601 -0.0249  0.4745
  104MPD2     H 1590   2.956   3.159  12.061 -0.1308  2.5890 -2.7250
  104MPD2    H1 1591   3.117   2.943  11.738 -1.4021  0.7595 -0.6606
  104MPD2    H2 1592   3.373   3.140  12.020  0.5601  0.0415 -0.0738
  104MPD2    H3 1593   3.345   3.012  11.816 -0.0405  1.2782 -0.2873
  104MPD2     N 1594   2.893   3.035  11.849  0.1976  0.0390  0.1183
  104MPD2    H5 1595   2.817   3.088  11.890 -1.4458 -1.2180 -1.2737
  104MPD2    N1 1596   3.175   3.223  12.185  0.2301  0.2488 -0.9375
  104MPD2    H7 1597   3.260   3.278  12.194 -0.3427  0.9646 -0.0143
  105MPD2     C 1598   3.812   2.487   0.535  0.1840  0.5428  0.2694
  105MPD2    C1 1599   3.740   2.599   0.481  0.1939  0.1189 -0.2009
  105MPD2    C2 1600   3.667   2.676   0.570 -0.3339  0.3963 -0.2257
  105MPD2    C3 1601   3.675   2.660   0.707 -0.1683 -0.0583 -0.6854
  105MPD2    C4 1602   3.769   2.566   0.758 -0.5199 -0.6356 -0.3453
  105MPD2    C5 1603   3.827   2.483   0.669 -0.6173 -0.7474  0.0532
  105MPD2     H 1604   3.619   2.766   0.531  1.8224  0.2314 -3.2981
  105MPD2    H1 1605   3.800   2.564   0.862  1.1485  0.3022 -0.8275
  105MPD2    H2 1606   3.878   2.430   0.469 -0.0085 -0.8244  1.2528
  105MPD2    H3 1607   3.905   2.418   0.707 -0.0626  0.6099  1.2434
  105MPD2     N 1608   3.614   2.759   0.789 -0.1368  0.3434 -0.3436
  105MPD2    H5 1609   3.577   2.843   0.746  1.6939  0.0070 -2.5848
  105MPD2    N1 1610   3.715   2.614   0.345 -0.1865 -0.0892  0.1209
  105MPD2    H7 1611   3.643   2.682   0.321  1.9791  2.4309  0.6465
  106TCq2    C1 1612   3.592   2.742   0.928  0.0711  0.1022 -0.6640
  106TCq2    O2 1613   3.600   2.639   0.991 -0.2514  0.2487 -0.1317
  106TCq2    C2 1614   3.561   2.862   1.008  0.3438 -0.4063  0.2255
  106TCq2    C3 1615   3.482   2.960   0.946 -0.4862 -0.0510 -0.4320
  106TCq2    C4 1616   3.409   3.046   1.022 -0.1778 -0.3693 -0.5649
  106TCq2    C5 1617   3.410   3.035   1.162 -0.6013 -0.0253  0.2338
  106TCq2    C6 1618   3.479   2.935   1.218 -0.4674 -0.0450 -0.0356
  106TCq2    C7 1619   3.553   2.852   1.141 -0.7036  0.0208  0.6221
  106TCq2    C8 1620   3.466   2.895   1.359  0.2985  0.2685  0.6648
  106TCq2    O4 1621   3.483   2.776   1.380  0.6097 -0.3822 -0.2778
  106TCq2    C9 1622   3.331   3.156   0.961  0.1882 -0.2683 -0.1959
  106TCq2    O5 1623   3.236   3.206   1.027  0.3820  0.0752  0.3142
  106TCq2    O6 1624   3.380   3.200   0.857  0.3677 -0.2918  0.0132
  106TCq2    H2 1625   3.477   2.967   0.838  3.7048 -3.3936 -0.8200
  106TCq2    H3 1626   3.349   3.098   1.225 -2.1560 -0.2530 -1.0294
  106TCq2    H4 1627   3.599   2.764   1.186 -0.7255  0.0484  0.6984
  107TMC2    C1 1628   0.559   1.561  11.758 -1.1141 -0.1257 -0.1856
  107TMC2    C2 1629   0.467   1.525  11.668 -0.8587 -0.5133 -0.5006
  107TMC2    C3 1630   0.503   1.420  11.585  0.8959 -0.6703  0.0142
  107TMC2    C4 1631   0.685   1.504  11.769 -0.1221  0.2479 -0.1411
  107TMC2    C5 1632   0.710   1.398  11.690 -0.1409 -0.6274  0.3991
  107TMC2    C6 1633   0.621   1.348  11.601  0.8829  0.3865  0.3631
  107TMC2     C 1634   0.510   1.616  11.884  0.4050 -0.1056  0.0029
  107TMC2     O 1635   0.392   1.637  11.887  0.1632  0.0238  0.0475
  107TMC2     H 1636   0.363   1.553  11.679  0.3136  2.9650  1.8107
  107TMC2    H1 1637   0.765   1.542  11.832  0.8376 -2.0071  0.0042
  107TMC2    H2 1638   0.645   1.253  11.555 -2.8075 -0.3529 -0.0635
  107TMC2    C7 1639   0.844   1.331  11.705  0.3039  1.1010 -0.8295
  107TMC2    C8 1640   0.402   1.351  11.508  0.0314 -0.5812 -0.0026
  107TMC2    O1 1641   0.908   1.368  11.806  0.6944 -0.1100 -0.2566
  107TMC2    O2 1642   0.428   1.235  11.476  0.6466 -0.8232 -0.7742
  107TMC2    O5 1643   0.294   1.420  11.465  0.1837  0.2628 -0.2739
  107TMC2    H5 1644   0.296   1.515  11.492 -2.0942  0.1153  0.4725
  108MPD2     C 1645   0.698   1.758  12.167 -0.0165  0.0537  0.8395
  108MPD2    C1 1646   0.587   1.701  12.100 -0.2251 -0.2874 -1.0162
  108MPD2    C2 1647   0.469   1.696  12.167 -0.8073 -0.5120 -0.0650
  108MPD2    C3 1648   0.445   1.753  12.285 -0.0106  0.3308  0.3765
  108MPD2    C4 1649   0.549   1.803  12.351  1.1884 -0.9783 -0.0038
  108MPD2    C5 1650   0.675   1.807  12.294 -0.1315  0.6987  0.2019
  108MPD2     H 1651   0.390   1.638  12.121  0.0296 -0.4268 -1.5988
  108MPD2    H1 1652   0.538   1.852  12.447 -1.7344 -2.2820  0.3111
  108MPD2    H2 1653   0.795   1.765  12.119 -1.5457 -2.0327 -2.5350
  108MPD2    H3 1654   0.753   1.869  12.337  0.7089 -0.0514 -0.2418
  108MPD2     N 1655   0.316   1.755  12.345 -0.3176  0.6223  0.0090
  108MPD2    H5 1656   0.311   1.791  12.439 -1.5890  0.8210 -0.1430
  108MPD2    N1 1657   0.611   1.647  11.976  0.3494 -0.2790  0.3554
  108MPD2    H7 1658   0.710   1.644  11.955  0.2927 -1.7122  0.3420
  109MPD2     C 1659   3.617   3.896   1.934  0.3427 -0.0380  0.1234
  109MPD2    C1 1660   3.657   4.025   1.907  0.1767  0.3025 -0.2615
  109MPD2    C2 1661   3.763   4.080   1.971  0.3052  0.3927 -0.0488
  109MPD2    C3 1662   3.837   3.998   2.059  0.0540 -0.2535  0.1563
  109MPD2    C4 1663   3.803   3.870   2.079 -0.0798 -1.0021  0.5713
  109MPD2    C5 1664   3.696   3.818   2.016 -0.0344  0.3859 -0.5690
  109MPD2     H 1665   3.789   4.185   1.973  1.5314  0.0743  1.3077
  109MPD2    H1 1666   3.858   3.798   2.139  0.5049 -2.4684 -1.7139
  109MPD2    H2 1667   3.528   3.851   1.890  0.1359  0.6996 -0.2194
  109MPD2    H3 1668   3.674   3.712   2.021  0.0086  0.3866 -0.3754
  109MPD2     N 1669   3.938   4.061   2.135 -0.1369  0.4713  0.8620
  109MPD2    H5 1670   3.949   4.162   2.138  3.6971 -0.0269  2.9190
  109MPD2    N1 1671   3.591   4.092   1.805  0.2026 -0.4228 -0.7281
  109MPD2    H7 1672   3.498   4.056   1.786 -0.0480  0.1661 -0.6315
  110TCq2    C1 1673   4.022   3.999   2.222  0.0712  0.8204 -0.5715
  110TCq2    O2 1674   4.010   3.886   2.269  0.2533  0.0830  0.3083
  110TCq2    C2 1675   4.140   4.074   2.266 -0.1642 -0.5419 -0.6312
  110TCq2    C3 1676   4.214   4.025   2.371 -0.1822  1.0218 -0.6579
  110TCq2    C4 1677   4.293   4.116   2.443  0.3327 -0.9536 -0.5764
  110TCq2    C5 1678   4.320   4.239   2.389 -0.2733 -0.7413 -0.1527
  110TCq2    C6 1679   4.247   4.280   2.277  0.1690 -0.3516 -0.0502
  110TCq2    C7 1680   4.164   4.199   2.215 -0.1360  0.1308  0.0656
  110TCq2    C8 1681   4.239   4.422   2.234  0.4275 -0.2214  0.3034
  110TCq2    O4 1682   4.172   4.436   2.135 -0.2487 -0.3140 -0.0568
  110TCq2    C9 1683   4.346   4.087   2.571 -0.0838 -1.2056  0.3860
  110TCq2    O5 1684   4.313   3.978   2.625  0.4654 -0.6298 -0.7937
  110TCq2    O6 1685   4.388   4.188   2.636  0.5256 -0.0717 -0.2276
  110TCq2    H2 1686   4.189   3.928   2.413 -2.4154  1.4187 -1.0865
  110TCq2    H3 1687   4.358   4.313   2.458 -0.2564  1.9233 -3.0613
  110TCq2    H4 1688   4.112   4.239   2.128  0.1513 -0.1059 -0.2141
  111TMC2    C1 1689   0.699   3.789  11.207 -0.3586 -0.0807 -0.0541
  111TMC2    C2 1690   0.744   3.731  11.082  0.1079  0.4299 -0.5236
  111TMC2    C3 1691   0.880   3.724  11.066 -0.1218 -0.0289 -0.0754
  111TMC2    C4 1692   0.789   3.826  11.307 -0.1238  0.0376  0.7434
  111TMC2    C5 1693   0.920   3.804  11.292  1.0318 -0.2222  0.2274
  111TMC2    C6 1694   0.969   3.751  11.171 -0.1536 -0.0532  0.0201
  111TMC2     C 1695   0.573   3.868  11.191 -0.5302  0.0902  0.2346
  111TMC2     O 1696   0.536   3.910  11.082  0.2668  0.3480 -0.2339
  111TMC2     H 1697   0.677   3.714  10.998 -2.1367  0.9664  1.1386
  111TMC2    H1 1698   0.751   3.887  11.388 -0.8161  1.1921 -0.4547
  111TMC2    H2 1699   1.074   3.743  11.142  0.0452 -1.6849  1.1709
  111TMC2    C7 1700   1.001   3.844  11.402 -0.2306  0.8948 -0.9418
  111TMC2    C8 1701   0.933   3.755  10.936  0.4597  0.2669  0.6653
  111TMC2    O1 1702   0.953   3.918  11.489 -0.5737 -0.0965 -0.6637
  111TMC2    O2 1703   1.025   3.834  10.927  0.3992 -0.1248  0.2827
  111TMC2    O5 1704   0.839   3.727  10.836  0.3662  0.0856 -0.0841
  111TMC2    H5 1705   0.815   3.633  10.851 -0.2719 -0.0062 -1.6523
  112MPD2     C 1706   0.189   4.145  11.374 -0.4446 -0.1959 -0.3882
  112MPD2    C1 1707   0.206   4.095  11.250 -0.3284  0.0546  0.0878
  112MPD2    C2 1708   0.314   4.007  11.226  0.8293 -0.4335  0.4329
  112MPD2    C3 1709   0.404   3.981  11.330 -0.1098 -0.0560 -0.0428
  112MPD2    C4 1710   0.381   4.027  11.457  0.2413  0.6778  0.0550
  112MPD2    C5 1711   0.278   4.112  11.478  0.8581  0.2193  0.0125
  112MPD2     H 1712   0.309   3.943  11.138  1.5144  0.9625 -0.6062
  112MPD2    H1 1713   0.460   4.021  11.532 -0.4390  0.1682  0.7309
  112MPD2    H2 1714   0.119   4.223  11.402  0.2803  0.0599  0.7315
  112MPD2    H3 1715   0.281   4.174  11.567 -2.2379  1.4069 -0.7049
  112MPD2     N 1716   0.514   3.901  11.309 -0.1837  0.3421 -0.7767
  112MPD2    H5 1717   0.565   3.861  11.388 -1.5518 -2.9851 -1.5876
  112MPD2    N1 1718   0.113   4.117  11.147 -0.4765  0.2901  0.0277
  112MPD2    H7 1719   0.143   4.068  11.063  2.1417  1.6902  0.1210
  113MPD2     C 1720   2.977   2.303   1.044  0.4530  0.1460  0.0258
  113MPD2    C1 1721   2.862   2.306   1.124  0.3348 -0.4398  0.4224
  113MPD2    C2 1722   2.737   2.306   1.064  0.1891 -0.0750  0.3151
  113MPD2    C3 1723   2.723   2.314   0.926  0.1550 -0.7046 -0.2791
  113MPD2    C4 1724   2.836   2.308   0.846  0.2357 -0.7370  0.0752
  113MPD2    C5 1725   2.962   2.303   0.904  0.0605  0.3224 -0.3046
  113MPD2     H 1726   2.650   2.314   1.128  0.4569  0.1612  0.6498
  113MPD2    H1 1727   2.821   2.313   0.738  0.6738  2.1361  0.1620
  113MPD2    H2 1728   3.075   2.318   1.088  1.5949  0.8453 -2.7586
  113MPD2    H3 1729   3.049   2.302   0.838  0.9811  0.0266  0.9077
  113MPD2     N 1730   2.598   2.318   0.855  0.3498  0.0950 -0.1587
  113MPD2    H5 1731   2.593   2.331   0.755 -0.4502 -1.1111 -0.2810
  113MPD2    N1 1732   2.865   2.322   1.267  0.4662  0.2332 -0.2809
  113MPD2    H7 1733   2.774   2.320   1.313 -0.3123 -0.6288 -1.8480
  114TCq2    C1 1734   2.480   2.338   0.922  0.6173 -0.8276 -0.0999
  114TCq2    O2 1735   2.452   2.295   1.033  0.5141 -0.8844  0.1700
  114TCq2    C2 1736   2.373   2.352   0.818  0.4109 -0.0815 -0.4390
  114TCq2    C3 1737   2.388   2.421   0.702  0.1535  0.1880  0.5449
  114TCq2    C4 1738   2.284   2.452   0.621 -0.3533  0.0286  0.2224
  114TCq2    C5 1739   2.154   2.421   0.662  0.0304 -0.5353 -0.2950
  114TCq2    C6 1740   2.142   2.349   0.778  0.3452  0.2759 -0.4692
  114TCq2    C7 1741   2.247   2.320   0.864 -0.3456 -0.1866 -0.3141
  114TCq2    C8 1742   2.008   2.299   0.805  0.4302 -0.3020 -0.1594
  114TCq2    O4 1743   1.928   2.341   0.722 -0.2442 -0.6173 -0.4369
  114TCq2    C9 1744   2.307   2.519   0.492 -0.4273 -0.1852  0.3072
  114TCq2    O5 1745   2.202   2.547   0.430 -0.2800  0.2326 -0.2166
  114TCq2    O6 1746   2.427   2.553   0.458 -0.2546  0.1348  0.0372
  114TCq2    H2 1747   2.483   2.465   0.671  1.0393 -2.0336  0.1444
  114TCq2    H3 1748   2.078   2.441   0.587  0.4180  1.6527 -0.1014
  114TCq2    H4 1749   2.234   2.271   0.960 -1.6370 -0.7045 -0.7538
  115TMC2    C1 1750   3.272   0.124   0.141 -0.4502  0.3976 -0.2782
  115TMC2    C2 1751   3.394   0.100   0.089 -0.0815 -0.2132 -0.2755
  115TMC2    C3 1752   3.471   0.214   0.071 -0.0988 -0.5037  0.2613
  115TMC2    C4 1753   3.222   0.249   0.175 -0.5275 -0.4460  0.2565
  115TMC2    C5 1754   3.304   0.358   0.152 -0.0955  0.4658  0.1006
  115TMC2    C6 1755   3.426   0.344   0.089  0.1607  0.3048 -0.3650
  115TMC2     C 1756   3.179   0.009   0.131 -0.1841  0.4770  0.3025
  115TMC2     O 1757   3.228   4.618   0.131 -0.0471 -0.2980 -0.3118
  115TMC2     H 1758   3.425   0.000   0.062 -2.7696 -0.8606 -0.9989
  115TMC2    H1 1759   3.130   0.260   0.231 -0.2251  2.3732  0.2147
  115TMC2    H2 1760   3.499   0.424   0.085  0.1482  0.2628 -1.2954
  115TMC2    C7 1761   3.231   0.482   0.157 -0.3859  0.0492  0.5688
  115TMC2    C8 1762   3.602   0.200   0.008 -0.0599  0.1337 -1.0030
  115TMC2    O1 1763   3.137   0.483   0.237 -0.0752  0.4445  0.2448
  115TMC2    O2 1764   3.693   0.285   0.034  0.2742 -0.3203 -0.3979
  115TMC2    O5 1765   3.625   0.077  17.655  0.2310  0.4493  0.4471
  115TMC2    H5 1766   3.553   0.036  17.602  0.8452  1.0274 -0.8526
  116MPD2     C 1767   2.696   4.588   0.049  0.4097 -0.0083 -0.1268
  116MPD2    C1 1768   2.818   4.535   0.001 -0.4527  0.2441 -0.5543
  116MPD2    C2 1769   2.934   4.596   0.034 -0.3111 -0.1158  0.7650
  116MPD2    C3 1770   2.938   4.699   0.122 -0.1225  0.1351  0.0207
  116MPD2    C4 1771   2.822   0.024   0.172  0.4371  0.8318  0.2053
  116MPD2    C5 1772   2.702   4.696   0.131 -0.4509  0.7013  0.0618
  116MPD2     H 1773   3.030   4.563  17.690 -1.3533 -0.6907 -1.3057
  116MPD2    H1 1774   2.827   0.113   0.233  0.1897  1.2394 -0.3651
  116MPD2    H2 1775   2.603   4.544   0.013  0.2115 -0.5500  1.0283
  116MPD2    H3 1776   2.614   0.028   0.162 -0.1873 -1.1188  4.1073
  116MPD2     N 1777   3.051   0.055   0.146  0.4465  0.2802 -0.3207
  116MPD2    H5 1778   3.038   0.152   0.173 -0.7795  0.6040 -2.0254
  116MPD2    N1 1779   2.827   4.429  17.603 -0.6776  0.6606  0.2469
  116MPD2    H7 1780   2.751   4.404  17.542  0.9503 -0.0584 -1.4818
  117TMC2    C1 1781   2.244   1.142  13.881  0.2777 -0.6119 -0.2392
  117TMC2    C2 1782   2.306   1.021  13.898  0.2042  0.8054  0.4038
  117TMC2    C3 1783   2.405   1.021  13.993  0.7768  0.2444  0.3577
  117TMC2    C4 1784   2.279   1.257  13.954  0.2694 -0.0029  0.4252
  117TMC2    C5 1785   2.375   1.249  14.048 -0.4734  0.1316  0.0722
  117TMC2    C6 1786   2.443   1.133  14.073  0.4242  0.4352  0.5311
  117TMC2     C 1787   2.141   1.161  13.782  0.1639  0.4710 -0.1623
  117TMC2     O 1788   2.141   1.086  13.683  0.7813 -0.0079 -0.7417
  117TMC2     H 1789   2.290   0.943  13.825 -0.0668  2.3025 -1.1213
  117TMC2    H1 1790   2.249   1.359  13.933 -2.6906 -0.8792  0.4729
  117TMC2    H2 1791   2.514   1.131  14.156  0.4957  0.4249  0.4702
  117TMC2    C7 1792   2.426   1.373  14.101  0.2829 -0.8408  0.4225
  117TMC2    C8 1793   2.463   0.887  14.012  0.1123 -0.2684 -0.1885
  117TMC2    O1 1794   2.544   1.384  14.135 -1.1221  0.3260 -0.2996
  117TMC2    O2 1795   2.403   0.789  13.964  0.1969  0.6114 -0.5284
  117TMC2    O5 1796   2.583   0.896  14.084  0.0398  0.4772  0.0640
  117TMC2    H5 1797   2.629   0.983  14.085 -0.8876  0.9436  2.2727
  118MPD2     C 1798   2.209   1.660  14.143  0.1793 -0.1391  0.6914
  118MPD2    C1 1799   2.334   1.600  14.136  0.6195 -0.2121  0.3980
  118MPD2    C2 1800   2.448   1.667  14.155  0.8272 -0.0766 -0.2610
  118MPD2    C3 1801   2.437   1.807  14.158 -0.4120 -0.8036 -0.3996
  118MPD2    C4 1802   2.309   1.868  14.166  0.2901 -0.4726  0.0397
  118MPD2    C5 1803   2.195   1.796  14.165  0.1216  0.3277  0.4624
  118MPD2     H 1804   2.545   1.621  14.140  2.1084  2.0657  1.4738
  118MPD2    H1 1805   2.310   1.976  14.180 -2.2157 -0.9661  4.1258
  118MPD2    H2 1806   2.112   1.615  14.127  2.1143 -4.5411  1.4521
  118MPD2    H3 1807   2.100   1.839  14.197 -0.0694  0.5418 -0.3978
  118MPD2     N 1808   2.552   1.887  14.143  0.2954  0.5069  0.4268
  118MPD2    H5 1809   2.528   1.980  14.110  1.5768  0.6086 -0.1832
  118MPD2    N1 1810   2.320   1.457  14.120 -0.2646 -0.2306 -0.3025
  118MPD2    H7 1811   2.228   1.421  14.097 -0.6450 -0.4923  1.6768
  119MPD2     C 1812   0.872   3.216  14.053  0.5952 -0.3224  0.1813
  119MPD2    C1 1813   0.759   3.191  14.121  0.1094  0.0236  0.2826
  119MPD2    C2 1814   0.654   3.138  14.051  0.8269  0.5520  0.1976
  119MPD2    C3 1815   0.666   3.098  13.921  0.2765  0.1302 -0.0260
  119MPD2    C4 1816   0.780   3.121  13.854  0.6889  0.2860  0.3304
  119MPD2    C5 1817   0.883   3.175  13.924  0.2521  1.0570  0.1867
  119MPD2     H 1818   0.560   3.117  14.100  2.1003 -2.1600  1.5343
  119MPD2    H1 1819   0.785   3.092  13.750  1.1248 -2.2616  1.0707
  119MPD2    H2 1820   0.958   3.253  14.107 -1.0867  3.3569  0.3370
  119MPD2    H3 1821   0.971   3.198  13.866 -0.9577  1.7571 -1.3576
  119MPD2     N 1822   0.566   3.018  13.859  0.1901 -0.2847 -0.1262
  119MPD2    H5 1823   0.573   2.993  13.761 -2.2390  2.1285 -0.9204
  119MPD2    N1 1824   0.752   3.228  14.262  0.1811 -0.2393 -0.1662
  119MPD2    H7 1825   0.821   3.297  14.292  0.2239 -1.6768  3.0005
  120TCq2    C1 1826   0.442   2.978  13.914 -0.0234 -0.0649 -0.4654
  120TCq2    O2 1827   0.393   3.001  14.023 -0.0544 -0.1501 -0.8428
  120TCq2    C2 1828   0.379   2.886  13.821 -0.4757  0.4075  0.4826
  120TCq2    C3 1829   0.447   2.854  13.707  0.9320 -0.3858  0.2792
  120TCq2    C4 1830   0.379   2.778  13.619 -0.2644  0.3436  0.4567
  120TCq2    C5 1831   0.266   2.718  13.650 -0.2876 -0.3636 -0.2046
  120TCq2    C6 1832   0.211   2.724  13.778  0.1992 -0.2581 -0.2685
  120TCq2    C7 1833   0.269   2.811  13.856 -0.4152 -0.3385  0.4138
  120TCq2    C8 1834   0.076   2.678  13.803  0.5898  0.1573 -0.3641
  120TCq2    O4 1835   0.019   2.612  13.717  0.0974 -0.8866  0.0989
  120TCq2    C9 1836   0.447   2.734  13.498 -0.0687  0.5121 -0.6931
  120TCq2    O5 1837   0.557   2.791  13.475  0.6788 -0.1897 -0.2023
  120TCq2    O6 1838   0.403   2.637  13.429  0.1202 -0.2380 -0.1037
  120TCq2    H2 1839   0.551   2.872  13.683  0.6960 -0.5315 -0.8581
  120TCq2    H3 1840   0.218   2.650  13.581  0.6614 -1.4060  0.1799
  120TCq2    H4 1841   0.246   2.825  13.961  0.8272 -1.2615  0.8138
  121TMC2    C1 1842   1.641   4.555  14.137  0.1139  0.3492 -0.6159
  121TMC2    C2 1843   1.552   4.594  14.236 -0.6974 -0.1496  0.2281
  121TMC2    C3 1844   1.419   4.581  14.211 -0.1210  0.0459 -0.0394
  121TMC2    C4 1845   1.599   4.505  14.019  0.4849  0.4244  0.1912
  121TMC2    C5 1846   1.462   4.487  14.006 -0.6024  0.1659 -0.3163
  121TMC2    C6 1847   1.372   4.517  14.104 -0.6576 -0.1430  0.1161
  121TMC2     C 1848   1.780   4.564  14.185 -0.0927 -0.1145  1.0838
  121TMC2     O 1849   1.800   4.593  14.305  0.2328  0.2963 -0.3475
  121TMC2     H 1850   1.583   4.651  14.323  1.6551  1.0845 -1.4044
  121TMC2    H1 1851   1.664   4.483  13.935 -1.3167 -1.2379 -0.7442
  121TMC2    H2 1852   1.268   4.488  14.101 -0.7246  0.1349 -0.2309
  121TMC2    C7 1853   1.423   4.401  13.894  0.3570 -0.7436 -0.4656
  121TMC2    C8 1854   1.333   4.606  14.319  0.5143  0.8212  0.1427
  121TMC2    O1 1855   1.504   4.324  13.851 -0.6534 -0.1899 -0.2729
  121TMC2    O2 1856   1.372   4.632  14.430 -0.2310 -0.2799 -0.2768
  121TMC2    O5 1857   1.233   4.679  14.256  0.4388 -0.1962  0.4737
  121TMC2    H5 1858   1.233   4.655  14.161 -0.0249  0.1709  0.3818
  122MPD2     C 1859   2.057   4.474  14.226  0.0937  0.2876 -0.4578
  122MPD2    C1 1860   2.001   4.505  14.099  0.2447 -0.0628  0.4672
  122MPD2    C2 1861   2.073   4.485  13.981 -0.0323 -0.0929  0.1780
  122MPD2    C3 1862   2.201   4.430  13.991  0.0397  0.1605 -0.0170
  122MPD2    C4 1863   2.250   4.390  14.114  0.1673  0.6896 -0.1277
  122MPD2    C5 1864   2.179   4.418  14.228 -0.4095  0.2507  0.4547
  122MPD2     H 1865   2.033   4.508  13.883 -0.8058 -0.7724  0.3315
  122MPD2    H1 1866   2.354   4.361  14.128 -0.6764 -2.1960  0.1877
  122MPD2    H2 1867   2.015   4.489  14.325  1.5421 -0.4653  0.2611
  122MPD2    H3 1868   2.217   4.389  14.325  0.9733 -0.3411 -0.2628
  122MPD2     N 1869   2.285   4.393  13.878  0.0603  0.8026  0.3779
  122MPD2    H5 1870   2.370   4.343  13.904 -0.6861  0.7423  2.7082
  122MPD2    N1 1871   1.865   4.529  14.084 -0.0708 -0.4729 -0.2300
  122MPD2    H7 1872   1.822   4.506  13.995 -0.9699 -0.8665  0.3022
  123MPD2     C 1873   4.549   1.846   9.387  1.1405 -0.2701 -0.1998
  123MPD2    C1 1874   4.548   1.981   9.366  0.6878  0.2352 -0.3101
  123MPD2    C2 1875   4.666   2.054   9.346 -0.2378 -0.0925 -0.3042
  123MPD2    C3 1876   0.068   1.993   9.366  0.2759 -0.5736  0.2896
  123MPD2    C4 1877   0.069   1.855   9.371 -0.0632 -0.6093 -0.2533
  123MPD2    C5 1878   4.674   1.786   9.402  0.0487 -1.2162 -0.0966
  123MPD2     H 1879   4.665   2.162   9.334  0.2557 -0.2211 -1.5095
  123MPD2    H1 1880   0.163   1.804   9.391  0.2979 -0.6203 -1.9690
  123MPD2    H2 1881   4.458   1.791   9.409  0.1787  1.3571 -0.0941
  123MPD2    H3 1882   4.677   1.678   9.414  2.0394 -1.0550  0.9531
  123MPD2     N 1883   0.177   2.069   9.328 -0.5878 -0.3048 -0.1629
  123MPD2    H5 1884   0.162   2.169   9.324 -0.5611 -0.3532 -1.4379
  123MPD2    N1 1885   4.418   2.039   9.348  0.6177  0.0362  0.0904
  123MPD2    H7 1886   4.343   1.974   9.371  1.0382 -0.8591 -1.0711
  124TCq2    C1 1887   0.306   2.023   9.316  0.3716 -0.4276  0.9648
  124TCq2    O2 1888   0.355   1.917   9.354 -0.1852 -0.4271  0.0811
  124TCq2    C2 1889   0.395   2.137   9.285 -0.5415  0.1221  0.2716
  124TCq2    C3 1890   0.353   2.252   9.223 -0.0402  0.9472 -0.0511
  124TCq2    C4 1891   0.440   2.356   9.218  0.0548  0.0873 -0.0289
  124TCq2    C5 1892   0.563   2.354   9.270 -0.2849  0.3120 -0.0506
  124TCq2    C6 1893   0.607   2.238   9.324  0.7081 -0.3798  0.0013
  124TCq2    C7 1894   0.521   2.131   9.332 -0.6111  0.3338  0.3016
  124TCq2    C8 1895   0.721   2.228   9.420 -0.6412  0.7653 -0.2959
  124TCq2    O4 1896   0.747   2.114   9.454 -0.1260  0.6628  0.1142
  124TCq2    C9 1897   0.387   2.481   9.181 -0.3919 -0.4106 -0.5338
  124TCq2    O5 1898   0.464   2.582   9.184 -0.4210  0.2985 -0.5005
  124TCq2    O6 1899   0.271   2.486   9.126  0.6872 -0.0828 -0.2905
  124TCq2    H2 1900   0.253   2.262   9.183  0.2061 -0.0546 -0.9519
  124TCq2    H3 1901   0.627   2.442   9.269 -2.0135  1.5514 -0.8869
  124TCq2    H4 1902   0.550   2.040   9.384  1.0887 -0.5592 -2.2094
  125TMC2    C1 1903   1.158   3.955   9.139 -0.2958  0.1245 -0.0711
  125TMC2    C2 1904   1.033   4.006   9.113 -0.3961 -0.0661  1.1728
  125TMC2    C3 1905   0.993   4.112   9.193  0.5215  0.0228  0.0125
  125TMC2    C4 1906   1.238   4.010   9.234  0.3370  0.6228 -0.4422
  125TMC2    C5 1907   1.188   4.104   9.317  0.2416  0.1970 -0.3413
  125TMC2    C6 1908   1.059   4.152   9.305  0.2308  0.4228 -0.6150
  125TMC2     C 1909   1.210   3.857   9.048  0.1407  0.3636 -0.8513
  125TMC2     O 1910   1.129   3.817   8.966  0.0673  0.1736 -0.2423
  125TMC2     H 1911   0.969   3.957   9.040 -0.8491  1.9459  0.2180
  125TMC2    H1 1912   1.323   3.954   9.273 -0.7572 -1.4575 -1.0457
  125TMC2    H2 1913   1.032   4.233   9.373  1.8410 -1.1913  1.9424
  125TMC2    C7 1914   1.269   4.187   9.398 -0.9885 -0.2040  0.0641
  125TMC2    C8 1915   0.862   4.156   9.165  0.6550 -0.4296  0.7162
  125TMC2    O1 1916   1.220   4.260   9.484 -0.4350  0.3147  0.2382
  125TMC2    O2 1917   0.776   4.084   9.117  0.3977  0.4808 -0.0204
  125TMC2    O5 1918   0.872   4.283   9.141  0.2548 -0.4385 -0.0936
  125TMC2    H5 1919   0.962   4.316   9.159  0.1747 -2.1296  3.4446
  126MPD1     C 1920   1.581   3.541   8.888 -0.4260 -0.0827  0.2242
  126MPD1    C1 1921   1.635   3.637   8.964  0.1528  0.6022  0.1458
  126MPD1    C2 1922   1.552   3.736   9.021 -0.3102  0.8485  0.4030
  126MPD1    C3 1923   1.414   3.727   9.019 -0.5241 -0.3630 -0.1218
  126MPD1    C4 1924   1.362   3.618   8.943 -0.4095  0.4357  0.3050
  126MPD1    C5 1925   1.444   3.528   8.883  0.0347  0.2395 -0.1597
  126MPD1     H 1926   1.593   3.815   9.083  0.7426  0.3241  0.3688
  126MPD1    H1 1927   1.255   3.603   8.940 -0.1984 -0.8135 -1.0792
  126MPD1    H2 1928   1.646   3.481   8.825  0.4083 -0.6062  1.5817
  126MPD1    H3 1929   1.402   3.446   8.826  0.8498  0.0255 -0.4572
  126MPD1     N 1930   1.342   3.831   9.076 -0.8233  0.0091 -0.1822
  126MPD1    H5 1931   1.384   3.914   9.116 -0.7689  0.5882 -1.4413
  126MPD1    N1 1932   1.774   3.657   8.953  0.1617 -0.3674 -0.3042
  126MPD1    H6 1933   1.824   3.573   8.924  1.0709  0.5513 -1.3856
  126MPD1    H7 1934   1.820   3.688   9.038 -1.8435 -0.4285  0.7976
  127MPD2     C 1935   2.574   3.473   9.273 -0.0301 -0.7364 -0.0041
  127MPD2    C1 1936   2.616   3.475   9.405 -0.0481  0.0402 -0.1384
  127MPD2    C2 1937   2.705   3.576   9.443  0.7252 -0.3684  0.2518
  127MPD2    C3 1938   2.754   3.668   9.352  0.6821  0.3670 -0.3126
  127MPD2    C4 1939   2.723   3.647   9.218  0.1466 -0.0023 -0.0303
  127MPD2    C5 1940   2.637   3.552   9.180  0.2417  0.0630 -0.1552
  127MPD2     H 1941   2.732   3.589   9.548 -1.0526 -1.8633  0.8880
  127MPD2    H1 1942   2.752   3.716   9.139  0.5230  0.9135  0.9086
  127MPD2    H2 1943   2.513   3.389   9.243 -0.2425 -1.3609  2.2048
  127MPD2    H3 1944   2.622   3.529   9.075  0.1100  1.1867 -0.3814
  127MPD2     N 1945   2.858   3.751   9.397 -0.4736 -0.2380  0.0443
  127MPD2    H5 1946   2.875   3.762   9.497  0.4929 -2.1235  0.0964
  127MPD2    N1 1947   2.570   3.371   9.485  0.5675 -0.3302 -0.3557
  127MPD2    H7 1948   2.518   3.300   9.434 -1.3404  1.1547 -0.4793
  128TCq2    C1 1949   2.587   3.368   9.620  0.6694  0.0783  0.0209
  128TCq2    O2 1950   2.684   3.424   9.672  0.0260  0.0769  0.5060
  128TCq2    C2 1951   2.501   3.271   9.694 -0.3932  0.5839 -0.0217
  128TCq2    C3 1952   2.549   3.231   9.811  1.0376  0.1589  0.0346
  128TCq2    C4 1953   2.472   3.150   9.892 -0.1387  0.2802 -0.5153
  128TCq2    C5 1954   2.349   3.110   9.856  0.1893 -0.0497  0.0203
  128TCq2    C6 1955   2.302   3.151   9.730  0.7548 -0.0352  0.1656
  128TCq2    C7 1956   2.381   3.231   9.648  0.6432  0.0099 -0.3346
  128TCq2    C8 1957   2.173   3.117   9.688  0.0513 -0.8504 -0.5927
  128TCq2    O4 1958   2.141   3.165   9.580 -0.4572  0.4542 -0.4262
  128TCq2    C9 1959   2.524   3.099  10.012  0.6434 -0.1992 -0.2239
  128TCq2    O5 1960   2.454   3.018  10.078  0.2633  0.2854 -0.5355
  128TCq2    O6 1961   2.651   3.110  10.026  0.6528  0.3196 -0.1447
  128TCq2    H2 1962   2.652   3.246   9.839  1.0960  1.4994 -0.8964
  128TCq2    H3 1963   2.282   3.055   9.921  1.2660 -0.5184  0.7315
  128TCq2    H4 1964   2.328   3.272   9.563 -1.3234 -1.0357  0.3714
  129MPD2     C 1965   4.670   4.590   0.696  0.5047  0.1785  0.3222
  129MPD2    C1 1966   0.019   4.681   0.775  0.2338  0.0154 -0.5401
  129MPD2    C2 1967   0.111   0.035   0.718 -0.7037 -0.4323  0.0153
  129MPD2    C3 1968   0.145   0.032   0.583  0.6447  0.7794  0.3726
  129MPD2    C4 1969   0.074   4.661   0.511  0.7638 -0.0776 -0.0071
  129MPD2    C5 1970   4.695   4.583   0.564  0.0328 -0.0899  0.0938
  129MPD2     H 1971   0.165   0.114   0.771 -0.0406 -0.7403 -0.1974
  129MPD2    H1 1972   0.087   4.657   0.404  0.8842  0.8311 -0.0282
  129MPD2    H2 1973   4.593   4.523   0.732  0.9691  0.0539  1.0805
  129MPD2    H3 1974   4.638   4.512   0.506 -0.2640  0.9168 -0.8479
  129MPD2     N 1975   0.254   0.107   0.541 -0.0559  0.4552 -0.0652
  129MPD2    H5 1976   0.289   0.184   0.596  1.9510  1.7362 -3.1275
  129MPD2    N1 1977   4.716   4.690   0.917 -0.2649 -0.1538  0.2520
  129MPD2    H7 1978   0.036   0.048   0.959 -1.2355 -0.8881  2.6627
  130TCq2    C1 1979   4.648   4.607   0.993 -0.1597  0.0509 -0.3875
  130TCq2    O2 1980   4.605   4.495   0.958 -0.0962  0.5264  0.3088
  130TCq2    C2 1981   4.640   4.646   1.125  0.1705 -0.0653 -0.2585
  130TCq2    C3 1982   4.635   0.057   1.158 -0.0673  0.2506  0.1138
  130TCq2    C4 1983   4.609   0.094   1.286 -0.3243 -0.5169 -0.1242
  130TCq2    C5 1984   4.566   0.008   1.376  0.0230  0.2104 -0.1998
  130TCq2    C6 1985   4.560   4.602   1.337 -0.0848  0.0409 -0.0496
  130TCq2    C7 1986   4.606   4.551   1.215 -0.1744 -0.0018 -0.5159
  130TCq2    C8 1987   4.516   4.501   1.433  0.9237 -0.4228 -0.2080
  130TCq2    O4 1988   4.494   4.386   1.393 -0.7485 -0.4209 -0.4465
  130TCq2    C9 1989   4.619   0.235   1.333 -0.8066 -0.4062  0.0246
  130TCq2    O5 1990   4.630   0.330   1.248  0.7006 -0.5871  0.6974
  130TCq2    O6 1991   4.655   0.248   1.454  0.4058 -0.0564 -0.0484
  130TCq2    H2 1992   4.664   0.138   1.092  1.7628  0.4407  1.1807
  130TCq2    H3 1993   4.519   0.044   1.467 -0.9092  0.7761 -0.9029
  130TCq2    H4 1994   4.602   4.446   1.185  2.0156  0.0634 -1.0681
  131MPD2     C 1995   4.049   2.981   9.522  0.2469  0.8233 -0.1270
  131MPD2    C1 1996   4.159   2.938   9.449  0.3192  0.0858 -0.2425
  131MPD2    C2 1997   4.173   2.802   9.422  0.1199  0.2424 -0.6063
  131MPD2    C3 1998   4.083   2.700   9.460 -0.1255 -0.3741 -0.4405
  131MPD2    C4 1999   3.969   2.755   9.525 -0.2334 -0.0564 -0.0718
  131MPD2    C5 2000   3.950   2.891   9.547  0.2905  0.4190  0.1838
  131MPD2     H 2001   4.258   2.769   9.364 -0.3266 -0.7751 -0.6850
  131MPD2    H1 2002   3.882   2.692   9.532 -0.8633  0.6512 -1.6494
  131MPD2    H2 2003   4.035   3.086   9.546 -1.6760  1.3202 -3.4207
  131MPD2    H3 2004   3.848   2.914   9.576  0.8502  3.0711  0.1030
  131MPD2     N 2005   4.106   2.564   9.424  0.6214  0.5455 -0.5275
  131MPD2    H5 2006   4.198   2.543   9.386 -0.8776 -2.8292 -2.3131
  131MPD2    N1 2007   4.261   3.033   9.422 -0.1875  0.0775  0.6380
  131MPD2    H7 2008   4.244   3.129   9.451  0.6956  0.0992  1.0941
  132TCq2    C1 2009   4.701   3.285   9.102 -0.4077 -0.0384 -0.1206
  132TCq2    O2 2010   4.658   3.222   9.006  0.0630 -0.0419 -0.3860
  132TCq2    C2 2011   4.620   3.265   9.226  0.0963 -0.1507  0.4617
  132TCq2    C3 2012   4.652   3.339   9.339  0.1466  0.1072  0.6129
  132TCq2    C4 2013   4.580   3.303   9.453 -0.0724 -0.4784  0.1076
  132TCq2    C5 2014   4.478   3.212   9.452  0.0468  0.2821 -0.8251
  132TCq2    C6 2015   4.451   3.143   9.341  0.3920 -0.5054 -0.2083
  132TCq2    C7 2016   4.529   3.159   9.228 -0.4789  0.5921  1.0596
  132TCq2    C8 2017   4.381   3.018   9.352 -0.4391  0.8246 -0.1673
  132TCq2    O4 2018   4.423   2.925   9.284  0.2175 -0.1641 -0.2349
  132TCq2    C9 2019   4.605   3.372   9.576  0.1888 -0.1285 -0.6847
  132TCq2    O5 2020   4.532   3.337   9.673 -0.4977  0.0209  0.3286
  132TCq2    O6 2021   4.709   3.447   9.583  0.4180  0.1878 -0.5606
  132TCq2    H2 2022   0.010   3.411   9.340  0.1859  0.0708 -0.1884
  132TCq2    H3 2023   4.426   3.173   9.539  0.7504  0.3723 -0.3602
  132TCq2    H4 2024   4.509   3.102   9.138  1.3204 -1.1101  1.7431
  133MPD2     C 2025   3.658   4.538   9.012 -0.2446 -0.2145 -0.1338
  133MPD2    C1 2026   3.568   4.443   8.975 -0.1801 -0.4333  0.4954
  133MPD2    C2 2027   3.573   4.312   9.023 -0.0368  0.7617 -0.0213
  133MPD2    C3 2028   3.691   4.269   9.094 -0.4190  0.4283 -0.5421
  133MPD2    C4 2029   3.778   4.366   9.143 -0.7760 -1.0995 -0.0785
  133MPD2    C5 2030   3.764   4.495   9.092 -0.0999  0.0822 -0.2101
  133MPD2     H 2031   3.502   4.236   8.991 -0.5454  0.3422  2.1024
  133MPD2    H1 2032   3.859   4.346   9.211  0.6745  0.7545 -1.2834
  133MPD2    H2 2033   3.655   4.641   8.980  0.1981  0.5566  2.2910
  133MPD2    H3 2034   3.852   4.556   9.107 -1.3023  1.4103  1.4410
  133MPD2     N 2035   3.721   4.139   9.131 -0.0595  0.1102 -0.1187
  133MPD2    H5 2036   3.799   4.123   9.194 -1.1508 -0.0517  1.2123
  133MPD2    N1 2037   3.467   4.486   8.883  0.1367 -0.0997  0.0656
  133MPD2    H7 2038   3.458   4.585   8.860  1.5683  0.2230  0.9155
  134TCq2    C1 2039   3.364   4.408   8.840  0.6495  0.0328  0.6711
  134TCq2    O2 2040   3.340   4.288   8.851 -0.2023  0.3953  0.6396
  134TCq2    C2 2041   3.257   4.478   8.766 -0.2754  0.5950 -0.5018
  134TCq2    C3 2042   3.177   4.398   8.687  0.4548  0.3117  0.0375
  134TCq2    C4 2043   3.072   4.457   8.616  0.5501  0.0632  0.2996
  134TCq2    C5 2044   3.022   4.578   8.654 -0.5565 -0.7582 -1.4379
  134TCq2    C6 2045   3.095   4.649   8.751  0.4657  0.0731  0.2275
  134TCq2    C7 2046   3.209   4.601   8.807 -0.3726  0.5215  0.3341
  134TCq2    C8 2047   3.035   0.052   8.798  0.0102  0.0405  0.1012
  134TCq2    O4 2048   3.108   0.131   8.857 -0.0548  0.0073  0.0133
  134TCq2    C9 2049   2.996   4.370   8.527 -0.0923 -0.5239  0.0296
  134TCq2    O5 2050   3.037   4.254   8.514  0.2122  0.2679  0.2000
  134TCq2    O6 2051   2.879   4.400   8.503  0.4371  0.0942 -0.6293
  134TCq2    H2 2052   3.207   4.296   8.667 -0.8856 -0.3076  1.1820
  134TCq2    H3 2053   2.936   4.607   8.595 -1.6434 -0.9527  0.0551
  134TCq2    H4 2054   3.257   4.663   8.881  0.8580 -0.0598  0.0334
  135MPD2     C 2055   1.870   4.472   8.815 -0.2133 -0.0303  0.7205
  135MPD2    C1 2056   1.851   4.559   8.922 -0.6203  1.2668  0.3024
  135MPD2    C2 2057   1.946   4.643   8.968 -0.0066  0.0955  0.6833
  135MPD2    C3 2058   2.075   4.635   8.916 -0.0933  0.8327  0.9244
  135MPD2    C4 2059   2.098   4.552   8.809 -0.1441 -0.5072 -0.6410
  135MPD2    C5 2060   1.992   4.483   8.756  0.3651  0.9042 -0.0488
  135MPD2     H 2061   1.921   4.710   9.050 -2.5368 -0.6072  0.4656
  135MPD2    H1 2062   2.199   4.531   8.777  0.6557  0.4874  1.2334
  135MPD2    H2 2063   1.795   4.403   8.779 -0.2435  0.4348 -0.0929
  135MPD2    H3 2064   2.004   4.415   8.672  1.0486 -0.9177  1.5083
  135MPD2     N 2065   2.179   0.002   8.954  0.1506 -0.5795 -0.5138
  135MPD2    H5 2066   2.263   4.705   8.901  0.7701 -0.5481  0.4460
  135MPD2    N1 2067   1.730   4.563   8.998 -0.7423 -0.0436 -0.3262
  135MPD2    H7 2068   1.725   4.631   9.072 -0.7709 -0.8658  0.4296
  136TCq2    C1 2069   1.618   4.487   8.977  0.0466 -0.2143  0.1809
  136TCq2    O2 2070   1.588   4.415   8.881  0.1945  0.5353 -0.0868
  136TCq2    C2 2071   1.513   4.517   9.074 -0.2163 -0.1264 -0.5827
  136TCq2    C3 2072   1.390   4.485   9.026  0.0272  0.2264 -0.7295
  136TCq2    C4 2073   1.284   4.494   9.115 -0.1682  0.3565  0.1497
  136TCq2    C5 2074   1.303   4.541   9.244  0.1546  0.3324  0.0296
  136TCq2    C6 2075   1.427   4.584   9.277  0.9777  0.0532 -0.5620
  136TCq2    C7 2076   1.535   4.578   9.192  0.1582 -0.1580 -0.6289
  136TCq2    C8 2077   1.443   4.633   9.408  0.5191 -0.0205 -0.6134
  136TCq2    O4 2078   1.543   4.698   9.429  0.3781  0.2518 -0.6593
  136TCq2    C9 2079   1.158   4.438   9.077  0.6987 -0.1731  0.5831
  136TCq2    O5 2080   1.078   4.424   9.170 -0.9590  0.3918 -0.3583
  136TCq2    O6 2081   1.146   4.381   8.965 -0.6158  0.3676  0.6926
  136TCq2    H2 2082   1.368   4.442   8.928  1.1001  0.2652 -0.9842
  136TCq2    H3 2083   1.212   4.545   9.303 -1.0198  0.1477 -1.7445
  136TCq2    H4 2084   1.637   4.588   9.227 -0.8399 -0.6250  2.3824
  137MPD2     C 2085   1.452   2.911   9.910 -0.2516  0.6714 -0.6722
  137MPD2    C1 2086   1.449   3.011   9.816  0.2544  0.7593  0.7383
  137MPD2    C2 2087   1.498   3.142   9.848 -0.5585 -0.3654 -0.1105
  137MPD2    C3 2088   1.549   3.169   9.975  0.2487  0.3121  1.6712
  137MPD2    C4 2089   1.557   3.059  10.072  0.5852  0.5503 -0.0081
  137MPD2    C5 2090   1.512   2.935  10.029  0.1936 -0.2223  0.4204
  137MPD2     H 2091   1.494   3.220   9.773  0.4304 -0.3791 -0.1660
  137MPD2    H1 2092   1.579   3.077  10.176  3.3661  2.3813 -0.9062
  137MPD2    H2 2093   1.414   2.812   9.890 -2.8319  1.5332 -0.0405
  137MPD2    H3 2094   1.523   2.854  10.100 -0.3439  1.7051  2.7109
  137MPD2     N 2095   1.592   3.300  10.000 -0.3922  0.5406  0.1335
  137MPD2    H5 2096   1.589   3.367   9.924  1.6205  1.2813  0.7087
  137MPD2    N1 2097   1.407   2.977   9.689 -0.0266  0.3384 -0.1763
  137MPD2    H7 2098   1.346   2.896   9.684  0.6891 -0.2131  0.0414
  138TCq2    C1 2099   1.421   3.050   9.576  0.2109 -0.3658 -0.7504
  138TCq2    O2 2100   1.481   3.154   9.547 -0.5852  0.0698  0.2025
  138TCq2    C2 2101   1.375   2.976   9.464  0.4705  1.4693  0.2542
  138TCq2    C3 2102   1.407   2.844   9.457  0.5454  0.4629 -0.0354
  138TCq2    C4 2103   1.427   2.790   9.332  0.3220  0.4110 -0.1414
  138TCq2    C5 2104   1.415   2.864   9.215  0.0697 -0.1269 -0.0256
  138TCq2    C6 2105   1.385   2.999   9.225  0.1109  0.3510 -0.5160
  138TCq2    C7 2106   1.376   3.061   9.354  0.9200 -0.0370 -0.8773
  138TCq2    C8 2107   1.342   3.051   9.094 -0.0336 -0.2699 -0.4980
  138TCq2    O4 2108   1.378   2.990   8.997  0.4625 -0.4189 -0.1711
  138TCq2    C9 2109   1.461   2.650   9.325  0.4430 -0.1355  0.3375
  138TCq2    O5 2110   1.482   2.608   9.207  1.1255 -0.5688 -0.4297
  138TCq2    O6 2111   1.464   2.584   9.432  0.4745 -0.2581 -0.1293
  138TCq2    H2 2112   1.419   2.784   9.546 -0.2925 -0.2205 -0.3798
  138TCq2    H3 2113   1.421   2.813   9.119 -1.9235  2.1472 -1.3442
  138TCq2    H4 2114   1.347   3.165   9.370 -1.3719 -1.0395  1.3815
  139TMC2    C1 2115   2.047   2.147  13.397  0.8797  1.1579  0.2965
  139TMC2    C2 2116   2.054   2.179  13.263  0.5167  0.8870 -0.7367
  139TMC2    C3 2117   1.986   2.290  13.223 -0.4519 -0.5374  0.2677
  139TMC2    C4 2118   1.979   2.214  13.491 -0.0145 -0.3454  0.3130
  139TMC2    C5 2119   1.904   2.322  13.445  0.1230 -0.4208 -0.4193
  139TMC2    C6 2120   1.903   2.356  13.309 -0.0722 -0.0566  0.0847
  139TMC2     C 2121   2.112   2.018  13.428 -0.3298  0.1383  0.0728
  139TMC2     O 2122   2.134   1.932  13.343 -0.0190  0.5429  0.0879
  139TMC2     H 2123   2.120   2.132  13.191 -0.1893 -1.3120  0.0559
  139TMC2    H1 2124   1.961   2.182  13.593 -0.6651 -0.5290  0.1420
  139TMC2    H2 2125   1.851   2.443  13.271 -0.3388 -0.0716  0.4196
  139TMC2    C7 2126   1.870   2.430  13.534 -0.3927 -0.0432  0.0805
  139TMC2    C8 2127   2.012   2.341  13.089 -0.0001  0.3110 -0.1570
  139TMC2    O1 2128   1.775   2.499  13.495  0.0772 -0.5810  0.3591
  139TMC2    O2 2129   2.071   2.277  13.005 -0.5718 -0.3962 -0.0772
  139TMC2    O5 2130   2.024   2.470  13.097 -0.4556  0.4205  0.6134
  139TMC2    H5 2131   1.998   2.521  13.177 -1.7255 -0.8657  1.0226
  140MPD2     C 2132   2.170   1.881  13.760  0.2489 -0.1954  0.1770
  140MPD2    C1 2133   2.158   1.879  13.626  0.7500  0.2006 -0.8321
  140MPD2    C2 2134   2.210   1.770  13.559 -0.2120 -0.3077  0.8376
  140MPD2    C3 2135   2.267   1.668  13.630 -0.5045  0.1119 -0.0878
  140MPD2    C4 2136   2.286   1.667  13.764  0.9494  0.2687  0.3587
  140MPD2    C5 2137   2.230   1.776  13.820 -0.1382  0.1051  0.0034
  140MPD2     H 2138   2.192   1.746  13.455  0.8655 -0.3303  0.6600
  140MPD2    H1 2139   2.316   1.577  13.816  0.3457 -0.4087 -0.4741
  140MPD2    H2 2140   2.146   1.972  13.815 -2.1408 -0.2640 -0.7290
  140MPD2    H3 2141   2.235   1.779  13.928  2.6300 -2.8985 -0.0519
  140MPD2     N 2142   2.288   1.552  13.555  0.0856 -0.3749  0.7878
  140MPD2    H5 2143   2.253   1.552  13.460  0.1704  3.3359  0.7725
  140MPD2    N1 2144   2.115   2.000  13.561 -0.0236 -0.2131 -0.5730
  140MPD2    H7 2145   2.094   2.074  13.628  2.5619 -1.9797  2.2060
  141TCq2    C1 2146   2.775   3.388  14.296  0.2723 -0.0023 -0.1178
  141TCq2    O2 2147   2.701   3.471  14.242 -0.5304  0.1945 -0.0773
  141TCq2    C2 2148   2.737   3.343  14.428 -0.1896 -0.4781 -0.3704
  141TCq2    C3 2149   2.779   3.219  14.465  0.0159  0.2121  0.0374
  141TCq2    C4 2150   2.740   3.176  14.587  0.4282  0.5897  0.4640
  141TCq2    C5 2151   2.675   3.257  14.685  0.1580  0.2092 -0.3317
  141TCq2    C6 2152   2.651   3.391  14.648 -0.4469 -1.0841  0.1733
  141TCq2    C7 2153   2.679   3.426  14.517 -0.1434 -0.5780  0.0906
  141TCq2    C8 2154   2.629   3.493  14.748 -0.7158 -0.6141  0.0630
  141TCq2    O4 2155   2.566   3.465  14.852 -0.2427 -0.4217 -0.1811
  141TCq2    C9 2156   2.783   3.039  14.624 -0.4273 -0.1491 -0.3034
  141TCq2    O5 2157   2.720   2.985  14.723 -0.1211  0.4929 -0.3022
  141TCq2    O6 2158   2.877   2.986  14.565  0.0764  0.1679  0.4087
  141TCq2    H2 2159   2.817   3.147  14.393 -1.1998 -0.3345 -0.0594
  141TCq2    H3 2160   2.671   3.217  14.786  2.6396 -1.2893 -0.8328
  141TCq2    H4 2161   2.652   3.522  14.475  1.3871  0.9931  2.7121
  142MPD2     C 2162   0.869   1.422  10.451 -0.5536  0.4789  0.8554
  142MPD2    C1 2163   0.795   1.456  10.337 -0.0790  0.2537 -0.4112
  142MPD2    C2 2164   0.857   1.550  10.253  0.2376  0.6121  0.9614
  142MPD2    C3 2165   0.978   1.604  10.289  0.5265  0.8489 -0.0361
  142MPD2    C4 2166   1.045   1.568  10.401 -0.0288 -0.5838  0.5022
  142MPD2    C5 2167   0.988   1.480  10.486 -0.1530  0.2310  0.1647
  142MPD2     H 2168   0.807   1.577  10.161 -0.3573 -0.1338  1.0636
  142MPD2    H1 2169   1.142   1.608  10.428  0.0543 -0.6222  0.2557
  142MPD2    H2 2170   0.831   1.349  10.522 -0.8043 -0.2792 -0.0640
  142MPD2    H3 2171   1.037   1.457  10.580  0.4360  3.4150  0.6229
  142MPD2     N 2172   1.043   1.699  10.215  0.0655 -0.2854  0.1596
  142MPD2    H5 2173   1.134   1.731  10.246  1.0290 -2.2860 -0.6087
  142MPD2    N1 2174   0.675   1.377  10.317 -0.4669  0.1507 -0.8400
  142MPD2    H7 2175   0.655   1.298  10.378 -1.9598  0.9265 -0.3448
  143TCq2    C1 2176   1.006   1.757  10.092  0.3137 -0.4256 -0.2901
  143TCq2    O2 2177   0.904   1.741  10.022  0.0631  0.8503  0.3744
  143TCq2    C2 2178   1.068   1.885  10.076  0.1488 -0.1086  0.1517
  143TCq2    C3 2179   1.077   1.975  10.181  0.3037 -0.1846  0.2500
  143TCq2    C4 2180   1.093   2.103  10.158 -0.4248 -0.0021 -0.0177
  143TCq2    C5 2181   1.115   2.142  10.030  0.3614  0.2644 -0.7051
  143TCq2    C6 2182   1.103   2.056   9.924  0.4766  0.4105 -0.3516
  143TCq2    C7 2183   1.083   1.919   9.945  0.3301  0.1471 -0.1744
  143TCq2    C8 2184   1.076   2.119   9.796  0.4893  0.1748 -0.3239
  143TCq2    O4 2185   1.033   2.039   9.711  0.3506 -0.1636 -0.1179
  143TCq2    C9 2186   1.086   2.198  10.266  0.6276 -0.1508  0.5856
  143TCq2    O5 2187   1.090   2.322  10.241 -0.4575  0.2278  0.1011
  143TCq2    O6 2188   1.044   2.154  10.374 -0.1477 -0.2648  0.1504
  143TCq2    H2 2189   1.061   1.949  10.285 -0.6162 -0.4374  0.0469
  143TCq2    H3 2190   1.142   2.244  10.009  0.1373  0.6846  1.0310
  143TCq2    H4 2191   1.053   1.852   9.866 -1.8474 -1.9256  2.4132
  144MPD2     C 2192   2.572   1.576   1.228  0.3478 -0.0312 -1.0279
  144MPD2    C1 2193   2.539   1.446   1.211 -0.2944  0.5106  0.6136
  144MPD2    C2 2194   2.639   1.355   1.252 -0.3788 -0.2119  0.6334
  144MPD2    C3 2195   2.756   1.392   1.314 -0.6131  0.2559 -0.4531
  144MPD2    C4 2196   2.782   1.527   1.329  0.3662  0.2373  0.0619
  144MPD2    C5 2197   2.687   1.613   1.289  0.4491  0.6429  0.1366
  144MPD2     H 2198   2.616   1.252   1.229 -0.2674  0.1179 -0.9474
  144MPD2    H1 2199   2.873   1.567   1.374 -1.4461  2.6700  1.5744
  144MPD2    H2 2200   2.499   1.655   1.213  0.7389  0.4975 -0.1120
  144MPD2    H3 2201   2.692   1.720   1.308  1.9695  0.9817 -2.1502
  144MPD2     N 2202   2.858   1.299   1.358 -0.1990  1.0544  0.0654
  144MPD2    H5 2203   2.936   1.349   1.401  1.9429 -0.2489 -2.2987
  144MPD2    N1 2204   2.419   1.408   1.150 -0.2896  0.1308 -1.3019
  144MPD2    H7 2205   2.414   1.321   1.097 -2.1280 -0.4986 -0.0698
  145TCq2    C1 2206   2.869   1.168   1.318  1.1430 -0.0300 -0.4144
  145TCq2    O2 2207   2.789   1.108   1.247  0.0765  0.3729  0.5407
  145TCq2    C2 2208   2.995   1.105   1.343 -0.6256 -0.5693  0.2917
  145TCq2    C3 2209   3.019   0.992   1.266 -0.4110  0.2360  0.2125
  145TCq2    C4 2210   3.135   0.926   1.280 -0.7962  0.3856 -0.2094
  145TCq2    C5 2211   3.235   0.964   1.362  0.5573  0.7830 -0.0075
  145TCq2    C6 2212   3.206   1.085   1.434 -1.0874  0.4066 -0.0627
  145TCq2    C7 2213   3.086   1.147   1.432  0.4508 -0.2671  0.0423
  145TCq2    C8 2214   3.325   1.162   1.485 -0.0911 -0.3948  0.4095
  145TCq2    O4 2215   3.418   1.094   1.526  0.4290  0.9818 -0.2766
  145TCq2    C9 2216   3.163   0.814   1.195  0.4193 -0.2441 -0.1153
  145TCq2    O5 2217   3.070   0.778   1.118 -0.1959  0.2002  0.2469
  145TCq2    O6 2218   3.279   0.763   1.207 -0.3020  0.1753  0.6314
  145TCq2    H2 2219   2.944   0.950   1.200  1.1804 -0.5241 -1.1370
  145TCq2    H3 2220   3.326   0.909   1.382 -0.1724 -0.0890  0.8862
  145TCq2    H4 2221   3.070   1.232   1.498  1.8033  0.1093 -0.1159
  146TMC2    C1 2222   3.749   0.219  12.848  0.2456  0.1097 -0.0721
  146TMC2    C2 2223   3.651   0.308  12.803 -0.0684  0.0008 -0.7231
  146TMC2    C3 2224   3.615   0.299  12.674  0.2206 -0.0962  0.2526
  146TMC2    C4 2225   3.788   0.114  12.768  0.0008  0.5225 -0.2406
  146TMC2    C5 2226   3.740   0.114  12.638 -0.2017  1.0061 -0.7255
  146TMC2    C6 2227   3.654   0.201  12.586  0.8270  0.1927 -0.8177
  146TMC2     C 2228   3.813   0.235  12.980  0.0337 -0.1767  0.8887
  146TMC2     O 2229   3.768   0.329  13.044 -0.1428  0.1361  0.2326
  146TMC2     H 2230   3.617   0.394  12.861  1.5350  0.3664 -0.2989
  146TMC2    H1 2231   3.866   0.042  12.790 -0.0821  0.3965 -0.3598
  146TMC2    H2 2232   3.648   0.210  12.478  1.0838 -3.4339 -1.1319
  146TMC2    C7 2233   3.832   0.064  12.540 -0.3549  0.7672  0.2929
  146TMC2    C8 2234   3.520   0.393  12.628 -0.2357  0.0304 -0.2510
  146TMC2    O1 2235   3.854   0.131  12.438 -0.5489  0.3616  0.4810
  146TMC2    O2 2236   3.498   0.495  12.684 -0.5073  0.3358  0.3213
  146TMC2    O5 2237   3.454   0.332  12.519  0.1785  0.1228 -0.0964
  146TMC2    H5 2238   3.490   0.246  12.491 -1.6226 -1.0178  1.0440
  147MPD2     C 2239   4.110   4.386  12.366 -0.0996 -0.2210  0.1489
  147MPD2    C1 2240   4.098   4.378  12.504 -0.0403  0.0715  0.1379
  147MPD2    C2 2241   4.007   4.470  12.577  0.4402  0.2970 -0.3802
  147MPD2    C3 2242   3.958   4.577  12.505 -0.9161 -0.2596  0.0621
  147MPD2    C4 2243   3.987   4.593  12.369  0.3651  0.9773 -0.5953
  147MPD2    C5 2244   4.053   4.494  12.301 -0.1524  0.1667 -0.0822
  147MPD2     H 2245   4.009   4.473  12.686  0.4774  0.2907 -0.3806
  147MPD2    H1 2246   3.941   4.671  12.309 -0.1599 -1.1302 -2.9605
  147MPD2    H2 2247   4.182   4.320  12.319 -0.2502 -0.3407  0.0860
  147MPD2    H3 2248   4.069   4.496  12.194 -0.9086 -1.0068 -0.2169
  147MPD2     N 2249   3.876   4.661  12.574 -0.1757  0.3299 -0.1963
  147MPD2    H5 2250   3.843   4.618  12.660  1.3972  0.3956  0.4404
  147MPD2    N1 2251   4.174   4.272  12.565 -0.4765 -0.6658  0.2345
  147MPD2    H7 2252   4.213   4.197  12.509 -0.6758 -0.1744 -0.5695
  148MPD2     C 2253   0.046   2.072  10.172 -0.0168  0.5960  0.9489
  148MPD2    C1 2254   0.108   2.184  10.140  0.0559  0.2950  0.3467
  148MPD2    C2 2255   0.036   2.296  10.099  0.1600 -0.3104 -0.8705
  148MPD2    C3 2256   4.619   2.290  10.118 -0.0711 -0.1156  0.4638
  148MPD2    C4 2257   4.560   2.175  10.158 -0.3342  0.1817  0.0390
  148MPD2    C5 2258   4.633   2.069  10.185  0.0300  0.5855 -0.3511
  148MPD2     H 2259   0.095   2.385  10.083  1.7752 -1.0526  0.9561
  148MPD2    H1 2260   4.454   2.161  10.174 -0.0798  1.5146  2.8083
  148MPD2    H2 2261   0.103   1.984  10.201 -0.8498 -0.1234  0.4239
  148MPD2    H3 2262   4.584   1.974  10.204  0.0909  1.0333  2.0048
  148MPD2     N 2263   4.537   2.404  10.115  0.2147 -0.2838 -0.3098
  148MPD2    H5 2264   4.440   2.379  10.136  0.2939 -1.4102 -1.3118
  148MPD2    N1 2265   0.249   2.190  10.141 -0.3153 -0.3435 -0.7620
  148MPD2    H7 2266   0.299   2.278  10.137 -0.1836 -0.3203  1.3435
  149TCq2    C1 2267   0.334   2.082  10.140  0.0838 -0.0434 -0.1570
  149TCq2    O2 2268   0.319   1.962  10.111  0.3404 -0.4687 -0.9791
  149TCq2    C2 2269   0.470   2.126  10.168 -0.3247  0.5201  0.2965
  149TCq2    C3 2270   0.499   2.224  10.260  0.1745 -0.3108  0.4182
  149TCq2    C4 2271   0.631   2.243  10.306 -0.7083 -0.0226  0.1911
  149TCq2    C5 2272   0.732   2.191  10.226 -0.8128 -0.0900 -0.4331
  149TCq2    C6 2273   0.702   2.089  10.139 -0.2986 -0.1742 -0.2692
  149TCq2    C7 2274   0.573   2.047  10.126  0.5836  0.5958  0.0797
  149TCq2    C8 2275   0.761   2.077  10.006 -0.0152 -1.3643  0.3667
  149TCq2    O4 2276   0.748   1.971   9.949 -0.6549 -0.0204 -0.2509
  149TCq2    C9 2277   0.663   2.373  10.365 -0.6130 -0.7797 -0.4844
  149TCq2    O5 2278   0.779   2.422  10.340  0.1393 -0.2205 -0.3045
  149TCq2    O6 2279   0.562   2.439  10.404  0.6446  0.1019 -0.4527
  149TCq2    H2 2280   0.425   2.290  10.305  0.0089 -0.0882 -0.1846
  149TCq2    H3 2281   0.833   2.230  10.233 -0.5142 -0.8544 -0.4107
  149TCq2    H4 2282   0.549   1.974  10.049 -0.0360 -0.6993  1.5207
  150MPD2     C 2283   1.541   2.821  12.343  0.1879  0.6056 -0.1343
  150MPD2    C1 2284   1.615   2.740  12.257  1.0872 -0.6557  0.3987
  150MPD2    C2 2285   1.744   2.706  12.294  0.2073 -0.1327  0.0433
  150MPD2    C3 2286   1.800   2.757  12.409 -0.2765 -0.0337  0.5948
  150MPD2    C4 2287   1.725   2.832  12.500 -0.1912  0.0918  0.6724
  150MPD2    C5 2288   1.595   2.869  12.458  0.3742  0.4696 -0.1755
  150MPD2     H 2289   1.802   2.631  12.242 -0.5397 -1.5247  1.2248
  150MPD2    H1 2290   1.753   2.863  12.600 -0.5098 -1.8039  1.3484
  150MPD2    H2 2291   1.437   2.839  12.319  0.2035 -0.5508 -1.0989
  150MPD2    H3 2292   1.536   2.915  12.536  0.7731  1.7659 -0.6439
  150MPD2     N 2293   1.940   2.727  12.432 -0.3444 -0.2477  0.0734
  150MPD2    H5 2294   1.990   2.667  12.368 -0.4181  0.7587 -0.9237
  150MPD2    N1 2295   1.549   2.678  12.148  0.2741  0.3663 -0.2183
  150MPD2    H7 2296   1.450   2.697  12.141  0.6650  3.1527  1.8698
  151TCq2    C1 2297   2.014   2.783  12.533  0.5483 -0.2260  0.1659
  151TCq2    O2 2298   1.987   2.856  12.628  0.0625 -0.0857 -0.2035
  151TCq2    C2 2299   2.157   2.762  12.526 -0.2026  0.2228 -0.8564
  151TCq2    C3 2300   2.206   2.723  12.402 -0.0328  0.4000  0.8559
  151TCq2    C4 2301   2.324   2.649  12.400 -0.7904 -0.3810  0.1782
  151TCq2    C5 2302   2.392   2.618  12.521 -0.6142  0.4105  0.5679
  151TCq2    C6 2303   2.342   2.669  12.640 -0.7657  0.5131  0.1053
  151TCq2    C7 2304   2.226   2.733  12.643 -0.4703 -0.4589  0.3896
  151TCq2    C8 2305   2.409   2.640  12.765  0.3732 -0.9240 -0.2931
  151TCq2    O4 2306   2.334   2.616  12.863  0.2869  0.2312 -0.0108
  151TCq2    C9 2307   2.391   2.603  12.282  0.1017 -0.2498  0.8767
  151TCq2    O5 2308   2.501   2.538  12.301  0.0464 -0.1592  0.4742
  151TCq2    O6 2309   2.345   2.631  12.169 -0.4939 -0.0601 -0.1082
  151TCq2    H2 2310   2.151   2.737  12.309  0.9920  0.2471  0.2242
  151TCq2    H3 2311   2.476   2.550  12.529  0.4076  1.5969 -0.0797
  151TCq2    H4 2312   2.190   2.767  12.740  0.3876  0.1780  0.4808
  152MPD2     C 2313   1.290   2.913  12.797 -0.3692  0.0065  0.4681
  152MPD2    C1 2314   1.348   2.800  12.749 -0.8819  0.8464  0.0250
  152MPD2    C2 2315   1.291   2.736  12.640  0.2314  0.8230 -0.6269
  152MPD2    C3 2316   1.166   2.773  12.591 -0.0132 -0.3441  0.2992
  152MPD2    C4 2317   1.107   2.895  12.635  0.3696 -0.7027  0.1234
  152MPD2    C5 2318   1.173   2.958  12.738 -0.4291  0.2254  0.3775
  152MPD2     H 2319   1.336   2.651  12.588  0.7041  0.3028  0.6367
  152MPD2    H1 2320   1.013   2.940  12.606  1.2522  1.3629  0.4549
  152MPD2    H2 2321   1.328   2.972  12.880  0.7630 -0.5733  0.3530
  152MPD2    H3 2322   1.130   3.053  12.768 -0.7458 -0.1908  1.2214
  152MPD2     N 2323   1.104   2.686  12.496  0.4168 -0.0134  0.3944
  152MPD2    H5 2324   1.164   2.612  12.460  1.1014 -0.3102  2.1449
  152MPD2    N1 2325   1.481   2.760  12.796 -0.2571 -0.3639 -0.0776
  152MPD2    H7 2326   1.529   2.819  12.864  0.4379  0.7579 -1.5427
  153TCq2    C1 2327   1.558   2.651  12.754 -0.1547 -0.1784  0.4900
  153TCq2    O2 2328   1.520   2.576  12.667  0.8029 -0.2752 -0.2209
  153TCq2    C2 2329   1.699   2.651  12.785  0.2365  0.5310 -1.0536
  153TCq2    C3 2330   1.770   2.546  12.736  0.6928 -0.7573  0.5018
  153TCq2    C4 2331   1.907   2.538  12.774  0.4152  0.1162  0.4850
  153TCq2    C5 2332   1.966   2.628  12.858  0.3669 -0.1556 -0.2875
  153TCq2    C6 2333   1.877   2.723  12.905  0.0781 -0.2439  0.1162
  153TCq2    C7 2334   1.746   2.741  12.871 -0.5272  0.2918  0.1637
  153TCq2    C8 2335   1.935   2.822  13.002 -0.1467 -0.1870  0.8602
  153TCq2    O4 2336   1.857   2.897  13.056 -0.1671  1.0191 -0.4171
  153TCq2    C9 2337   1.993   2.431  12.724  0.7880 -0.2238 -0.1626
  153TCq2    O5 2338   2.118   2.443  12.737  0.0162 -0.7583  0.2896
  153TCq2    O6 2339   1.932   2.324  12.696  0.4039  0.8346  0.3303
  153TCq2    H2 2340   1.729   2.466  12.676  0.1086 -0.8388  1.0115
  153TCq2    H3 2341   2.066   2.615  12.897 -0.2644  1.2902  1.8239
  153TCq2    H4 2342   1.688   2.822  12.915  0.7729  1.0116  0.5337
  154MPD2     C 2343   2.801   3.059   0.555 -0.6679  0.8220  0.2287
  154MPD2    C1 2344   2.856   3.042   0.683  0.2659 -0.3557 -0.2941
  154MPD2    C2 2345   2.793   3.103   0.790 -0.6423  0.0848  0.3180
  154MPD2    C3 2346   2.662   3.149   0.775 -0.4950  0.1638 -0.6407
  154MPD2    C4 2347   2.620   3.162   0.645 -0.1547  0.8801  0.1303
  154MPD2    C5 2348   2.685   3.125   0.534  0.0972  0.8279 -0.6019
  154MPD2     H 2349   2.828   3.091   0.891  0.2945  1.1567  0.1125
  154MPD2    H1 2350   2.526   3.214   0.628 -0.6451  0.1108  0.4753
  154MPD2    H2 2351   2.845   3.013   0.468 -0.2464 -1.1123  1.4513
  154MPD2    H3 2352   2.647   3.138   0.434  0.7712 -1.4584 -1.1626
  154MPD2     N 2353   2.587   3.175   0.890  0.2191 -0.0162  0.4087
  154MPD2    H5 2354   2.630   3.142   0.976  0.4494  1.0494  0.7041
  154MPD2    N1 2355   2.971   2.961   0.697 -0.8092 -0.0952  0.9780
  154MPD2    H7 2356   3.004   2.916   0.612 -1.0718 -0.3452  1.0101
  155TCq2    C1 2357   3.026   2.924   0.818 -0.2174 -0.2019  0.3521
  155TCq2    O2 2358   2.995   2.954   0.936  1.0278 -0.0030  0.6824
  155TCq2    C2 2359   3.128   2.822   0.810  0.2180  0.0770 -1.0156
  155TCq2    C3 2360   3.166   2.759   0.925 -1.3391  0.3314 -0.0870
  155TCq2    C4 2361   3.229   2.640   0.923 -0.6146  0.4296  1.0319
  155TCq2    C5 2362   3.274   2.604   0.800  0.3892 -0.1138 -0.0436
  155TCq2    C6 2363   3.257   2.681   0.685 -0.0177 -0.2486  0.9020
  155TCq2    C7 2364   3.183   2.798   0.690 -0.1327  0.3751 -0.3614
  155TCq2    C8 2365   3.272   2.628   0.552  0.0760  0.4662 -0.2262
  155TCq2    O4 2366   3.243   2.701   0.454 -0.0872  0.2939  0.2204
  155TCq2    C9 2367   3.246   2.558   1.041 -0.1252  1.0387  0.5210
  155TCq2    O5 2368   3.332   2.466   1.038  0.4166  0.4577 -0.0750
  155TCq2    O6 2369   3.184   2.598   1.147  0.2500  0.7134  0.0696
  155TCq2    H2 2370   3.116   2.784   1.018  1.4830 -1.2433  1.8764
  155TCq2    H3 2371   3.324   2.508   0.799  2.1722  0.8054  0.5177
  155TCq2    H4 2372   3.187   2.864   0.604  1.3057 -0.1152 -0.6733
  156MPD2     C 2373   1.754   4.125  12.253 -0.2156 -0.7379  0.0962
  156MPD2    C1 2374   1.751   4.237  12.169 -0.1894 -0.6115  0.3015
  156MPD2    C2 2375   1.745   4.363  12.221 -0.3973  1.1334  0.4455
  156MPD2    C3 2376   1.758   4.378  12.359  0.2349  0.0556  0.1830
  156MPD2    C4 2377   1.762   4.266  12.444 -0.1542 -0.3968  0.2677
  156MPD2    C5 2378   1.748   4.141  12.390  0.1315  0.0320 -0.0256
  156MPD2     H 2379   1.723   4.448  12.158  0.2232  2.0551  1.4797
  156MPD2    H1 2380   1.777   4.268  12.551  2.1952  2.9952 -0.1708
  156MPD2    H2 2381   1.754   4.021  12.223 -1.2441 -0.9412  0.7732
  156MPD2    H3 2382   1.743   4.051  12.450  0.0626 -0.3034 -0.5335
  156MPD2     N 2383   1.730   4.511  12.402 -1.3693 -0.5619  0.0745
  156MPD2    H5 2384   1.718   4.580  12.329  1.0343 -1.5352 -1.2433
  156MPD2    N1 2385   1.727   4.209  12.037  0.7508  0.4177 -0.0956
  156MPD2    H7 2386   1.730   4.114  12.001 -0.8771 -0.2610  1.5860
  157TCq2    C1 2387   1.672   4.299  11.949 -0.3184  0.0045  0.2331
  157TCq2    O2 2388   1.636   4.414  11.963 -0.4812  0.1470 -0.3745
  157TCq2    C2 2389   1.656   4.241  11.815 -0.0381  0.0237  0.2812
  157TCq2    C3 2390   1.759   4.173  11.758 -0.0567 -0.3259  0.0093
  157TCq2    C4 2391   1.755   4.165  11.620 -0.0547 -0.1630 -0.2372
  157TCq2    C5 2392   1.656   4.219  11.543  0.0348  0.5073 -0.1437
  157TCq2    C6 2393   1.565   4.301  11.607 -0.2583 -0.0828 -0.2565
  157TCq2    C7 2394   1.562   4.307  11.742 -1.1362  0.0688  0.3301
  157TCq2    C8 2395   1.524   4.417  11.539  0.4514 -0.0272 -0.4050
  157TCq2    O4 2396   1.523   4.526  11.595 -0.1698 -0.1937 -0.2768
  157TCq2    C9 2397   1.875   4.120  11.551 -0.1004  0.0209 -0.1732
  157TCq2    O5 2398   1.972   4.113  11.630  0.2374  0.4950 -0.0587
  157TCq2    O6 2399   1.879   4.147  11.427  0.0273 -0.5228 -0.3053
  157TCq2    H2 2400   1.841   4.156  11.826  0.3717 -0.7215 -0.6041
  157TCq2    H3 2401   1.669   4.237  11.437 -0.4292  1.2005 -0.0831
  157TCq2    H4 2402   1.486   4.361  11.797 -1.7518  3.4451 -3.7697
  158TMC2    C1 2403   2.645   3.127  13.830  0.5835  0.3255 -0.7866
  158TMC2    C2 2404   2.702   3.079  13.713  0.2871  0.1913 -0.9291
  158TMC2    C3 2405   2.636   3.109  13.600  0.3187  0.1117 -0.5692
  158TMC2    C4 2406   2.543   3.212  13.833  1.1920  0.3989 -0.1558
  158TMC2    C5 2407   2.491   3.258  13.708  0.1424 -0.0016  0.0175
  158TMC2    C6 2408   2.533   3.197  13.590 -0.4063 -0.3238 -0.2007
  158TMC2     C 2409   2.653   3.047  13.949  0.1503 -0.3082  0.4328
  158TMC2     O 2410   2.762   3.032  14.004  0.6716 -0.0409  0.0222
  158TMC2     H 2411   2.781   3.005  13.714 -0.3571 -0.4664  1.3376
  158TMC2    H1 2412   2.496   3.259  13.919 -2.6750 -0.2511 -1.9238
  158TMC2    H2 2413   2.473   3.203  13.500 -0.3001  0.2298 -0.2328
  158TMC2    C7 2414   2.354   3.296  13.698 -0.5826  0.6285 -0.6285
  158TMC2    C8 2415   2.685   3.055  13.475 -0.0292 -0.2170  0.9141
  158TMC2    O1 2416   2.293   3.274  13.594 -0.4885 -0.0420  0.3932
  158TMC2    O2 2417   2.679   3.132  13.379  0.2084 -0.1666 -0.2018
  158TMC2    O5 2418   2.644   2.929  13.474  0.1825  0.4461 -0.0325
  158TMC2    H5 2419   2.638   2.898  13.567  1.0350  0.3008 -0.0292
  159MPD2     C 2420   2.422   2.924  14.389  0.4227  0.1007  0.1658
  159MPD2    C1 2421   2.331   2.927  14.291 -0.2954 -0.6018 -0.5889
  159MPD2    C2 2422   2.365   2.945  14.161  0.6796 -0.5764  0.0322
  159MPD2    C3 2423   2.498   2.982  14.133  0.1084  0.0008 -0.5524
  159MPD2    C4 2424   2.592   2.988  14.231 -0.6387 -0.2242  0.2352
  159MPD2    C5 2425   2.551   2.956  14.360 -0.3448 -0.2348  0.0916
  159MPD2     H 2426   2.292   2.939  14.082 -0.0487  1.6725  0.5259
  159MPD2    H1 2427   2.697   3.008  14.212 -0.4168 -1.7261 -0.1753
  159MPD2    H2 2428   2.396   2.911  14.494  1.1435  0.7958  0.4290
  159MPD2    H3 2429   2.625   2.964  14.439 -0.0044 -0.9209 -0.1578
  159MPD2     N 2430   2.527   3.014  13.996  0.4440 -0.5091  0.4253
  159MPD2    H5 2431   2.448   3.020  13.933  2.4613  1.2859 -1.9424
  159MPD2    N1 2432   2.203   2.917  14.336  0.0257  0.0166 -0.3143
  159MPD2    H7 2433   2.187   2.917  14.436  0.5071  0.4972 -0.2369
  160TMC2    C1 2434   1.221   2.359   1.970  0.1720 -0.5249  0.4022
  160TMC2    C2 2435   1.264   2.244   2.033  0.0022  0.0587  0.3807
  160TMC2    C3 2436   1.368   2.179   1.984 -0.2659 -0.2199 -0.1246
  160TMC2    C4 2437   1.271   2.399   1.851 -0.3742 -0.3626  0.2183
  160TMC2    C5 2438   1.367   2.320   1.802 -0.2057  0.5675  0.1243
  160TMC2    C6 2439   1.423   2.215   1.864 -0.4300 -0.3073  0.0805
  160TMC2     C 2440   1.141   2.444   2.042 -0.1233 -0.6020  0.1593
  160TMC2     O 2441   1.123   2.411   2.160  0.3867 -0.6193 -0.1441
  160TMC2     H 2442   1.214   2.209   2.122  0.1901  1.5338  1.0710
  160TMC2    H1 2443   1.236   2.486   1.798  0.2559 -2.3204 -3.4018
  160TMC2    H2 2444   1.484   2.143   1.809 -1.1202 -0.9840  0.2052
  160TMC2    C7 2445   1.389   2.338   1.658  0.4576 -0.4422 -0.2838
  160TMC2    C8 2446   1.404   2.055   2.054  0.3141  0.8155  0.1703
  160TMC2    O1 2447   1.296   2.375   1.588  0.1160 -0.0599  0.6756
  160TMC2    O2 2448   1.335   2.010   2.146 -0.1029  0.1437 -0.3582
  160TMC2    O5 2449   1.536   2.057   2.038  0.8147  0.5179 -0.6126
  160TMC2    H5 2450   1.566   2.123   1.971 -2.5349  1.0498 -1.5880
  161MPD2     C 2451   0.928   2.636   2.131 -0.3299  0.0968 -0.3257
  161MPD2    C1 2452   0.953   2.602   2.000  0.0476 -0.1000  0.4387
  161MPD2    C2 2453   0.880   2.659   1.901  0.0009  0.4339 -0.1350
  161MPD2    C3 2454   0.762   2.725   1.931 -0.4662 -0.2465 -0.9167
  161MPD2    C4 2455   0.726   2.742   2.064 -0.4655 -0.7863 -0.0327
  161MPD2    C5 2456   0.814   2.707   2.163 -0.2642  0.9233  0.2833
  161MPD2     H 2457   0.906   2.627   1.801  1.3074  0.7958  0.0909
  161MPD2    H1 2458   0.628   2.776   2.096  1.3770  1.9268  2.7208
  161MPD2    H2 2459   0.976   2.601   2.221 -2.3705 -0.8068  0.4174
  161MPD2    H3 2460   0.794   2.725   2.268  1.4721 -0.1012  0.8023
  161MPD2     N 2461   0.676   2.783   1.837  0.0122 -0.1375  0.4255
  161MPD2    H5 2462   0.593   2.829   1.873  0.2826  1.1430 -0.5900
  161MPD2    N1 2463   1.063   2.522   1.958  0.5154 -0.2425  0.2285
  161MPD2    H7 2464   1.078   2.524   1.858  1.5591  0.9821  0.4155
  162TMC2    C1 2465   3.487   4.396   0.851  0.2629 -0.3106  0.0758
  162TMC2    C2 2466   3.389   4.485   0.819  0.7753 -0.2836  0.0984
  162TMC2    C3 2467   3.268   4.476   0.873 -0.7324 -0.4866  0.6387
  162TMC2    C4 2468   3.466   4.303   0.952  0.5336  0.4735 -0.3538
  162TMC2    C5 2469   3.342   4.300   1.009 -0.1211 -0.3633  0.9215
  162TMC2    C6 2470   3.239   4.383   0.971  0.4035 -0.4174  0.3465
  162TMC2     C 2471   3.621   4.401   0.788 -0.2746 -0.5426  0.3984
  162TMC2     O 2472   3.674   4.291   0.767 -0.2119  0.5809 -0.3812
  162TMC2     H 2473   3.420   4.560   0.747 -0.0433 -1.4176 -1.4544
  162TMC2    H1 2474   3.551   4.243   0.981  1.1082  0.4150 -2.1495
  162TMC2    H2 2475   3.137   4.371   1.006 -0.1135  0.5215 -0.8379
  162TMC2    C7 2476   3.312   4.222   1.126 -0.0532  0.0827 -0.0741
  162TMC2    C8 2477   3.162   4.552   0.815  0.5591  0.3821 -0.3166
  162TMC2    O1 2478   3.205   4.246   1.184  0.0658  0.0138 -0.2401
  162TMC2    O2 2479   3.051   4.508   0.849  0.7066  0.2678  0.7109
  162TMC2    O5 2480   3.210   4.682   0.825 -0.7214  0.5755  0.2378
  162TMC2    H5 2481   3.306   4.678   0.806 -0.6335 -0.2747  0.8680
  163MPD2     C 2482   3.985   4.666   0.543 -0.4816  0.4300 -0.3976
  163MPD2    C1 2483   3.956   4.527   0.546 -0.1184  0.5599  0.2921
  163MPD2    C2 2484   3.845   4.483   0.622  0.7354  0.7197  0.5829
  163MPD2    C3 2485   3.765   4.574   0.688  0.1481  0.0837  0.2497
  163MPD2    C4 2486   3.779   4.711   0.666  0.2449  0.3746 -0.2698
  163MPD2    C5 2487   3.896   0.029   0.606  0.2473  0.1327 -0.4290
  163MPD2     H 2488   3.814   4.380   0.635  0.0582  0.8109 -0.3101
  163MPD2    H1 2489   3.714   0.060   0.714 -1.0523  0.0112 -1.4735
  163MPD2    H2 2490   4.062   4.709   0.480 -1.0621 -3.0662 -3.4870
  163MPD2    H3 2491   3.910   0.136   0.606  1.1651  0.0082 -0.9109
  163MPD2     N 2492   3.656   4.530   0.764 -0.4063 -0.2262  0.5524
  163MPD2    H5 2493   3.598   4.607   0.796 -2.2762 -0.8296 -1.3979
  163MPD2    N1 2494   4.045   4.438   0.485 -0.0446  0.5937 -0.1178
  163MPD2    H7 2495   4.129   4.479   0.444  0.4179  1.7959  2.0020
  164TCq2    C1 2496   0.410   3.091  11.156  0.5813  0.1472  1.2140
  164TCq2    O2 2497   0.312   3.085  11.224  0.3953  0.1659 -0.0176
  164TCq2    C2 2498   0.456   3.219  11.105  0.4793  0.3897 -0.3131
  164TCq2    C3 2499   0.573   3.225  11.037 -0.4829  0.0214 -0.4746
  164TCq2    C4 2500   0.599   3.350  10.986 -0.2273 -0.0809 -0.1719
  164TCq2    C5 2501   0.521   3.460  10.998 -0.9102 -0.4213 -0.2451
  164TCq2    C6 2502   0.399   3.441  11.055  0.1053  0.3723 -0.0800
  164TCq2    C7 2503   0.365   3.324  11.119  0.1260  0.1144  0.0488
  164TCq2    C8 2504   0.303   3.544  11.074  0.0016 -0.0857 -0.9466
  164TCq2    O4 2505   0.276   3.614  10.979  0.3393  0.1068 -0.7342
  164TCq2    C9 2506   0.726   3.374  10.923 -0.5806 -0.1993  0.4617
  164TCq2    O5 2507   0.805   3.282  10.927 -0.3785  1.2761  0.0270
  164TCq2    O6 2508   0.746   3.494  10.887 -0.6898 -0.1269  0.0016
  164TCq2    H2 2509   0.649   3.147  11.033  1.7572  2.2348 -1.3108
  164TCq2    H3 2510   0.539   3.558  10.955  1.4250 -0.2329  1.1545
  164TCq2    H4 2511   0.267   3.305  11.160 -0.8009 -3.1852 -3.6405
  165MPD2     C 2512   0.345   1.324   1.564 -0.3314 -0.0128  0.1758
  165MPD2    C1 2513   0.344   1.305   1.426  0.3137 -0.0141  0.5315
  165MPD2    C2 2514   0.419   1.380   1.343 -0.1039  0.1610 -0.6053
  165MPD2    C3 2515   0.508   1.478   1.388 -0.2546  0.0961 -0.3796
  165MPD2    C4 2516   0.515   1.495   1.528 -0.4760 -0.3606 -0.2464
  165MPD2    C5 2517   0.437   1.418   1.609  0.2140 -0.2369 -0.3958
  165MPD2     H 2518   0.406   1.365   1.236 -0.2806 -0.7977 -0.4471
  165MPD2    H1 2519   0.577   1.571   1.575 -0.2460  0.7842 -2.3978
  165MPD2    H2 2520   0.282   1.278   1.639  1.2329  0.9403  2.1119
  165MPD2    H3 2521   0.442   1.437   1.716 -1.1071 -1.7039 -0.0761
  165MPD2     N 2522   0.573   1.572   1.308  0.1024  0.1995 -0.4230
  165MPD2    H5 2523   0.633   1.644   1.347 -0.5842  0.5127  0.0461
  165MPD2    N1 2524   0.262   1.199   1.387  0.6215 -0.2511 -0.1157
  165MPD2    H7 2525   0.241   1.122   1.450 -0.0023 -0.0832 -0.1179
  166TCq2    C1 2526   0.572   1.578   1.168 -0.5620  0.2573  0.2902
  166TCq2    O2 2527   0.537   1.490   1.091 -0.1148  0.2700 -0.2000
  166TCq2    C2 2528   0.662   1.680   1.113 -0.0820  0.0075  0.1595
  166TCq2    C3 2529   0.678   1.684   0.983 -0.3594 -0.6115 -0.1358
  166TCq2    C4 2530   0.762   1.775   0.919 -0.8058 -0.3857  0.2497
  166TCq2    C5 2531   0.834   1.862   0.992 -0.2079 -0.0267  0.1680
  166TCq2    C6 2532   0.811   1.865   1.126  0.2387 -1.1286 -0.0275
  166TCq2    C7 2533   0.725   1.779   1.188  0.0604 -0.1449  0.4517
  166TCq2    C8 2534   0.919   1.938   1.198  0.9427  0.3137  0.3150
  166TCq2    O4 2535   1.030   1.938   1.142  0.7634 -0.5967 -0.3582
  166TCq2    C9 2536   0.767   1.771   0.770 -0.4560 -0.2566 -0.1365
  166TCq2    O5 2537   0.724   1.665   0.720  0.3455 -0.2461 -0.4320
  166TCq2    O6 2538   0.820   1.867   0.715  0.6355  0.3027 -0.2312
  166TCq2    H2 2539   0.637   1.605   0.921  0.1504 -0.6189 -0.4680
  166TCq2    H3 2540   0.881   1.948   0.946 -0.8373 -0.9453 -2.1864
  166TCq2    H4 2541   0.736   1.767   1.295 -0.1170 -3.4188  0.0999
  167TMC2    C1 2542   3.800   4.210  12.332 -0.7510  0.0431 -0.0739
  167TMC2    C2 2543   3.700   4.285  12.382  0.6053  0.4110 -0.4563
  167TMC2    C3 2544   3.675   4.266  12.518 -0.8117 -0.4789  0.2873
  167TMC2    C4 2545   3.867   4.118  12.408 -0.8156  0.0362  0.0723
  167TMC2    C5 2546   3.843   4.119  12.538 -0.2007  0.0153 -0.5073
  167TMC2    C6 2547   3.755   4.198  12.605 -0.0398  0.7980 -0.2740
  167TMC2     C 2548   3.848   4.228  12.194  0.6621 -0.2775  0.1946
  167TMC2     O 2549   3.794   4.321  12.137 -0.0385  0.8352 -0.2454
  167TMC2     H 2550   3.657   4.359  12.316  1.3839  1.4867  0.2360
  167TMC2    H1 2551   3.948   4.060  12.365 -1.7539 -3.1423  2.6305
  167TMC2    H2 2552   3.736   4.191  12.711 -0.9512 -0.2621 -0.5089
  167TMC2    C7 2553   3.928   4.036  12.622  0.6139 -0.4669 -0.0305
  167TMC2    C8 2554   3.560   4.335  12.573  0.2091 -0.4446  0.1256
  167TMC2    O1 2555   3.939   4.081  12.737  0.0112  0.4346 -0.1504
  167TMC2    O2 2556   3.516   4.291  12.678  0.2066 -0.2899  0.4626
  167TMC2    O5 2557   3.592   4.468  12.557 -0.7085  0.4126  0.1322
  167TMC2    H5 2558   3.642   4.472  12.472 -2.6908 -1.3399 -1.0903
  168MPD2     C 2559   4.001   4.244  11.937  0.7758 -0.5038 -0.3422
  168MPD2    C1 2560   3.993   4.128  12.014 -0.0165 -0.2803 -0.1056
  168MPD2    C2 2561   4.036   4.007  11.963 -0.2191  0.3675  0.4255
  168MPD2    C3 2562   4.083   4.005  11.834  0.0101 -0.5829 -0.1738
  168MPD2    C4 2563   4.096   4.120  11.757  0.0628  0.5644 -0.2637
  168MPD2    C5 2564   4.046   4.241  11.805 -0.0878  0.0130  0.0733
  168MPD2     H 2565   4.023   3.920  12.027 -0.9358  1.6824  2.0758
  168MPD2    H1 2566   4.139   4.129  11.658  0.5653  0.2636 -0.0714
  168MPD2    H2 2567   3.967   4.341  11.972 -1.3007 -1.6628  0.8260
  168MPD2    H3 2568   4.053   4.333  11.748  1.2360 -0.4675 -0.5357
  168MPD2     N 2569   4.106   3.881  11.761 -0.0721 -0.1352  0.3655
  168MPD2    H5 2570   4.137   3.895  11.666  0.0997 -2.0657  0.1261
  168MPD2    N1 2571   3.928   4.127  12.139 -0.2321  1.0945  0.4316
  168MPD2    H7 2572   3.946   4.045  12.196  1.4671  1.8199  0.9125
  169MPD1     C 2573   1.786   3.263   8.849 -0.6663 -0.6167  1.1340
  169MPD1    C1 2574   1.896   3.301   8.926  0.0213  0.3135  0.3074
  169MPD1    C2 2575   1.919   3.227   9.040 -0.7786  0.2630  0.0668
  169MPD1    C3 2576   1.832   3.117   9.078 -0.0353 -0.0981 -0.0614
  169MPD1    C4 2577   1.724   3.084   9.001  0.0895 -0.6078 -0.1668
  169MPD1    C5 2578   1.700   3.160   8.888 -0.2345  0.6296  0.1810
  169MPD1     H 2579   2.009   3.243   9.099 -2.3225  2.4194  1.8343
  169MPD1    H1 2580   1.665   2.998   9.030 -0.5553  0.0124  0.3691
  169MPD1    H2 2581   1.747   3.322   8.767  0.0107 -0.7594  0.7015
  169MPD1    H3 2582   1.605   3.140   8.840 -0.5645  1.2052  0.5775
  169MPD1     N 2583   1.875   3.033   9.190 -0.8657  0.7400  0.3888
  169MPD1    H5 2584   1.955   3.066   9.244 -0.9157 -0.5542  1.2513
  169MPD1    N1 2585   1.956   3.429   8.913  0.1750  0.7035  0.6010
  169MPD1    H6 2586   1.967   3.443   8.813  1.6287 -1.1606  0.4891
  169MPD1    H7 2587   2.049   3.432   8.954 -0.3803  1.0324  1.8289
  170MPD1     C 2588   4.265   1.041  13.231  0.4296  0.1411 -0.1791
  170MPD1    C1 2589   4.276   1.001  13.364  0.4341 -0.4299  0.1778
  170MPD1    C2 2590   4.396   1.028  13.426 -0.6008  0.2675 -0.3200
  170MPD1    C3 2591   4.509   1.076  13.366  0.8840 -0.2256  0.0633
  170MPD1    C4 2592   4.491   1.119  13.234 -0.1769 -0.2458 -0.5039
  170MPD1    C5 2593   4.375   1.097  13.171 -0.0490  0.1950 -0.0465
  170MPD1     H 2594   4.411   0.993  13.527 -0.8104 -0.1391 -0.4284
  170MPD1    H1 2595   4.571   1.169  13.180  0.1895 -0.9141 -0.5864
  170MPD1    H2 2596   4.182   1.029  13.163  0.8080  1.3816 -0.8631
  170MPD1    H3 2597   4.365   1.135  13.070  0.6278 -0.8096 -0.4893
  170MPD1     N 2598   4.633   1.093  13.430 -0.3041  0.0989  0.1746
  170MPD1    H5 2599   4.636   1.044  13.519 -0.5209 -0.9913 -0.4136
  170MPD1    N1 2600   4.165   0.926  13.412  0.0890 -0.0816  0.1647
  170MPD1    H6 2601   4.074   0.953  13.375  1.0621  1.8273 -0.8805
  170MPD1    H7 2602   4.144   0.924  13.511 -0.2742  0.6863  0.1090
  171MPD1     C 2603   3.750   2.326  15.586 -0.0294  0.1044  0.0072
  171MPD1    C1 2604   3.699   2.209  15.542  0.5013 -0.3942 -0.8413
  171MPD1    C2 2605   3.758   2.089  15.584  0.8445 -0.1902  0.8124
  171MPD1    C3 2606   3.884   2.090  15.644  0.3591 -0.6668  0.2250
  171MPD1    C4 2607   3.943   2.211  15.665  0.1363  0.1261  0.2466
  171MPD1    C5 2608   3.878   2.325  15.642 -0.4753 -0.4173 -0.1113
  171MPD1     H 2609   3.706   1.995  15.569  1.5007 -0.4083 -0.1160
  171MPD1    H1 2610   4.047   2.214  15.694 -0.4056  1.6208  2.0779
  171MPD1    H2 2611   3.702   2.423  15.578  0.7804  0.5300  0.2594
  171MPD1    H3 2612   3.927   2.420  15.663 -0.7196 -0.2926 -0.0995
  171MPD1     N 2613   3.953   1.980  15.686 -0.5725  0.2209  0.0382
  171MPD1    H5 2614   4.041   1.999  15.733 -1.7225 -0.1663  2.3314
  171MPD1    N1 2615   3.565   2.205  15.500 -0.0855  1.4642 -0.2143
  171MPD1    H6 2616   3.537   2.284  15.442 -0.7637 -0.3923 -2.4195
  171MPD1    H7 2617   3.548   2.117  15.450 -1.1121  1.7720 -0.4127
  172MPD1     C 2618   2.271   0.687   0.948  0.2488  0.3309  0.9497
  172MPD1    C1 2619   2.250   0.812   1.002  0.7010 -0.3563 -0.6770
  172MPD1    C2 2620   2.349   0.910   0.982  0.9035 -0.0738 -0.5437
  172MPD1    C3 2621   2.460   0.884   0.898  0.2320  0.2512 -0.1849
  172MPD1    C4 2622   2.463   0.763   0.833 -0.0623 -0.1792  0.6023
  172MPD1    C5 2623   2.368   0.671   0.860  0.6632  0.2310 -0.0346
  172MPD1     H 2624   2.338   1.007   1.030  1.4706  0.4827 -1.5237
  172MPD1    H1 2625   2.537   0.734   0.760  1.3293  1.6856  1.2642
  172MPD1    H2 2626   2.199   0.607   0.956  0.3076  0.5735  4.0094
  172MPD1    H3 2627   2.380   0.577   0.807 -2.8011 -1.1370  1.6046
  172MPD1     N 2628   2.568   0.971   0.889  0.1344 -0.5636  0.3571
  172MPD1    H5 2629   2.655   0.941   0.846  0.7383  1.3838  0.2202
  172MPD1    N1 2630   2.143   0.836   1.084  0.4604  0.0355 -0.1494
  172MPD1    H6 2631   2.066   0.775   1.058 -0.2551 -0.2970  2.8049
  172MPD1    H7 2632   2.115   0.934   1.087 -2.3023 -0.6886 -1.9830
  173MPD1     C 2633   4.163   1.541  14.161 -0.1402 -0.0652  0.3932
  173MPD1    C1 2634   4.032   1.528  14.136  0.8586  0.5815 -0.3557
  173MPD1    C2 2635   3.962   1.467  14.238 -0.5055  0.3755  0.4031
  173MPD1    C3 2636   4.006   1.420  14.354  0.5782 -0.1809  0.5974
  173MPD1    C4 2637   4.136   1.442  14.379  0.3464 -0.1968  0.2681
  173MPD1    C5 2638   4.212   1.503  14.284  0.1705  0.6245 -0.2564
  173MPD1     H 2639   3.855   1.459  14.223 -0.4452 -0.9835  0.6822
  173MPD1    H1 2640   4.188   1.418  14.471  0.3746 -1.7452 -0.1460
  173MPD1    H2 2641   4.231   1.590  14.093  0.2288 -1.0893  0.0289
  173MPD1    H3 2642   4.315   1.528  14.305  0.1398  2.3262 -2.0648
  173MPD1     N 2643   3.925   1.366  14.448  0.0254  0.1058  0.4040
  173MPD1    H5 2644   3.838   1.323  14.418 -0.7553  1.2241  1.0933
  173MPD1    N1 2645   3.984   1.562  14.006 -0.3672 -0.9327  0.5848
  173MPD1    H6 2646   3.894   1.607  13.995  0.7135  0.9825 -0.5013
  173MPD1    H7 2647   4.056   1.618  13.960 -1.4354  0.8201  1.0541
  174MPD1     C 2648   3.770   0.539  14.209  0.1396 -0.5819 -0.1025
  174MPD1    C1 2649   3.673   0.630  14.203  0.0215 -0.3468  0.3631
  174MPD1    C2 2650   3.668   0.735  14.290 -0.6011  0.2229  0.4722
  174MPD1    C3 2651   3.756   0.745  14.398  0.0855 -0.1706  0.3578
  174MPD1    C4 2652   3.847   0.640  14.401  0.1613  0.5696 -0.5421
  174MPD1    C5 2653   3.861   0.542  14.307 -0.5228  0.1826 -0.5259
  174MPD1     H 2654   3.591   0.811  14.280 -0.1131  0.6864  0.2363
  174MPD1    H1 2655   3.915   0.655  14.484  0.6407 -0.4295 -0.7516
  174MPD1    H2 2656   3.767   0.464  14.131 -2.0397 -0.3045 -0.2729
  174MPD1    H3 2657   3.936   0.465  14.316 -1.2594 -0.6391 -1.4066
  174MPD1     N 2658   3.769   0.849  14.494 -0.3380  0.2491  0.2479
  174MPD1    H5 2659   3.826   0.833  14.576 -1.0848 -0.4562  0.6353
  174MPD1    N1 2660   3.599   0.642  14.085  0.5597 -0.1935  0.1611
  174MPD1    H6 2661   3.524   0.708  14.103  1.8451  1.2230  0.4266
  174MPD1    H7 2662   3.568   0.558  14.038  0.0651  0.5500 -0.8476
  175MPD1     C 2663   2.619   1.993  15.699  0.2217  0.0943 -0.7176
  175MPD1    C1 2664   2.496   1.955  15.736  0.7029 -0.0375 -0.1828
  175MPD1    C2 2665   2.493   1.920  15.872 -0.1850  0.0769 -0.1596
  175MPD1    C3 2666   2.601   1.917  15.961  0.1672 -0.5435  0.8101
  175MPD1    C4 2667   2.724   1.944  15.907  0.5427  0.0060  0.8545
  175MPD1    C5 2668   2.727   1.988  15.779  0.5550 -0.4347  0.1696
  175MPD1     H 2669   2.402   1.871  15.902  0.2594 -1.5116 -1.4252
  175MPD1    H1 2670   2.815   1.930  15.964  0.5111 -0.5822  0.7634
  175MPD1    H2 2671   2.637   2.019  15.595  1.0753  1.5145 -0.2238
  175MPD1    H3 2672   2.822   2.020  15.738 -0.1831  0.6641 -0.6933
  175MPD1     N 2673   2.596   1.880  16.097  0.6187  0.6987  0.4350
  175MPD1    H5 2674   2.685   1.872  16.145  0.8228 -1.0777 -0.2394
  175MPD1    N1 2675   2.382   1.966  15.654 -0.3073  0.2635 -0.2248
  175MPD1    H6 2676   2.305   1.904  15.677 -1.9578  2.7568  0.9055
  175MPD1    H7 2677   2.408   1.970  15.556 -2.1371 -2.9969 -0.8629
  176MPD1     C 2678   0.228   3.993  17.066  0.5103 -0.3540  0.0495
  176MPD1    C1 2679   0.115   3.960  17.145  0.6928  0.1511  0.3632
  176MPD1    C2 2680   0.047   4.057  17.220 -0.2262  0.3736 -0.0873
  176MPD1    C3 2681   0.093   4.181  17.216 -0.4391 -0.5059  0.5950
  176MPD1    C4 2682   0.205   4.212  17.140  0.6020  0.2606 -0.1273
  176MPD1    C5 2683   0.272   4.119  17.065  0.0542 -0.7892 -0.0428
  176MPD1     H 2684   4.690   4.040  17.290 -0.7056  1.0831 -0.4543
  176MPD1    H1 2685   0.242   4.314  17.133  1.0902  0.4491  5.3858
  176MPD1    H2 2686   0.282   3.925  17.001  3.3257  0.1908  1.8300
  176MPD1    H3 2687   0.356   4.149  17.003 -0.7273 -1.4810 -1.4390
  176MPD1     N 2688   0.024   4.275  17.296  0.5288  0.1311  0.2679
  176MPD1    H5 2689   4.668   4.238  17.347 -0.3254 -0.3773 -1.4227
  176MPD1    N1 2690   0.101   3.823  17.160 -0.0954 -0.3389  0.0178
  176MPD1    H6 2691   0.135   3.764  17.084 -1.9169  2.1745 -2.7395
  176MPD1    H7 2692   0.015   3.789  17.204 -0.1213 -2.5901 -1.7630
  177MPD1     C 2693   3.389   3.669  10.071  0.4191  0.1675 -0.1625
  177MPD1    C1 2694   3.320   3.597   9.977  0.1544  0.6279  0.0251
  177MPD1    C2 2695   3.262   3.657   9.867  0.5462 -0.2966 -0.2610
  177MPD1    C3 2696   3.259   3.792   9.861 -0.6190  0.1380 -0.2449
  177MPD1    C4 2697   3.318   3.865   9.962 -0.1283 -0.7938 -0.2525
  177MPD1    C5 2698   3.393   3.804  10.059  0.4077 -0.3040 -0.6926
  177MPD1     H 2699   3.195   3.605   9.799  1.2410 -1.3010 -0.1757
  177MPD1    H1 2700   3.325   3.973   9.962 -3.7651 -0.5581 -2.6864
  177MPD1    H2 2701   3.445   3.609  10.142 -0.3206 -0.8210 -0.4160
  177MPD1    H3 2702   3.447   3.870  10.126 -2.1936  1.0450  0.0788
  177MPD1     N 2703   3.198   3.852   9.746 -0.3441 -0.4658 -0.1620
  177MPD1    H5 2704   3.168   3.792   9.669  0.9325  1.2320 -1.9934
  177MPD1    N1 2705   3.334   3.457   9.987 -0.2415 -1.0911 -0.5693
  177MPD1    H6 2706   3.249   3.409   9.958 -0.3241  0.3673 -2.7654
  177MPD1    H7 2707   3.346   3.411  10.077  1.3177 -0.1218 -0.2781
  178MPD1     C 2708   0.839   1.037  17.393  0.2159  0.0052  0.6876
  178MPD1    C1 2709   0.946   0.998  17.467 -0.0486 -0.0646  0.0157
  178MPD1    C2 2710   0.976   0.864  17.481  0.0400  0.5604  0.2817
  178MPD1    C3 2711   0.909   0.771  17.404  0.8088 -0.1077 -0.1126
  178MPD1    C4 2712   0.829   0.819  17.305 -0.8795 -0.2327 -0.5265
  178MPD1    C5 2713   0.799   0.948  17.296  0.1726  0.3949 -0.0995
  178MPD1     H 2714   1.051   0.831  17.553  1.3511  2.2774 -0.2914
  178MPD1    H1 2715   0.776   0.749  17.242  0.0713 -1.0944 -0.3768
  178MPD1    H2 2716   0.793   1.135  17.402  0.3881  0.1240  0.2366
  178MPD1    H3 2717   0.725   0.974  17.222  1.9080  0.7917 -1.6947
  178MPD1     N 2718   0.920   0.625  17.408 -0.0141  0.4532  0.0872
  178MPD1    H5 2719   0.863   0.573  17.343  0.6377  0.2115 -0.2891
  178MPD1    N1 2720   0.988   1.085  17.566 -0.1486 -0.1266  0.0291
  178MPD1    H6 2721   1.081   1.061  17.600 -0.1270  0.1879  0.1963
  178MPD1    H7 2722   0.998   1.177  17.522  2.2786 -0.5043 -0.2060
  179MPD1     C 2723   0.315   3.572  16.289 -0.0009  0.5773  0.7326
  179MPD1    C1 2724   0.311   3.487  16.178  0.2686 -0.5839 -0.0601
  179MPD1    C2 2725   0.235   3.377  16.185 -0.4498  0.5062  0.1335
  179MPD1    C3 2726   0.165   3.341  16.297 -0.6170  0.5261  0.4813
  179MPD1    C4 2727   0.180   3.422  16.413 -0.4601 -0.6554  0.3890
  179MPD1    C5 2728   0.268   3.530  16.409 -0.0301 -0.2796  0.6112
  179MPD1     H 2729   0.231   3.312  16.098 -1.1742  0.9576 -0.1695
  179MPD1    H1 2730   0.124   3.411  16.505  0.3921  3.6039  1.4301
  179MPD1    H2 2731   0.371   3.665  16.284  0.8572 -0.0137 -0.5916
  179MPD1    H3 2732   0.279   3.589  16.499  0.9202  0.1130  0.2276
  179MPD1     N 2733   0.084   3.230  16.323  0.3497 -0.4259 -0.1217
  179MPD1    H5 2734   0.060   3.212  16.420  2.7309  0.6530  0.6728
  179MPD1    N1 2735   0.350   3.537  16.055 -0.1479  0.1815  0.1465
  179MPD1    H6 2736   0.432   3.598  16.056  0.0132 -0.0287 -0.1182
  179MPD1    H7 2737   0.375   3.462  15.991 -0.8507  3.4226 -3.9025
  180MPD1     C 2738   0.675   4.708  14.742  0.8285  0.3321 -0.4251
  180MPD1    C1 2739   0.666   4.695  14.603  1.0129  0.2371 -0.0462
  180MPD1    C2 2740   0.583   4.600  14.560  0.2800  0.2309 -0.1706
  180MPD1    C3 2741   0.514   4.510  14.643 -0.3319  0.0947  0.3085
  180MPD1    C4 2742   0.542   4.516  14.780 -0.4097 -0.4771  0.2142
  180MPD1    C5 2743   0.633   4.610  14.822 -0.3962 -0.5615  0.4274
  180MPD1     H 2744   0.555   4.602  14.455  1.1406  0.5313 -0.3952
  180MPD1    H1 2745   0.499   4.453  14.856 -0.3740 -1.4408 -0.5591
  180MPD1    H2 2746   0.724   0.068  14.791  2.9662 -0.0734 -1.8648
  180MPD1    H3 2747   0.657   4.620  14.927 -0.3101 -1.5343  0.4993
  180MPD1     N 2748   0.419   4.420  14.589 -0.0725  0.1091 -0.0369
  180MPD1    H5 2749   0.398   4.425  14.490  2.8131 -0.5783 -0.6613
  180MPD1    N1 2750   0.719   0.067  14.514  0.4209  0.0883 -0.6225
  180MPD1    H6 2751   0.797   0.116  14.556  0.1590  0.8632 -1.0397
  180MPD1    H7 2752   0.746   0.023  14.426 -0.2121 -0.2979 -0.6250
  181MPD1     C 2753   1.428   0.671  10.061  0.1992 -0.0660 -0.1255
  181MPD1    C1 2754   1.511   0.702  10.165  0.1208 -0.2587 -0.5328
  181MPD1    C2 2755   1.632   0.773  10.135 -0.3445  0.1988  0.2313
  181MPD1    C3 2756   1.677   0.805  10.007 -0.4806  0.1428  0.2306
  181MPD1    C4 2757   1.582   0.782   9.910 -0.3744 -0.5671  0.2456
  181MPD1    C5 2758   1.460   0.716   9.937  0.2682 -0.8071  0.3522
  181MPD1     H 2759   1.680   0.800  10.228  1.0714  0.6449 -0.6311
  181MPD1    H1 2760   1.597   0.812   9.807  2.0859 -1.0209  0.4603
  181MPD1    H2 2761   1.340   0.615  10.090  1.0297 -1.0722  0.4584
  181MPD1    H3 2762   1.391   0.702   9.855 -2.7717 -0.9276  2.9416
  181MPD1     N 2763   1.798   0.868   9.992  0.1714 -0.0792 -0.0699
  181MPD1    H5 2764   1.855   0.880  10.075  2.7990 -2.2078 -1.5123
  181MPD1    N1 2765   1.477   0.670  10.299 -0.5042 -0.3755  0.1192
  181MPD1    H6 2766   1.413   0.592  10.299  0.4976 -1.1892 -1.6133
  181MPD1    H7 2767   1.567   0.647  10.342 -0.8234  0.2948  1.1595
  182MPD1     C 2768   1.655   2.007   0.100  0.5269 -0.5886 -0.6142
  182MPD1    C1 2769   1.567   2.051   0.201  0.7430  0.4659 -0.0007
  182MPD1    C2 2770   1.565   1.975   0.318 -0.0193  0.1667 -0.2773
  182MPD1    C3 2771   1.632   1.850   0.331  0.2375  0.4785 -0.0470
  182MPD1    C4 2772   1.718   1.814   0.223 -0.9477  0.1804 -0.2924
  182MPD1    C5 2773   1.729   1.894   0.111 -0.1432 -0.4087 -0.0933
  182MPD1     H 2774   1.504   2.019   0.396 -0.6050  2.4557 -2.0454
  182MPD1    H1 2775   1.784   1.728   0.226  2.1911  2.5908 -0.3823
  182MPD1    H2 2776   1.678   2.073   0.018 -0.5306  1.3991  0.6834
  182MPD1    H3 2777   1.805   1.875   0.036 -2.2865 -3.4525 -1.4995
  182MPD1     N 2778   1.607   1.756   0.436  0.4794 -0.0581 -0.3363
  182MPD1    H5 2779   1.661   1.671   0.437  2.4156  1.1930  0.2829
  182MPD1    N1 2780   1.517   2.181   0.191 -0.2862  0.4633 -0.2143
  182MPD1    H6 2781   1.455   2.215   0.265 -1.2831  0.7998 -1.2049
  182MPD1    H7 2782   1.472   2.196   0.102 -1.1668  1.6670  0.4332
  183MPD1     C 2783   3.825   1.542   9.394  0.0315  0.3724  0.3446
  183MPD1    C1 2784   3.741   1.434   9.369 -0.6283 -0.8817  0.3670
  183MPD1    C2 2785   3.616   1.430   9.427 -0.0737  0.0594 -0.0415
  183MPD1    C3 2786   3.569   1.540   9.485 -0.5287 -0.0112 -0.5462
  183MPD1    C4 2787   3.642   1.655   9.494 -0.9789 -0.1880  0.2393
  183MPD1    C5 2788   3.771   1.652   9.459 -0.7424  0.6754  0.2130
  183MPD1     H 2789   3.553   1.342   9.419 -0.6748  0.4345  0.6115
  183MPD1    H1 2790   3.609   1.752   9.530 -1.3798  0.0713 -0.8380
  183MPD1    H2 2791   3.930   1.542   9.368  0.6395  1.6897  2.8051
  183MPD1    H3 2792   3.835   1.738   9.474 -0.9517  0.9734 -0.6138
  183MPD1     N 2793   3.434   1.532   9.527 -0.6270 -0.3987 -0.1255
  183MPD1    H5 2794   3.397   1.438   9.517 -0.0060 -0.7452  0.8849
  183MPD1    N1 2795   3.794   1.310   9.321  0.0143 -0.4059  1.1438
  183MPD1    H6 2796   3.731   1.257   9.262 -0.2654 -1.6492  2.5510
  183MPD1    H7 2797   3.878   1.324   9.264 -0.2698 -0.0935  0.7991
  184MPD1     C 2798   1.978   3.210  10.111  0.7526 -0.5176 -0.2908
  184MPD1    C1 2799   2.077   3.298  10.147  0.7838  0.6975  0.0672
  184MPD1    C2 2800   2.126   3.376  10.045  0.3403 -0.1706  0.5179
  184MPD1    C3 2801   2.076   3.373   9.916  0.4683  0.1024 -0.5205
  184MPD1    C4 2802   1.974   3.280   9.891 -0.2553  0.8951 -0.3902
  184MPD1    C5 2803   1.925   3.201   9.988 -0.5403  0.4997 -0.3417
  184MPD1     H 2804   2.210   3.444  10.052  0.4051 -0.0190 -1.6719
  184MPD1    H1 2805   1.933   3.266   9.791 -0.6875  0.5595 -0.1669
  184MPD1    H2 2806   1.924   3.145  10.179  1.1160  0.3185  0.8079
  184MPD1    H3 2807   1.841   3.137   9.964  0.5976 -0.9882 -0.3193
  184MPD1     N 2808   2.122   3.447   9.803  0.0524  0.4225  0.2548
  184MPD1    H5 2809   2.073   3.436   9.715 -1.3812  0.1856  1.0833
  184MPD1    N1 2810   2.137   3.304  10.276 -0.2290  0.3808 -0.5734
  184MPD1    H6 2811   2.160   3.403  10.282 -1.3127  0.5365  0.9513
  184MPD1    H7 2812   2.076   3.284  10.355  3.0446  0.1748  1.9135
  185MPD1     C 2813   2.288   3.472   8.816 -0.1288  1.3373 -0.5734
  185MPD1    C1 2814   2.279   3.378   8.915  0.0145 -0.2142  0.0604
  185MPD1    C2 2815   2.270   3.419   9.047 -0.1713 -0.2042  0.5535
  185MPD1    C3 2816   2.269   3.556   9.074  0.2852 -0.6613 -0.0154
  185MPD1    C4 2817   2.281   3.646   8.972 -0.5122  0.0348  0.2974
  185MPD1    C5 2818   2.293   3.604   8.840  0.3149  0.0116 -0.8193
  185MPD1     H 2819   2.258   3.343   9.123 -0.4998 -0.2833  0.4249
  185MPD1    H1 2820   2.284   3.751   8.999 -1.6297  0.1332  0.0279
  185MPD1    H2 2821   2.313   3.442   8.715 -1.7333  0.5089 -0.7133
  185MPD1    H3 2822   2.303   3.680   8.764  0.4319  2.2511  1.4166
  185MPD1     N 2823   2.253   3.602   9.202 -0.2991  0.4359  0.6817
  185MPD1    H5 2824   2.261   3.701   9.224  1.0512  0.2765  0.9246
  185MPD1    N1 2825   2.297   3.249   8.876 -0.4682 -0.7867 -0.3225
  185MPD1    H6 2826   2.242   3.188   8.937  0.0197  0.7917  1.6977
  185MPD1    H7 2827   2.269   3.232   8.780 -1.0129 -1.1216 -0.1082
  186MPD1     C 2828   0.208   2.768  16.097  0.0045 -0.1708  0.0369
  186MPD1    C1 2829   0.256   2.714  16.218  1.0544 -0.0927 -0.7584
  186MPD1    C2 2830   0.317   2.811  16.298  0.9584  0.4196 -0.5089
  186MPD1    C3 2831   0.337   2.945  16.265 -1.0545 -0.2581 -0.1292
  186MPD1    C4 2832   0.297   2.980  16.144  0.7058  0.3309  0.0547
  186MPD1    C5 2833   0.236   2.897  16.055  0.5287  0.0905  0.7629
  186MPD1     H 2834   0.347   2.774  16.396 -1.6514  1.4139  0.6610
  186MPD1    H1 2835   0.312   3.084  16.116  1.1834  0.7206  1.7569
  186MPD1    H2 2836   0.154   2.707  16.026  2.3065  0.8475 -2.6233
  186MPD1    H3 2837   0.209   2.931  15.955  0.8343 -0.5516  0.4629
  186MPD1     N 2838   0.392   3.050  16.350 -0.4288  0.2443  0.0996
  186MPD1    H5 2839   0.403   3.138  16.300 -0.0565  0.7359  1.0383
  186MPD1    N1 2840   0.219   2.586  16.262  0.3089 -0.0268 -0.6024
  186MPD1    H6 2841   0.281   2.545  16.331  0.2463 -2.1307 -1.7847
  186MPD1    H7 2842   0.207   2.531  16.176  0.7085 -2.2281  0.7456
  187MPD1     C 2843   4.129   0.409   0.912 -0.3014 -0.2302 -0.5691
  187MPD1    C1 2844   4.106   0.310   0.817  0.3363  0.5220  0.5653
  187MPD1    C2 2845   4.136   0.339   0.688 -0.7788 -0.3565 -0.0020
  187MPD1    C3 2846   4.201   0.452   0.658 -0.1137 -0.0222  0.8718
  187MPD1    C4 2847   4.246   0.532   0.760 -0.1582  0.5110  0.6389
  187MPD1    C5 2848   4.197   0.524   0.884  0.5785 -0.6555  0.3217
  187MPD1     H 2849   4.102   0.288   0.599 -0.3138 -2.6087  1.1233
  187MPD1    H1 2850   4.299   0.624   0.738 -0.5505  0.6623  0.3108
  187MPD1    H2 2851   4.083   0.404   1.010  2.7363  1.7893  0.9761
  187MPD1    H3 2852   4.230   0.585   0.967 -1.8662  1.4951 -0.2984
  187MPD1     N 2853   4.236   0.492   0.530  0.2262 -0.1460 -0.0381
  187MPD1    H5 2854   4.264   0.589   0.518  0.8821 -0.1995  1.0253
  187MPD1    N1 2855   4.012   0.211   0.846  0.2935  0.0795  0.0629
  187MPD1    H6 2856   4.022   0.123   0.796  0.0725 -0.5400  1.1085
  187MPD1    H7 2857   4.004   0.186   0.945  0.3049  0.8248  0.2553
  188MPD1     C 2858   0.071   4.648   9.934  0.2978 -0.1173 -0.6037
  188MPD1    C1 2859   0.151   4.556   9.863 -0.9466 -0.4082 -0.4329
  188MPD1    C2 2860   0.142   4.423   9.897  0.7891  0.1276  0.5390
  188MPD1    C3 2861   0.067   4.391  10.008  0.3337 -0.2674  0.7893
  188MPD1    C4 2862   4.710   4.487  10.074  1.1597  0.2737  0.3423
  188MPD1    C5 2863   4.720   4.617  10.043  0.3413 -0.1291 -0.0266
  188MPD1     H 2864   0.192   4.343   9.844  0.4201  0.5949 -0.5175
  188MPD1    H1 2865   4.653   4.467  10.164 -1.0322 -0.5005 -1.2310
  188MPD1    H2 2866   0.076   0.032   9.916 -1.3374 -0.3975 -2.7324
  188MPD1    H3 2867   4.663   4.696  10.090  0.4108 -0.4869  0.6618
  188MPD1     N 2868   0.055   4.258  10.062 -0.2374  0.3949 -0.0778
  188MPD1    H5 2869   4.707   4.255  10.134 -0.9775 -0.5788 -0.8473
  188MPD1    N1 2870   0.211   4.604   9.746 -0.0101 -0.2349  0.6518
  188MPD1    H6 2871   0.273   4.542   9.696 -3.5621 -1.4804 -2.1840
  188MPD1    H7 2872   0.246   4.699   9.746  2.3833 -1.1221  0.5338
  189MPD1     C 2873   4.188   0.876  17.211 -0.9916  0.3773 -0.1318
  189MPD1    C1 2874   4.151   0.883  17.343 -0.5004 -1.1039 -0.4959
  189MPD1    C2 2875   4.257   0.881  17.435 -0.2718  0.7601  0.0039
  189MPD1    C3 2876   4.390   0.891  17.403 -0.5052 -0.2205  0.0103
  189MPD1    C4 2877   4.420   0.900  17.264 -0.5512 -0.0464  0.3886
  189MPD1    C5 2878   4.315   0.879  17.172  0.5052  1.2099 -0.0214
  189MPD1     H 2879   4.229   0.876  17.540  1.3838  0.7348  0.4421
  189MPD1    H1 2880   4.521   0.920  17.228  0.2458 -1.9972  1.5668
  189MPD1    H2 2881   4.117   0.861  17.130 -1.3012  1.0366  0.0145
  189MPD1    H3 2882   4.338   0.876  17.066  0.9367  1.2544  0.0687
  189MPD1     N 2883   4.488   0.902  17.507  0.5607 -0.7458  0.3155
  189MPD1    H5 2884   4.452   0.892  17.601  1.4855  0.4400  0.8071
  189MPD1    N1 2885   4.011   0.867  17.376 -0.4252 -0.1731 -0.1999
  189MPD1    H6 2886   3.945   0.914  17.314  0.0012 -0.1571 -0.6368
  189MPD1    H7 2887   3.995   0.909  17.468  1.7655  0.1941  0.0028
  190MPD1     C 2888   4.653   0.045  16.273  0.6396 -0.1695  0.5569
  190MPD1    C1 2889   4.577   4.666  16.237  0.6225 -0.2233 -0.1893
  190MPD1    C2 2890   4.629   4.561  16.157 -0.3578  0.1935 -0.1032
  190MPD1    C3 2891   0.036   4.561  16.117  0.3488  0.0976 -0.4623
  190MPD1    C4 2892   0.116   4.659  16.160  0.0047 -0.0835 -0.3547
  190MPD1    C5 2893   0.060   0.040  16.230 -0.8452 -0.0882  0.1616
  190MPD1     H 2894   4.572   4.471  16.135  0.6101 -0.1394 -1.2661
  190MPD1    H1 2895   0.223   4.652  16.141 -0.0849 -1.2822 -0.4260
  190MPD1    H2 2896   4.612   0.131  16.324  0.1330  0.2980 -0.6448
  190MPD1    H3 2897   0.129   0.122  16.248 -1.4853  0.3082  0.8168
  190MPD1     N 2898   0.075   4.450  16.041 -0.1295  0.2814 -1.0090
  190MPD1    H5 2899   0.001   4.382  16.026  0.6521 -0.5005 -1.3193
  190MPD1    N1 2900   4.449   4.655  16.293  0.6676  0.4865 -0.6714
  190MPD1    H6 2901   4.431   0.017  16.347  1.2500  0.7509 -0.8978
  190MPD1    H7 2902   4.388   4.648  16.212 -0.8534  1.6370  0.3783
  191MPD1     C 2903   4.523   1.541  12.614 -0.5843 -0.1143  0.5990
  191MPD1    C1 2904   4.648   1.497  12.601  0.5268  0.6444 -0.2121
  191MPD1    C2 2905   4.688   1.457  12.478  0.4084 -0.2574 -0.5386
  191MPD1    C3 2906   4.616   1.474  12.365 -0.0326  0.3947 -0.8512
  191MPD1    C4 2907   4.488   1.527  12.376 -0.4556 -0.1363  0.3713
  191MPD1    C5 2908   4.445   1.557  12.499  0.0311  0.5158  0.1900
  191MPD1     H 2909   0.056   1.401  12.459  0.8892  1.5356 -3.5428
  191MPD1    H1 2910   4.421   1.544  12.294 -0.3042 -3.4390 -0.4376
  191MPD1    H2 2911   4.480   1.556  12.713  1.3081  2.4181  1.0362
  191MPD1    H3 2912   4.347   1.602  12.512 -1.0616 -1.9310  0.3714
  191MPD1     N 2913   4.668   1.435  12.241  0.4902 -0.0776  0.2880
  191MPD1    H5 2914   0.019   1.366  12.248 -1.3216 -2.1038 -0.2502
  191MPD1    N1 2915   4.709   1.450  12.713  0.4810  0.4475 -0.0927
  191MPD1    H6 2916   0.087   1.435  12.719  0.3956  0.1316  0.6193
  191MPD1    H7 2917   4.685   1.510  12.792  3.1676  1.7624 -0.2480
  192MPD1     C 2918   4.680   1.990  11.438 -0.5442  0.0755 -0.0540
  192MPD1    C1 2919   4.639   1.873  11.385  0.4849  0.5233  0.2936
  192MPD1    C2 2920   4.637   1.758  11.461  0.5943  0.5320 -0.1690
  192MPD1    C3 2921   4.665   1.772  11.594 -0.6120  0.2325 -0.2925
  192MPD1    C4 2922   4.682   1.896  11.651  0.8060 -0.3660 -0.5031
  192MPD1    C5 2923   4.698   1.998  11.567 -0.6365  0.3128  0.6063
  192MPD1     H 2924   4.624   1.660  11.415 -1.2115  1.1554 -0.9594
  192MPD1    H1 2925   4.695   1.912  11.758 -1.6268  0.5743 -0.3363
  192MPD1    H2 2926   4.678   2.086  11.386 -1.7599  0.3009  0.4078
  192MPD1    H3 2927   0.002   2.093  11.613  0.2984  0.1025  0.4834
  192MPD1     N 2928   4.687   1.666  11.688 -0.5240 -0.5143  0.3681
  192MPD1    H5 2929   0.005   1.689  11.779  1.2573  0.1467 -0.5990
  192MPD1    N1 2930   4.637   1.863  11.246 -0.5874 -0.4797  0.4130
  192MPD1    H6 2931   4.608   1.944  11.193  0.7578 -0.9819 -1.0781
  192MPD1    H7 2932   4.590   1.783  11.204  1.0527 -0.5064 -1.3682
  193MPD1     C 2933   3.614   1.560  16.059  0.8407  0.2866 -0.5867
  193MPD1    C1 2934   3.564   1.656  16.141  0.2899  0.1343  0.7431
  193MPD1    C2 2935   3.637   1.697  16.249 -0.5149  0.4109  0.1000
  193MPD1    C3 2936   3.752   1.632  16.295  0.9476 -0.1067  0.1193
  193MPD1    C4 2937   3.797   1.534  16.209 -0.0455  0.0946 -0.3741
  193MPD1    C5 2938   3.731   1.511  16.088  0.4549 -0.6082 -0.8805
  193MPD1     H 2939   3.608   1.784  16.307  1.0985  0.6264  0.5898
  193MPD1    H1 2940   3.888   1.477  16.226 -0.1002  0.3665  0.8781
  193MPD1    H2 2941   3.560   1.534  15.968  0.0684  0.5397 -0.2031
  193MPD1    H3 2942   3.776   1.433  16.027  0.9665  0.4432 -1.8493
  193MPD1     N 2943   3.824   1.655  16.415  0.3169 -0.1094 -0.7181
  193MPD1    H5 2944   3.910   1.605  16.438  0.9842  1.9697  1.3255
  193MPD1    N1 2945   3.431   1.701  16.119  0.0132 -0.0678 -0.4744
  193MPD1    H6 2946   3.387   1.682  16.029  0.3639 -2.0406 -0.2429
  193MPD1    H7 2947   3.426   1.797  16.152 -1.2795  0.4422 -2.1961
  194MPD1     C 2948   2.601   3.828  16.556 -0.6750  0.1998 -0.4570
  194MPD1    C1 2949   2.484   3.761  16.535  0.0907 -0.2862  0.2595
  194MPD1    C2 2950   2.425   3.716  16.650  0.7223  0.4379  0.3681
  194MPD1    C3 2951   2.471   3.739  16.779 -0.5885 -0.4360 -0.3149
  194MPD1    C4 2952   2.584   3.809  16.800  0.1065 -0.3546 -0.4368
  194MPD1    C5 2953   2.654   3.846  16.686 -0.6792  0.8678 -0.1894
  194MPD1     H 2954   2.335   3.655  16.640  0.0866  1.2051  1.5298
  194MPD1    H1 2955   2.634   3.811  16.896 -0.3822  0.2197 -0.1984
  194MPD1    H2 2956   2.667   3.856  16.474 -0.0130  0.0185  0.0113
  194MPD1    H3 2957   2.755   3.885  16.684 -1.0911  1.8995 -0.5260
  194MPD1     N 2958   2.411   3.702  16.902 -0.1728  0.9639 -0.3613
  194MPD1    H5 2959   2.471   3.709  16.984 -0.3202 -3.3736  0.1304
  194MPD1    N1 2960   2.442   3.730  16.403 -0.1507 -0.2706  0.7055
  194MPD1    H6 2961   2.469   3.799  16.333  0.2936 -2.1631 -0.9872
  194MPD1    H7 2962   2.341   3.720  16.395 -0.0445 -0.3335 -0.5491
  195MPD1     C 2963   3.918   0.817   0.259  0.0659 -0.0222  0.2071
  195MPD1    C1 2964   3.936   0.753   0.380 -0.0094 -0.3072 -0.3439
  195MPD1    C2 2965   3.890   0.625   0.388  0.8624 -0.4420  0.0805
  195MPD1    C3 2966   3.831   0.556   0.276  0.2656  0.0726  0.4883
  195MPD1    C4 2967   3.814   0.624   0.160  0.1344 -0.4403 -0.1979
  195MPD1    C5 2968   3.861   0.751   0.156 -0.3831 -0.4464 -0.0736
  195MPD1     H 2969   3.894   0.573   0.483 -0.1313  0.4307  0.5945
  195MPD1    H1 2970   3.778   0.583   0.066  0.7769 -1.3009 -0.0749
  195MPD1    H2 2971   3.952   0.919   0.243  1.7522 -0.3293  1.7851
  195MPD1    H3 2972   3.849   0.794   0.058 -2.5266  0.6495  0.6683
  195MPD1     N 2973   3.794   0.418   0.269  0.5755  0.1803  0.5368
  195MPD1    H5 2974   3.778   0.378   0.177 -1.2726  0.9945  0.5059
  195MPD1    N1 2975   3.975   0.830   0.489  0.4724  0.0965 -0.1842
  195MPD1    H6 2976   3.979   0.765   0.568 -1.9946  0.0886 -0.0494
  195MPD1    H7 2977   3.907   0.903   0.507  0.7456 -0.0032  1.2869
  196MPD1     C 2978   1.883   0.656   2.012  0.4501 -0.1181 -0.5440
  196MPD1    C1 2979   1.967   0.755   2.030 -0.0132  0.2159  0.2966
  196MPD1    C2 2980   2.104   0.727   2.019  0.3772 -0.8834  0.2176
  196MPD1    C3 2981   2.156   0.599   1.991 -0.1522  0.2649  0.0511
  196MPD1    C4 2982   2.060   0.505   1.970  0.4205  0.3273  0.5230
  196MPD1    C5 2983   1.926   0.537   1.975 -0.6797  0.8141 -0.2394
  196MPD1     H 2984   2.172   0.807   2.045  0.4457 -0.5908 -0.8359
  196MPD1    H1 2985   2.076   0.413   1.914 -0.7083 -0.7492  1.9725
  196MPD1    H2 2986   1.775   0.665   2.016  0.4209 -0.0861 -1.2912
  196MPD1    H3 2987   1.865   0.456   1.937  0.7299 -2.2359  3.9166
  196MPD1     N 2988   2.293   0.568   1.976  0.5810 -0.6288 -0.0804
  196MPD1    H5 2989   2.311   0.469   1.958 -1.0029 -1.0160  0.4490
  196MPD1    N1 2990   1.928   0.882   2.086  0.1100 -0.1243 -0.2611
  196MPD1    H6 2991   1.832   0.900   2.056  0.3938 -0.6803 -1.4721
  196MPD1    H7 2992   1.985   0.954   2.042 -0.5137  2.2404  2.8287
  197MPD1     C 2993   2.790   3.182   0.074 -0.1604  0.3976  0.9482
  197MPD1    C1 2994   2.834   3.058   0.030  0.0727 -0.2041  0.1858
  197MPD1    C2 2995   2.782   3.012  17.606  0.0623  0.0789 -0.9307
  197MPD1    C3 2996   2.666   3.055  17.547  0.3340  0.7837  0.2824
  197MPD1    C4 2997   2.615   3.170  17.608  0.1438  0.2825  1.0453
  197MPD1    C5 2998   2.677   3.236   0.014 -0.0274  0.4709  0.0868
  197MPD1     H 2999   2.833   2.924  17.567 -0.5346 -0.7023  0.0472
  197MPD1    H1 3000   2.522   3.212  17.570  0.3476 -0.2683 -0.0763
  197MPD1    H2 3001   2.839   3.227   0.160 -0.2099  0.2233  1.0698
  197MPD1    H3 3002   2.627   3.327   0.047 -3.8898 -2.2439  1.7598
  197MPD1     N 3003   2.604   3.008  17.432  0.7701  0.0221 -0.2978
  197MPD1    H5 3004   2.526   3.058  17.392  0.5398 -0.1391 -0.0466
  197MPD1    N1 3005   2.946   2.998   0.090 -0.0519  0.1321 -0.4963
  197MPD1    H6 3006   2.932   2.898   0.084  0.0520  0.1037 -0.2527
  197MPD1    H7 3007   2.971   3.028   0.184  1.0514  0.3808 -0.8717
  198MPD1     C 3008   4.202   0.968  15.981  0.4523  0.5644 -1.0834
  198MPD1    C1 3009   4.257   0.848  15.958  0.1882 -0.4019  0.2175
  198MPD1    C2 3010   4.394   0.846  15.923  0.3555  0.5332 -0.1825
  198MPD1    C3 3011   4.471   0.960  15.953 -0.0628 -0.1139  0.1135
  198MPD1    C4 3012   4.408   1.079  15.998 -0.1270  0.0816 -0.1074
  198MPD1    C5 3013   4.274   1.082  16.013 -0.3263 -0.7349  0.1048
  198MPD1     H 3014   4.440   0.756  15.884  1.3089  0.0769  2.0527
  198MPD1    H1 3015   4.453   1.170  16.035 -0.5060 -0.2435  1.1317
  198MPD1    H2 3016   4.096   0.980  15.999 -0.0605 -0.6059 -3.3960
  198MPD1    H3 3017   4.229   1.170  16.057  0.4175  0.7334 -2.0760
  198MPD1     N 3018   4.614   0.956  15.937  0.6451 -0.6272 -0.0685
  198MPD1    H5 3019   4.644   0.863  15.913  1.3747 -0.3942 -0.0462
  198MPD1    N1 3020   4.179   0.734  15.938 -0.0484 -0.4437  0.1289
  198MPD1    H6 3021   4.224   0.649  15.970 -1.5578 -0.3771  2.4023
  198MPD1    H7 3022   4.098   0.744  15.999 -1.7850 -0.8709 -2.0982
  199MPD1     C 3023   3.142   1.786  10.186  0.3439 -0.1041  0.2192
  199MPD1    C1 3024   3.080   1.908  10.207  0.3249 -0.4910  0.1955
  199MPD1    C2 3025   2.967   1.937  10.141 -0.2218  0.9103  0.3544
  199MPD1    C3 3026   2.898   1.843  10.068 -0.0945  0.3237  0.4706
  199MPD1    C4 3027   2.960   1.722  10.046  0.2183 -0.2747 -0.5445
  199MPD1    C5 3028   3.084   1.692  10.099  0.6306 -0.6416 -0.0557
  199MPD1     H 3029   2.920   2.032  10.166 -1.8094 -0.3660  2.2783
  199MPD1    H1 3030   2.934   1.654   9.965 -2.4208  1.0201 -0.7674
  199MPD1    H2 3031   3.228   1.755  10.245  0.8242 -0.9567 -0.9375
  199MPD1    H3 3032   3.129   1.596  10.078  1.9248 -0.4080  1.6218
  199MPD1     N 3033   2.764   1.863  10.007 -0.8630  0.0639 -0.0937
  199MPD1    H5 3034   2.731   1.785   9.952  0.6994 -2.7322  2.8512
  199MPD1    N1 3035   3.149   2.013  10.269 -0.2756 -0.2711  0.0757
  199MPD1    H6 3036   3.207   1.991  10.349 -1.6743  1.8530  1.6722
  199MPD1    H7 3037   3.096   2.091  10.307 -1.5803  0.1816 -2.7043
  200MPD1     C 3038   0.343   1.631  15.047 -0.6213  0.4206  0.3206
  200MPD1    C1 3039   0.392   1.529  14.965  0.1239  0.5414 -0.1706
  200MPD1    C2 3040   0.518   1.541  14.913  0.8361 -0.2459  0.5291
  200MPD1    C3 3041   0.598   1.650  14.939 -1.1876 -0.5668 -0.1964
  200MPD1    C4 3042   0.546   1.757  15.011  1.2954  0.1425 -0.2841
  200MPD1    C5 3043   0.421   1.742  15.067 -0.1979 -0.0184 -0.6919
  200MPD1     H 3044   0.564   1.463  14.854  0.3054 -0.9194  1.0116
  200MPD1    H1 3045   0.613   1.839  15.034  0.9879  0.2938  0.0706
  200MPD1    H2 3046   0.242   1.628  15.088 -0.6515 -1.5984  0.1049
  200MPD1    H3 3047   0.373   1.828  15.110 -0.9388  0.0316 -1.6053
  200MPD1     N 3048   0.727   1.653  14.882 -0.2785  0.4350  0.4621
  200MPD1    H5 3049   0.743   1.584  14.809  2.2663  0.6185  0.8313
  200MPD1    N1 3050   0.326   1.409  14.947 -0.4709 -0.4543 -0.4319
  200MPD1    H6 3051   0.364   1.366  14.862 -1.7813  1.5006 -1.9860
  200MPD1    H7 3052   0.227   1.429  14.949 -0.1306  1.0983  0.9712
  201MPD1     C 3053   3.345   1.123  13.071 -0.1035  0.0643 -0.0078
  201MPD1    C1 3054   3.417   1.038  12.986  0.5568 -0.3144  0.2783
  201MPD1    C2 3055   3.431   0.906  13.033 -0.4929 -0.0470 -0.5954
  201MPD1    C3 3056   3.412   0.878  13.169 -0.3953 -0.5075  0.7731
  201MPD1    C4 3057   3.362   0.974  13.256  0.0510  0.1794  0.2055
  201MPD1    C5 3058   3.316   1.097  13.203 -0.1743  0.2817  0.3280
  201MPD1     H 3059   3.468   0.834  12.960 -0.0358 -1.3588  0.9414
  201MPD1    H1 3060   3.339   0.944  13.358 -1.4306  1.8525  0.3611
  201MPD1    H2 3061   3.327   1.228  13.049  0.0108 -0.5444 -2.8996
  201MPD1    H3 3062   3.256   1.161  13.267 -0.6113  0.9771 -0.7729
  201MPD1     N 3063   3.436   0.740  13.209  0.3347  0.7046  0.3010
  201MPD1    H5 3064   3.461   0.676  13.134 -2.7523 -0.2020  0.0693
  201MPD1    N1 3065   3.441   1.076  12.855  0.3376  0.5934  0.1408
  201MPD1    H6 3066   3.455   1.177  12.850 -0.2665  0.6681  0.0053
  201MPD1    H7 3067   3.526   1.027  12.827 -0.3063 -0.5185  0.1051
  202MPD1     C 3068   4.223   0.887   9.823 -0.1558 -1.0993 -0.5213
  202MPD1    C1 3069   4.118   0.931   9.745 -0.4966  0.3749  0.2423
  202MPD1    C2 3070   4.013   0.846   9.724  0.1545  1.1865  0.2161
  202MPD1    C3 3071   3.990   0.749   9.819 -0.5395  0.1002  0.0414
  202MPD1    C4 3072   4.086   0.713   9.911  0.2373 -0.2316  0.4126
  202MPD1    C5 3073   4.209   0.782   9.909  0.3718 -1.5259  0.5362
  202MPD1     H 3074   3.939   0.871   9.649 -0.1321  0.3081  0.2159
  202MPD1    H1 3075   4.065   0.641   9.989  0.6764  1.0793  1.7304
  202MPD1    H2 3076   4.311   0.948   9.835  0.6149 -2.0700 -1.2388
  202MPD1    H3 3077   4.291   0.761   9.977 -1.6672 -0.6615  3.2651
  202MPD1     N 3078   3.860   0.690   9.826 -0.2691 -0.3714 -0.3658
  202MPD1    H5 3079   3.856   0.610   9.889  0.2633  0.2764  0.4889
  202MPD1    N1 3080   4.159   1.026   9.641  0.4717  0.7613 -0.0654
  202MPD1    H6 3081   4.083   1.070   9.589 -0.8460  1.6962  2.6270
  202MPD1    H7 3082   4.222   1.102   9.666  4.0940 -2.3529  0.2783
  203MPD1     C 3083   2.653   1.370  12.987  0.2594  0.4070 -0.5075
  203MPD1    C1 3084   2.572   1.307  12.896 -0.0801 -0.7537 -0.4075
  203MPD1    C2 3085   2.568   1.166  12.910  0.7949 -0.4289  0.2024
  203MPD1    C3 3086   2.617   1.105  13.024 -0.1055 -0.3978 -0.2229
  203MPD1    C4 3087   2.678   1.184  13.122  0.2854  0.5632 -0.5854
  203MPD1    C5 3088   2.689   1.319  13.103  0.3548 -0.2043 -0.4321
  203MPD1     H 3089   2.530   1.107  12.827  2.4803 -0.4717 -0.5406
  203MPD1    H1 3090   2.733   1.140  13.205  0.8783 -0.9564 -1.7902
  203MPD1    H2 3091   2.691   1.468  12.957  0.7818  0.6236  0.8620
  203MPD1    H3 3092   2.748   1.380  13.170 -1.0220  2.1169 -1.3195
  203MPD1     N 3093   2.624   0.961  13.019  0.2283  0.2331 -0.0458
  203MPD1    H5 3094   2.598   0.929  12.926  1.8582 -0.0583 -0.4029
  203MPD1    N1 3095   2.542   1.378  12.782 -0.6979 -0.5147  0.0824
  203MPD1    H6 3096   2.488   1.462  12.801  0.4637  0.5988 -1.5313
  203MPD1    H7 3097   2.484   1.315  12.727 -0.1425  0.1308 -1.2371
  204MPD1     C 3098   1.223   2.247   0.445 -0.0478 -0.2484  0.4937
  204MPD1    C1 3099   1.255   2.121   0.476 -0.4852 -0.1040 -0.8836
  204MPD1    C2 3100   1.225   2.019   0.384  0.0042  0.3779 -0.2079
  204MPD1    C3 3101   1.169   2.040   0.257  0.1220  0.2786  0.3707
  204MPD1    C4 3102   1.147   2.174   0.234 -0.2090 -0.1810  0.1522
  204MPD1    C5 3103   1.172   2.276   0.327  0.1341 -0.3652 -0.1599
  204MPD1     H 3104   1.240   1.915   0.410  0.5285  0.4189 -0.3558
  204MPD1    H1 3105   1.096   2.209   0.146  0.9443  1.6375  0.2108
  204MPD1    H2 3106   1.237   2.322   0.522  0.5304 -1.0433  1.1628
  204MPD1    H3 3107   1.137   2.376   0.308  0.0818 -0.0511  1.5622
  204MPD1     N 3108   1.124   1.935   0.174  0.4614  0.0886  0.3765
  204MPD1    H5 3109   1.122   1.841   0.212  1.2168  0.8259  2.1964
  204MPD1    N1 3110   1.291   2.080   0.604 -0.4449  0.3074  0.4035
  204MPD1    H6 3111   1.361   2.146   0.636  1.5306 -2.3602  1.6049
  204MPD1    H7 3112   1.347   1.995   0.603 -1.4292 -0.3392  0.2625
  205MPD1     C 3113   0.924   0.469  16.972 -0.0412 -0.0243  0.2066
  205MPD1    C1 3114   1.017   0.386  17.033 -1.0750  0.2483 -0.0454
  205MPD1    C2 3115   1.119   0.440  17.107  0.3376 -0.0477 -1.0102
  205MPD1    C3 3116   1.127   0.577  17.121  0.0525  0.0366  0.3354
  205MPD1    C4 3117   1.028   0.659  17.073 -0.0657 -0.1774  0.2261
  205MPD1    C5 3118   0.923   0.606  17.002  0.2499  0.0858  0.4279
  205MPD1     H 3119   1.198   0.378  17.147 -0.5848  0.9538  2.3921
  205MPD1    H1 3120   1.032   0.764  17.102 -0.5790 -0.2932  0.7082
  205MPD1    H2 3121   0.845   0.433  16.908 -0.7335  1.6767  0.1197
  205MPD1    H3 3122   0.840   0.667  16.969 -0.1050 -0.6571 -0.0538
  205MPD1     N 3123   1.219   0.639  17.209  0.6553  0.1154 -0.0026
  205MPD1    H5 3124   1.211   0.740  17.199  1.8698  0.1269 -0.9504
  205MPD1    N1 3125   1.013   0.251  17.004  0.1482 -0.6565 -0.2681
  205MPD1    H6 3126   1.066   0.201  17.075 -0.7742  0.3926  1.1594
  205MPD1    H7 3127   0.917   0.219  17.001  0.5684 -1.9408  0.0852
  206MPD1     C 3128   1.929   4.061  16.451  0.0680 -0.1600  0.1922
  206MPD1    C1 3129   1.835   3.973  16.491 -0.1054  0.2989  0.1738
  206MPD1    C2 3130   1.719   3.988  16.417 -0.0620  0.2723 -0.6132
  206MPD1    C3 3131   1.712   4.057  16.293 -0.5668  0.7735 -0.6234
  206MPD1    C4 3132   1.812   4.132  16.251 -0.4055  0.2422  0.0721
  206MPD1    C5 3133   1.920   4.135  16.335 -0.4277 -0.3331 -0.2729
  206MPD1     H 3134   1.637   3.928  16.454  1.8956 -1.8344  0.2602
  206MPD1    H1 3135   1.805   4.192  16.161 -1.3285  3.6555  2.4063
  206MPD1    H2 3136   2.022   4.066  16.508 -0.3825  2.1301  0.7412
  206MPD1    H3 3137   2.008   4.194  16.311  0.2807 -0.5598  1.8165
  206MPD1     N 3138   1.596   4.046  16.205  0.0842 -0.5312  0.5123
  206MPD1    H5 3139   1.593   4.098  16.118  0.1089 -0.5551  0.4970
  206MPD1    N1 3140   1.834   3.910  16.621  0.3863  0.2773 -0.1053
  206MPD1    H6 3141   1.771   3.830  16.619  1.8863 -0.8867 -0.5700
  206MPD1    H7 3142   1.925   3.880  16.655 -0.4098 -0.0483  1.7465
  207MPD1     C 3143   4.628   1.564   9.691 -0.1227  0.2541 -0.2982
  207MPD1    C1 3144   4.573   1.489   9.796  0.1260  0.0606  0.0474
  207MPD1    C2 3145   4.658   1.438   9.887  0.3382  0.3347  0.0423
  207MPD1    C3 3146   0.074   1.451   9.883 -0.0064 -0.1579  0.0302
  207MPD1    C4 3147   0.127   1.530   9.783  0.1788 -0.4050 -0.2383
  207MPD1    C5 3148   0.042   1.586   9.690 -0.2080  0.1849 -0.5943
  207MPD1     H 3149   4.614   1.382   9.969  1.2203 -1.9750 -1.0941
  207MPD1    H1 3150   0.234   1.550   9.786  0.5013 -1.9851 -1.0847
  207MPD1    H2 3151   4.566   1.615   9.619 -0.2008  0.2504 -0.2344
  207MPD1    H3 3152   0.084   1.629   9.600 -1.1182 -0.4470 -1.3235
  207MPD1     N 3153   0.158   1.390   9.974 -0.2887 -0.3387  0.1357
  207MPD1    H5 3154   0.252   1.427   9.959  0.3197 -2.1831 -0.6500
  207MPD1    N1 3155   4.436   1.450   9.787 -0.1146  0.0296  0.4607
  207MPD1    H6 3156   4.379   1.508   9.726 -0.9244 -2.1416 -0.8591
  207MPD1    H7 3157   4.394   1.454   9.880  0.1450 -0.9395  0.6218
  208MPD1     C 3158   2.746   1.329   0.434 -0.6785  0.1519  0.3976
  208MPD1    C1 3159   2.623   1.371   0.470  0.1601  0.2400 -1.0568
  208MPD1    C2 3160   2.524   1.283   0.511  0.0582 -0.2629 -0.1507
  208MPD1    C3 3161   2.547   1.153   0.495  0.8362  0.0357 -0.1588
  208MPD1    C4 3162   2.674   1.107   0.456  0.1595  0.0618  0.5245
  208MPD1    C5 3163   2.774   1.196   0.439  0.3634 -0.0423  0.1859
  208MPD1     H 3164   2.423   1.313   0.537 -0.7252 -3.6222  0.6322
  208MPD1    H1 3165   2.708   1.007   0.477  1.8966  0.7537  1.0662
  208MPD1    H2 3166   2.821   1.397   0.397  0.7279 -1.7718 -0.3317
  208MPD1    H3 3167   2.867   1.151   0.407  0.5392  0.1900  0.3789
  208MPD1     N 3168   2.443   1.057   0.529 -0.1592  0.7377 -0.4790
  208MPD1    H5 3169   2.352   1.094   0.555 -0.6407 -0.3019 -0.6966
  208MPD1    N1 3170   2.602   1.510   0.480 -0.4308 -0.2272 -0.7517
  208MPD1    H6 3171   2.513   1.548   0.448 -1.0637 -1.6044 -0.6368
  208MPD1    H7 3172   2.680   1.557   0.436  0.0012 -1.5787 -1.4286
  209MPD1     C 3173   0.436   0.502  11.857 -0.2811 -0.1669 -0.0129
  209MPD1    C1 3174   0.446   0.638  11.880  0.1236 -0.2876 -0.3652
  209MPD1    C2 3175   0.441   0.721  11.771 -0.3215  0.3434  0.4327
  209MPD1    C3 3176   0.442   0.671  11.644  0.2697  0.2217  0.1485
  209MPD1    C4 3177   0.455   0.533  11.626 -0.4266 -0.5355  0.3720
  209MPD1    C5 3178   0.441   0.454  11.732  0.5712  0.0003 -0.0954
  209MPD1     H 3179   0.416   0.824  11.791  0.1360  0.4431  0.5044
  209MPD1    H1 3180   0.460   0.477  11.533  0.9155 -1.6591  1.1320
  209MPD1    H2 3181   0.437   0.431  11.938 -3.7072 -0.1204  0.0486
  209MPD1    H3 3182   0.442   0.347  11.713  0.3139 -0.2896  1.4682
  209MPD1     N 3183   0.439   0.764  11.535  0.6756 -0.8584 -0.1067
  209MPD1    H5 3184   0.452   0.860  11.563 -1.4943 -0.1488 -1.5207
  209MPD1    N1 3185   0.435   0.683  12.015  0.2983  0.4390 -0.2942
  209MPD1    H6 3186   0.471   0.776  12.038  0.1769  0.2252  0.7407
  209MPD1    H7 3187   0.458   0.616  12.087  3.7909  1.3358 -0.5715
  210MPD1     C 3188   0.838   1.596  11.208  0.0580  0.1375 -0.5542
  210MPD1    C1 3189   0.706   1.604  11.202  0.1427  0.4404  0.3955
  210MPD1    C2 3190   0.634   1.486  11.218 -0.2901 -0.0715  0.8706
  210MPD1    C3 3191   0.697   1.368  11.223 -0.3202  0.1753 -0.0331
  210MPD1    C4 3192   0.834   1.365  11.221  0.4577  0.5162  0.5507
  210MPD1    C5 3193   0.910   1.479  11.214  0.5642  0.6489 -0.5900
  210MPD1     H 3194   0.526   1.483  11.215 -0.1842 -0.8075 -2.1657
  210MPD1    H1 3195   0.890   1.272  11.231  0.3472  0.4186  0.2428
  210MPD1    H2 3196   0.896   1.687  11.212 -2.0436  1.5857 -3.4910
  210MPD1    H3 3197   1.017   1.495  11.216  0.6768 -0.1837 -0.2343
  210MPD1     N 3198   0.618   1.249  11.238  0.3681 -0.0419  0.1051
  210MPD1    H5 3199   0.519   1.252  11.213  0.9176  2.5611 -1.6944
  210MPD1    N1 3200   0.641   1.727  11.197  0.1651  0.0616 -0.0994
  210MPD1    H6 3201   0.688   1.793  11.135 -0.6263  0.5561 -0.1906
  210MPD1    H7 3202   0.544   1.713  11.167  0.7134  0.1941 -1.9679
  211MPD1     C 3203   2.934   0.689  16.940  0.4090 -0.7004 -0.2647
  211MPD1    C1 3204   2.853   0.754  17.027 -0.1578  0.1728 -0.0273
  211MPD1    C2 3205   2.722   0.773  16.983  0.0433  0.9879 -0.3797
  211MPD1    C3 3206   2.680   0.728  16.863 -0.3583  0.7043  0.2645
  211MPD1    C4 3207   2.764   0.669  16.774 -0.4720  0.3094 -0.4274
  211MPD1    C5 3208   2.897   0.653  16.811  0.0028 -0.9672  0.5338
  211MPD1     H 3209   2.660   0.821  17.058 -0.8444  1.7819 -1.6190
  211MPD1    H1 3210   2.727   0.636  16.678 -1.2400 -0.0252 -0.0119
  211MPD1    H2 3211   3.038   0.684  16.968  0.0043  0.9273  1.5781
  211MPD1    H3 3212   2.966   0.620  16.734 -0.0198 -0.8141  0.4475
  211MPD1     N 3213   2.540   0.743  16.837 -0.6450 -0.0466 -0.6511
  211MPD1    H5 3214   2.490   0.777  16.918 -0.8770 -0.5268 -0.5922
  211MPD1    N1 3215   2.901   0.805  17.154  0.2079  0.0626 -0.5956
  211MPD1    H6 3216   2.977   0.754  17.198  0.7600  2.0418  0.7225
  211MPD1    H7 3217   2.827   0.812  17.223 -0.2202 -1.7307 -0.8799
  212MPD1     C 3218   1.540   3.681  16.575 -0.1851 -0.2560  0.4871
  212MPD1    C1 3219   1.459   3.770  16.649  0.2525 -0.1319 -0.5780
  212MPD1    C2 3220   1.424   3.735  16.781 -0.3302 -0.2949 -0.4787
  212MPD1    C3 3221   1.467   3.614  16.832  0.0388  0.0694 -0.3655
  212MPD1    C4 3222   1.548   3.529  16.757 -0.2447 -0.2176 -0.0575
  212MPD1    C5 3223   1.584   3.566  16.630  0.2044 -0.0040  0.5055
  212MPD1     H 3224   1.363   3.803  16.839  2.8969  1.8048  0.4195
  212MPD1    H1 3225   1.584   3.428  16.778  2.2813  0.5180 -0.8620
  212MPD1    H2 3226   1.563   3.704  16.472 -1.5807  0.8023  0.4042
  212MPD1    H3 3227   1.641   3.492  16.575  1.5919 -0.3036  2.3309
  212MPD1     N 3228   1.432   3.570  16.962 -0.0660 -0.1016 -0.0945
  212MPD1    H5 3229   1.464   3.480  16.997 -0.5972 -0.0893  0.4169
  212MPD1    N1 3230   1.432   3.897  16.602  0.6298  0.6002  0.0816
  212MPD1    H6 3231   1.427   3.894  16.500 -1.0451  0.8776  0.1496
  212MPD1    H7 3232   1.349   3.943  16.640  0.9689  1.2822 -0.0082
  213MPD1     C 3233   3.793   0.280  16.056 -0.1393  0.4612  0.1409
  213MPD1    C1 3234   3.727   0.210  15.959 -0.0737 -0.2970  0.7409
  213MPD1    C2 3235   3.803   0.177  15.851  0.0068 -0.0843  0.5503
  213MPD1    C3 3236   3.923   0.242  15.819  0.0680 -0.0385  0.8979
  213MPD1    C4 3237   3.962   0.342  15.903 -0.3660 -0.4294  0.4929
  213MPD1    C5 3238   3.894   0.364  16.019 -0.5019 -0.0539  0.2748
  213MPD1     H 3239   3.763   0.097  15.790 -0.9108 -0.0118  1.0627
  213MPD1    H1 3240   4.047   0.405  15.879 -0.2494 -0.8489 -0.1740
  213MPD1    H2 3241   3.745   0.296  16.152 -0.9429  0.5489 -0.2841
  213MPD1    H3 3242   3.947   0.422  16.094  0.6963 -1.0921  0.2474
  213MPD1     N 3243   4.003   0.203  15.706 -0.2628 -0.3234 -0.0907
  213MPD1    H5 3244   3.965   0.128  15.649 -0.3034  0.2433 -0.8221
  213MPD1    N1 3245   3.628   0.125  16.006 -0.1370 -0.2183  0.0167
  213MPD1    H6 3246   3.572   0.098  15.925  0.9189  1.6267 -1.3405
  213MPD1    H7 3247   3.568   0.178  16.069  0.3157  1.0302 -0.5882
  214MPD1     C 3248   3.862   4.368  15.048 -0.2444  0.0971 -0.2572
  214MPD1    C1 3249   3.861   4.333  15.181  0.2885 -0.0595  0.0096
  214MPD1    C2 3250   3.945   4.402  15.265 -0.3241 -1.4391  0.0789
  214MPD1    C3 3251   4.028   4.497  15.215  0.3803 -0.0527 -0.4729
  214MPD1    C4 3252   4.034   4.526  15.086  0.2366  0.3589  0.3594
  214MPD1    C5 3253   3.954   4.454  14.999  0.5362  0.0338  0.4417
  214MPD1     H 3254   3.948   4.398  15.374  0.7031 -0.8550  0.0753
  214MPD1    H1 3255   4.102   4.602  15.048  2.6736 -1.9846  0.0297
  214MPD1    H2 3256   3.794   4.330  14.973 -0.4361  2.2271 -1.1552
  214MPD1    H3 3257   3.952   4.476  14.893  1.2669  0.8220  0.5904
  214MPD1     N 3258   4.116   4.578  15.295  0.1999 -0.2590  0.0553
  214MPD1    H5 3259   4.170   4.644  15.239 -0.2390 -0.7254 -0.9316
  214MPD1    N1 3260   3.753   4.250  15.221  0.5639 -0.8793  0.1914
  214MPD1    H6 3261   3.782   4.209  15.309 -1.7434  0.8146  1.7347
  214MPD1    H7 3262   3.728   4.171  15.162 -1.0615  0.3376 -0.7550
  215MPD1     C 3263   4.712   4.666  10.914  0.3976  0.3082  0.3234
  215MPD1    C1 3264   4.685   4.719  11.035  0.7124 -0.0892  1.0604
  215MPD1    C2 3265   4.672   0.139  11.048 -0.3141  0.1232 -0.4206
  215MPD1    C3 3266   4.680   0.220  10.942  0.0362  0.1819 -0.5204
  215MPD1    C4 3267   4.703   0.162  10.820  0.2132 -0.3703  0.5272
  215MPD1    C5 3268   4.720   0.029  10.809  1.3110 -0.2507 -0.3439
  215MPD1     H 3269   4.651   0.185  11.144  0.8271 -2.7573  1.2379
  215MPD1    H1 3270   4.706   0.224  10.731  1.5462 -1.1392  0.0332
  215MPD1    H2 3271   4.719   4.559  10.900  3.2431  0.5368  0.1255
  215MPD1    H3 3272   0.018   4.708  10.712 -0.3495  0.5863 -1.0816
  215MPD1     N 3273   4.659   0.354  10.961 -0.2271  0.2564 -0.7406
  215MPD1    H5 3274   4.650   0.381  11.059 -0.0300  0.3975 -0.7603
  215MPD1    N1 3275   4.698   4.642  11.151 -0.5929  0.4434 -0.1087
  215MPD1    H6 3276   4.624   4.671  11.215  0.2715 -0.9273  1.5455
  215MPD1    H7 3277   4.675   4.544  11.136  1.5053 -0.5560  2.9589
  216MPD1     C 3278   1.951   3.743  17.125  0.3660  0.4723  0.1940
  216MPD1    C1 3279   1.973   3.683  17.248 -0.0575  0.8396  0.7173
  216MPD1    C2 3280   1.909   3.569  17.280 -0.0023 -0.5406  0.7409
  216MPD1    C3 3281   1.821   3.513  17.190 -0.3644  0.1852 -0.1302
  216MPD1    C4 3282   1.812   3.562  17.060  0.1010 -0.2027  0.2308
  216MPD1    C5 3283   1.875   3.684  17.029 -0.3069  0.4980 -0.4896
  216MPD1     H 3284   1.921   3.528  17.380  1.6454  0.0990  0.8099
  216MPD1    H1 3285   1.748   3.511  16.989  0.7110 -0.1555 -0.3517
  216MPD1    H2 3286   2.000   3.838  17.107  0.5118  0.3720  0.0627
  216MPD1    H3 3287   1.856   3.727  16.932  1.7927  0.1765 -1.0312
  216MPD1     N 3288   1.765   3.384  17.228 -0.1919 -0.3726 -0.2043
  216MPD1    H5 3289   1.810   3.336  17.305  0.0661  0.0361 -0.0997
  216MPD1    N1 3290   2.031   3.759  17.349 -0.1193 -0.7859  0.5752
  216MPD1    H6 3291   2.095   3.826  17.308 -1.8509  1.6250  1.7852
  216MPD1    H7 3292   2.078   3.704  17.420  1.6067  1.7820  1.4413
  217MPD1     C 3293   2.277   0.920   9.335  0.2957 -0.1410  0.1235
  217MPD1    C1 3294   2.408   0.876   9.334 -0.3786 -0.4648  0.0054
  217MPD1    C2 3295   2.437   0.749   9.286 -0.3497  0.2161  0.3170
  217MPD1    C3 3296   2.333   0.657   9.268  0.1215  0.3678  0.3149
  217MPD1    C4 3297   2.203   0.700   9.285 -0.4584  0.1322  0.7058
  217MPD1    C5 3298   2.178   0.833   9.315  0.1355  0.2834 -0.0392
  217MPD1     H 3299   2.543   0.728   9.278 -0.5905 -0.5108 -1.0811
  217MPD1    H1 3300   2.113   0.643   9.267 -0.0677 -0.6034  1.0924
  217MPD1    H2 3301   2.247   1.022   9.359 -2.0627 -0.5613 -1.1730
  217MPD1    H3 3302   2.078   0.874   9.320  0.3688  0.7630  0.6382
  217MPD1     N 3303   2.348   0.523   9.238  0.2461  0.2706  0.0518
  217MPD1    H5 3304   2.261   0.470   9.240  0.0245  0.6208 -0.3376
  217MPD1    N1 3305   2.510   0.972   9.355 -0.2882 -0.7735  0.3457
  217MPD1    H6 3306   2.476   1.051   9.409  0.7605  0.3668 -0.6336
  217MPD1    H7 3307   2.587   0.931   9.407  0.8919 -0.7941 -1.3854
  218MPD1     C 3308   3.953   0.932  13.016  0.1167 -0.4892  0.4830
  218MPD1    C1 3309   4.024   0.829  12.965  0.0753 -0.0442 -0.2742
  218MPD1    C2 3310   4.123   0.853  12.879  0.2984 -0.6780  0.0116
  218MPD1    C3 3311   4.145   0.983  12.836  0.0474  0.6247 -0.6769
  218MPD1    C4 3312   4.069   1.089  12.883  0.0218  0.4326 -0.0720
  218MPD1    C5 3313   3.979   1.061  12.980  0.3090 -0.4715  0.1281
  218MPD1     H 3314   4.181   0.769  12.843  2.5137  1.6954 -1.9564
  218MPD1    H1 3315   4.089   1.193  12.859 -2.2010  1.0204  0.6001
  218MPD1    H2 3316   3.870   0.912  13.082 -0.4380 -1.2905 -0.4582
  218MPD1    H3 3317   3.928   1.138  13.036 -2.1084 -1.1399 -1.1803
  218MPD1     N 3318   4.263   0.996  12.755 -0.0919 -0.4518  0.1266
  218MPD1    H5 3319   4.325   0.915  12.748  0.8467  0.0965  2.0030
  218MPD1    N1 3320   4.017   0.701  13.021  0.5314 -0.2937 -0.4443
  218MPD1    H6 3321   3.925   0.672  13.053  1.6693 -2.7109  0.6190
  218MPD1    H7 3322   4.036   0.624  12.956  1.7683 -0.0608 -0.3495
  219MPD1     C 3323   4.295   0.916  11.851 -0.0591  0.0021  0.7252
  219MPD1    C1 3324   4.396   1.007  11.859 -0.6567  0.1278  0.1959
  219MPD1    C2 3325   4.429   1.068  11.979 -0.3888  0.4492 -0.1381
  219MPD1    C3 3326   4.369   1.022  12.095 -0.7705 -0.0962 -0.4346
  219MPD1    C4 3327   4.272   0.924  12.091  0.9537 -0.3165  0.4105
  219MPD1    C5 3328   4.227   0.873  11.966 -0.7823 -0.1123 -1.2232
  219MPD1     H 3329   4.507   1.142  11.987 -0.1823  0.5106 -2.4767
  219MPD1    H1 3330   4.219   0.904  12.183  2.0925  0.5381  1.2430
  219MPD1    H2 3331   4.279   0.860  11.760 -0.1626  1.4086 -0.1298
  219MPD1    H3 3332   4.157   0.791  11.954  0.0112 -0.6732 -1.9536
  219MPD1     N 3333   4.394   1.060  12.225  0.0192  0.0040 -0.4794
  219MPD1    H5 3334   4.332   1.024  12.297 -1.2110 -0.1967 -1.6430
  219MPD1    N1 3335   4.455   1.064  11.750  0.0323  0.0954  0.8133
  219MPD1    H6 3336   4.547   1.100  11.775  0.6547 -0.3506 -0.8757
  219MPD1    H7 3337   4.467   0.996  11.676  0.6806 -2.1194  2.9694
  220MPD1     C 3338   3.855   1.699   9.796 -0.5227 -0.0994  0.3501
  220MPD1    C1 3339   3.983   1.680   9.844  0.2379 -0.1777 -0.2184
  220MPD1    C2 3340   4.015   1.549   9.874  0.1037  0.1504  0.3826
  220MPD1    C3 3341   3.914   1.452   9.875  0.1142  0.1482  0.0389
  220MPD1    C4 3342   3.785   1.482   9.861  0.0517 -0.1744  0.5525
  220MPD1    C5 3343   3.760   1.609   9.813 -0.2441 -0.6125 -0.2259
  220MPD1     H 3344   4.121   1.536   9.894  0.6774  2.8589 -0.8187
  220MPD1    H1 3345   3.708   1.406   9.858 -0.5516  0.4190  0.9333
  220MPD1    H2 3346   3.823   1.791   9.749 -1.9813 -0.8925 -0.1895
  220MPD1    H3 3347   3.657   1.643   9.812 -0.2033 -0.4705  1.6681
  220MPD1     N 3348   3.960   1.322   9.900  0.4215  0.0076 -0.3111
  220MPD1    H5 3349   4.061   1.316   9.909  0.6455  0.5224 -2.6303
  220MPD1    N1 3350   4.074   1.777   9.812  0.3332 -0.4974 -0.6920
  220MPD1    H6 3351   4.154   1.776   9.875 -0.0699  0.7578 -0.1575
  220MPD1    H7 3352   4.025   1.865   9.802 -1.5926 -1.6724 -1.5113
  221MPD1     C 3353   1.361   0.085  16.625  0.2326 -0.6025 -0.3504
  221MPD1    C1 3354   1.442   0.089  16.735 -0.2126 -0.1688  0.1693
  221MPD1    C2 3355   1.543   4.718  16.738 -0.1352  0.2001  0.6437
  221MPD1    C3 3356   1.543   4.601  16.665 -0.3415  0.8130 -0.1364
  221MPD1    C4 3357   1.436   4.582  16.574  0.0067 -1.0458 -0.3181
  221MPD1    C5 3358   1.351   4.691  16.548 -0.4762  0.5369  0.0153
  221MPD1     H 3359   1.628   0.018  16.802  1.9226 -0.1061 -1.9839
  221MPD1    H1 3360   1.427   4.495  16.510  0.8486 -0.8299 -0.7220
  221MPD1    H2 3361   1.285   0.159  16.604 -0.4765 -1.1011  0.4485
  221MPD1    H3 3362   1.268   4.671  16.481 -0.7475 -0.3012  0.6034
  221MPD1     N 3363   1.641   4.503  16.675 -0.0938 -0.2288  0.2060
  221MPD1    H5 3364   1.639   4.428  16.607 -0.2640  0.4152 -0.4951
  221MPD1    N1 3365   1.447   0.201  16.821  0.4191  0.2611  0.1116
  221MPD1    H6 3366   1.478   0.176  16.914 -0.9573 -2.1482 -0.0727
  221MPD1    H7 3367   1.355   0.244  16.829  0.7352  1.2270 -1.3721
  222MPD1     C 3368   2.688   0.156   1.337  0.3581  0.5478  0.3453
  222MPD1    C1 3369   2.595   0.056   1.336  0.2062 -0.1197  0.0369
  222MPD1    C2 3370   2.554   4.722   1.216 -0.1063  0.0474  0.4395
  222MPD1    C3 3371   2.603   0.038   1.095  0.0367 -0.5870  0.2963
  222MPD1    C4 3372   2.693   0.141   1.095 -0.1495  0.8516 -0.1304
  222MPD1    C5 3373   2.726   0.201   1.213 -0.2893 -0.7635  0.3668
  222MPD1     H 3374   2.483   4.642   1.236  0.6550 -1.1747 -1.7736
  222MPD1    H1 3375   2.724   0.192   1.004  1.8608 -0.6147 -0.2603
  222MPD1    H2 3376   2.698   0.213   1.428 -2.9562 -1.3230  1.8761
  222MPD1    H3 3377   2.789   0.288   1.204  0.5630 -1.4190  0.0036
  222MPD1     N 3378   2.573   4.693   0.978 -0.4724  0.3465 -0.0853
  222MPD1    H5 3379   2.635   4.713   0.899  0.2230  0.3020  0.4451
  222MPD1    N1 3380   2.544   0.013   1.458 -0.2269  0.0269  0.7844
  222MPD1    H6 3381   2.610   0.015   1.535  0.5256 -1.6332  0.1824
  222MPD1    H7 3382   2.495   4.647   1.451  0.4157 -0.2976  0.4248
  223MPD1     C 3383   2.783   3.841   0.497 -0.9161 -0.2306  0.0410
  223MPD1    C1 3384   2.707   3.901   0.404  0.2221 -0.2040  0.0827
  223MPD1    C2 3385   2.641   4.013   0.441  0.8782 -0.3139 -0.3543
  223MPD1    C3 3386   2.649   4.066   0.563  0.4925  0.1878 -0.2428
  223MPD1    C4 3387   2.738   4.010   0.651 -0.2811 -0.4899 -0.2508
  223MPD1    C5 3388   2.806   3.899   0.617  0.5629  0.1180  0.4829
  223MPD1     H 3389   2.575   4.052   0.364  1.4896 -1.6293 -1.5430
  223MPD1    H1 3390   2.756   4.047   0.751 -2.3010 -1.0497  0.3333
  223MPD1    H2 3391   2.829   3.745   0.475  0.9552  0.5345  0.6223
  223MPD1    H3 3392   2.865   3.848   0.692  1.0702 -0.1073 -0.0618
  223MPD1     N 3393   2.596   4.194   0.587 -0.2676  0.2294  0.0005
  223MPD1    H5 3394   2.534   4.224   0.513  0.8207  1.8076 -0.2809
  223MPD1    N1 3395   2.686   3.844   0.277  0.2178  0.5166 -0.0848
  223MPD1    H6 3396   2.762   3.783   0.249  0.4013  1.8766 -2.4970
  223MPD1    H7 3397   2.666   3.920   0.212  0.0853  0.9552  0.4574
  224MPD1     C 3398   3.238   1.533   9.243 -0.1252  0.0261 -0.1402
  224MPD1    C1 3399   3.329   1.422   9.221  0.7352 -0.1726 -0.4492
  224MPD1    C2 3400   3.278   1.297   9.218  0.5679  0.4852  0.4626
  224MPD1    C3 3401   3.153   1.271   9.262 -0.2454  0.1399 -0.2722
  224MPD1    C4 3402   3.064   1.375   9.290 -0.0234  0.0114  1.0363
  224MPD1    C5 3403   3.113   1.504   9.289 -0.3741 -0.2719 -0.0323
  224MPD1     H 3404   3.346   1.216   9.192 -2.7769 -1.5114 -2.0254
  224MPD1    H1 3405   2.959   1.356   9.310  0.0882 -0.0465  1.5900
  224MPD1    H2 3406   3.266   1.635   9.221 -2.0422  0.3519 -1.0605
  224MPD1    H3 3407   3.031   1.575   9.293 -0.2062 -0.0191 -1.2030
  224MPD1     N 3408   3.095   1.140   9.277 -0.4179 -0.2896 -0.0151
  224MPD1    H5 3409   3.002   1.133   9.317 -0.3465  1.2740  0.4029
  224MPD1    N1 3410   3.453   1.449   9.166 -0.2689 -0.5344 -0.3296
  224MPD1    H6 3411   3.525   1.379   9.181 -0.0103  0.0214  1.0491
  224MPD1    H7 3412   3.486   1.533   9.212 -0.8071  0.6020 -1.9984
  225MPD1     C 3413   3.700   2.370  11.143 -0.3756 -0.0449 -1.0459
  225MPD1    C1 3414   3.725   2.240  11.167  0.4395  0.0138  0.3575
  225MPD1    C2 3415   3.765   2.211  11.298 -0.4647 -0.3022 -0.6620
  225MPD1    C3 3416   3.812   2.305  11.388 -0.5712  0.2719 -0.3416
  225MPD1    C4 3417   3.794   2.438  11.352  0.4650  0.6484  0.0396
  225MPD1    C5 3418   3.732   2.466  11.233 -0.0999  0.8566  0.2162
  225MPD1     H 3419   3.759   2.108  11.333 -0.8602  0.3941  1.3336
  225MPD1    H1 3420   3.809   2.514  11.428 -0.0029  1.1181 -0.3365
  225MPD1    H2 3421   3.657   2.399  11.048  1.6163  0.9311 -1.6522
  225MPD1    H3 3422   3.716   2.568  11.198 -1.5032  0.1452 -1.1919
  225MPD1     N 3423   3.858   2.273  11.522 -0.5777  0.4801 -0.3943
  225MPD1    H5 3424   3.883   2.349  11.584 -1.8920  0.0699  0.6483
  225MPD1    N1 3425   3.689   2.139  11.074 -0.4829  0.9958 -0.3668
  225MPD1    H6 3426   3.745   2.055  11.086  2.6964  3.0661 -0.7766
  225MPD1    H7 3427   3.703   2.176  10.980  0.6806 -2.9525 -1.7389
  226MPD1     C 3428   1.764   1.689   9.433  0.5541  0.0912  0.0760
  226MPD1    C1 3429   1.760   1.799   9.342  0.4039  0.2958  0.1691
  226MPD1    C2 3430   1.847   1.903   9.360  0.4805  0.5469 -0.3780
  226MPD1    C3 3431   1.936   1.902   9.462  0.0028  0.3971  0.2365
  226MPD1    C4 3432   1.936   1.798   9.551  0.6975 -0.0826  0.3380
  226MPD1    C5 3433   1.846   1.698   9.535  0.3366  0.2260 -0.1185
  226MPD1     H 3434   1.874   1.980   9.288 -0.1001  1.4698  0.3972
  226MPD1    H1 3435   2.002   1.777   9.635  1.2276  0.1915 -0.0138
  226MPD1    H2 3436   1.692   1.609   9.426  1.2445 -0.4243 -1.2202
  226MPD1    H3 3437   1.854   1.614   9.603 -0.6866  1.1174  1.1181
  226MPD1     N 3438   2.029   2.008   9.468  0.1068 -0.4452 -0.0938
  226MPD1    H5 3439   2.011   2.089   9.410 -0.5126 -1.7383 -1.6980
  226MPD1    N1 3440   1.686   1.785   9.220  0.2200 -0.2116  0.1285
  226MPD1    H6 3441   1.597   1.739   9.239  0.3542 -0.2348  0.7163
  226MPD1    H7 3442   1.646   1.869   9.178  3.4653  1.3105  0.0853
  227MPD1     C 3443   1.917   2.650   8.962  0.0468 -0.2909 -0.6089
  227MPD1    C1 3444   1.853   2.539   9.013 -0.2070 -0.2598  0.2415
  227MPD1    C2 3445   1.920   2.467   9.107 -0.6897  0.5833  0.4836
  227MPD1    C3 3446   2.047   2.501   9.147  0.4209  0.0824  0.1670
  227MPD1    C4 3447   2.117   2.606   9.087  0.0706  0.2278 -0.3392
  227MPD1    C5 3448   2.050   2.680   8.993  0.2966 -0.3470  0.3805
  227MPD1     H 3449   1.872   2.382   9.152 -0.0639 -1.2926 -2.3649
  227MPD1    H1 3450   2.225   2.616   9.091  0.3016 -1.6616 -1.9019
  227MPD1    H2 3451   1.869   2.712   8.887  1.1918 -0.3107 -1.3533
  227MPD1    H3 3452   2.093   2.764   8.939  0.6856  1.2312  3.1235
  227MPD1     N 3453   2.104   2.411   9.242 -0.5212 -0.1748  0.3813
  227MPD1    H5 3454   2.041   2.342   9.282  1.5246 -1.0212  2.1490
  227MPD1    N1 3455   1.724   2.511   8.963  0.0805  0.4989 -0.2416
  227MPD1    H6 3456   1.721   2.528   8.863  0.6839 -1.4013 -0.5814
  227MPD1    H7 3457   1.697   2.414   8.982  2.1043 -0.2253 -1.0387
  228MPD1     C 3458   0.391   3.841  12.694  0.6031 -0.1809  0.1156
  228MPD1    C1 3459   0.310   3.787  12.787  1.0891  0.1811 -0.9864
  228MPD1    C2 3460   0.177   3.835  12.800  0.0502  0.6320  0.7467
  228MPD1    C3 3461   0.126   3.940  12.719  0.6553  0.0251 -0.1034
  228MPD1    C4 3462   0.219   3.999  12.639 -0.3669  0.1047 -0.2408
  228MPD1    C5 3463   0.351   3.956  12.632  0.0520  0.6597  0.1659
  228MPD1     H 3464   0.113   3.792  12.875 -0.4654  1.7610  0.9593
  228MPD1    H1 3465   0.192   4.083  12.576  0.8660  0.1262 -0.7467
  228MPD1    H2 3466   0.489   3.794  12.694  0.4448 -0.5113 -0.6681
  228MPD1    H3 3467   0.416   4.009  12.564  4.6932 -2.0782  2.4247
  228MPD1     N 3468   4.712   3.981  12.742 -0.4092  1.1191 -0.6081
  228MPD1    H5 3469   4.650   3.919  12.792 -0.1177  0.8385 -0.5941
  228MPD1    N1 3470   0.348   3.674  12.856 -0.4335  0.0853 -0.4722
  228MPD1    H6 3471   0.444   3.670  12.888  0.0019  0.6140 -1.7488
  228MPD1    H7 3472   0.291   3.658  12.939  1.9286 -0.2850  1.0687
  229MPD1     C 3473   4.445   2.474  16.019 -0.4951 -0.1298 -0.3018
  229MPD1    C1 3474   4.431   2.376  15.927  0.2437 -0.1118 -0.1047
  229MPD1    C2 3475   4.538   2.313  15.865 -1.4526  0.6678  0.2154
  229MPD1    C3 3476   4.662   2.381  15.863  0.1843 -0.8554  0.4471
  229MPD1    C4 3477   4.683   2.477  15.961  0.2964  0.4648  0.3573
  229MPD1    C5 3478   4.578   2.523  16.034  0.5986  1.0027 -0.4729
  229MPD1     H 3479   4.526   2.232  15.795 -1.1131  0.9949 -0.2224
  229MPD1    H1 3480   0.055   2.529  15.957 -0.6864  2.2780  0.7462
  229MPD1    H2 3481   4.359   2.510  16.075 -1.2833 -1.1507 -0.8502
  229MPD1    H3 3482   4.596   2.603  16.105 -0.0596 -0.5332  1.4633
  229MPD1     N 3483   0.049   2.346  15.776 -0.8488 -0.2274  0.3227
  229MPD1    H5 3484   0.127   2.411  15.781 -0.7688 -0.2954 -0.0231
  229MPD1    N1 3485   4.309   2.310  15.916  0.1074  0.4595 -0.2505
  229MPD1    H6 3486   4.305   2.255  15.831  3.6783  0.0620 -0.1774
  229MPD1    H7 3487   4.224   2.365  15.921  0.9991  1.9769 -1.6819
  230MPD1     C 3488   0.796   2.502  16.092 -0.1106  0.3058  0.7978
  230MPD1    C1 3489   0.664   2.539  16.113 -0.6606  0.2435  0.3211
  230MPD1    C2 3490   0.576   2.509  16.010 -0.0590 -0.2228 -0.4639
  230MPD1    C3 3491   0.605   2.431  15.897  0.2821  0.5267  0.0721
  230MPD1    C4 3492   0.732   2.387  15.893  0.3793 -0.7473 -0.5902
  230MPD1    C5 3493   0.826   2.431  15.983 -0.5836  0.4717 -0.0614
  230MPD1     H 3494   0.476   2.551  16.006 -0.1884 -0.6441 -1.7175
  230MPD1    H1 3495   0.770   2.334  15.806 -3.2795 -2.0805 -1.3585
  230MPD1    H2 3496   0.879   2.529  16.155 -0.0061  1.5206  0.1356
  230MPD1    H3 3497   0.931   2.405  15.973 -1.5671 -3.8598  0.6806
  230MPD1     N 3498   0.504   2.383  15.807  0.4577 -0.0990  0.4875
  230MPD1    H5 3499   0.411   2.422  15.820  0.5257  0.5363 -1.0030
  230MPD1    N1 3500   0.622   2.624  16.220 -0.3591 -0.4194  0.8202
  230MPD1    H6 3501   0.683   2.620  16.302 -2.2001 -2.0130  2.0853
  230MPD1    H7 3502   0.529   2.596  16.250 -1.2323  1.4295 -0.1215
  231MPD1     C 3503   3.455   4.382  15.642 -0.0559  0.3596 -0.7525
  231MPD1    C1 3504   3.471   4.341  15.510  0.2831  0.5468  1.4942
  231MPD1    C2 3505   3.561   4.420  15.436 -0.3563  0.7300 -0.1280
  231MPD1    C3 3506   3.629   4.527  15.485  0.2968  0.0749 -0.6437
  231MPD1    C4 3507   3.610   4.555  15.619  0.3110 -0.4561 -0.2227
  231MPD1    C5 3508   3.519   4.489  15.698 -0.0960 -0.3699 -0.7515
  231MPD1     H 3509   3.567   4.390  15.332 -1.4837 -1.7631  0.5207
  231MPD1    H1 3510   3.657   4.635  15.675 -0.9533  1.5172 -1.9991
  231MPD1    H2 3511   3.384   4.322  15.696  2.4532 -2.2607 -0.3943
  231MPD1    H3 3512   3.506   4.519  15.801 -0.1890 -1.5279 -0.4258
  231MPD1     N 3513   3.703   4.614  15.401  0.5183 -0.1396  0.2574
  231MPD1    H5 3514   3.692   4.588  15.304  0.9145 -2.8230  0.9201
  231MPD1    N1 3515   3.379   4.252  15.453  0.2324  0.6002  0.3643
  231MPD1    H6 3516   3.357   4.181  15.523  3.9714 -0.6661  0.3039
  231MPD1    H7 3517   3.428   4.204  15.378 -1.1197  0.4390 -0.4083
  232MPD1     C 3518   0.622   3.809   0.428  0.6167 -0.5277  0.6933
  232MPD1    C1 3519   0.502   3.779   0.495 -0.6934  0.2730  0.6190
  232MPD1    C2 3520   0.482   3.655   0.546  0.0782 -0.3566  0.0179
  232MPD1    C3 3521   0.573   3.559   0.518 -0.1848 -0.4281  0.2996
  232MPD1    C4 3522   0.685   3.585   0.448  0.3088 -0.0402  0.1109
  232MPD1    C5 3523   0.716   3.714   0.412 -0.1407  0.2978 -0.6103
  232MPD1     H 3524   0.393   3.638   0.606  0.5025 -0.3305  0.6560
  232MPD1    H1 3525   0.763   3.514   0.427 -0.4200 -0.9591  0.5179
  232MPD1    H2 3526   0.652   3.907   0.392  1.0817 -1.4064 -1.3091
  232MPD1    H3 3527   0.818   3.731   0.379  0.2561 -3.1866 -1.2046
  232MPD1     N 3528   0.533   3.429   0.557 -0.2467  0.7494 -1.0093
  232MPD1    H5 3529   0.433   3.433   0.574 -0.2009 -0.7140 -0.3482
  232MPD1    N1 3530   0.413   3.886   0.537  0.2019 -0.9749  0.0143
  232MPD1    H6 3531   0.401   3.963   0.471 -1.1561  0.7563  2.3011
  232MPD1    H7 3532   0.323   3.855   0.575 -1.2003  5.5040  1.9586
  233MPD1     C 3533   0.335   1.876   1.825 -0.1969  0.1178 -0.9295
  233MPD1    C1 3534   0.394   1.880   1.696  0.1876  0.3472 -0.9830
  233MPD1    C2 3535   0.526   1.834   1.683  0.6391  0.3959 -0.3879
  233MPD1    C3 3536   0.594   1.776   1.788  0.3741  0.1726  0.2782
  233MPD1    C4 3537   0.518   1.764   1.904  1.0834 -0.1387  0.0179
  233MPD1    C5 3538   0.399   1.810   1.928  0.6522 -0.2439 -0.4330
  233MPD1     H 3539   0.574   1.842   1.586  0.3213  0.8915 -0.5010
  233MPD1    H1 3540   0.569   1.721   1.989  1.5136  0.0018 -0.1719
  233MPD1    H2 3541   0.236   1.915   1.848  0.4001  0.3736  1.1914
  233MPD1    H3 3542   0.355   1.798   2.027  3.0427 -0.2426  0.6177
  233MPD1     N 3543   0.725   1.733   1.780 -0.9293 -0.0850 -0.7127
  233MPD1    H5 3544   0.769   1.705   1.867  0.5348 -0.3022 -1.5267
  233MPD1    N1 3545   0.344   1.966   1.601  0.2461 -0.2088 -0.5587
  233MPD1    H6 3546   0.244   1.947   1.610  0.3652 -0.2100  0.7789
  233MPD1    H7 3547   0.386   1.948   1.510 -1.0099  1.7888 -1.5316
  234MPD1     C 3548   3.402   3.781   9.438 -0.1233 -1.0180 -0.8734
  234MPD1    C1 3549   3.369   3.811   9.309 -0.8847 -0.3414  0.3015
  234MPD1    C2 3550   3.355   3.950   9.280  0.2352  0.8064 -0.5985
  234MPD1    C3 3551   3.404   4.047   9.365 -0.0504 -0.5682  0.1176
  234MPD1    C4 3552   3.460   4.004   9.487 -0.0805  0.5885 -0.2751
  234MPD1    C5 3553   3.441   3.879   9.526 -0.3483 -0.1591  0.8073
  234MPD1     H 3554   3.302   3.979   9.190 -0.1031 -0.2855 -0.7575
  234MPD1    H1 3555   3.518   4.071   9.548  1.1357 -3.1537  2.6696
  234MPD1    H2 3556   3.402   3.681   9.482 -0.6098  0.1934  1.8895
  234MPD1    H3 3557   3.475   3.834   9.618 -0.2801  2.3210  1.9945
  234MPD1     N 3558   3.393   4.180   9.322 -0.3389 -0.5829 -0.1365
  234MPD1    H5 3559   3.345   4.192   9.234 -2.2174 -1.8643  0.7304
  234MPD1    N1 3560   3.313   3.707   9.233 -0.2469  0.1181 -0.2727
  234MPD1    H6 3561   3.361   3.618   9.250 -0.1602 -0.0302 -1.3262
  234MPD1    H7 3562   3.318   3.706   9.132 -0.1233 -1.3288 -0.2593
  235MPD1     C 3563   3.509   1.780   9.152  0.2804 -0.5422  0.0071
  235MPD1    C1 3564   3.638   1.747   9.111  0.4581  0.2400 -0.1073
  235MPD1    C2 3565   3.742   1.834   9.147 -0.1922  0.3170 -0.2050
  235MPD1    C3 3566   3.711   1.948   9.223 -0.5088 -0.7417  0.0621
  235MPD1    C4 3567   3.589   1.965   9.275  0.5813  0.2806 -0.5881
  235MPD1    C5 3568   3.492   1.868   9.260  1.5889  0.2844  0.2515
  235MPD1     H 3569   3.837   1.814   9.099  0.7824  0.9301  1.4748
  235MPD1    H1 3570   3.574   2.053   9.336  0.8708  0.4664 -0.7860
  235MPD1    H2 3571   3.420   1.731   9.113  0.7685 -0.4916 -1.1707
  235MPD1    H3 3572   3.399   1.887   9.312  2.2913 -0.8150  1.8771
  235MPD1     N 3573   3.812   2.035   9.268 -0.1253  0.2572 -0.0124
  235MPD1    H5 3574   3.787   2.109   9.332 -0.6806  0.6292 -0.6554
  235MPD1    N1 3575   3.659   1.648   9.016  0.1734 -0.0768  0.6864
  235MPD1    H6 3576   3.618   1.556   9.036 -0.9500  0.1167 -0.7777
  235MPD1    H7 3577   3.759   1.628   9.023  0.2743  0.7134  1.5545
  236MPD1     C 3578   4.689   3.400  10.246 -0.0177 -0.3462 -0.1789
  236MPD1    C1 3579   4.560   3.386  10.206 -0.1204 -0.1497 -0.1934
  236MPD1    C2 3580   4.516   3.259  10.184  0.0231 -0.5248 -0.1353
  236MPD1    C3 3581   4.595   3.152  10.197 -0.9984 -0.0917 -0.3385
  236MPD1    C4 3582   0.002   3.165  10.243  0.3989 -0.0202  0.6470
  236MPD1    C5 3583   0.046   3.293  10.267  0.5175 -0.5338 -0.3060
  236MPD1     H 3584   4.416   3.232  10.150  0.1695  0.6841 -1.5149
  236MPD1    H1 3585   0.071   3.083  10.259 -0.7086 -0.8460  1.1525
  236MPD1    H2 3586   0.015   3.495  10.260 -1.9862 -0.0224  4.6834
  236MPD1    H3 3587   0.149   3.305  10.296  0.5522  0.3426 -0.7818
  236MPD1     N 3588   4.555   3.021  10.171 -0.3451 -0.0595  0.2062
  236MPD1    H5 3589   4.626   2.950  10.184  0.1606  0.5963  1.1097
  236MPD1    N1 3590   4.494   3.501  10.162  0.2137 -0.1943  0.6983
  236MPD1    H6 3591   4.393   3.496  10.171  0.2016 -0.8171  0.2540
  236MPD1    H7 3592   4.518   3.577  10.224 -1.4457  0.7275  0.2121
  237MPD1     C 3593   3.281   0.322  15.607 -0.4355 -0.3742  0.4837
  237MPD1    C1 3594   3.242   0.351  15.736  0.0030 -0.2010 -0.7477
  237MPD1    C2 3595   3.211   0.487  15.760  0.1679  0.3220  0.0112
  237MPD1    C3 3596   3.236   0.583  15.662  0.1580 -0.2340  0.1262
  237MPD1    C4 3597   3.285   0.548  15.538  0.4279  0.4615 -0.3746
  237MPD1    C5 3598   3.311   0.414  15.512 -0.5722 -0.2511 -0.7083
  237MPD1     H 3599   3.166   0.509  15.856  2.4037  2.8393  0.4879
  237MPD1    H1 3600   3.311   0.614  15.456 -1.0308 -0.4494 -1.5677
  237MPD1    H2 3601   3.291   0.223  15.566  1.2364 -0.8756  2.0695
  237MPD1    H3 3602   3.360   0.394  15.417 -0.2055  0.0437 -0.5826
  237MPD1     N 3603   3.215   0.723  15.674 -0.2329  0.1076 -0.4133
  237MPD1    H5 3604   3.234   0.779  15.592 -0.5284 -0.1696 -0.6733
  237MPD1    N1 3605   3.201   0.248  15.826  0.1174  0.0845  0.6879
  237MPD1    H6 3606   3.269   0.172  15.817  0.2648  0.2082  0.7582
  237MPD1    H7 3607   3.175   0.264  15.923  0.3374 -2.3239  1.1543
  238MPD1     C 3608   0.375   0.858  15.044 -0.0280 -0.3784  0.4074
  238MPD1    C1 3609   0.242   0.864  15.076  0.1341 -0.0625  0.4914
  238MPD1    C2 3610   0.160   0.762  15.012  0.1078 -0.1404 -0.2276
  238MPD1    C3 3611   0.210   0.681  14.902  0.4419  0.2616 -0.6084
  238MPD1    C4 3612   0.348   0.684  14.881  0.2536 -0.2558 -0.2368
  238MPD1    C5 3613   0.426   0.764  14.956 -0.4898 -0.1335 -0.3953
  238MPD1     H 3614   0.055   0.772  15.038 -0.1263 -0.8907 -0.8991
  238MPD1    H1 3615   0.396   0.612  14.815 -0.3590 -2.1211  1.3512
  238MPD1    H2 3616   0.451   0.921  15.090 -0.9472 -0.9649  2.7424
  238MPD1    H3 3617   0.535   0.762  14.951 -0.5183  1.0751 -1.6212
  238MPD1     N 3618   0.136   0.570  14.844  0.5994  0.2539 -0.4364
  238MPD1    H5 3619   0.188   0.506  14.784  0.6522 -1.3837  1.3549
  238MPD1    N1 3620   0.193   0.949  15.176  0.5434  0.4441  0.2027
  238MPD1    H6 3621   0.250   1.033  15.171  0.4797  0.4149 -0.8114
  238MPD1    H7 3622   0.094   0.969  15.166 -0.4909 -3.3736  2.4809
  239MPD1     C 3623   0.765   1.028  15.029 -0.0916 -0.2463 -0.2568
  239MPD1    C1 3624   0.669   1.128  15.030 -0.1747  0.1253  0.2782
  239MPD1    C2 3625   0.609   1.164  14.910 -0.5359 -0.1971  0.0468
  239MPD1    C3 3626   0.644   1.104  14.788  0.2482  0.0022 -0.1935
  239MPD1    C4 3627   0.729   0.996  14.789  0.6752  0.1763 -0.2651
  239MPD1    C5 3628   0.794   0.969  14.905 -0.0987 -0.0810  0.0475
  239MPD1     H 3629   0.527   1.235  14.911 -1.5788 -1.4088 -0.4432
  239MPD1    H1 3630   0.745   0.953  14.691 -0.7762 -0.7198 -0.1035
  239MPD1    H2 3631   0.817   0.994  15.117 -0.8705  0.8400  0.6266
  239MPD1    H3 3632   0.864   0.886  14.911 -0.7687 -0.7008 -0.6296
  239MPD1     N 3633   0.593   1.133  14.657 -0.2515  0.1931  0.8482
  239MPD1    H5 3634   0.625   1.079  14.578  0.5354 -0.1198  1.3860
  239MPD1    N1 3635   0.617   1.171  15.153 -0.1782  1.0603 -0.7316
  239MPD1    H6 3636   0.601   1.272  15.157 -1.0608  0.9283 -0.8460
  239MPD1    H7 3637   0.669   1.153  15.238  1.4555  1.7324 -1.6004
  240MPD1     C 3638   0.223   0.573  13.693  0.6456 -0.6187 -0.1968
  240MPD1    C1 3639   0.109   0.497  13.691  0.0200  0.6356  0.1281
  240MPD1    C2 3640   0.034   0.496  13.807 -0.1241  0.6961 -0.5796
  240MPD1    C3 3641   0.055   0.572  13.924 -0.6687  0.0235 -1.1264
  240MPD1    C4 3642   0.165   0.658  13.909 -0.5094  0.7259  0.9679
  240MPD1    C5 3643   0.248   0.659  13.799 -0.3965 -0.9414  0.6173
  240MPD1     H 3644   4.669   0.433  13.815 -0.1194  0.6832 -0.6299
  240MPD1    H1 3645   0.175   0.734  13.985  0.2401  2.8441 -1.2707
  240MPD1    H2 3646   0.285   0.584  13.604 -1.3903 -2.9427 -1.9089
  240MPD1    H3 3647   0.316   0.743  13.803 -2.2427  0.4935  1.7955
  240MPD1     N 3648   4.684   0.568  14.031 -0.2110  0.6869  0.7724
  240MPD1    H5 3649   4.593   0.526  14.012  0.6954  0.2460 -2.6153
  240MPD1    N1 3650   0.076   0.417  13.578  0.2266 -0.5052  0.0341
  240MPD1    H6 3651   0.118   0.451  13.491 -1.4171  0.9058 -0.2221
  240MPD1    H7 3652   4.700   0.427  13.556 -0.2633 -1.0690  2.0246
  241MPD1     C 3653   0.141   1.108  14.836  0.0481  0.2103  0.6294
  241MPD1    C1 3654   0.014   1.122  14.805 -0.2710  0.2000 -0.2934
  241MPD1    C2 3655   4.684   1.037  14.717 -0.2157  0.0609  0.9937
  241MPD1    C3 3656   0.034   0.944  14.641 -0.3674  0.5849  0.4412
  241MPD1    C4 3657   0.167   0.944  14.668  0.1607 -0.0333 -0.8301
  241MPD1    C5 3658   0.224   1.026  14.767  0.0261 -0.5605  0.2909
  241MPD1     H 3659   4.578   1.056  14.702 -0.3432 -1.9776 -0.7395
  241MPD1    H1 3660   0.231   0.873  14.617  1.5477  0.0751  0.7672
  241MPD1    H2 3661   0.185   1.164  14.917  0.9096  0.3780  0.0490
  241MPD1    H3 3662   0.331   1.024  14.782  0.4057  2.5767 -1.9345
  241MPD1     N 3663   4.699   0.850  14.556 -0.3065  0.1853 -0.0161
  241MPD1    H5 3664   0.040   0.796  14.499  0.0801 -0.0197  0.6101
  241MPD1    N1 3665   4.663   1.216  14.876 -0.6321  0.1189  0.6984
  241MPD1    H6 3666   4.720   1.289  14.917  1.2642 -0.7495 -0.3882
  241MPD1    H7 3667   4.573   1.245  14.837 -0.6854  0.3330  0.9799
  242MPD1     C 3668   0.111   4.060  15.492  0.4857  0.3821 -0.1121
  242MPD1    C1 3669   0.017   4.075  15.388  0.0916  0.0788 -0.1043
  242MPD1    C2 3670   4.637   3.989  15.381  0.7666  0.4200  0.4662
  242MPD1    C3 3671   4.625   3.889  15.478  0.3269 -0.9142  0.2672
  242MPD1    C4 3672   4.715   3.885  15.587  0.9749 -0.1121 -0.2446
  242MPD1    C5 3673   0.102   3.960  15.586  0.6388  0.0837 -0.0338
  242MPD1     H 3674   4.574   4.008  15.295  2.6017  1.4365 -0.6253
  242MPD1    H1 3675   4.699   3.809  15.663  1.4018 -0.6349 -0.6739
  242MPD1    H2 3676   0.202   4.119  15.495  1.0367 -0.5543  1.3049
  242MPD1    H3 3677   0.180   3.955  15.661 -0.0170  1.5461  0.7417
  242MPD1     N 3678   4.525   3.788  15.474  0.2765  0.3642  0.0823
  242MPD1    H5 3679   4.521   3.725  15.554 -0.4473  0.1606 -0.1193
  242MPD1    N1 3680   0.027   4.160  15.273 -0.0673  0.3721 -0.3424
  242MPD1    H6 3681   4.657   4.188  15.241 -0.3407 -0.1723 -0.0120
  242MPD1    H7 3682   0.082   4.244  15.293 -0.7762  0.6982  0.2534
  243MPD1     C 3683   1.695   2.672  17.621 -0.1843  0.3308  0.7911
  243MPD1    C1 3684   1.681   2.658  17.487 -0.5329 -0.5084  0.0006
  243MPD1    C2 3685   1.600   2.558  17.440 -0.0107 -0.5777  0.2810
  243MPD1    C3 3686   1.561   2.455  17.519 -0.0421  0.1807  0.8696
  243MPD1    C4 3687   1.593   2.463  17.653 -0.4017 -0.0337  0.2167
  243MPD1    C5 3688   1.662   2.569   0.010  0.4003  0.1953 -0.0564
  243MPD1     H 3689   1.566   2.561  17.337 -0.2227 -0.1600  0.3650
  243MPD1    H1 3690   1.570   2.384   0.029  0.5602  0.1652  0.7483
  243MPD1    H2 3691   1.745   2.762  17.655 -1.3053  1.0584  0.5498
  243MPD1    H3 3692   1.688   2.577   0.115  1.0927 -0.1150 -0.2011
  243MPD1     N 3693   1.494   2.346  17.454 -0.0274  0.4882  0.7959
  243MPD1    H5 3694   1.485   2.345  17.353 -2.4232 -0.0909  1.0200
  243MPD1    N1 3695   1.707   2.772  17.413  0.8040 -0.4413 -0.3723
  243MPD1    H6 3696   1.737   2.751  17.318 -1.7380 -0.8317 -1.0944
  243MPD1    H7 3697   1.788   2.817  17.454 -0.8376  1.2263  1.0211
  244MPD1     C 3698   1.861   1.463  17.593 -0.7551  0.6390  0.4847
  244MPD1    C1 3699   1.899   1.540  17.485  0.4534  0.0378  0.1191
  244MPD1    C2 3700   1.821   1.647  17.456  0.3955  0.1761 -0.5986
  244MPD1    C3 3701   1.704   1.675  17.522  0.2040  0.1011 -0.4494
  244MPD1    C4 3702   1.661   1.596  17.620 -0.6097 -0.3254 -0.2961
  244MPD1    C5 3703   1.749   1.498  17.660 -0.1760 -0.0045 -0.5927
  244MPD1     H 3704   1.858   1.713  17.379  2.4803  0.0211  0.2509
  244MPD1    H1 3705   1.574   1.615  17.683  0.7851  1.8707  0.9507
  244MPD1    H2 3706   1.898   1.368  17.630 -1.7215 -0.6830 -1.8993
  244MPD1    H3 3707   1.713   1.434   0.046  2.9212  0.0213  0.8192
  244MPD1     N 3708   1.635   1.797  17.487  0.1544 -0.0543 -0.3970
  244MPD1    H5 3709   1.677   1.853  17.415  0.6961  1.4670  1.1048
  244MPD1    N1 3710   2.020   1.520  17.424 -0.1445 -0.2399  0.5227
  244MPD1    H6 3711   2.057   1.426  17.437  1.5921  0.1176 -1.7789
  244MPD1    H7 3712   2.008   1.549  17.327  1.7139  0.9350  0.6505
  245MPD1     C 3713   3.241   2.582  13.067 -0.3939 -0.0738 -1.6821
  245MPD1    C1 3714   3.265   2.614  13.199 -0.4032  0.2117 -0.8342
  245MPD1    C2 3715   3.287   2.745  13.232  0.7260 -0.1971 -0.2616
  245MPD1    C3 3716   3.301   2.832  13.128  0.1731  0.0910  0.7802
  245MPD1    C4 3717   3.291   2.798  12.993  0.0375 -0.6324 -0.3637
  245MPD1    C5 3718   3.253   2.671  12.968 -0.2603 -0.0345 -0.3546
  245MPD1     H 3719   3.278   2.770  13.337  0.1267 -2.6007  0.2672
  245MPD1    H1 3720   3.299   2.866  12.908 -0.5131  0.2852  0.3216
  245MPD1    H2 3721   3.200   2.485  13.043  0.7716 -0.9283 -0.1767
  245MPD1    H3 3722   3.237   2.642  12.865  1.1279 -0.1673 -0.5289
  245MPD1     N 3723   3.329   2.962  13.181  0.2184 -0.0334 -0.2022
  245MPD1    H5 3724   3.313   2.978  13.279 -2.7281  0.3441 -0.7648
  245MPD1    N1 3725   3.251   2.520  13.301 -0.4339  0.8504 -0.1536
  245MPD1    H6 3726   3.313   2.546  13.378 -1.2754 -0.0110  0.8312
  245MPD1    H7 3727   3.293   2.431  13.273  0.3471  0.1643  3.1717
  246MPD1     C 3728   2.640   0.370   8.828  1.0333  0.7480 -0.5923
  246MPD1    C1 3729   2.773   0.387   8.867 -0.5460  0.8120 -0.5005
  246MPD1    C2 3730   2.862   0.282   8.839  0.1825  0.1444  0.0161
  246MPD1    C3 3731   2.817   0.166   8.772 -0.1229 -0.6772  0.6755
  246MPD1    C4 3732   2.686   0.149   8.731 -0.3069 -0.5445  0.1583
  246MPD1    C5 3733   2.605   0.258   8.754 -0.0594 -0.0534 -0.0783
  246MPD1     H 3734   2.967   0.295   8.863 -0.0963 -0.9845  1.9282
  246MPD1    H1 3735   2.652   0.062   8.677  1.2245 -0.4831 -0.8771
  246MPD1    H2 3736   2.563   0.443   8.847 -0.4389 -0.8995 -0.2931
  246MPD1    H3 3737   2.499   0.260   8.730 -0.1203 -0.2479  0.1675
  246MPD1     N 3738   2.906   0.062   8.754  0.1199  0.2711  0.2112
  246MPD1    H5 3739   2.863   4.717   8.692  1.4519 -0.3277 -0.0498
  246MPD1    N1 3740   2.821   0.511   8.908  0.2664  0.3066 -0.2057
  246MPD1    H6 3741   2.909   0.527   8.957  0.9645 -0.9585 -1.0561
  246MPD1    H7 3742   2.750   0.572   8.948  1.0947  1.5105 -0.5609
  247MPD1     C 3743   2.205   2.658  16.972  0.3334 -0.6002  0.0761
  247MPD1    C1 3744   2.211   2.725  16.851  0.3104  0.2330 -0.4465
  247MPD1    C2 3745   2.276   2.664  16.741  0.1626 -0.0387 -0.9407
  247MPD1    C3 3746   2.330   2.539  16.747 -0.9730 -0.3127  0.1007
  247MPD1    C4 3747   2.314   2.469  16.863 -0.7246 -0.0519 -1.0572
  247MPD1    C5 3748   2.260   2.526  16.972  0.4993 -0.3751  0.8030
  247MPD1     H 3749   2.277   2.724  16.650 -0.1417  0.8540 -0.3617
  247MPD1    H1 3750   2.364   2.373  16.869 -1.3250 -0.2555  0.5831
  247MPD1    H2 3751   2.162   2.694  17.065  0.2501 -1.1247  0.2392
  247MPD1    H3 3752   2.268   2.474  17.067 -0.2411  1.1871  1.7298
  247MPD1     N 3753   2.397   2.478  16.644 -0.1918 -0.1882  0.0415
  247MPD1    H5 3754   2.444   2.391  16.668 -1.0573  0.0335  2.4812
  247MPD1    N1 3755   2.174   2.860  16.845 -0.0604 -0.4111  0.1440
  247MPD1    H6 3756   2.121   2.877  16.760  1.4774  1.5188 -0.4440
  247MPD1    H7 3757   2.111   2.881  16.922  0.3020  2.0020 -0.2133
  248MPD1     C 3758   3.421   2.263   0.232 -0.9323 -0.1827  0.0925
  248MPD1    C1 3759   3.405   2.210   0.359 -0.2859 -0.1726 -0.1568
  248MPD1    C2 3760   3.371   2.300   0.458 -0.3611 -0.3568 -0.3648
  248MPD1    C3 3761   3.338   2.428   0.430 -0.2738  0.2134 -0.2913
  248MPD1    C4 3762   3.320   2.466   0.300  0.1065 -0.6677 -0.5318
  248MPD1    C5 3763   3.366   2.382   0.207  0.1003  0.5948 -0.0893
  248MPD1     H 3764   3.377   2.271   0.562 -3.4226 -0.0478 -0.0918
  248MPD1    H1 3765   3.261   2.553   0.273  0.0767 -1.0864 -1.7830
  248MPD1    H2 3766   3.459   2.200   0.152 -1.7164 -0.3802 -0.1260
  248MPD1    H3 3767   3.354   2.405   0.101 -0.4340  1.2518  0.1204
  248MPD1     N 3768   3.314   2.504   0.546  0.0632 -0.0783  0.3250
  248MPD1    H5 3769   3.318   2.450   0.631 -2.0093 -1.3654 -0.3922
  248MPD1    N1 3770   3.454   2.088   0.396  0.0867 -1.0699 -0.0404
  248MPD1    H6 3771   3.452   2.023   0.318  0.5165 -1.1231 -0.0098
  248MPD1    H7 3772   3.387   2.064   0.469  0.1682  0.8640  0.6684
  249MPD1     C 3773   0.566   0.807  10.370  0.2523 -0.0805 -0.0392
  249MPD1    C1 3774   0.674   0.862  10.433  0.3348 -0.1662  0.4850
  249MPD1    C2 3775   0.760   0.948  10.364  0.1577 -0.0546  0.0451
  249MPD1    C3 3776   0.733   0.980  10.234 -0.5353  0.3421 -0.3853
  249MPD1    C4 3777   0.622   0.931  10.171  0.3630  0.0550  0.1163
  249MPD1    C5 3778   0.536   0.843  10.240  0.0388 -0.4737  0.3466
  249MPD1     H 3779   0.842   0.990  10.421  0.6839 -1.5220  0.3667
  249MPD1    H1 3780   0.591   0.954  10.069 -1.3657  2.0596  1.0996
  249MPD1    H2 3781   0.500   0.738  10.421  0.2270  0.5731  0.8017
  249MPD1    H3 3782   0.455   0.786  10.197 -0.1984 -0.2897  0.5450
  249MPD1     N 3783   0.819   1.069  10.168 -0.9017  0.4423  0.3538
  249MPD1    H5 3784   0.913   1.078  10.207 -2.0077  1.8450  2.6494
  249MPD1    N1 3785   0.723   0.812  10.557 -0.2325  0.3980  0.2458
  249MPD1    H6 3786   0.654   0.763  10.614 -0.5218 -0.8382 -1.1618
  249MPD1    H7 3787   0.773   0.879  10.615 -1.3673  1.1923  0.2866
  250MPD2     C 3788   1.395   1.534  13.387  0.6869  0.3041 -0.6189
  250MPD2    C1 3789   1.456   1.506  13.267 -0.7112  0.4051 -0.6060
  250MPD2    C2 3790   1.416   1.385  13.203  0.4976  0.2049 -0.1130
  250MPD2    C3 3791   1.314   1.312  13.257  0.1862 -0.0485  0.0400
  250MPD2    C4 3792   1.254   1.346  13.377  0.2430 -0.5128  0.0853
  250MPD2    C5 3793   1.298   1.454  13.445  0.0381  0.0016 -0.2213
  250MPD2     H 3794   1.458   1.362  13.106 -1.1832  2.8120 -1.4594
  250MPD2    H1 3795   1.172   1.295  13.428 -0.4299  0.5335  0.0467
  250MPD2    H2 3796   1.405   1.629  13.438  1.0928 -0.1038  0.0754
  250MPD2    H3 3797   1.252   1.490  13.537 -0.5798  0.6090 -0.7625
  250MPD2     N 3798   1.271   1.198  13.193  0.4545  0.1680 -0.1319
  250MPD2    H5 3799   1.217   1.135  13.250  1.0285 -1.3471 -1.2720
  250MPD2    N1 3800   1.547   1.598  13.212  0.1216  0.1201  0.4967
  250MPD2    H7 3801   1.547   1.695  13.242  0.3786  0.3199 -0.1480
  251TMC3    C1 3802   1.693   1.703  13.056 -0.5953 -0.4712  0.3095
  251TMC3    C2 3803   1.677   1.819  13.127 -0.1305  0.1162  0.5185
  251TMC3    C3 3804   1.753   1.926  13.093  0.5669 -0.5107  0.3536
  251TMC3    C4 3805   1.796   1.690  12.967  0.1564 -0.3343 -0.2691
  251TMC3    C5 3806   1.862   1.806  12.926  0.6049 -0.6162 -0.4834
  251TMC3    C6 3807   1.844   1.925  12.992 -0.2011 -0.2545 -0.0877
  251TMC3     C 3808   1.623   1.578  13.101  0.3178 -0.0780 -0.4186
  251TMC3     O 3809   1.632   1.480  13.027  0.2479  0.2545 -0.4243
  251TMC3     H 3810   1.586   1.840  13.182 -0.5829 -0.1248 -0.1283
  251TMC3    H1 3811   1.807   1.607  12.897 -2.5272 -0.0746 -0.9872
  251TMC3    H2 3812   1.900   2.012  12.961  0.3950 -0.6332 -0.0796
  251TMC3    C7 3813   2.002   1.759  12.902  0.0873  0.0019 -0.6113
  251TMC3    C8 3814   1.697   2.049  13.148 -0.5872  0.4690  0.4542
  251TMC3    O1 3815   2.025   1.639  12.869  0.5756  0.1456 -0.0089
  251TMC3    O2 3816   1.674   2.039  13.268  0.1427 -0.5345 -0.4355
  252TMC3    C1 3817   1.916   2.839   9.305  0.6526 -0.3843 -0.6218
  252TMC3    C2 3818   2.049   2.866   9.304 -0.2064 -0.1986  0.5687
  252TMC3    C3 3819   2.128   2.791   9.390 -0.0183 -0.4941 -0.6130
  252TMC3    C4 3820   1.857   2.736   9.377  0.2823  0.5541 -0.5362
  252TMC3    C5 3821   1.946   2.660   9.454 -0.1467 -0.7111 -0.4517
  252TMC3    C6 3822   2.083   2.688   9.470 -0.3607 -0.8723 -0.2613
  252TMC3     C 3823   1.826   2.911   9.222 -0.3827 -0.3548 -0.3926
  252TMC3     O 3824   1.736   2.844   9.168  0.1058 -0.7429  0.6857
  252TMC3     H 3825   2.102   2.931   9.235 -1.7133  1.1815  0.7152
  252TMC3    H1 3826   1.752   2.710   9.375 -0.1663  2.2478  0.7968
  252TMC3    H2 3827   2.156   2.623   9.518  0.0560 -0.3246 -0.1538
  252TMC3    C7 3828   1.888   2.547   9.533 -0.0872  0.8040 -0.4239
  252TMC3    C8 3829   2.269   2.839   9.395  0.5950 -0.4991 -0.1534
  252TMC3    O1 3830   1.773   2.516   9.502  0.0184 -0.1503 -0.3099
  252TMC3    O2 3831   2.323   2.907   9.305  0.1298  0.0758 -0.4884
  253MPD2     C 3832   2.994   1.616  16.060 -0.0329 -0.4580 -0.2534
  253MPD2    C1 3833   2.864   1.572  16.068 -0.4490 -0.1784  0.2979
  253MPD2    C2 3834   2.814   1.518  16.185  0.1473 -0.3303 -0.6380
  253MPD2    C3 3835   2.899   1.503  16.298 -0.7553 -0.3527 -0.3197
  253MPD2    C4 3836   3.032   1.539  16.294  0.2215  0.6978  0.1401
  253MPD2    C5 3837   3.071   1.597  16.170  0.7900 -0.3092 -0.1000
  253MPD2     H 3838   2.711   1.486  16.187  0.1430 -0.1814  2.1445
  253MPD2    H1 3839   3.107   1.512  16.367  1.9706 -2.2611 -2.7133
  253MPD2    H2 3840   3.037   1.654  15.968 -0.8072  2.4452  0.5835
  253MPD2    H3 3841   3.173   1.632  16.161  0.9425 -0.4996  0.9770
  253MPD2     N 3842   2.850   1.451  16.421 -0.0449  0.4629 -0.0039
  253MPD2    H5 3843   2.923   1.443  16.491  0.5004  1.0583 -0.5027
  253MPD2    N1 3844   2.765   1.587  15.967 -0.5489 -0.5756  0.0661
  253MPD2    H7 3845   2.671   1.555  15.989 -0.4216 -0.7132  0.4149
  254TMC3    C1 3846   2.712   1.325  16.568 -0.6770 -0.5342  0.1615
  254TMC3    C2 3847   2.603   1.245  16.582  0.5461 -0.3745 -0.4944
  254TMC3    C3 3848   2.561   1.210  16.709 -0.0714 -0.1857  0.4314
  254TMC3    C4 3849   2.766   1.379  16.680 -0.1024 -0.1775 -0.7126
  254TMC3    C5 3850   2.726   1.343  16.806 -0.2594 -0.1835  0.7783
  254TMC3    C6 3851   2.628   1.247  16.822  0.7140 -0.2964  0.5049
  254TMC3     C 3852   2.721   1.402  16.449  0.5927 -0.0780 -0.2597
  254TMC3     O 3853   2.630   1.389  16.374  0.1118 -0.0146 -0.7992
  254TMC3     H 3854   2.541   1.227  16.495 -0.0740 -0.3707 -0.0490
  254TMC3    H1 3855   2.853   1.442  16.670 -0.6341  0.6819  0.0351
  254TMC3    H2 3856   2.601   1.206  16.919  2.7028 -2.9575 -0.0805
  254TMC3    C7 3857   2.728   1.434  16.920 -0.5955 -0.4157 -0.3214
  254TMC3    C8 3858   2.425   1.193  16.738  0.4218 -0.0262 -0.2863
  254TMC3    O1 3859   2.679   1.380  17.021  0.2153 -0.6891  0.2714
  254TMC3    O2 3860   2.378   1.237  16.843  0.6127  0.7600 -0.1572
  255MPD2     C 3861   1.424   4.130  10.489 -0.1615 -0.2054  0.4997
  255MPD2    C1 3862   1.355   4.052  10.400 -0.1451  0.1663 -0.0796
  255MPD2    C2 3863   1.423   3.945  10.348 -0.5711  0.1867  0.4192
  255MPD2    C3 3864   1.561   3.928  10.369  0.0290 -0.7004 -0.7676
  255MPD2    C4 3865   1.630   4.009  10.454 -0.4916  0.3632  0.0128
  255MPD2    C5 3866   1.556   4.116  10.516  0.3037  0.3478 -0.5742
  255MPD2     H 3867   1.370   3.875  10.285  2.2477  0.1305 -1.8889
  255MPD2    H1 3868   1.723   3.974  10.496 -1.0191 -1.3379 -0.2192
  255MPD2    H2 3869   1.368   4.210  10.537 -1.8637 -2.5007  2.3097
  255MPD2    H3 3870   1.606   4.189  10.579 -0.3096 -0.6034  1.0008
  255MPD2     N 3871   1.620   3.814  10.309  0.5441 -0.2715  0.1747
  255MPD2    H5 3872   1.554   3.759  10.255  0.0441 -1.4728  2.0225
  255MPD2    N1 3873   1.221   4.080  10.380 -0.3466  0.6782 -0.5438
  255MPD2    H7 3874   1.183   4.152  10.441  1.2397 -0.6672  2.0361
  256TMC3    C1 3875   1.058   4.151  10.213  0.1943 -0.8061  0.4287
  256TMC3    C2 3876   1.108   4.278  10.198 -0.0003 -0.0731  0.4168
  256TMC3    C3 3877   1.063   4.364  10.102 -0.1567 -0.9430 -0.1262
  256TMC3    C4 3878   0.950   4.119  10.133 -0.6145 -0.0368 -0.8301
  256TMC3    C5 3879   0.913   4.205  10.036  0.4161  0.6936 -0.1071
  256TMC3    C6 3880   0.959   4.330  10.013  0.1786 -0.5748  0.4894
  256TMC3     C 3881   1.150   4.047  10.261 -0.2255 -0.7433 -0.1867
  256TMC3     O 3882   1.164   3.953  10.182  0.1683  0.7321  0.1247
  256TMC3     H 3883   1.195   4.301  10.259  0.0208 -0.4684  0.5324
  256TMC3    H1 3884   0.900   4.023  10.139  0.0049 -0.4271 -1.8968
  256TMC3    H2 3885   0.928   4.385   9.924 -2.2925 -2.5976  0.1091
  256TMC3    C7 3886   0.851   4.148   9.917 -0.3421  0.1214  0.0294
  256TMC3    C8 3887   1.166   4.453  10.054  0.1447  0.5470  0.1885
  256TMC3    O1 3888   0.920   4.159   9.815 -0.9819  0.0732  0.1472
  256TMC3    O2 3889   1.245   4.496  10.137 -0.2750 -0.0517 -0.1822
  257MPD2     C 3890   0.644   1.740  13.223 -1.1950 -0.8638  0.8036
  257MPD2    C1 3891   0.585   1.647  13.142 -0.4160  0.3604 -0.1151
  257MPD2    C2 3892   0.513   1.541  13.202  0.1674 -0.4948 -0.2373
  257MPD2    C3 3893   0.512   1.525  13.339 -0.1258  0.3409  0.3133
  257MPD2    C4 3894   0.586   1.619  13.412  0.0795  0.0226  0.1262
  257MPD2    C5 3895   0.640   1.731  13.360  0.5184 -1.1446 -0.2194
  257MPD2     H 3896   0.459   1.470  13.140 -1.0210  0.2482 -0.0308
  257MPD2    H1 3897   0.581   1.613  13.520  1.2622  0.8037  0.2275
  257MPD2    H2 3898   0.691   1.828  13.180  0.6292 -1.6116  1.2896
  257MPD2    H3 3899   0.700   1.794  13.424  1.1743 -0.8025 -1.1745
  257MPD2     N 3900   0.451   1.409  13.381  0.4667  0.1085 -0.0645
  257MPD2    H5 3901   0.412   1.348  13.310 -0.9933  1.4663 -0.4130
  257MPD2    N1 3902   0.609   1.666  13.004 -0.3060  0.2698  0.0494
  257MPD2    H7 3903   0.657   1.751  12.977  1.6389 -0.5995  0.7663
  258TMC3    C1 3904   0.347   1.262  13.532  0.2705  0.8081 -0.0784
  258TMC3    C2 3905   0.234   1.267  13.458  0.5652  0.1313  0.0344
  258TMC3    C3 3906   0.130   1.179  13.486 -0.3189  0.6523 -0.1329
  258TMC3    C4 3907   0.362   1.179  13.641  0.2885  0.3904 -0.0390
  258TMC3    C5 3908   0.258   1.095  13.661 -0.0428  0.0256 -0.7023
  258TMC3    C6 3909   0.139   1.099  13.592  0.1445  0.6229  0.3036
  258TMC3     C 3910   0.425   1.381  13.516  0.2681  0.3723 -0.2513
  258TMC3     O 3911   0.492   1.427  13.609  0.6862  0.0301 -0.4702
  258TMC3     H 3912   0.214   1.348  13.390  1.5281  0.5382  0.2456
  258TMC3    H1 3913   0.447   1.183  13.708 -0.2950 -4.2184  0.9149
  258TMC3    H2 3914   0.055   1.039  13.625  1.0970 -1.0481 -0.2892
  258TMC3    C7 3915   0.241   1.045  13.793  0.4161 -0.8225 -0.0014
  258TMC3    C8 3916   0.018   1.174  13.391 -0.4330 -0.6208  0.1466
  258TMC3    O1 3917   0.128   1.015  13.835 -0.1354 -0.1782  0.3096
  258TMC3    O2 3918   0.025   1.243  13.291 -0.2585  0.7551 -0.0769
  259MPD2     C 3919   3.899   3.045   0.936  0.4689 -0.5455  1.0286
  259MPD2    C1 3920   3.912   2.914   0.977 -0.7641  0.2205  0.0266
  259MPD2    C2 3921   3.978   2.829   0.892 -0.5010 -0.2091  0.1509
  259MPD2    C3 3922   4.011   2.860   0.763  0.2772 -0.6793  0.6300
  259MPD2    C4 3923   3.979   2.992   0.721  0.1856 -0.4775 -0.2787
  259MPD2    C5 3924   3.941   3.085   0.807  0.3940 -0.0844  0.1823
  259MPD2     H 3925   4.006   2.728   0.920 -0.0859 -0.3946 -0.9512
  259MPD2    H1 3926   3.994   3.030   0.620  2.7096  1.6656  0.9056
  259MPD2    H2 3927   3.866   3.126   0.999  1.3102 -0.1787  1.0011
  259MPD2    H3 3928   3.934   3.190   0.780  0.9078  0.7558  3.3488
  259MPD2     N 3929   4.071   2.768   0.681  0.0547 -0.0589 -0.0568
  259MPD2    H5 3930   4.111   2.687   0.727  0.4477 -1.1997 -2.4451
  259MPD2    N1 3931   3.881   2.891   1.115 -0.2826 -0.1833 -0.8232
  259MPD2    H7 3932   3.832   2.966   1.163 -0.7432 -1.2692  0.3733
  260TMC3    C1 3933   4.140   2.656   0.499  0.4367  0.2640 -0.1210
  260TMC3    C2 3934   4.274   2.668   0.524  0.1604  0.1703  0.2725
  260TMC3    C3 3935   4.369   2.636   0.430 -0.5580 -0.4469 -0.8176
  260TMC3    C4 3936   4.096   2.619   0.378 -0.4486  0.0510  0.0885
  260TMC3    C5 3937   4.190   2.581   0.291  0.2444 -0.3149  0.0179
  260TMC3    C6 3938   4.324   2.581   0.316 -0.2785  0.2550  0.4334
  260TMC3     C 3939   4.052   2.763   0.547  0.0773  0.0830  0.6083
  260TMC3     O 3940   3.982   2.824   0.464 -0.2359 -0.1618  0.2319
  260TMC3     H 3941   4.304   2.737   0.603  1.3525  0.0398 -0.0642
  260TMC3    H1 3942   3.993   2.592   0.360 -1.2214  1.4302  2.4547
  260TMC3    H2 3943   4.397   2.560   0.238 -1.2337 -0.4158 -0.2719
  260TMC3    C7 3944   4.148   2.514   0.175 -0.1910 -0.3506  0.2263
  260TMC3    C8 3945   4.428   2.762   0.390  0.1052  0.1039 -0.8832
  260TMC3    O1 3946   4.232   2.434   0.140 -0.4102 -0.2633  0.0732
  260TMC3    O2 3947   4.381   2.812   0.288 -0.1347 -0.0788  0.0524
  261MPD2     C 3948   1.024   0.983  12.433 -0.6165  0.2491 -0.4905
  261MPD2    C1 3949   1.119   1.045  12.508  0.1336 -0.3533 -0.0611
  261MPD2    C2 3950   1.212   1.131  12.445 -0.1429  0.0954 -0.0463
  261MPD2    C3 3951   1.230   1.124  12.308  0.6502  0.1003 -0.2937
  261MPD2    C4 3952   1.142   1.047  12.234  0.3042 -0.2579  0.0675
  261MPD2    C5 3953   1.036   0.983  12.297 -0.5977 -0.2266  0.3052
  261MPD2     H 3954   1.284   1.188  12.504 -0.9316 -0.8098  1.7939
  261MPD2    H1 3955   1.146   1.041  12.126 -0.6748  0.0927  0.0139
  261MPD2    H2 3956   0.933   0.945  12.479 -0.6821  1.1147  0.0772
  261MPD2    H3 3957   0.965   0.931  12.233  0.2876  0.3909 -1.1945
  261MPD2     N 3958   1.325   1.208  12.240 -0.1655  0.2428  0.5207
  261MPD2    H5 3959   1.367   1.289  12.284  1.4567 -0.5853  0.4664
  261MPD2    N1 3960   1.121   1.038  12.651  0.0131 -0.5103 -0.2866
  261MPD2    H7 3961   1.194   1.095  12.692 -0.5875  0.3500 -0.4192
  262TMC3    C1 3962   1.423   1.293  12.037 -0.0516 -0.0659  0.3361
  262TMC3    C2 3963   1.373   1.418  12.060  0.2528 -0.7586  0.5784
  262TMC3    C3 3964   1.404   1.511  11.964 -0.3826  0.1020  0.0210
  262TMC3    C4 3965   1.507   1.255  11.937  0.3517  0.3645  0.2579
  262TMC3    C5 3966   1.546   1.359  11.859 -0.0021 -0.0473 -0.0860
  262TMC3    C6 3967   1.490   1.483  11.862 -0.8917  0.2033 -0.0250
  262TMC3     C 3968   1.359   1.184  12.107  0.0324  0.5365 -0.3432
  262TMC3     O 3969   1.340   1.089  12.033  0.0465  0.0686 -0.1314
  262TMC3     H 3970   1.312   1.434  12.148 -0.4840  1.9081 -0.4376
  262TMC3    H1 3971   1.547   1.155  11.929  0.6758  0.5633 -0.5896
  262TMC3    H2 3972   1.510   1.552  11.780  0.0689  0.2050  0.2164
  262TMC3    C7 3973   1.626   1.321  11.743 -0.1061 -0.1292  0.5324
  262TMC3    C8 3974   1.374   1.653  11.978  0.8166 -0.2281  0.2318
  262TMC3    O1 3975   1.645   1.200  11.724  0.1422 -0.4669  0.3305
  262TMC3    O2 3976   1.448   1.737  11.927 -0.5414  0.3749  0.0331
  263MPD2     C 3977   2.079   0.220  11.639 -0.0161 -0.4584 -0.2195
  263MPD2    C1 3978   2.162   0.316  11.695  0.4223 -0.1107 -0.3836
  263MPD2    C2 3979   2.196   0.429  11.618 -0.9633 -0.1885  1.3142
  263MPD2    C3 3980   2.147   0.429  11.483 -0.1804  0.0617 -0.3097
  263MPD2    C4 3981   2.060   0.334  11.438 -0.3356 -0.5363 -0.2639
  263MPD2    C5 3982   2.020   0.229  11.519 -0.3475 -0.2864 -0.5281
  263MPD2     H 3983   2.264   0.504  11.655 -0.0694  0.2291 -1.2219
  263MPD2    H1 3984   2.026   0.326  11.336  0.4178  2.1252 -0.7212
  263MPD2    H2 3985   2.045   0.135  11.698  0.5013 -0.2025  0.4475
  263MPD2    H3 3986   1.952   0.151  11.487 -0.5300  0.4014 -1.8560
  263MPD2     N 3987   2.197   0.533  11.399 -0.5311  0.0403 -0.2673
  263MPD2    H5 3988   2.258   0.594  11.453  0.8755  1.1607 -3.0796
  263MPD2    N1 3989   2.226   0.286  11.820  0.3126 -0.5258  0.3069
  263MPD2    H7 3990   2.210   0.194  11.860 -0.1052 -1.1399 -1.2723
  264TMC3    C1 3991   2.253   0.653  11.207  0.0499 -0.3441  0.6079
  264TMC3    C2 3992   2.230   0.775  11.263 -0.5665  0.4582  0.4211
  264TMC3    C3 3993   2.241   0.877  11.172  0.5337  0.1691 -0.2756
  264TMC3    C4 3994   2.291   0.624  11.080 -0.0536  1.2553  0.7037
  264TMC3    C5 3995   2.303   0.729  10.997  0.2184  0.1824 -0.2884
  264TMC3    C6 3996   2.261   0.851  11.038  0.3798 -0.6151  0.1725
  264TMC3     C 3997   2.192   0.533  11.266 -0.7534 -0.0035 -0.2301
  264TMC3     O 3998   2.160   0.439  11.194 -0.0138 -0.6743  0.5411
  264TMC3     H 3999   2.219   0.791  11.370  0.1349 -2.0118  0.8567
  264TMC3    H1 4000   2.330   0.525  11.058 -2.0628  0.6162  0.0327
  264TMC3    H2 4001   2.268   0.925  10.959 -1.1386 -1.1728 -0.4869
  264TMC3    C7 4002   2.437   0.729  10.935 -0.3627 -0.1950 -0.6178
  264TMC3    C8 4003   2.318   0.996  11.208 -0.5190 -0.4906  0.1422
  264TMC3    O1 4004   2.482   0.620  10.897 -0.7348 -0.4217 -0.5421
  264TMC3    O2 4005   2.396   1.028  11.119  0.5515  0.0541 -0.7930
  265MPD2     C 4006   4.187   1.146  15.662 -0.2653 -0.3410  0.3085
  265MPD2    C1 4007   4.148   1.249  15.580  0.4342  0.5720 -0.0342
  265MPD2    C2 4008   4.165   1.235  15.445  0.4926 -0.3145  0.0056
  265MPD2    C3 4009   4.230   1.128  15.391  0.3485 -0.1502 -0.1642
  265MPD2    C4 4010   4.273   1.026  15.474 -0.4758  0.5075 -0.3636
  265MPD2    C5 4011   4.240   1.034  15.609  0.6533  0.5930  0.4477
  265MPD2     H 4012   4.129   1.322  15.391  1.8094  0.5918  0.5770
  265MPD2    H1 4013   4.300   0.932  15.426  1.3588  0.2923  1.0634
  265MPD2    H2 4014   4.168   1.135  15.768  1.2063 -0.4504  0.5566
  265MPD2    H3 4015   4.275   0.958  15.678 -0.5399 -0.3117  0.0647
  265MPD2     N 4016   4.248   1.121  15.249  0.6692 -0.2793  0.2905
  265MPD2    H5 4017   4.298   1.036  15.226  0.4979  0.5181 -2.9626
  265MPD2    N1 4018   4.092   1.374  15.626  0.0224  0.0953  0.0674
  265MPD2    H7 4019   4.075   1.443  15.553  1.0842  0.3615  0.0658
  266TMC3    C1 4020   4.013   1.524  15.789  0.2475 -0.0772  0.1402
  266TMC3    C2 4021   4.032   1.557  15.923  0.7630 -0.5011  0.0910
  266TMC3    C3 4022   4.020   1.682  15.965  0.6193 -0.6263 -0.0448
  266TMC3    C4 4023   3.992   1.624  15.695 -0.6634  0.5196  0.9392
  266TMC3    C5 4024   3.993   1.755  15.744  0.0279  0.0735 -0.7562
  266TMC3    C6 4025   4.006   1.787  15.879 -0.3615  0.5991 -0.3155
  266TMC3     C 4026   4.051   1.391  15.752  0.4434 -0.2320 -0.3081
  266TMC3     O 4027   4.055   1.306  15.840 -0.0798  0.2102  0.0184
  266TMC3     H 4028   4.055   1.482  15.998 -1.5029 -1.5735 -0.2965
  266TMC3    H1 4029   3.968   1.616  15.590 -1.5949  1.3815  1.0799
  266TMC3    H2 4030   4.010   1.889  15.916  1.7468  0.5013 -0.3011
  266TMC3    C7 4031   3.923   1.844  15.653 -0.2693  0.6136  0.9066
  266TMC3    C8 4032   4.083   1.708  16.095 -0.1910  0.6290  0.1484
  266TMC3    O1 4033   3.829   1.802  15.587 -0.4773  0.4684  0.3388
  266TMC3    O2 4034   4.161   1.618  16.133  0.2461  0.0721 -0.0801
  267MPD2     C 4035   1.639   2.842   0.345 -0.3781  0.5170  0.5658
  267MPD2    C1 4036   1.718   2.938   0.281  0.0284  0.0830  0.2141
  267MPD2    C2 4037   1.680   2.998   0.157  0.8435  0.2978  0.4453
  267MPD2    C3 4038   1.565   2.956   0.096  0.3057 -0.6661 -0.6138
  267MPD2    C4 4039   1.489   2.850   0.153  0.1715  0.6937 -0.2471
  267MPD2    C5 4040   1.524   2.801   0.277  0.2427 -0.5900 -0.2257
  267MPD2     H 4041   1.735   3.081   0.115 -2.1613  2.3563  0.5451
  267MPD2    H1 4042   1.398   2.818   0.103  1.2085 -2.9137  0.1991
  267MPD2    H2 4043   1.666   2.813   0.446 -1.6838  0.5947  0.9310
  267MPD2    H3 4044   1.468   2.725   0.329  1.7581 -0.6498  1.3321
  267MPD2     N 4045   1.534   3.013  17.670  0.3722  0.4894 -0.1180
  267MPD2    H5 4046   1.457   2.973  17.617  2.3715  0.2675 -2.8830
  267MPD2    N1 4047   1.847   2.967   0.343  0.1825 -0.2856 -0.4564
  267MPD2    H7 4048   1.880   2.900   0.411  0.9212 -0.1835 -0.7150
  268TMC3    C1 4049   2.050   3.074   0.395 -0.0132  0.0563 -0.1625
  268TMC3    C2 4050   2.145   3.144   0.330  0.1965 -0.6805  0.5661
  268TMC3    C3 4051   2.272   3.138   0.375  0.2925  0.5840 -0.4687
  268TMC3    C4 4052   2.082   3.001   0.506  0.7915  0.0399 -0.8021
  268TMC3    C5 4053   2.213   3.000   0.550 -0.4320  0.0954  0.1483
  268TMC3    C6 4054   2.313   3.062   0.482  0.5643 -0.2820 -0.1087
  268TMC3     C 4055   1.930   3.071   0.311  0.2847  0.5267  0.8887
  268TMC3     O 4056   1.908   3.169   0.242  0.0510  0.3466 -0.0383
  268TMC3     H 4057   2.125   3.202   0.241 -2.8375 -1.1033  0.9880
  268TMC3    H1 4058   2.000   2.952   0.557  2.0741  0.6565  1.8305
  268TMC3    H2 4059   2.414   3.063   0.523  0.5000 -2.0207  0.0926
  268TMC3    C7 4060   2.252   2.909   0.662  1.1544  0.1824 -0.7907
  268TMC3    C8 4061   2.359   3.241   0.332 -0.6631  0.1501 -0.0809
  268TMC3    O1 4062   2.169   2.864   0.736  0.6217  0.0021  0.9172
  268TMC3    O2 4063   2.427   3.298   0.413 -0.2151  0.6460  0.3270
  269MPD2     C 4064   1.939   1.642  15.893 -0.2954  0.0586 -0.0888
  269MPD2    C1 4065   1.821   1.681  15.841 -0.0900  0.8315 -0.2039
  269MPD2    C2 4066   1.807   1.816  15.818  0.4512  0.4534 -0.2140
  269MPD2    C3 4067   1.911   1.904  15.834 -0.0358 -0.2127 -0.0303
  269MPD2    C4 4068   2.028   1.858  15.891 -0.2629  1.0082  0.3844
  269MPD2    C5 4069   2.039   1.732  15.924 -0.0179  0.1769  0.6247
  269MPD2     H 4070   1.712   1.859  15.788 -0.0468 -1.1045 -0.8826
  269MPD2    H1 4071   2.102   1.935  15.910  1.6431 -1.0672  1.5024
  269MPD2    H2 4072   1.966   1.538  15.905 -0.6220  0.0556  0.6474
  269MPD2    H3 4073   2.134   1.689  15.956 -2.0442 -3.3590  1.9144
  269MPD2     N 4074   1.882   2.040  15.797 -0.2866  0.2070 -0.0420
  269MPD2    H5 4075   1.795   2.049  15.745  0.6336  1.8162 -1.2899
  269MPD2    N1 4076   1.722   1.578  15.817 -0.2816 -0.7938 -0.0537
  269MPD2    H7 4077   1.742   1.480  15.836 -0.6108 -1.0357 -0.9555
  270TMC3    C1 4078   1.528   1.468  15.749 -0.2508  1.0094 -1.0179
  270TMC3    C2 4079   1.406   1.459  15.682  0.5923  0.8949  0.4548
  270TMC3    C3 4080   1.357   1.336  15.658 -0.0146  0.0984  0.1893
  270TMC3    C4 4081   1.592   1.356  15.802  0.2227  0.5608 -0.6593
  270TMC3    C5 4082   1.536   1.230  15.773 -0.3447  0.1887 -0.1733
  270TMC3    C6 4083   1.428   1.220  15.690  0.2327  0.0075  0.0944
  270TMC3     C 4084   1.597   1.597  15.766  0.7868  0.1122 -0.1740
  270TMC3     O 4085   1.548   1.695  15.713 -0.1365  0.2099 -0.0961
  270TMC3     H 4086   1.352   1.546  15.647  3.4804  1.4449 -2.7274
  270TMC3    H1 4087   1.684   1.353  15.860 -1.8448 -1.1169  2.5303
  270TMC3    H2 4088   1.385   1.123  15.670 -1.5708  1.0302 -1.0201
  270TMC3    C7 4089   1.595   1.111  15.831 -1.1804 -0.4112  0.0207
  270TMC3    C8 4090   1.273   1.326  15.548 -0.0852  0.2109 -0.5005
  270TMC3    O1 4091   1.660   1.121  15.936  0.0747 -0.0015 -1.0367
  270TMC3    O2 4092   1.179   1.408  15.542  0.5403 -0.4404  0.2016
  271MPD2     C 4093   0.845   1.604  13.889  0.3528  0.1739  0.2287
  271MPD2    C1 4094   0.806   1.549  14.015 -0.8007 -0.1022  1.0098
  271MPD2    C2 4095   0.670   1.579  14.054  0.2463  0.0524  0.3159
  271MPD2    C3 4096   0.576   1.647  13.981 -0.7052  0.1805  0.4688
  271MPD2    C4 4097   0.622   1.697  13.863  0.7352 -0.5782 -0.2231
  271MPD2    C5 4098   0.751   1.677  13.818  0.1380  0.8089  0.1477
  271MPD2     H 4099   0.641   1.543  14.152 -0.5765  0.8249  0.3580
  271MPD2    H1 4100   0.560   1.755  13.796 -1.5187 -0.1345  2.2615
  271MPD2    H2 4101   0.950   1.606  13.864  0.1798  0.5268 -0.4789
  271MPD2    H3 4102   0.774   1.737  13.731  1.3081 -0.3622 -0.3516
  271MPD2     N 4103   0.444   1.669  14.033 -0.1886  0.1515  0.7942
  271MPD2    H5 4104   0.382   1.689  13.955  1.5318 -0.8589 -0.8522
  271MPD2    N1 4105   0.896   1.475  14.096  0.1678 -0.1178  0.5777
  271MPD2    H7 4106   0.857   1.447  14.186  1.8824 -3.2788  0.3465
  272TMC3    C1 4107   1.094   1.380  14.191  0.8571 -0.6572  0.4103
  272TMC3    C2 4108   1.228   1.347  14.173 -0.0003 -0.0291 -0.7445
  272TMC3    C3 4109   1.294   1.302  14.282  0.4324 -0.5322 -0.9287
  272TMC3    C4 4110   1.027   1.359  14.308 -0.1740 -0.5621  0.2070
  272TMC3    C5 4111   1.101   1.322  14.415 -0.1719 -0.1372  0.3687
  272TMC3    C6 4112   1.235   1.295  14.405 -0.3348  0.1193  0.3792
  272TMC3     C 4113   1.024   1.431  14.066  0.0606  0.1339  0.2491
  272TMC3     O 4114   1.097   1.452  13.970 -0.0679 -0.1257  0.6755
  272TMC3     H 4115   1.277   1.371  14.079 -1.0678  1.7302 -0.8469
  272TMC3    H1 4116   0.929   1.395  14.336 -0.1474 -1.3974  1.3878
  272TMC3    H2 4117   1.289   1.256  14.490 -1.7059  0.4837  1.4112
  272TMC3    C7 4118   1.040   1.324  14.544 -0.1521  0.2312  0.0098
  272TMC3    C8 4119   1.432   1.255  14.272 -0.9708 -0.2078 -0.4586
  272TMC3    O1 4120   0.923   1.300  14.543 -0.0989  0.0958  0.2635
  272TMC3    O2 4121   1.501   1.312  14.187 -0.3403  0.1010 -0.6309
  273MPD2     C 4122   2.955   3.962  11.926 -0.4223  0.2137 -0.6224
  273MPD2    C1 4123   3.033   4.054  11.851 -0.6276 -0.1646 -0.2981
  273MPD2    C2 4124   3.025   4.048  11.716 -0.2350 -0.3945 -0.0570
  273MPD2    C3 4125   2.927   3.969  11.648  0.3509  0.9481 -0.6251
  273MPD2    C4 4126   2.846   3.890  11.723  0.7342 -0.2716  1.1820
  273MPD2    C5 4127   2.864   3.888  11.858  0.5396  0.7616  0.7868
  273MPD2     H 4128   3.082   4.122  11.662 -0.8223  0.3384  0.3380
  273MPD2    H1 4129   2.770   3.829  11.677  0.7725  1.6510 -1.3981
  273MPD2    H2 4130   2.958   3.947  12.033  1.0282  0.3307 -0.6520
  273MPD2    H3 4131   2.797   3.822  11.911  0.3076  0.5456  0.2296
  273MPD2     N 4132   2.898   3.986  11.509  0.8131  0.2918  0.1896
  273MPD2    H5 4133   2.811   3.949  11.471  0.7847 -1.3955  1.8948
  273MPD2    N1 4134   3.112   4.149  11.915 -0.2539  0.3389  0.5912
  273MPD2    H7 4135   3.100   4.171  12.013  1.4292 -0.7137  1.0316
  274TMC3    C1 4136   2.897   4.147  11.358 -0.1497 -0.2779  0.1445
  274TMC3    C2 4137   2.780   4.101  11.312 -0.3963 -1.0162  1.0800
  274TMC3    C3 4138   2.669   4.194  11.303  0.0146 -0.9869 -0.3026
  274TMC3    C4 4139   2.914   4.272  11.395 -0.4623 -0.7114  0.0453
  274TMC3    C5 4140   2.806   4.356  11.394 -0.0363 -0.0130 -0.4734
  274TMC3    C6 4141   2.680   4.322  11.356 -0.5102  0.1053 -0.3294
  274TMC3     C 4142   2.982   4.062  11.428  0.0847  0.7218  0.5322
  274TMC3     O 4143   3.095   4.105  11.448  0.4932  0.2969  0.6827
  274TMC3     H 4144   2.765   4.002  11.271  0.1824 -0.3373 -0.8050
  274TMC3    H1 4145   3.006   4.303  11.443 -1.0435 -0.1151  0.7561
  274TMC3    H2 4146   2.599   4.392  11.341  0.0543  1.1987  1.7564
  274TMC3    C7 4147   2.796   4.444  11.510 -0.1678  0.4085  0.2196
  274TMC3    C8 4148   2.546   4.166  11.229  0.4040  0.5427  1.1956
  274TMC3    O1 4149   2.685   4.475  11.553  0.3890 -0.7777 -0.1446
  274TMC3    O2 4150   2.489   4.258  11.175  0.0667 -0.0104 -0.1079
  275MPD2     C 4151   2.619   2.280  14.264  0.1297 -0.1223 -0.0590
  275MPD2    C1 4152   2.586   2.229  14.391  0.0362 -0.4157 -0.1816
  275MPD2    C2 4153   2.451   2.196  14.412 -0.3486 -0.0519 -0.0579
  275MPD2    C3 4154   2.351   2.213  14.318 -0.0864 -0.7305 -0.0480
  275MPD2    C4 4155   2.397   2.239  14.192 -0.3991  0.0661  0.1115
  275MPD2    C5 4156   2.526   2.280  14.163  0.4978  0.2847 -1.0330
  275MPD2     H 4157   2.419   2.152  14.505 -1.5959  0.2004 -0.3687
  275MPD2    H1 4158   2.326   2.250  14.110 -0.7888  0.6179  0.5242
  275MPD2    H2 4159   2.715   2.326  14.246 -0.6006  1.2406 -0.4221
  275MPD2    H3 4160   2.544   2.332  14.069 -1.6380  2.2371 -0.3514
  275MPD2     N 4161   2.215   2.192  14.341 -0.2388  0.4372 -0.2625
  275MPD2    H5 4162   2.153   2.175  14.263  0.9300 -1.1074 -0.8498
  275MPD2    N1 4163   2.675   2.218  14.498 -0.1841  0.1947 -0.0271
  275MPD2    H7 4164   2.639   2.165  14.577  1.4383  1.9789  1.9227
  276TMC3    C1 4165   2.866   2.226  14.629 -1.0359  0.1416 -0.4814
  276TMC3    C2 4166   2.827   2.105  14.668  0.0669 -0.4981 -0.6421
  276TMC3    C3 4167   2.853   2.068  14.799 -0.4564  0.3824  0.1516
  276TMC3    C4 4168   2.936   2.315  14.719 -0.6436  0.6464 -0.2235
  276TMC3    C5 4169   2.965   2.269  14.847  0.4012 -0.0365 -0.5763
  276TMC3    C6 4170   2.921   2.146  14.890  0.1938  0.2711  0.2551
  276TMC3     C 4171   2.807   2.267  14.501  0.2295  0.0751  0.6944
  276TMC3     O 4172   2.871   2.339  14.426  0.1770 -0.3973  0.0912
  276TMC3     H 4173   2.789   2.037  14.593  0.3357 -1.4896  0.1093
  276TMC3    H1 4174   2.965   2.415  14.688 -1.6833  1.3794  1.1604
  276TMC3    H2 4175   2.942   2.111  14.990  1.2518  2.3018  0.7410
  276TMC3    C7 4176   3.061   2.330  14.931 -0.2533  0.2979  0.0094
  276TMC3    C8 4177   2.835   1.927  14.823  0.2878 -0.3649  0.2017
  276TMC3    O1 4178   3.049   2.302  15.045 -0.0130 -0.1329  0.5056
  276TMC3    O2 4179   2.859   1.854  14.727  0.0888  0.5759 -0.1356
  277MPD2     C 4180   4.591   1.309  13.668 -0.4730  0.3399 -0.0854
  277MPD2    C1 4181   4.457   1.294  13.637 -0.5137  0.3016  0.2167
  277MPD2    C2 4182   4.389   1.193  13.710 -0.2972  0.0987 -0.2679
  277MPD2    C3 4183   4.446   1.129  13.819 -0.0674 -0.1224 -0.6902
  277MPD2    C4 4184   4.576   1.164  13.858 -0.1062  0.0556  0.4835
  277MPD2    C5 4185   4.647   1.244  13.772  0.3653 -0.4753  0.2399
  277MPD2     H 4186   4.290   1.160  13.680 -0.4534 -1.0680  1.5148
  277MPD2    H1 4187   4.628   1.116  13.941  1.2189  0.4722 -0.1074
  277MPD2    H2 4188   4.656   1.371  13.606 -0.6249  2.2465  1.6636
  277MPD2    H3 4189   0.025   1.275  13.797  0.2020 -1.0998  1.6809
  277MPD2     N 4190   4.361   1.055  13.899 -0.1079 -0.0603 -0.0115
  277MPD2    H5 4191   4.267   1.035  13.868  0.5642  1.3993 -3.0265
  277MPD2    N1 4192   4.412   1.359  13.522 -0.2796 -0.0287 -0.2867
  277MPD2    H7 4193   4.480   1.414  13.470  2.8401 -0.2006  3.6171
  278TMC3    C1 4194   4.277   0.914  14.046  0.6652  0.0709 -0.4366
  278TMC3    C2 4195   4.267   0.775  14.046 -0.0321 -0.1164 -0.2451
  278TMC3    C3 4196   4.136   0.724  14.065 -1.3636  0.0372  0.5946
  278TMC3    C4 4197   4.174   0.997  14.079 -0.6546 -0.0545 -0.2938
  278TMC3    C5 4198   4.055   0.941  14.114 -0.3976  0.0588 -0.0728
  278TMC3    C6 4199   4.035   0.801  14.097  0.3996 -0.1592 -0.3171
  278TMC3     C 4200   4.400   0.958  13.985  0.5016  0.0383 -0.6084
  278TMC3     O 4201   4.503   0.894  14.001  0.3839 -0.1489  0.7216
  278TMC3     H 4202   4.341   0.706  14.006  1.7277  2.0529 -0.7018
  278TMC3    H1 4203   4.187   1.104  14.089  1.8183 -0.1030 -2.9004
  278TMC3    H2 4204   3.946   0.748  14.128 -0.2788  1.4725  0.4907
  278TMC3    C7 4205   3.949   1.034  14.148  0.6744  0.0702 -0.2704
  278TMC3    C8 4206   4.118   0.586  14.012 -0.1785 -0.3416 -0.1055
  278TMC3    O1 4207   3.987   1.138  14.201 -0.5498 -0.2803  0.3223
  278TMC3    O2 4208   4.203   0.501  14.028  0.3278 -0.0224 -0.2792
  279MPD2     C 4209   3.406   1.087   0.970  0.4314  0.2892 -0.2795
  279MPD2    C1 4210   3.309   1.052   0.886 -0.9300  0.2630 -0.0648
  279MPD2    C2 4211   3.340   1.017   0.758 -0.1179 -0.6528 -0.2525
  279MPD2    C3 4212   3.469   1.019   0.710  0.0081 -0.2675  0.5845
  279MPD2    C4 4213   3.573   1.046   0.801  1.0398  0.2677 -0.1125
  279MPD2    C5 4214   3.541   1.073   0.929 -0.7344  0.9787  0.0512
  279MPD2     H 4215   3.248   1.008   0.702 -0.4733  2.6110 -0.2011
  279MPD2    H1 4216   3.679   1.047   0.777  1.1001 -0.3480  0.1014
  279MPD2    H2 4217   3.374   1.129   1.064  0.7877  0.0144 -0.0361
  279MPD2    H3 4218   3.616   1.110   0.998  2.9589  0.4283 -3.7259
  279MPD2     N 4219   3.503   1.020   0.579 -0.0644  0.0246  0.5036
  279MPD2    H5 4220   3.595   1.056   0.560  0.0125 -0.6716 -0.4223
  279MPD2    N1 4221   3.170   1.083   0.929 -0.9156  0.5351 -0.5848
  279MPD2    H7 4222   3.163   1.143   1.010 -0.6643 -0.1349 -0.0625
  280TMC3    C1 4223   2.936   1.132   0.888 -0.0553 -0.0916 -0.5198
  280TMC3    C2 4224   2.813   1.075   0.886 -0.0377 -0.0522  0.2231
  280TMC3    C3 4225   2.711   1.153   0.925 -0.0605 -0.7496  0.4150
  280TMC3    C4 4226   2.970   1.261   0.923  0.2215  0.0208 -0.4078
  280TMC3    C5 4227   2.861   1.339   0.960 -0.4210  0.2801 -0.5813
  280TMC3    C6 4228   2.731   1.289   0.956  0.4564  0.0911  0.4505
  280TMC3     C 4229   3.057   1.055   0.852 -0.0059  0.0462 -0.3958
  280TMC3     O 4230   3.051   0.963   0.770 -0.0591 -0.4654  0.6373
  280TMC3     H 4231   2.803   0.968   0.871  0.5009 -0.4243  2.4150
  280TMC3    H1 4232   3.067   1.309   0.923 -0.8851  2.2074  0.3331
  280TMC3    H2 4233   2.652   1.352   0.996 -1.3733 -3.6683  2.7641
  280TMC3    C7 4234   2.892   1.479   0.991  0.4706 -0.2208 -0.3156
  280TMC3    C8 4235   2.573   1.098   0.942 -0.2663 -0.2506  0.7115
  280TMC3    O1 4236   2.995   1.501   1.055  0.1145 -0.3721  0.2875
  280TMC3    O2 4237   2.486   1.175   0.979 -0.0444  0.4710 -0.2988
  281TMC3    C1 4238   2.369   1.358  13.471  0.4783 -0.0725 -0.0158
  281TMC3    C2 4239   2.393   1.425  13.357 -0.5265 -0.4541  0.5489
  281TMC3    C3 4240   2.381   1.362  13.239 -0.1859 -0.2128 -1.1379
  281TMC3    C4 4241   2.331   1.228  13.466 -0.0924 -0.0339  0.3708
  281TMC3    C5 4242   2.301   1.171  13.343 -0.6990 -0.0403  0.0897
  281TMC3    C6 4243   2.327   1.239  13.224 -0.0702 -0.6858 -0.5574
  281TMC3     C 4244   2.349   1.436  13.590 -0.3787 -0.5287  0.6789
  281TMC3     O 4245   2.398   1.396  13.694  0.3651  0.3111 -0.7570
  281TMC3     H 4246   2.430   1.527  13.357 -1.0360 -0.2824 -3.2932
  281TMC3    H1 4247   2.326   1.178  13.562 -0.7330  0.3298  0.5314
  281TMC3    H2 4248   2.313   1.189  13.129 -1.4429  0.5678 -1.0195
  281TMC3    C7 4249   2.296   1.025  13.339  0.2453 -0.1699  0.3168
  281TMC3    C8 4250   2.344   1.446  13.135 -0.6012  0.0578 -0.2630
  281TMC3    O1 4251   2.281   0.975  13.230  0.2023 -0.7758 -0.0826
  281TMC3    O2 4252   2.242   1.412  13.083 -0.2808  0.5738 -0.0424
  282MPD2     C 4253   4.192   3.018  15.152  0.5634  0.0008  0.4244
  282MPD2    C1 4254   4.074   3.086  15.159  0.4940  0.6486  0.2357
  282MPD2    C2 4255   4.008   3.115  15.039 -0.1567 -0.3111  0.0556
  282MPD2    C3 4256   4.066   3.091  14.914 -1.0622  0.3886 -0.5092
  282MPD2    C4 4257   4.194   3.042  14.911  0.2281  0.7584 -0.8657
  282MPD2    C5 4258   4.247   2.997  15.028  0.1644 -0.6140  0.4318
  282MPD2     H 4259   3.914   3.169  15.042 -0.0507  0.0071 -3.3950
  282MPD2    H1 4260   4.242   3.028  14.816 -1.1858 -1.6120 -1.2282
  282MPD2    H2 4261   4.238   2.986  15.245  0.1103  0.6612  0.8744
  282MPD2    H3 4262   4.342   2.945  15.016  0.8012  0.7381 -0.3511
  282MPD2     N 4263   4.001   3.133  14.802  0.5667  0.0642 -0.1500
  282MPD2    H5 4264   3.909   3.168  14.824  0.8744  0.8636 -0.1226
  282MPD2    N1 4265   4.009   3.106  15.283  0.0012 -0.1616  0.5564
  282MPD2    H7 4266   3.917   3.146  15.270  0.0294 -0.3402 -0.1568
  283TMC3    C1 4267   3.964   3.116  15.502  0.5061 -0.2734 -0.4535
  283TMC3    C2 4268   3.987   3.248  15.532  0.0071  0.2716  0.0803
  283TMC3    C3 4269   3.947   3.290  15.660 -0.2453  0.7193  0.0229
  283TMC3    C4 4270   3.894   3.031  15.573 -0.0558 -0.0576 -0.4905
  283TMC3    C5 4271   3.848   3.072  15.694  0.2767  0.9249  0.4635
  283TMC3    C6 4272   3.877   3.203  15.743 -0.3224  0.0161  0.1987
  283TMC3     C 4273   4.053   3.062  15.408  0.4592  0.1631  0.0985
  283TMC3     O 4274   4.154   3.013  15.456 -0.2524  0.1674  0.7796
  283TMC3     H 4275   4.046   3.311  15.467  2.3696 -1.4305  0.5746
  283TMC3    H1 4276   3.894   2.930  15.533 -2.8590 -0.2623  0.0320
  283TMC3    H2 4277   3.847   3.232  15.843  2.3653  1.5429  0.5545
  283TMC3    C7 4278   3.745   2.996  15.756 -0.0274 -0.0156 -0.2875
  283TMC3    C8 4279   3.979   3.420  15.707  0.2869 -0.1896  0.7034
  283TMC3    O1 4280   3.703   3.036  15.864  0.5895  0.0708  0.6385
  283TMC3    O2 4281   3.979   3.433  15.828  0.2505 -0.5436 -0.6575
  284MPD2     C 4282   2.743   2.119  12.078  0.2170 -0.5109 -0.3751
  284MPD2    C1 4283   2.759   2.064  11.950 -0.7115  0.7595  1.1410
  284MPD2    C2 4284   2.696   1.940  11.933  0.0830 -0.2451  0.6745
  284MPD2    C3 4285   2.639   1.864  12.034  0.1803 -0.6590 -0.7678
  284MPD2    C4 4286   2.634   1.925  12.158 -0.5851  0.2641  0.0467
  284MPD2    C5 4287   2.685   2.047  12.173  0.1927 -0.1275 -0.5526
  284MPD2     H 4288   2.717   1.892  11.838  1.3760  2.6753 -0.5297
  284MPD2    H1 4289   2.594   1.871  12.244 -0.9681 -0.1415 -0.3833
  284MPD2    H2 4290   2.795   2.209  12.108 -1.0813  0.6344 -1.5255
  284MPD2    H3 4291   2.702   2.098  12.267 -1.5509  0.7123 -0.6999
  284MPD2     N 4292   2.586   1.732  12.015  0.1905  0.1190  0.1371
  284MPD2    H5 4293   2.563   1.681  12.100  0.7980 -0.2562  0.0808
  284MPD2    N1 4294   2.839   2.112  11.843  0.4171 -0.0255  0.7380
  284MPD2    H7 4295   2.852   2.041  11.772  1.3361  0.0931  0.7846
  285TMC3    C1 4296   3.017   2.238  11.743 -0.9740 -0.7180 -0.4753
  285TMC3    C2 4297   3.053   2.120  11.677 -0.0211  0.0377  0.4790
  285TMC3    C3 4298   3.151   2.136  11.582 -0.0546  0.0282  0.1747
  285TMC3    C4 4299   3.071   2.367  11.716  0.2409  0.0121 -0.2643
  285TMC3    C5 4300   3.173   2.367  11.622  0.4455 -0.2594  0.5638
  285TMC3    C6 4301   3.213   2.257  11.550  0.3607 -0.9776  0.2074
  285TMC3     C 4302   2.912   2.233  11.841  0.6155  0.2453 -0.4869
  285TMC3     O 4303   2.899   2.326  11.920  0.1037  0.6899  0.2579
  285TMC3     H 4304   3.023   2.021  11.708 -1.0060 -0.0035 -0.6166
  285TMC3    H1 4305   3.031   2.457  11.760 -3.3293 -1.6974 -0.0253
  285TMC3    H2 4306   3.281   2.265  11.466 -0.7240 -1.1843 -0.6826
  285TMC3    C7 4307   3.220   2.504  11.583 -0.4325  0.2141 -0.6139
  285TMC3    C8 4308   3.171   2.018  11.502 -1.1127 -0.0316 -0.0762
  285TMC3    O1 4309   3.130   2.588  11.578  0.3108 -0.4718  0.8014
  285TMC3    O2 4310   3.090   1.930  11.520  0.2716 -0.0293  0.5501
  286MPD2     C 4311   2.024   1.715   1.987  0.2474  0.6876 -0.0639
  286MPD2    C1 4312   2.058   1.720   1.855 -0.6667  0.8566  0.0206
  286MPD2    C2 4313   2.185   1.681   1.815  0.0405  0.3286  0.3244
  286MPD2    C3 4314   2.277   1.646   1.915  0.1488  0.3497  0.2234
  286MPD2    C4 4315   2.243   1.659   2.046  0.5039  0.5188 -0.0852
  286MPD2    C5 4316   2.113   1.690   2.084 -0.6212  0.3518 -0.2901
  286MPD2     H 4317   2.220   1.680   1.712  0.5548 -3.5092  0.5447
  286MPD2    H1 4318   2.309   1.625   2.125  1.5664 -1.6829 -1.9118
  286MPD2    H2 4319   1.926   1.746   2.022 -0.3713 -1.4484  0.1114
  286MPD2    H3 4320   2.084   1.686   2.188 -0.9163  2.1074 -0.3144
  286MPD2     N 4321   2.403   1.570   1.897 -0.8022  0.1458 -0.1151
  286MPD2    H5 4322   2.442   1.526   1.979 -3.6632 -0.7299  0.7838
  286MPD2    N1 4323   1.963   1.772   1.760  0.0399 -0.3224 -0.6029
  286MPD2    H7 4324   1.991   1.771   1.662  1.5451  0.3599 -0.1834
  287TMC3    C1 4325   2.565   1.445   1.776  0.4887  0.7668 -0.2595
  287TMC3    C2 4326   2.574   1.341   1.682  1.1496  0.8234  0.0706
  287TMC3    C3 4327   2.663   1.242   1.712 -0.0519  0.2747 -0.1657
  287TMC3    C4 4328   2.640   1.443   1.892 -0.2353 -0.4479 -0.2294
  287TMC3    C5 4329   2.718   1.331   1.915 -0.2320 -0.6715  0.0103
  287TMC3    C6 4330   2.731   1.228   1.830  0.3588  0.1743 -0.1841
  287TMC3     C 4331   2.453   1.534   1.772  0.7231  0.0925  0.0206
  287TMC3     O 4332   2.420   1.580   1.665  0.0682  0.4323 -0.2324
  287TMC3     H 4333   2.514   1.344   1.592  0.7418 -1.4357  0.2712
  287TMC3    H1 4334   2.633   1.514   1.974 -0.3986  2.2673 -2.6045
  287TMC3    H2 4335   2.791   1.144   1.864 -1.1044 -0.7840  0.0062
  287TMC3    C7 4336   2.827   1.343   2.011 -0.1144 -0.1503  0.0479
  287TMC3    C8 4337   2.675   1.139   1.614 -0.9516 -0.1636  0.0700
  287TMC3    O1 4338   2.861   1.458   2.057  0.8315  0.6185  0.4415
  287TMC3    O2 4339   2.579   1.121   1.542 -0.0444 -0.1875 -0.7386
  288TMC3    C1 4340   3.737   1.058  14.591 -0.4421 -0.2586 -0.3270
  288TMC3    C2 4341   3.779   1.004  14.708  0.3217  0.7023  0.4610
  288TMC3    C3 4342   3.845   1.091  14.787  0.5347 -0.4981  0.0717
  288TMC3    C4 4343   3.766   1.181  14.554 -0.1826  0.1232  0.0450
  288TMC3    C5 4344   3.847   1.258  14.632  0.5305 -0.1460  0.0929
  288TMC3    C6 4345   3.889   1.216  14.749  0.0445 -0.2080 -0.2009
  288TMC3     C 4346   3.698   0.964  14.483  0.0757 -0.4736  0.1434
  288TMC3     O 4347   3.602   0.992  14.412 -0.2295  0.3146 -0.0556
  288TMC3     H 4348   3.746   0.906  14.742 -1.4117  1.0835 -0.1516
  288TMC3    H1 4349   3.733   1.207  14.455  0.0243  0.7090  0.1296
  288TMC3    H2 4350   3.938   1.286  14.815  1.4742 -2.5905  1.2787
  288TMC3    C7 4351   3.952   1.346  14.578 -0.0416 -0.1759  0.1024
  288TMC3    C8 4352   3.873   1.060  14.928  0.0694  0.2553  0.0426
  288TMC3    O1 4353   4.040   1.384  14.651  0.5663  0.0946 -1.0923
  288TMC3    O2 4354   3.911   1.151  15.005 -0.0892  0.2592 -0.1581
  289MPD2     C 4355   4.258   0.177  14.144 -0.8738  0.3810  0.0658
  289MPD2    C1 4356   4.226   0.254  14.251  0.2576 -0.4329  0.1702
  289MPD2    C2 4357   4.112   0.231  14.324  0.7765 -0.4782 -0.3418
  289MPD2    C3 4358   4.026   0.131  14.287 -0.1966  0.5348  0.7428
  289MPD2    C4 4359   4.061   0.052  14.184  0.5637  0.0889 -0.9485
  289MPD2    C5 4360   4.178   0.075  14.115  0.5298  0.2751  0.1479
  289MPD2     H 4361   4.080   0.298  14.402 -2.0469 -3.2222  0.8822
  289MPD2    H1 4362   3.988   4.704  14.147 -0.6469  0.5844  0.5027
  289MPD2    H2 4363   4.337   0.201  14.073 -0.2096 -1.9657  0.0203
  289MPD2    H3 4364   4.184   0.012  14.027 -0.8754  1.2600 -0.6532
  289MPD2     N 4365   3.897   0.133  14.334  0.0431 -0.0727  0.0391
  289MPD2    H5 4366   3.835   0.072  14.282 -0.1490  0.2034 -0.0566
  289MPD2    N1 4367   4.319   0.355  14.280 -0.6611  0.1473 -0.1902
  289MPD2    H7 4368   4.408   0.366  14.232 -0.3797 -0.6165  0.1463
  290TMC3    C1 4369   3.700   0.188  14.437  0.8826  0.2002  0.1360
  290TMC3    C2 4370   3.632   0.305  14.441 -0.1791 -0.0298  0.1656
  290TMC3    C3 4371   3.501   0.306  14.405  0.4075 -0.4358 -0.0131
  290TMC3    C4 4372   3.646   0.075  14.381  0.3260 -0.9445 -0.2634
  290TMC3    C5 4373   3.512   0.080  14.348  0.2503 -0.5905 -0.5854
  290TMC3    C6 4374   3.436   0.189  14.358 -0.6545 -0.7463  0.5084
  290TMC3     C 4375   3.845   0.202  14.442 -0.6763 -0.2078 -0.2535
  290TMC3     O 4376   3.880   0.286  14.519  0.2424 -0.5079 -0.5974
  290TMC3     H 4377   3.690   0.395  14.454  1.0204 -0.2588 -3.7603
  290TMC3    H1 4378   3.700   4.704  14.383  2.9555  0.5652  0.3099
  290TMC3    H2 4379   3.331   0.191  14.330  0.0854  2.7941 -1.9416
  290TMC3    C7 4380   3.435   4.679  14.348  0.0602  0.0717  0.3329
  290TMC3    C8 4381   3.431   0.433  14.376  0.3079  0.1401 -0.7593
  290TMC3    O1 4382   3.319   4.690  14.378 -0.3274 -0.4634 -0.2205
  290TMC3    O2 4383   3.330   0.427  14.308  0.0736 -0.3304  0.5664
  291MPD2     C 4384   2.906   0.096   0.485  0.2176 -0.4326  0.2469
  291MPD2    C1 4385   2.983   4.709   0.485 -0.3312 -0.1302 -0.4313
  291MPD2    C2 4386   3.121   0.002   0.507 -0.2909 -0.1416  0.3678
  291MPD2    C3 4387   3.186   0.123   0.516  0.2390 -0.5288 -0.2692
  291MPD2    C4 4388   3.111   0.235   0.507  0.5985  0.2815 -0.2015
  291MPD2    C5 4389   2.975   0.213   0.489 -0.3883  0.0878  0.3717
  291MPD2     H 4390   3.174   4.631   0.513  0.5352  0.4956  3.0387
  291MPD2    H1 4391   3.153   0.334   0.513 -0.6559  0.8069 -0.0153
  291MPD2    H2 4392   2.797   0.092   0.484  0.1481  2.6968 -2.4931
  291MPD2    H3 4393   2.912   0.300   0.494  1.9148  1.9752 -3.0790
  291MPD2     N 4394   3.327   0.140   0.513  0.3974  0.3216 -0.3846
  291MPD2    H5 4395   3.364   0.234   0.505 -0.0003  0.4625 -0.5440
  291MPD2    N1 4396   2.937   4.578   0.460  0.2011  0.0611 -0.3359
  291MPD2    H7 4397   3.001   4.501   0.446  1.1194  0.6238  0.8357
  292TMC3    C1 4398   2.789   4.402   0.453  0.1048 -0.5442  0.3266
  292TMC3    C2 4399   2.879   4.355   0.549 -0.2412 -0.6464  0.1241
  292TMC3    C3 4400   2.964   4.247   0.516 -0.8310  0.4750  0.8578
  292TMC3    C4 4401   2.791   4.340   0.330  0.6552  0.1551  0.1813
  292TMC3    C5 4402   2.868   4.227   0.304 -0.3189 -0.7760  0.2406
  292TMC3    C6 4403   2.958   4.177   0.394 -0.1965  0.0162  0.0517
  292TMC3     C 4404   2.803   4.543   0.446  0.4781 -0.0568  0.6681
  292TMC3     O 4405   2.701   4.614   0.453 -0.6755 -0.4333  0.3736
  292TMC3     H 4406   2.882   4.411   0.642  1.5249  0.2022 -0.4315
  292TMC3    H1 4407   2.726   4.385   0.255  0.1480  2.4008  2.0077
  292TMC3    H2 4408   3.006   4.081   0.379 -0.2538 -0.1518  0.9262
  292TMC3    C7 4409   2.862   4.147   0.181 -0.3954  1.2693  0.1622
  292TMC3    C8 4410   3.050   4.186   0.613 -0.1695 -0.1014 -0.2526
  292TMC3    O1 4411   2.967   4.096   0.145  0.1222  0.6801  0.3726
  292TMC3    O2 4412   3.142   4.132   0.559  0.3042 -0.1739  0.4080
  293MPD2     C 4413   0.889   1.295  12.566 -1.1566 -0.2593 -0.3330
  293MPD2    C1 4414   0.801   1.229  12.654  0.0887  0.5234 -0.0334
  293MPD2    C2 4415   0.796   1.274  12.782  0.2927 -0.2324 -0.1946
  293MPD2    C3 4416   0.886   1.365  12.826 -0.1902 -0.0650 -0.2228
  293MPD2    C4 4417   0.984   1.420  12.748 -0.0228  0.2978  0.1749
  293MPD2    C5 4418   0.980   1.388  12.617 -0.6472 -0.0189 -0.2513
  293MPD2     H 4419   0.730   1.242  12.861 -2.5473  2.3727 -1.5017
  293MPD2    H1 4420   1.067   1.482  12.782  0.7946 -1.4175  1.2846
  293MPD2    H2 4421   0.907   1.260  12.465  0.3361 -0.4464  0.0095
  293MPD2    H3 4422   1.051   1.436  12.550  0.9682 -0.4123  1.1821
  293MPD2     N 4423   0.887   1.395  12.967 -0.1102 -0.0900 -1.2564
  293MPD2    H5 4424   0.814   1.341  13.012  1.5751 -0.9193  0.4896
  293MPD2    N1 4425   0.725   1.123  12.598 -0.4805  0.2267  0.2852
  293MPD2    H7 4426   0.755   1.099  12.504 -1.1692 -0.0891  0.1500
  294TMC3    C1 4427   0.579   0.953  12.562  0.2801  0.2136 -0.0664
  294TMC3    C2 4428   0.590   0.830  12.618  0.2642 -0.7237 -0.6360
  294TMC3    C3 4429   0.619   0.714  12.541  0.8005 -0.1465  0.1213
  294TMC3    C4 4430   0.616   0.969  12.433 -0.4099  0.1568 -0.6140
  294TMC3    C5 4431   0.642   0.857  12.355  0.1407  0.5151  0.0744
  294TMC3    C6 4432   0.637   0.726  12.402  0.0608  0.2316  0.1474
  294TMC3     C 4433   0.626   1.048  12.655  1.2123 -0.7003 -0.7994
  294TMC3     O 4434   0.594   1.047  12.773 -0.0344 -0.0251  0.5194
  294TMC3     H 4435   0.548   0.819  12.717  0.6272 -0.1925 -0.4240
  294TMC3    H1 4436   0.601   1.065  12.385 -0.7680  1.2238  1.6231
  294TMC3    H2 4437   0.671   0.643  12.341 -0.3063 -1.4803  2.2379
  294TMC3    C7 4438   0.650   0.874  12.211 -0.5745 -0.4231  0.0773
  294TMC3    C8 4439   0.567   0.586  12.593 -0.4998  0.0305 -0.0902
  294TMC3    O1 4440   0.553   0.935  12.164  0.0771  0.1318  0.4518
  294TMC3    O2 4441   0.530   0.577  12.711  0.1049 -0.2805 -0.0674
  295MPD2     C 4442   1.054   4.521   0.055  0.7196  0.5121  0.3136
  295MPD2    C1 4443   1.095   4.655   0.095 -0.4460  0.1773  0.4762
  295MPD2    C2 4444   0.987   0.019   0.131 -0.2925  0.0376 -0.1063
  295MPD2    C3 4445   0.857   4.707   0.134 -0.0477 -0.3616 -0.7340
  295MPD2    C4 4446   0.818   4.586   0.093 -0.2001  0.6576  0.1126
  295MPD2    C5 4447   0.917   4.496   0.044  0.3271 -0.3638 -0.0697
  295MPD2     H 4448   1.017   0.116   0.170 -1.3753  1.6429 -3.2447
  295MPD2    H1 4449   0.718   4.546   0.107 -0.0329  0.0850 -0.3206
  295MPD2    H2 4450   1.124   4.442   0.029  0.1136  0.8200 -2.2307
  295MPD2    H3 4451   0.885   4.395   0.021 -0.7590 -0.3402  1.3362
  295MPD2     N 4452   0.752   0.059   0.186 -0.1833  0.3630  0.4422
  295MPD2    H5 4453   0.662   0.015   0.166  0.0185  1.5921 -3.1178
  295MPD2    N1 4454   1.231   4.698   0.101 -0.2148  0.3116  0.0410
  295MPD2    H7 4455   1.255   0.068   0.132 -1.1137  1.8450 -3.8496
  296TMC3    C1 4456   0.636   0.215   0.326 -0.2461 -0.1393 -0.3149
  296TMC3    C2 4457   0.627   0.352   0.359 -0.0174  0.4841 -0.2433
  296TMC3    C3 4458   0.508   0.390   0.411  0.2077 -0.1654 -0.2272
  296TMC3    C4 4459   0.547   0.115   0.370  1.2863  0.6722  0.3521
  296TMC3    C5 4460   0.436   0.167   0.426 -0.9775  0.0176 -0.1811
  296TMC3    C6 4461   0.414   0.299   0.446  0.0178 -0.1479 -0.4028
  296TMC3     C 4462   0.758   0.181   0.253  0.0470  0.7747  0.5155
  296TMC3     O 4463   0.850   0.266   0.260  0.3695 -0.4058 -0.1163
  296TMC3     H 4464   0.694   0.434   0.337 -1.0493  1.2747 -0.4642
  296TMC3    H1 4465   0.561   0.011   0.345  1.3112  0.2590  2.1108
  296TMC3    H2 4466   0.315   0.333   0.471  0.3061  1.1640 -1.0019
  296TMC3    C7 4467   0.328   0.069   0.438 -0.5499 -0.5794 -0.2297
  296TMC3    C8 4468   0.483   0.531   0.427 -0.3977 -0.6807  0.8038
  296TMC3    O1 4469   0.326   4.681   0.388  0.2432 -0.4097  0.2065
  296TMC3    O2 4470   0.546   0.608   0.354  0.0578 -0.3214  0.0658
  297MPD2     C 4471   3.040   1.800  16.653  0.6610 -0.1643  0.6701
  297MPD2    C1 4472   2.984   1.885  16.555 -0.1462  0.0594 -0.3075
  297MPD2    C2 4473   3.061   1.994  16.510  0.4053 -0.5054 -0.0888
  297MPD2    C3 4474   3.182   2.020  16.568  0.0997 -0.4124  0.1328
  297MPD2    C4 4475   3.232   1.939  16.667 -0.5936 -0.0068 -0.3002
  297MPD2    C5 4476   3.161   1.826  16.704  0.1721  0.0781  0.3775
  297MPD2     H 4477   3.028   2.063  16.433 -1.4848  0.1015  1.2535
  297MPD2    H1 4478   3.331   1.953  16.710 -1.1546  3.1075 -0.0039
  297MPD2    H2 4479   2.992   1.707  16.681 -0.8422  0.1274 -0.8962
  297MPD2    H3 4480   3.196   1.750  16.773 -2.7615 -2.2689 -0.7359
  297MPD2     N 4481   3.263   2.138  16.542  0.6328  0.5293 -0.4934
  297MPD2    H5 4482   3.358   2.145  16.576 -0.3541 -2.5730  2.9300
  297MPD2    N1 4483   2.855   1.861  16.500 -0.5434 -0.6228 -0.6044
  297MPD2    H7 4484   2.809   1.926  16.436 -0.4157 -0.5587 -0.6313
  298TMC3    C1 4485   2.637   1.778  16.487 -0.3296 -0.3270  0.0182
  298TMC3    C2 4486   2.619   1.779  16.346  0.7345  0.8836 -0.0884
  298TMC3    C3 4487   2.498   1.827  16.304  0.2431  0.4312  0.7401
  298TMC3    C4 4488   2.541   1.804  16.576  0.5071  0.4618 -0.3523
  298TMC3    C5 4489   2.426   1.848  16.529 -0.0403  0.1301 -0.2579
  298TMC3    C6 4490   2.401   1.872  16.396 -0.0139 -0.1882 -0.5024
  298TMC3     C 4491   2.772   1.759  16.536 -0.0546  0.1640  0.3920
  298TMC3     O 4492   2.782   1.680  16.630 -0.1979 -0.0571  0.5439
  298TMC3     H 4493   2.694   1.754  16.272  0.3790 -1.6286  0.3977
  298TMC3    H1 4494   2.545   1.809  16.684  1.9502  3.1542 -0.5151
  298TMC3    H2 4495   2.303   1.903  16.361  0.5397  0.9197 -1.0969
  298TMC3    C7 4496   2.337   1.916  16.626  0.0641 -0.3963 -0.4965
  298TMC3    C8 4497   2.483   1.861  16.167 -0.1252  0.2455 -0.6898
  298TMC3    O1 4498   2.386   1.979  16.715  0.1590  0.0101  0.0365
  298TMC3    O2 4499   2.367   1.884  16.130 -0.4232 -0.0836 -0.2487
  299MPD2     C 4500   3.906   1.068  10.711 -0.2194  0.4093  0.4480
  299MPD2    C1 4501   3.934   1.119  10.586 -0.7113 -0.1652  0.5536
  299MPD2    C2 4502   3.845   1.101  10.479 -0.3256 -0.0065  0.2718
  299MPD2    C3 4503   3.734   1.022  10.501  0.0958  0.2414  0.4014
  299MPD2    C4 4504   3.715   0.964  10.625  0.6781  0.3972 -0.1196
  299MPD2    C5 4505   3.801   0.985  10.730  0.1975 -0.4608  0.2767
  299MPD2     H 4506   3.855   1.156  10.386  2.2234 -0.3922  0.3150
  299MPD2    H1 4507   3.622   0.914  10.652  1.3908  0.2012  1.9680
  299MPD2    H2 4508   3.971   1.084  10.796  0.4405  2.9491 -0.5225
  299MPD2    H3 4509   3.779   0.951  10.830 -1.0485 -0.2224  0.0791
  299MPD2     N 4510   3.629   0.997  10.411 -0.0457  0.1440 -0.2664
  299MPD2    H5 4511   3.561   0.926  10.435 -1.3557  1.5554  0.2718
  299MPD2    N1 4512   4.061   1.182  10.585 -0.1676 -0.2226 -0.3154
  299MPD2    H7 4513   4.110   1.191  10.673 -1.8558 -0.6383  0.6594
  300TMC3    C1 4514   3.501   1.020  10.219 -0.0255 -0.8377 -0.0711
  300TMC3    C2 4515   3.511   1.062  10.096  0.4193  0.5638  0.1302
  300TMC3    C3 4516   3.395   1.083  10.029 -0.5712  0.4896 -0.3999
  300TMC3    C4 4517   3.381   0.994  10.280  0.0174 -0.0094 -0.2066
  300TMC3    C5 4518   3.271   1.001  10.197  0.0107 -0.1021 -0.2299
  300TMC3    C6 4519   3.270   1.033  10.068 -0.3113  0.4151 -0.0928
  300TMC3     C 4520   3.606   1.073  10.299  0.1710  0.1498 -0.2239
  300TMC3     O 4521   3.674   1.165  10.248  0.4648  0.5285  0.5796
  300TMC3     H 4522   3.610   1.073  10.053  1.0276 -0.9741  1.1318
  300TMC3    H1 4523   3.371   0.969  10.385  0.6634  1.4166  0.1990
  300TMC3    H2 4524   3.180   1.050  10.010 -0.2915  0.4794 -0.1056
  300TMC3    C7 4525   3.140   0.984  10.266 -0.5479 -0.1517  0.1552
  300TMC3    C8 4526   3.382   1.216   9.972 -0.6906 -0.4246 -0.4026
  300TMC3    O1 4527   3.059   0.914  10.206  0.1455 -0.7893  0.0090
  300TMC3    O2 4528   3.281   1.249   9.911  0.4897  0.0093  0.2502
  301MPD2     C 4529   4.639   3.098   2.030  0.2548  0.2903 -0.0048
  301MPD2    C1 4530   4.619   3.075   1.897  0.4521  0.6981  0.2959
  301MPD2    C2 4531   4.716   3.014   1.820  0.3733  0.8698 -0.4928
  301MPD2    C3 4532   0.112   2.981   1.877 -0.4335 -0.2911 -0.1903
  301MPD2    C4 4533   0.139   3.018   2.007 -0.5450 -0.5719 -0.5897
  301MPD2    C5 4534   0.038   3.069   2.085  0.4172  0.1289 -0.2818
  301MPD2     H 4535   4.697   2.993   1.715 -0.3275  2.2422 -0.6324
  301MPD2    H1 4536   0.234   3.004   2.059 -0.3697  0.5977 -0.5971
  301MPD2    H2 4537   4.561   3.122   2.102 -0.1227 -1.1587  0.0579
  301MPD2    H3 4538   0.057   3.091   2.190 -1.6721  0.8843 -0.0453
  301MPD2     N 4539   0.225   2.926   1.807  0.4548  0.1103  0.2444
  301MPD2    H5 4540   0.315   2.938   1.853  1.2490 -3.9214 -0.2296
  301MPD2    N1 4541   4.502   3.120   1.823  0.4565 -0.0224  0.4438
  301MPD2    H7 4542   4.493   3.096   1.724 -1.0865  2.6040 -0.0358
  302TMC3    C1 4543   0.361   2.903   1.630  0.3017  0.5559 -0.0426
  302TMC3    C2 4544   0.459   2.860   1.706 -0.4312  0.4813 -0.5278
  302TMC3    C3 4545   0.584   2.853   1.640  0.8630  0.9738  0.4079
  302TMC3    C4 4546   0.380   2.960   1.506  1.1299 -0.1315 -0.3280
  302TMC3    C5 4547   0.497   2.953   1.443 -0.3331 -0.2962 -0.1148
  302TMC3    C6 4548   0.599   2.899   1.513  0.4717  0.4215 -0.2339
  302TMC3     C 4549   0.231   2.898   1.674  0.2009  0.4006  0.0530
  302TMC3     O 4550   0.139   2.896   1.590  0.3647  0.5079 -0.6009
  302TMC3     H 4551   0.434   2.807   1.797 -0.7055 -0.3027 -1.0524
  302TMC3    H1 4552   0.298   3.027   1.484  1.5130  0.7219  0.8335
  302TMC3    H2 4553   0.695   2.911   1.463  2.6202  0.3092  3.9398
  302TMC3    C7 4554   0.510   3.027   1.315  0.1644 -0.0721 -0.4191
  302TMC3    C8 4555   0.697   2.784   1.700  0.4526 -0.6166 -0.3015
  302TMC3    O1 4556   0.626   3.050   1.282 -0.2362  0.2526  0.0440
  302TMC3    O2 4557   0.794   2.753   1.637  0.1034 -0.6265  0.1985
  303MPD2     C 4558   1.791   1.201  10.665  0.1063  0.3255  0.1743
  303MPD2    C1 4559   1.742   1.098  10.595 -0.0389 -0.4599  0.4336
  303MPD2    C2 4560   1.715   1.124  10.469  0.5342 -0.2411 -1.0868
  303MPD2    C3 4561   1.734   1.250  10.400 -0.0027 -0.2629  0.1412
  303MPD2    C4 4562   1.792   1.350  10.475 -0.0677  0.0911 -0.1099
  303MPD2    C5 4563   1.828   1.320  10.604 -0.5769  0.6646  1.0067
  303MPD2     H 4564   1.675   1.048  10.403  0.1814  0.6139 -1.8537
  303MPD2    H1 4565   1.822   1.442  10.427 -0.7851 -1.0063 -2.6122
  303MPD2    H2 4566   1.822   1.188  10.768  1.4948  0.9185 -0.1644
  303MPD2    H3 4567   1.888   1.397  10.652  0.1018  0.0280  1.1899
  303MPD2     N 4568   1.686   1.274  10.268  0.2019  0.3321  0.1230
  303MPD2    H5 4569   1.718   1.358  10.222 -0.8200 -0.1917 -1.5550
  303MPD2    N1 4570   1.728   0.973  10.656  0.2670 -0.1974  0.3420
  303MPD2    H7 4571   1.747   0.969  10.756  0.4048  2.0366  0.4100
  304TMC3    C1 4572   1.725   0.727  10.680 -0.0289 -0.1223  0.3633
  304TMC3    C2 4573   1.628   0.706  10.776 -0.1101 -0.3999  0.5706
  304TMC3    C3 4574   1.584   0.575  10.797 -0.0535  0.3736 -0.3431
  304TMC3    C4 4575   1.764   0.620  10.607 -0.2025  0.5263 -0.0827
  304TMC3    C5 4576   1.717   0.493  10.617  0.5877  0.1430 -0.1489
  304TMC3    C6 4577   1.641   0.473  10.723  0.0074  0.5477 -0.0085
  304TMC3     C 4578   1.717   0.845  10.592  0.1151 -0.9489  0.1464
  304TMC3     O 4579   1.709   0.826  10.474  0.0541 -0.0161  0.4873
  304TMC3     H 4580   1.614   0.796  10.835  0.0204  0.7837 -1.1992
  304TMC3    H1 4581   1.845   0.639  10.538 -0.1199 -0.0934 -0.1630
  304TMC3    H2 4582   1.590   0.378  10.739  1.1979  0.2974  2.2834
  304TMC3    C7 4583   1.677   0.430  10.492 -0.5519 -0.5438  0.3640
  304TMC3    C8 4584   1.441   0.558  10.792 -0.2863  0.4552 -0.1710
  304TMC3    O1 4585   1.745   0.453  10.394 -0.3056  0.4618  0.4395
  304TMC3    O2 4586   1.389   0.468  10.727  0.2749  0.2248 -0.0857
  305MPD2     C 4587   4.008   3.447  13.842  0.3312 -0.0580  0.0199
  305MPD2    C1 4588   4.126   3.383  13.873  0.6767 -0.3566  0.4142
  305MPD2    C2 4589   4.195   3.313  13.772  0.0315 -0.8624  0.6477
  305MPD2    C3 4590   4.144   3.311  13.644  0.5942 -0.0415  0.7646
  305MPD2    C4 4591   4.026   3.381  13.621 -0.5325  0.2712 -0.1019
  305MPD2    C5 4592   3.958   3.446  13.717 -0.0485 -0.1960  0.1115
  305MPD2     H 4593   4.285   3.256  13.792 -0.0220 -0.8923  0.7932
  305MPD2    H1 4594   3.974   3.393  13.526 -1.9122 -1.2874  0.4600
  305MPD2    H2 4595   3.958   3.506  13.918  2.4378  2.9065 -0.8837
  305MPD2    H3 4596   3.866   3.494  13.689 -0.7773 -0.9047  1.2731
  305MPD2     N 4597   4.197   3.233  13.538  0.0264 -0.0332  0.4336
  305MPD2    H5 4598   4.147   3.228  13.450  0.9202  0.6247 -0.1112
  305MPD2    N1 4599   4.178   3.390  14.008 -0.4706  0.1740 -0.3461
  305MPD2    H7 4600   4.121   3.437  14.078 -1.5074 -1.1510 -0.2944
  306TMC3    C1 4601   4.311   3.342  14.202  0.3847 -0.1935 -0.5826
  306TMC3    C2 4602   4.431   3.323  14.257  0.2245  0.1771 -0.4682
  306TMC3    C3 4603   4.450   3.365  14.388 -0.0436  0.2262 -0.3344
  306TMC3    C4 4604   4.199   3.374  14.280 -0.2317 -0.6120 -0.7401
  306TMC3    C5 4605   4.226   3.415  14.409  0.5465 -0.2887 -0.1950
  306TMC3    C6 4606   4.349   3.422  14.459 -0.4089 -0.8614  0.2873
  306TMC3     C 4607   4.294   3.320  14.059  0.5728 -0.7182  0.3186
  306TMC3     O 4608   4.382   3.263  13.991  0.0175 -0.0711 -1.2492
  306TMC3     H 4609   4.511   3.291  14.191  1.4016 -1.0421  1.5608
  306TMC3    H1 4610   4.102   3.375  14.231 -0.1105 -1.5233 -0.9916
  306TMC3    H2 4611   4.362   3.462  14.559 -1.4242  0.8816 -0.2811
  306TMC3    C7 4612   4.121   3.480  14.488 -0.5110  0.1664 -0.8028
  306TMC3    C8 4613   4.575   3.329  14.448 -0.5558 -0.3182  0.4556
  306TMC3    O1 4614   4.022   3.508  14.429  0.4103 -0.5359 -0.2354
  306TMC3    O2 4615   4.667   3.295  14.380  0.2171  0.0361 -0.6027
  307MPD2     C 4616   1.046   0.309   1.762 -0.2563 -0.1671  0.2919
  307MPD2    C1 4617   1.076   0.395   1.659 -0.5762 -0.9295 -0.2664
  307MPD2    C2 4618   1.006   0.513   1.637  0.3595 -0.1585 -0.1084
  307MPD2    C3 4619   0.896   0.550   1.714  0.1534  0.4668 -0.1818
  307MPD2    C4 4620   0.863   0.465   1.814 -0.6539 -0.1855  0.4347
  307MPD2    C5 4621   0.935   0.351   1.834  0.4700 -0.0472 -0.2247
  307MPD2     H 4622   1.028   0.578   1.553 -3.3707  0.3586 -0.6977
  307MPD2    H1 4623   0.781   0.477   1.884 -1.0732  1.4478 -0.3267
  307MPD2    H2 4624   1.090   0.210   1.772  0.2003  0.1633  1.4522
  307MPD2    H3 4625   0.904   0.285   1.915  0.9472  0.2285  0.1799
  307MPD2     N 4626   0.813   0.650   1.666  0.0572 -0.9182  0.6171
  307MPD2    H5 4627   0.831   0.698   1.578  0.2289  0.3296  1.3229
  307MPD2    N1 4628   1.177   0.371   1.566  0.5283 -0.2657  0.0385
  307MPD2    H7 4629   1.187   0.449   1.502  1.0969  1.5530  2.3163
  308TMC3    C1 4630   0.557   0.934   1.512  0.1286 -0.4616 -0.2897
  308TMC3    C2 4631   0.596   1.065   1.543  0.1364 -0.5960 -0.3584
  308TMC3    C3 4632   0.679   1.083   1.651  0.0671  0.3347  0.0760
  308TMC3    C4 4633   0.591   0.828   1.593 -0.3234  0.1996 -0.1501
  308TMC3    C5 4634   0.681   0.845   1.690  0.5312  0.7315  0.4830
  308TMC3    C6 4635   0.724   0.973   1.721  0.1042  0.4845 -0.0180
  308TMC3     C 4636   0.553   0.900   1.368  0.0310 -0.2696  0.5149
  308TMC3     O 4637   0.554   0.780   1.336 -0.2571  0.1355 -0.2011
  308TMC3     H 4638   0.564   1.152   1.487  1.4545 -0.2712 -0.5898
  308TMC3    H1 4639   0.549   0.732   1.565 -1.5251  0.0251  2.2677
  308TMC3    H2 4640   0.797   0.985   1.801  1.4795 -0.7087 -1.0810
  308TMC3    C7 4641   0.733   0.725   1.750 -0.2309 -0.5360 -0.1265
  308TMC3    C8 4642   0.766   1.187   1.626  0.1148  0.3395 -0.7672
  308TMC3    O1 4643   0.728   0.726   1.872  0.1199  0.1592 -0.4174
  308TMC3    O2 4644   0.752   1.282   1.700  0.0928  0.3243 -0.2946
  309MPD2     C 4645   0.983   1.352  17.131  0.7081  0.3342 -0.5077
  309MPD2    C1 4646   0.971   1.451  17.035 -0.2213  0.4009 -0.0870
  309MPD2    C2 4647   0.887   1.556  17.064 -0.3641  0.2453 -0.1538
  309MPD2    C3 4648   0.818   1.565  17.183 -0.3913 -0.0997 -0.3916
  309MPD2    C4 4649   0.823   1.459  17.268  0.0103 -0.3681 -0.2730
  309MPD2    C5 4650   0.905   1.351  17.243 -0.2734  0.1584  0.7311
  309MPD2     H 4651   0.877   1.641  16.998  2.1527  0.8228  0.1947
  309MPD2    H1 4652   0.759   1.453  17.356  0.8854 -2.8142  0.2025
  309MPD2    H2 4653   1.047   1.265  17.121  1.1282  0.7089 -1.0772
  309MPD2    H3 4654   0.909   1.263  17.306  0.0046  1.4976  2.5714
  309MPD2     N 4655   0.732   1.669  17.231 -0.4270  0.3012 -0.3518
  309MPD2    H5 4656   0.704   1.665  17.329  1.1455  2.1137  0.1704
  309MPD2    N1 4657   1.047   1.443  16.910 -0.4647 -0.0606  0.1209
  309MPD2    H7 4658   1.042   1.527  16.853  1.3192 -0.8437 -1.1844
  310TMC3    C1 4659   1.213   1.371  16.757 -0.2060 -0.3833 -0.0774
  310TMC3    C2 4660   1.193   1.472  16.666 -0.3870 -0.1546 -0.6408
  310TMC3    C3 4661   1.301   1.514  16.594 -0.4954 -0.0192 -0.7794
  310TMC3    C4 4662   1.334   1.316  16.764  0.2288 -0.0874 -0.8033
  310TMC3    C5 4663   1.438   1.354  16.683 -0.3961 -0.3086  0.2475
  310TMC3    C6 4664   1.423   1.455  16.592  0.1449 -0.4348  0.3407
  310TMC3     C 4665   1.123   1.336  16.866 -0.1484 -0.0652 -0.7480
  310TMC3     O 4666   1.156   1.232  16.927 -0.4087  0.6985  0.2069
  310TMC3     H 4667   1.100   1.526  16.649 -0.2077 -0.2381 -1.8597
  310TMC3    H1 4668   1.359   1.238  16.836 -1.1731  0.2963  0.0880
  310TMC3    H2 4669   1.506   1.504  16.543 -2.6924  3.6473 -0.3872
  310TMC3    C7 4670   1.574   1.324  16.711  0.2513  0.2002 -0.0591
  310TMC3    C8 4671   1.272   1.637  16.512 -0.4150  0.0134  0.2485
  310TMC3    O1 4672   1.644   1.299  16.613 -0.0495  0.3694  0.0103
  310TMC3    O2 4673   1.155   1.649  16.477  0.0229 -0.2155 -0.4636
  311MPD2     C 4674   3.440   2.860  12.463  0.6205 -0.0866 -0.4738
  311MPD2    C1 4675   3.467   2.926  12.580 -0.3320 -0.7463  0.3794
  311MPD2    C2 4676   3.358   2.956  12.663 -0.7066  0.0247  0.0928
  311MPD2    C3 4677   3.228   2.930  12.621 -0.1526  0.0528 -0.0262
  311MPD2    C4 4678   3.204   2.864  12.502 -0.0372  0.1639 -0.3061
  311MPD2    C5 4679   3.312   2.827  12.429  0.6577 -0.0994 -0.6913
  311MPD2     H 4680   3.380   3.006  12.756  0.3382 -2.0983  0.9856
  311MPD2    H1 4681   3.100   2.852  12.473 -0.0697 -3.4916  1.3897
  311MPD2    H2 4682   3.525   2.829  12.404  1.0795 -3.3612  1.9031
  311MPD2    H3 4683   3.290   2.774  12.337  1.7876  0.3563 -1.2227
  311MPD2     N 4684   3.122   2.967  12.712 -0.3277 -0.4170  0.6646
  311MPD2    H5 4685   3.151   3.005  12.801  0.7925  1.4673 -0.4799
  311MPD2    N1 4686   3.595   2.981  12.620 -0.4164 -0.3585  0.3316
  311MPD2    H7 4687   3.594   3.046  12.698  0.2240  1.2766 -1.0352
  312TMC3    C1 4688   2.905   2.981  12.818 -0.0663  0.2241  1.2014
  312TMC3    C2 4689   2.779   2.929  12.825 -0.0542  0.4646 -0.1926
  312TMC3    C3 4690   2.722   2.930  12.956 -0.1731 -0.5204  0.2147
  312TMC3    C4 4691   2.982   3.012  12.929  0.5973  0.5855  0.1361
  312TMC3    C5 4692   2.921   2.992  13.048  0.2940  0.1493  0.4575
  312TMC3    C6 4693   2.787   2.962  13.063  0.0971  0.2685  0.7340
  312TMC3     C 4694   2.981   2.939  12.699  0.0565 -0.3093  0.4141
  312TMC3     O 4695   2.917   2.892  12.606 -0.2184 -0.0572 -0.3627
  312TMC3     H 4696   2.725   2.913  12.733 -0.7002 -2.4393  0.7141
  312TMC3    H1 4697   3.087   3.039  12.932  0.8419 -0.5960  1.8069
  312TMC3    H2 4698   2.734   2.977  13.157  1.4587  1.2037  1.3543
  312TMC3    C7 4699   2.986   3.049  13.162 -0.1238 -0.3195  0.0595
  312TMC3    C8 4700   2.577   2.941  12.962 -0.1173  0.1024 -0.1149
  312TMC3    O1 4701   3.052   3.148  13.142  0.0472  0.7188 -0.3317
  312TMC3    O2 4702   2.516   2.894  12.867  0.3560  0.2901 -0.1911
  313MPD2     C 4703   3.015   2.019  11.046 -0.3943  0.2616  0.8435
  313MPD2    C1 4704   2.886   2.002  11.015  0.2007  0.4865  0.6002
  313MPD2    C2 4705   2.848   1.924  10.908  0.2434 -0.2490  0.4332
  313MPD2    C3 4706   2.936   1.885  10.812  0.3233  0.2978  0.7134
  313MPD2    C4 4707   3.072   1.928  10.835 -0.2103  1.7280  0.6574
  313MPD2    C5 4708   3.110   1.988  10.953 -0.3711 -0.6933 -0.0890
  313MPD2     H 4709   2.745   1.893  10.905  0.3907 -0.7486  0.5705
  313MPD2    H1 4710   3.151   1.899  10.767 -2.7291 -0.4377 -1.3524
  313MPD2    H2 4711   3.057   2.072  11.131  1.2446 -2.6173  1.8259
  313MPD2    H3 4712   3.213   2.004  10.984 -1.6054  1.2463  2.9662
  313MPD2     N 4713   2.898   1.807  10.706  0.2305 -0.1483 -0.7875
  313MPD2    H5 4714   2.798   1.790  10.700  0.2062 -0.5615  0.8917
  313MPD2    N1 4715   2.785   2.074  11.076 -0.0569 -1.0111  0.6191
  313MPD2    H7 4716   2.690   2.068  11.040  0.3804  0.1928 -0.7126
  314TMC3    C1 4717   2.686   2.223  11.233 -0.6482  1.1829  0.1990
  314TMC3    C2 4718   2.747   2.322  11.307  0.9601 -0.3558 -0.2688
  314TMC3    C3 4719   2.726   2.458  11.277  0.2459  0.2863  0.2069
  314TMC3    C4 4720   2.594   2.261  11.130 -0.2145  0.6931  0.5750
  314TMC3    C5 4721   2.573   2.400  11.115 -0.1914  0.3224  0.0222
  314TMC3    C6 4722   2.635   2.502  11.183  0.0273  0.8863  0.4523
  314TMC3     C 4723   2.799   2.136  11.196 -0.1295 -1.1692 -0.4060
  314TMC3     O 4724   2.903   2.164  11.253 -0.1958  0.2598  0.2977
  314TMC3     H 4725   2.796   2.290  11.398  0.5462  0.3347  0.1936
  314TMC3    H1 4726   2.546   2.184  11.070  1.6737 -0.4857  0.5808
  314TMC3    H2 4727   2.623   2.608  11.165  3.2362  1.0253 -0.9112
  314TMC3    C7 4728   2.466   2.436  11.024 -0.0456  0.3178 -0.0667
  314TMC3    C8 4729   2.849   2.532  11.276 -0.6268  0.3363  0.1916
  314TMC3    O1 4730   2.354   2.410  11.058 -0.0409  0.3467 -0.0711
  314TMC3    O2 4731   2.846   2.642  11.232 -0.1671 -0.0183  0.4095
  315MPD2     C 4732   1.859   1.803   0.746  0.5844  0.1138  0.8622
  315MPD2    C1 4733   1.984   1.762   0.792 -0.1063  0.4508  0.7954
  315MPD2    C2 4734   2.100   1.824   0.744 -0.3287  0.3008  0.7291
  315MPD2    C3 4735   2.094   1.913   0.642  0.5168 -0.1135  0.5295
  315MPD2    C4 4736   1.963   1.949   0.599  0.6487  0.0411  0.8239
  315MPD2    C5 4737   1.851   1.887   0.648 -0.0675  0.7316 -0.0525
  315MPD2     H 4738   2.194   1.792   0.786 -0.7162 -4.0738 -1.8636
  315MPD2    H1 4739   1.958   2.027   0.524 -2.3045 -0.5596  0.3690
  315MPD2    H2 4740   1.768   1.768   0.793 -0.4798  1.5188 -0.1719
  315MPD2    H3 4741   1.755   1.922   0.613  0.5956  0.4304 -2.1679
  315MPD2     N 4742   2.214   1.975   0.593 -0.2066 -0.8810  0.3185
  315MPD2    H5 4743   2.299   1.932   0.627 -0.4877  0.2833  2.4824
  315MPD2    N1 4744   1.999   1.674   0.900 -0.0187 -0.1287  0.6603
  315MPD2    H7 4745   2.092   1.645   0.927 -0.1084 -1.0655 -0.0238
  316TMC3    C1 4746   2.366   2.099   0.468  0.4057  0.4509  0.1962
  316TMC3    C2 4747   2.463   2.072   0.560  0.0714  0.1060 -0.9451
  316TMC3    C3 4748   2.586   2.104   0.527 -0.2819 -0.7616 -0.3930
  316TMC3    C4 4749   2.389   2.172   0.351 -0.6225 -0.0701  0.0058
  316TMC3    C5 4750   2.519   2.210   0.328  0.4534  0.5784  0.3485
  316TMC3    C6 4751   2.619   2.172   0.415  0.2057 -0.9836  0.4571
  316TMC3     C 4752   2.228   2.076   0.501  0.3616  0.4149 -0.1503
  316TMC3     O 4753   2.143   2.142   0.451 -0.6686 -0.3591  0.2357
  316TMC3     H 4754   2.438   2.022   0.653  1.9209  0.4874 -0.2538
  316TMC3    H1 4755   2.301   2.204   0.296  0.7790  1.5454 -1.3237
  316TMC3    H2 4756   2.720   2.204   0.392  0.7661 -1.4452  2.2674
  316TMC3    C7 4757   2.560   2.261   0.200 -0.7020 -0.7291 -0.8861
  316TMC3    C8 4758   2.694   2.065   0.607 -0.3103 -0.5130 -0.5188
  316TMC3    O1 4759   2.678   2.272   0.175 -0.1620 -0.4776 -0.0389
  316TMC3    O2 4760   2.796   2.133   0.581  0.1910  0.0218 -0.2408
  317MPD2     C 4761   3.899   0.175  13.256 -0.5459 -1.1594  0.0787
  317MPD2    C1 4762   3.942   0.106  13.146  0.2844 -0.0581 -0.9542
  317MPD2    C2 4763   4.032   4.720  13.159 -0.1069  0.2591  0.5579
  317MPD2    C3 4764   4.056   4.677  13.286 -0.4908 -1.1328  0.6072
  317MPD2    C4 4765   4.009   0.021  13.399 -0.3317 -0.2779 -0.1723
  317MPD2    C5 4766   3.929   0.134  13.384  0.1733 -0.4208 -1.4191
  317MPD2     H 4767   4.078   4.674  13.072 -0.3950 -0.0183  0.5526
  317MPD2    H1 4768   4.041   4.718  13.499 -0.4182  0.7769  0.1317
  317MPD2    H2 4769   3.844   0.268  13.253  0.3140 -0.6089  1.3478
  317MPD2    H3 4770   3.898   0.187  13.474  0.2282 -1.0355 -1.0371
  317MPD2     N 4771   4.141   4.567  13.294  0.4117 -0.1897  0.3185
  317MPD2    H5 4772   4.191   4.536  13.211  0.0862 -0.6160  0.2858
  317MPD2    N1 4773   3.897   0.132  13.015  0.3882 -1.5308  0.6371
  317MPD2    H7 4774   3.921   0.060  12.948 -0.6832  0.0338 -1.3951
  318TMC3    C1 4775   4.266   4.393  13.393 -0.2890 -0.3429 -0.1580
  318TMC3    C2 4776   4.252   4.283  13.475  0.0634  0.5568  0.6951
  318TMC3    C3 4777   4.325   4.170  13.453 -0.8153  0.3557 -0.0192
  318TMC3    C4 4778   4.365   4.387  13.299  0.3850  0.0468  0.0960
  318TMC3    C5 4779   4.447   4.278  13.281 -0.2248  0.4682  0.6983
  318TMC3    C6 4780   4.423   4.166  13.353  0.4078  0.1223  0.5780
  318TMC3     C 4781   4.166   4.501  13.413 -0.2763 -0.9312  0.3214
  318TMC3     O 4782   4.102   4.497  13.515  0.2213 -0.6098 -0.8641
  318TMC3     H 4783   4.174   4.280  13.551 -0.9279  1.0751 -0.3000
  318TMC3    H1 4784   4.379   4.477  13.241  1.1599  0.0013  0.2092
  318TMC3    H2 4785   4.469   4.070  13.331 -0.8769  0.0438 -1.6551
  318TMC3    C7 4786   4.529   4.271  13.161 -0.0479  0.7637  0.3700
  318TMC3    C8 4787   4.264   4.043  13.484  0.3841  0.3255  0.2741
  318TMC3    O1 4788   4.476   4.334  13.071 -0.3046  0.1925  0.2096
  318TMC3    O2 4789   4.338   3.946  13.480 -0.4139 -0.4006 -0.2263
  319MPD2     C 4790   0.619   1.543  16.825  0.7909  0.3151 -0.0346
  319MPD2    C1 4791   0.557   1.424  16.860 -0.6179  0.0985  0.0617
  319MPD2    C2 4792   0.495   1.358  16.759  0.2716 -0.0600 -0.9559
  319MPD2    C3 4793   0.495   1.396  16.627 -0.4167  0.0232 -0.3466
  319MPD2    C4 4794   0.572   1.505  16.593  0.9180 -0.4664  0.3956
  319MPD2    C5 4795   0.641   1.573  16.695 -0.6247  0.1500 -0.8743
  319MPD2     H 4796   0.431   1.276  16.791 -0.6964  1.0079 -0.1570
  319MPD2    H1 4797   0.576   1.531  16.488 -0.0197  0.0216  0.4737
  319MPD2    H2 4798   0.669   1.605  16.898  1.5695  0.7962 -0.9827
  319MPD2    H3 4799   0.712   1.647  16.661  0.9193 -0.6549  0.5855
  319MPD2     N 4800   0.422   1.332  16.529 -0.0393  0.9753 -0.0046
  319MPD2    H5 4801   0.416   1.373  16.436 -1.8146  2.4797  0.7766
  319MPD2    N1 4802   0.536   1.397  17.001 -0.9344  0.0716  0.1869
  319MPD2    H7 4803   0.553   1.468  17.072 -1.4680  0.1539  0.2307
  320TMC3    C1 4804   0.264   1.192  16.422  0.0896 -0.1066  0.1655
  320TMC3    C2 4805   0.206   1.296  16.356 -0.1946  0.0249 -0.0027
  320TMC3    C3 4806   0.093   1.281  16.284  0.4250  0.4130 -0.3354
  320TMC3    C4 4807   0.209   1.068  16.418  0.0127  0.2108 -0.0904
  320TMC3    C5 4808   0.098   1.056  16.341  0.7230  0.1439  0.8887
  320TMC3    C6 4809   0.035   1.163  16.281  1.0513  0.0664 -0.8095
  320TMC3     C 4810   0.349   1.216  16.539 -0.2824  0.7090  0.0609
  320TMC3     O 4811   0.360   1.126  16.622 -0.0226 -0.3905  0.2036
  320TMC3     H 4812   0.260   1.390  16.352 -3.9099  2.1915 -0.0594
  320TMC3    H1 4813   0.269   0.986  16.454  0.7329  1.4746  1.5793
  320TMC3    H2 4814   4.654   1.154  16.253  1.4452 -1.8287 -1.6316
  320TMC3    C7 4815   0.075   0.926  16.277  0.7700  0.3094  0.1368
  320TMC3    C8 4816   0.037   1.400  16.219 -0.1290 -0.0947  0.3857
  320TMC3    O1 4817   0.173   0.861  16.240  0.3910  0.7207 -0.0238
  320TMC3    O2 4818   0.083   1.509  16.256  0.0548 -0.2914 -0.3819
  321TMC3    C1 4819   0.465   1.268  17.187 -0.1546 -0.4775  0.9154
  321TMC3    C2 4820   0.443   1.147  17.249  1.0280 -0.1781  0.5623
  321TMC3    C3 4821   0.407   1.151  17.387 -0.1055  0.4110  0.1030
  321TMC3    C4 4822   0.459   1.387  17.252 -0.3147 -0.3893 -0.0784
  321TMC3    C5 4823   0.409   1.383  17.383 -0.3193 -0.6871 -0.2853
  321TMC3    C6 4824   0.388   1.271  17.450 -0.3312  0.6017 -0.5661
  321TMC3     C 4825   0.486   1.271  17.045  0.0021  0.2629  0.4036
  321TMC3     O 4826   0.487   1.167  16.982 -0.3740  0.0259  0.2540
  321TMC3     H 4827   0.451   1.056  17.191  1.4617 -2.0578  3.6116
  321TMC3    H1 4828   0.487   1.485  17.216  0.1978  0.1814  1.8686
  321TMC3    H2 4829   0.349   1.267  17.551  0.6775  0.3953 -0.1860
  321TMC3    C7 4830   0.481   1.476  17.468  0.6743 -0.4771 -0.1907
  321TMC3    C8 4831   0.481   1.069  17.478  0.1208 -0.0647 -0.7485
  321TMC3    O1 4832   0.497   1.593  17.430 -0.0284 -0.3397  0.4918
  321TMC3    O2 4833   0.535   1.132  17.571 -0.2962 -0.3731 -0.5465
  322MPD2     C 4834   4.038   2.707  13.985 -0.7500 -0.2886  0.1541
  322MPD2    C1 4835   4.010   2.657  14.110  0.2152 -1.3280  0.4435
  322MPD2    C2 4836   3.944   2.535  14.124 -0.2188 -0.0132 -0.0910
  322MPD2    C3 4837   3.896   2.467  14.016  0.2871  0.4016  0.9829
  322MPD2    C4 4838   3.920   2.525  13.894 -0.3376 -0.4369 -0.0775
  322MPD2    C5 4839   4.001   2.633  13.879  0.0201 -0.0275  0.1816
  322MPD2     H 4840   3.925   2.491  14.221  0.2019  1.2559  0.5600
  322MPD2    H1 4841   3.877   2.479  13.805 -1.1413  1.4506 -0.6540
  322MPD2    H2 4842   4.092   2.799  13.969  0.5284 -1.1861 -0.6678
  322MPD2    H3 4843   4.015   2.671  13.778  0.8576 -2.0820 -0.4696
  322MPD2     N 4844   3.833   2.342  14.025  0.1712  0.0235  0.4535
  322MPD2    H5 4845   3.823   2.303  14.118  0.4208 -0.2848  0.3511
  322MPD2    N1 4846   4.055   2.736  14.224 -0.1854 -0.4167 -0.1337
  322MPD2    H7 4847   4.116   2.815  14.206 -0.0395 -0.5456 -0.2036
  323TMC3    C1 4848   4.115   2.778  14.444  0.4274  0.0590 -0.3206
  323TMC3    C2 4849   4.229   2.833  14.399  0.0920 -0.1367 -0.1774
  323TMC3    C3 4850   4.332   2.860  14.483 -0.5736 -0.2676 -0.3172
  323TMC3    C4 4851   4.093   2.747  14.571 -0.3762  0.7350 -0.2434
  323TMC3    C5 4852   4.197   2.783  14.661 -0.6085  0.1524 -0.3640
  323TMC3    C6 4853   4.320   2.835  14.618  0.0389  0.1334 -0.1000
  323TMC3     C 4854   4.026   2.706  14.353  0.2271 -0.4574  0.2582
  323TMC3     O 4855   3.953   2.619  14.395 -0.3554  0.4586  0.4241
  323TMC3     H 4856   4.251   2.834  14.293 -0.6281 -0.4961 -0.3261
  323TMC3    H1 4857   4.011   2.682  14.599  0.7584 -0.5217  0.1998
  323TMC3    H2 4858   4.402   2.870  14.680 -1.4126  2.2215  0.6397
  323TMC3    C7 4859   4.197   2.711  14.786  0.0300 -0.2772 -0.6427
  323TMC3    C8 4860   4.457   2.925  14.441  0.0871 -0.1797  0.1344
  323TMC3    O1 4861   4.101   2.634  14.819  0.4301 -0.1280 -0.1635
  323TMC3    O2 4862   4.553   2.914  14.516  0.5738 -0.1444 -0.0214
  324MPD2     C 4863   1.080   3.519  13.792 -0.0310  0.2517  0.1486
  324MPD2    C1 4864   1.009   3.575  13.898  0.4666 -0.1652  0.5214
  324MPD2    C2 4865   0.872   3.548  13.908  0.3654  0.2274  1.8552
  324MPD2    C3 4866   0.806   3.482  13.803  0.3997 -0.5496 -0.2434
  324MPD2    C4 4867   0.881   3.423  13.706 -0.4104 -0.3702  0.2585
  324MPD2    C5 4868   1.017   3.434  13.701 -0.1092 -0.3592  0.6410
  324MPD2     H 4869   0.827   3.585  14.000  0.0162  1.5222  1.1679
  324MPD2    H1 4870   0.837   3.361  13.629 -0.4574 -1.7790  1.4141
  324MPD2    H2 4871   1.187   3.524  13.780  0.0458 -1.6763  0.0544
  324MPD2    H3 4872   1.078   3.383  13.627  0.5364  2.3754 -0.7047
  324MPD2     N 4873   0.665   3.465  13.811  0.0629 -0.1562  0.5550
  324MPD2    H5 4874   0.624   3.397  13.748  3.0886 -0.9490 -0.5645
  324MPD2    N1 4875   1.069   3.636  14.019  0.3035  0.6126 -1.1008
  324MPD2    H7 4876   1.008   3.674  14.090 -0.0342 -1.9433 -0.0408
  325TMC3    C1 4877   0.437   3.505  13.851  0.1465  0.3271 -0.0775
  325TMC3    C2 4878   0.401   3.374  13.810 -0.0160  0.2976  0.0244
  325TMC3    C3 4879   0.271   3.348  13.772 -0.7703  0.4556  0.2548
  325TMC3    C4 4880   0.343   3.607  13.863 -0.0623 -0.3735  0.9050
  325TMC3    C5 4881   0.215   3.567  13.822  0.0197  0.3953  0.4516
  325TMC3    C6 4882   0.182   3.449  13.771  0.0615 -0.2149 -0.1163
  325TMC3     C 4883   0.573   3.532  13.895  0.9102  0.0940  0.0114
  325TMC3     O 4884   0.583   3.631  13.965  0.6377  0.7003  0.6620
  325TMC3     H 4885   0.474   3.297  13.830 -0.1530  0.4220  0.9905
  325TMC3    H1 4886   0.375   3.706  13.895 -1.1450  1.2380 -3.1045
  325TMC3    H2 4887   0.085   3.443  13.722 -0.8427 -0.2232  1.6548
  325TMC3    C7 4888   0.130   3.680  13.810 -0.0701  0.2038  0.5722
  325TMC3    C8 4889   0.266   3.237  13.682  0.1824  0.7900 -0.1239
  325TMC3    O1 4890   0.077   3.695  13.703 -0.4953  0.0840  0.0265
  325TMC3    O2 4891   0.368   3.185  13.641  0.9727 -0.0529  0.2661
  326MPD2     C 4892   1.799   4.676  11.041  0.2075  0.2731  0.2305
  326MPD2    C1 4893   1.905   4.587  11.034 -0.6665  0.1720  0.7901
  326MPD2    C2 4894   2.020   4.627  11.104  0.5130  0.9873 -0.1734
  326MPD2    C3 4895   2.035   0.032  11.155  0.3525 -0.0712 -0.0391
  326MPD2    C4 4896   1.935   0.118  11.145  0.0964  1.2307 -0.4404
  326MPD2    C5 4897   1.816   0.079  11.100 -0.6704 -0.2910 -0.7010
  326MPD2     H 4898   2.098   4.553  11.113  0.6104  1.1096  0.0126
  326MPD2    H1 4899   1.934   0.218  11.186  1.4573  1.1421 -0.2153
  326MPD2    H2 4900   1.702   4.661  10.997 -1.7941  2.2002  3.9520
  326MPD2    H3 4901   1.732   0.147  11.094 -0.5607 -0.2970 -2.2694
  326MPD2     N 4902   2.148   0.076  11.232  0.1106 -0.2442 -0.5388
  326MPD2    H5 4903   2.158   0.174  11.256  3.9259 -0.9002  0.5474
  326MPD2    N1 4904   1.907   4.466  10.955  0.5218  0.2676 -0.2233
  326MPD2    H7 4905   1.999   4.425  10.945  0.2491 -0.2476 -0.6299
  327TMC3    C1 4906   1.858   4.311  10.793 -0.4552 -0.3384 -0.0260
  327TMC3    C2 4907   1.830   4.328  10.660 -0.3121  0.6764  0.0619
  327TMC3    C3 4908   1.875   4.231  10.575 -0.1361  0.1639  0.0519
  327TMC3    C4 4909   1.929   4.203  10.847  0.0893 -0.8172  0.5264
  327TMC3    C5 4910   1.974   4.117  10.761 -0.8922  0.1409 -0.1439
  327TMC3    C6 4911   1.944   4.120  10.622  0.2866  0.3159 -0.3808
  327TMC3     C 4912   1.806   4.412  10.886  0.2895  0.2306 -0.7217
  327TMC3     O 4913   1.694   4.453  10.863 -0.0346  0.2450 -0.1175
  327TMC3     H 4914   1.777   4.415  10.625 -0.6249 -0.0398 -1.2585
  327TMC3    H1 4915   1.939   4.187  10.953 -1.9477 -0.1486  0.8227
  327TMC3    H2 4916   1.981   4.044  10.554  0.9073  0.1100  0.1808
  327TMC3    C7 4917   2.058   4.017  10.809 -0.2542  0.1937  0.6276
  327TMC3    C8 4918   1.884   4.271  10.440 -0.0855  0.3279  0.9528
  327TMC3    O1 4919   2.080   3.923  10.738 -0.7292 -0.1557 -0.0547
  327TMC3    O2 4920   1.901   4.184  10.359  0.2335  0.3084  0.3751
  328MPD2     C 4921   4.434   0.407  17.444 -0.6840  0.2294  0.1217
  328MPD2    C1 4922   4.417   0.293  17.370  0.2252  0.1691  0.4888
  328MPD2    C2 4923   4.330   0.292  17.258 -0.2503  0.0377 -0.2711
  328MPD2    C3 4924   4.248   0.407  17.235  0.1025  0.1229  0.0039
  328MPD2    C4 4925   4.271   0.513  17.316 -0.0497  0.0994  0.1977
  328MPD2    C5 4926   4.366   0.515  17.411 -0.3377 -0.3641 -0.8877
  328MPD2     H 4927   4.324   0.204  17.195 -3.2116 -1.1994  1.7427
  328MPD2    H1 4928   4.210   0.602  17.311  1.4739  1.1112 -0.2729
  328MPD2    H2 4929   4.490   0.401  17.537  0.7403  1.0111 -0.6822
  328MPD2    H3 4930   4.373   0.600  17.478  0.3515 -0.2001 -1.1620
  328MPD2     N 4931   4.143   0.423  17.140 -0.6118 -0.6043  0.1644
  328MPD2    H5 4932   4.110   0.516  17.120 -1.3440 -1.2186 -1.4987
  328MPD2    N1 4933   4.495   0.184  17.402  0.1500 -0.2857 -0.4263
  328MPD2    H7 4934   4.551   0.179  17.486  0.0115 -1.0575 -0.3781
  329TMC3    C1 4935   4.571   4.686  17.390 -0.3167  0.9103 -0.9109
  329TMC3    C2 4936   4.513   4.651  17.507 -0.0166  0.3704  0.3450
  329TMC3    C3 4937   4.536   4.519  17.538  0.0865  0.6680  0.0572
  329TMC3    C4 4938   4.670   4.620  17.323 -0.2040  0.2770 -0.4829
  329TMC3    C5 4939   4.700   4.497  17.372  0.2811  0.3675 -0.4943
  329TMC3    C6 4940   4.629   4.439  17.472  0.3260  0.0825  0.7178
  329TMC3     C 4941   4.507   0.076  17.319  0.0818 -0.1503  0.1793
  329TMC3     O 4942   4.504   0.074  17.197 -0.3485  0.4551 -0.0796
  329TMC3     H 4943   4.418   4.697  17.531  1.0780  2.6361  0.4381
  329TMC3    H1 4944   4.714   4.656  17.231  0.5471  0.9002  0.1131
  329TMC3    H2 4945   4.648   4.337  17.503  2.4293  0.9529  2.3394
  329TMC3    C7 4946   0.051   4.410  17.283  0.3791 -0.5775 -0.7719
  329TMC3    C8 4947   4.425   4.443  17.591 -0.6499  0.1655  0.5001
  329TMC3    O1 4948   0.102   4.475  17.200 -0.9860  1.3494 -0.3101
  329TMC3    O2 4949   4.399   4.343  17.528 -0.4252  0.0407  0.6768
  330TMC3    C1 4950   3.059   4.169   9.430 -1.1257 -0.1539 -0.3720
  330TMC3    C2 4951   3.000   4.064   9.355 -0.3082 -0.6038 -0.4170
  330TMC3    C3 4952   3.001   3.937   9.411 -0.3114 -0.0082  0.6729
  330TMC3    C4 4953   3.115   4.139   9.547  0.7478 -0.1730 -0.6392
  330TMC3    C5 4954   3.121   4.010   9.593  0.3617 -0.6920 -0.3854
  330TMC3    C6 4955   3.060   3.904   9.529  0.0743  0.1527  0.3116
  330TMC3     C 4956   3.001   4.307   9.433  0.3799 -0.6244  0.6879
  330TMC3     O 4957   3.036   4.388   9.517  0.0998 -0.1677 -0.2403
  330TMC3     H 4958   2.959   4.087   9.258  0.9223  0.7728 -0.6164
  330TMC3    H1 4959   3.147   4.220   9.612 -2.9781  1.1793 -0.5203
  330TMC3    H2 4960   3.071   3.801   9.562 -1.3025 -0.1118 -0.0835
  330TMC3    C7 4961   3.202   3.985   9.710 -0.1326 -0.1393  0.2306
  330TMC3    C8 4962   2.931   3.846   9.326  0.1248  0.1875 -0.3971
  330TMC3    O1 4963   3.248   4.085   9.763 -0.0810 -0.0920  0.1352
  330TMC3    O2 4964   2.915   3.875   9.210  0.2523 -0.9833  0.1960
  331MPD2     C 4965   0.441   3.136  12.333 -0.0305 -0.8252  0.3345
  331MPD2    C1 4966   0.563   3.147  12.271 -1.3885  0.5638  0.0297
  331MPD2    C2 4967   0.624   3.030  12.236 -0.2452 -0.2061 -0.1790
  331MPD2    C3 4968   0.565   2.908  12.251  0.2348 -0.7859 -0.5130
  331MPD2    C4 4969   0.448   2.895  12.322  0.0690  0.6746  0.8827
  331MPD2    C5 4970   0.382   3.014  12.355 -0.1966 -0.4980  1.2040
  331MPD2     H 4971   0.715   3.043  12.178  0.5404 -0.0886  1.0954
  331MPD2    H1 4972   0.399   2.799  12.335 -0.0458  0.5822 -0.2626
  331MPD2    H2 4973   0.385   3.223  12.365 -0.5162 -0.1907 -2.2459
  331MPD2    H3 4974   0.281   3.018  12.395 -1.3764  1.2661 -1.9111
  331MPD2     N 4975   0.635   2.790  12.218  0.5337  0.2102  0.1376
  331MPD2    H5 4976   0.614   2.704  12.268  0.7405 -0.1441 -0.3845
  331MPD2    N1 4977   0.618   3.274  12.246  0.0446  0.3397  0.6965
  331MPD2    H7 4978   0.557   3.355  12.239 -0.2890  0.1506  1.4489
  332TMC3    C1 4979   0.834   2.675  12.143 -0.1583 -0.3158 -0.3146
  332TMC3    C2 4980   0.939   2.671  12.056  0.9710  0.3617 -0.1612
  332TMC3    C3 4981   1.068   2.655  12.104 -0.9278 -0.2110 -0.5576
  332TMC3    C4 4982   0.844   2.640  12.269  0.6387 -0.3003 -0.7731
  332TMC3    C5 4983   0.970   2.642  12.322  0.3695  0.4865 -0.3741
  332TMC3    C6 4984   1.079   2.647  12.243 -0.5677  0.0291 -0.1562
  332TMC3     C 4985   0.744   2.786  12.135 -0.0604 -0.2440 -0.0279
  332TMC3     O 4986   0.776   2.859  12.040  0.6266 -0.0605 -0.0462
  332TMC3     H 4987   0.922   2.699  11.952 -1.0576 -2.3666 -0.5359
  332TMC3    H1 4988   0.760   2.629  12.337  0.9920  0.9328 -0.1409
  332TMC3    H2 4989   1.178   2.645  12.286 -0.7466 -0.5081  0.2326
  332TMC3    C7 4990   0.984   2.707  12.443 -0.3399 -0.3927 -0.9948
  332TMC3    C8 4991   1.183   2.713  12.043  0.2705 -0.2993 -0.1216
  332TMC3    O1 4992   0.893   2.792  12.467  0.5125 -0.4850 -0.1242
  332TMC3    O2 4993   1.276   2.744  12.118 -0.5071 -0.9220  0.4776
  333MPD2     C 4994   0.765   3.116  11.319  0.2790  0.3437  0.0100
  333MPD2    C1 4995   0.823   2.995  11.315  0.1989  0.0276  0.0272
  333MPD2    C2 4996   0.771   2.898  11.397 -0.3682 -0.2331 -0.7247
  333MPD2    C3 4997   0.656   2.919  11.479  0.7468  0.3377  0.0014
  333MPD2    C4 4998   0.600   3.045  11.478  0.8707 -0.8147 -0.6257
  333MPD2    C5 4999   0.658   3.146  11.404 -0.1433  0.5216 -0.2235
  333MPD2     H 5000   0.812   2.798  11.390  0.7119 -0.0546  3.2057
  333MPD2    H1 5001   0.507   3.064  11.531  0.9936  1.9812 -1.3865
  333MPD2    H2 5002   0.814   3.190  11.256 -0.4855 -0.2254 -1.2523
  333MPD2    H3 5003   0.610   3.243  11.400  0.4867  0.7620 -2.1760
  333MPD2     N 5004   0.618   2.812  11.565 -0.4830  0.1666  0.6360
  333MPD2    H5 5005   0.684   2.734  11.564 -0.6991  0.0136 -2.0218
  333MPD2    N1 5006   0.944   2.972  11.242 -0.6350  0.1377  0.4210
  333MPD2    H7 5007   0.977   3.042  11.177 -2.0887  0.2372 -0.2097
  334TMC3    C1 5008   1.145   2.874  11.178  0.2425  0.5093 -0.7866
  334TMC3    C2 5009   1.259   2.822  11.219  0.7483  0.2987  0.1821
  334TMC3    C3 5010   1.362   2.812  11.133  0.0811  0.9601  0.6760
  334TMC3    C4 5011   1.113   2.904  11.044  0.0220  0.1546  0.0379
  334TMC3    C5 5012   1.217   2.883  10.959  0.1864 -0.7592 -0.0028
  334TMC3    C6 5013   1.345   2.848  11.003  0.6426 -0.0706  1.1031
  334TMC3     C 5014   1.031   2.873  11.270 -0.8082 -0.1023  0.0814
  334TMC3     O 5015   1.037   2.790  11.362  0.9483  0.5003 -0.1238
  334TMC3     H 5016   1.271   2.827  11.327  1.0871 -1.4729  0.2277
  334TMC3    H1 5017   1.007   2.920  11.027  0.1231  1.4958  0.6867
  334TMC3    H2 5018   1.432   2.850  10.938 -0.6296 -2.2082 -0.6526
  334TMC3    C7 5019   1.209   2.936  10.822 -0.2828 -0.6773 -0.3030
  334TMC3    C8 5020   1.496   2.826  11.195  0.3701 -0.8319 -0.5636
  334TMC3    O1 5021   1.298   2.901  10.748 -0.4853 -0.8757  0.3436
  334TMC3    O2 5022   1.496   2.847  11.314 -0.1257  0.1856  0.1033
  335TMC3    C1 5023   0.996   0.414  17.486  0.3655  0.4116 -0.2186
  335TMC3    C2 5024   0.875   0.357  17.462 -0.1162  0.5910  0.2559
  335TMC3    C3 5025   0.862   0.224  17.461 -0.0903  0.1731  0.0054
  335TMC3    C4 5026   1.104   0.345  17.490 -0.5879 -0.8737 -0.4025
  335TMC3    C5 5027   1.094   0.208  17.474 -0.4750 -0.8167 -0.0205
  335TMC3    C6 5028   0.975   0.151  17.462  0.3498 -0.8016  0.2945
  335TMC3     C 5029   1.018   0.561  17.481 -0.2887  0.3459 -0.1390
  335TMC3     O 5030   1.124   0.607  17.529 -0.0408  0.1909 -0.4458
  335TMC3     H 5031   0.787   0.417  17.443 -1.1879 -1.5280 -1.4854
  335TMC3    H1 5032   1.198   0.398  17.503 -1.8869  0.6068  3.0038
  335TMC3    H2 5033   0.975   0.043  17.454  1.8399 -0.7912  0.2681
  335TMC3    C7 5034   1.212   0.128  17.453  0.9316 -1.0691 -0.8166
  335TMC3    C8 5035   0.758   0.170  17.383  0.7827 -0.6916 -0.1934
  335TMC3    O1 5036   1.201   0.008  17.482 -0.4900  0.5630  0.4959
  335TMC3    O2 5037   0.705   0.256  17.311  0.3807 -0.5100  0.4923
  336MPD2     C 5038   0.084   2.591  16.770  0.1174 -0.1686  0.3699
  336MPD2    C1 5039   0.113   2.566  16.638 -0.2720  0.4517 -0.1740
  336MPD2    C2 5040   0.154   2.446  16.594 -0.2327 -0.4166 -0.0691
  336MPD2    C3 5041   0.179   2.349  16.689  0.6971 -0.1281  0.0198
  336MPD2    C4 5042   0.153   2.377  16.820  0.5164 -0.0907 -0.4301
  336MPD2    C5 5043   0.107   2.496  16.861  0.8167  0.1141 -0.0652
  336MPD2     H 5044   0.150   2.417  16.489  1.4311 -3.5378  0.7230
  336MPD2    H1 5045   0.166   2.302  16.897 -0.5847  1.3913  1.2035
  336MPD2    H2 5046   0.044   2.687  16.803  0.6505  0.5592 -1.1025
  336MPD2    H3 5047   0.084   2.512  16.965  1.3800 -0.3787  0.1344
  336MPD2     N 5048   0.230   2.218  16.655  0.1725  0.0916 -0.1632
  336MPD2    H5 5049   0.233   2.149  16.730  1.1464  0.6361  0.3042
  336MPD2    N1 5050   0.081   2.663  16.540  0.1303 -0.4124 -0.8607
  336MPD2    H7 5051   0.078   2.637  16.442 -0.5052 -2.9571 -0.1553
  337TMC3    C1 5052   0.003   2.845  16.423 -0.3284  0.4886  0.0212
  337TMC3    C2 5053   4.630   2.766  16.355 -0.2241  0.2898 -0.4158
  337TMC3    C3 5054   4.573   2.828  16.245  0.1326 -0.5413 -0.6755
  337TMC3    C4 5055   0.017   2.977  16.407  0.3505  0.4528 -0.0739
  337TMC3    C5 5056   4.691   3.029  16.288 -0.1200  0.5309 -0.0193
  337TMC3    C6 5057   4.612   2.956  16.205  0.2554  0.3877  0.4655
  337TMC3     C 5058   0.052   2.796  16.555  0.9957  0.6599  0.0579
  337TMC3     O 5059   0.094   2.871  16.639 -0.0266  0.1070 -0.7234
  337TMC3     H 5060   4.604   2.665  16.382 -0.1387  0.4747  0.3757
  337TMC3    H1 5061   0.089   3.027  16.471  0.2418 -0.5478  0.8292
  337TMC3    H2 5062   4.550   3.011  16.135  1.6811 -1.5918 -2.3029
  337TMC3    C7 5063   0.027   3.153  16.230 -0.1813  0.2186 -0.8485
  337TMC3    C8 5064   4.441   2.785  16.210  0.3898 -0.0719  0.6676
  337TMC3    O1 5065   0.020   3.168  16.109  0.3873  0.2169 -0.2576
  337TMC3    O2 5066   4.383   2.713  16.289 -0.9478  0.0417  0.2478
  338MPD2     C 5067   4.711   1.787   1.056  0.1510 -0.3739 -0.3082
  338MPD2    C1 5068   0.103   1.845   1.003 -0.3060 -0.4225 -0.4720
  338MPD2    C2 5069   0.151   1.961   1.072 -0.0837  0.5458 -0.2983
  338MPD2    C3 5070   0.081   2.024   1.171 -0.1022  0.2622  0.1396
  338MPD2    C4 5071   4.676   1.975   1.204  0.2690  0.1471 -0.3615
  338MPD2    C5 5072   4.634   1.848   1.151  0.4317 -0.2635 -0.1859
  338MPD2     H 5073   0.252   1.991   1.046 -0.1857  0.9965 -0.1793
  338MPD2    H1 5074   4.608   2.015   1.279 -1.3224 -1.0726 -1.1540
  338MPD2    H2 5075   4.677   1.694   1.012 -1.2449  1.2558 -2.5916
  338MPD2    H3 5076   4.547   1.799   1.194  1.3055 -0.6162  1.1602
  338MPD2     N 5077   0.139   2.139   1.233 -0.3249  0.1699 -0.0538
  338MPD2    H5 5078   0.230   2.169   1.201  0.1323 -2.9849 -1.6771
  338MPD2    N1 5079   0.188   1.778   0.911  0.1748 -0.3584  0.4908
  338MPD2    H7 5080   0.266   1.832   0.875 -0.5089 -2.0735 -3.5417
  339TMC3    C1 5081   0.135   2.320   1.400 -0.5942 -0.3543  0.0891
  339TMC3    C2 5082   0.127   2.349   1.535  0.3613 -0.0720  0.1153
  339TMC3    C3 5083   0.202   2.454   1.583  0.0942 -0.2693 -0.0764
  339TMC3    C4 5084   0.228   2.384   1.325  0.0897  0.1008 -0.7863
  339TMC3    C5 5085   0.297   2.485   1.370 -0.0571  0.2694  1.3053
  339TMC3    C6 5086   0.284   2.531   1.499 -0.2392  0.9054 -0.3221
  339TMC3     C 5087   0.076   2.203   1.342  0.6706 -0.6240 -0.0618
  339TMC3     O 5088   4.707   2.157   1.412 -0.5691  0.2216  0.2169
  339TMC3     H 5089   0.053   2.289   1.586  0.8223  0.3881  1.3305
  339TMC3    H1 5090   0.250   2.355   1.223 -0.9280  1.8341 -1.5159
  339TMC3    H2 5091   0.347   2.612   1.534 -0.3485 -0.2471  2.5358
  339TMC3    C7 5092   0.387   2.534   1.272  0.3754  0.0717 -0.0942
  339TMC3    C8 5093   0.175   2.512   1.712 -0.4203  0.4268 -0.5872
  339TMC3    O1 5094   0.350   2.537   1.153 -0.4819 -0.3751  0.6768
  339TMC3    O2 5095   0.227   2.627   1.731  0.0590  0.1749 -0.4299
  340MPD2     C 5096   0.552   3.791   9.720  0.1727  0.8320 -0.3304
  340MPD2    C1 5097   0.655   3.860   9.658 -0.3280 -0.1685  0.2096
  340MPD2    C2 5098   0.718   3.962   9.733  0.0826  0.3795  0.3901
  340MPD2    C3 5099   0.680   3.984   9.863 -0.1548 -0.6113  0.1064
  340MPD2    C4 5100   0.588   3.906   9.923  0.3627  0.6685  0.1949
  340MPD2    C5 5101   0.528   3.812   9.853 -0.1115  0.7636 -0.4985
  340MPD2     H 5102   0.806   4.003   9.684  2.4554 -1.6951  2.9278
  340MPD2    H1 5103   0.542   3.924  10.020 -1.4616 -0.0032 -0.5476
  340MPD2    H2 5104   0.503   3.703   9.680 -0.7744 -0.1226  2.8844
  340MPD2    H3 5105   0.451   3.753   9.902  2.0887 -0.6226  1.3502
  340MPD2     N 5106   0.743   4.072   9.953  0.0697 -0.6172 -0.1863
  340MPD2    H5 5107   0.707   4.077  10.048  1.8946 -0.7301  0.5179
  340MPD2    N1 5108   0.702   3.813   9.531  0.7969 -0.1215 -0.2065
  340MPD2    H7 5109   0.639   3.744   9.490 -0.0339  1.6329 -1.8967
  341TMC3    C1 5110   0.787   3.813   9.318  0.3696 -0.0425 -0.6626
  341TMC3    C2 5111   0.667   3.797   9.263  0.0814 -0.0645  0.5287
  341TMC3    C3 5112   0.650   3.724   9.155 -0.1303 -0.2811  0.4045
  341TMC3    C4 5113   0.896   3.763   9.264  0.1260 -0.4117  0.1573
  341TMC3    C5 5114   0.880   3.684   9.151  0.0413  0.0150 -0.4534
  341TMC3    C6 5115   0.759   3.662   9.090  0.3229  0.3746  0.3414
  341TMC3     C 5116   0.803   3.864   9.452  0.5723 -0.3072  0.1981
  341TMC3     O 5117   0.900   3.928   9.493 -0.0802 -0.1222 -0.0414
  341TMC3     H 5118   0.582   3.841   9.313 -1.6069 -0.5572 -1.9091
  341TMC3    H1 5119   0.986   3.760   9.324  0.3037 -1.2040 -0.1582
  341TMC3    H2 5120   0.751   3.581   9.018  2.0287 -0.2451  0.8654
  341TMC3    C7 5121   0.986   3.581   9.127  0.2729 -0.1900 -0.3581
  341TMC3    C8 5122   0.523   3.649   9.139 -0.2481  0.0610 -0.1392
  341TMC3    O1 5123   1.076   3.575   9.209  0.1620  0.1817 -0.5183
  341TMC3    O2 5124   0.457   3.647   9.243  0.0906 -0.2109  0.3293
  342MPD2     C 5125   2.923   2.749  17.070  0.3560 -0.4719 -0.5865
  342MPD2    C1 5126   2.981   2.746  17.198  0.6206  0.2703  0.0749
  342MPD2    C2 5127   2.985   2.871  17.272  0.3051 -0.0124 -0.4337
  342MPD2    C3 5128   2.928   2.983  17.216  1.1001  0.1904 -0.0036
  342MPD2    C4 5129   2.885   2.985  17.080  0.7506  0.4649 -0.2142
  342MPD2    C5 5130   2.885   2.867  17.004  0.2661 -0.2820  0.5132
  342MPD2     H 5131   3.024   2.873  17.373 -3.3528 -1.7125  0.9964
  342MPD2    H1 5132   2.855   3.080  17.038 -0.0354  1.0808  1.7179
  342MPD2    H2 5133   2.902   2.657  17.016 -1.3921 -0.1053 -0.5282
  342MPD2    H3 5134   2.852   2.873  16.901  1.5222 -1.9070  0.0189
  342MPD2     N 5135   2.943   3.098  17.288 -0.5044  0.2444 -0.6400
  342MPD2    H5 5136   2.993   3.100  17.376  1.1924 -1.3525 -1.5819
  342MPD2    N1 5137   3.044   2.633  17.260 -0.3588  0.1974  0.3616
  342MPD2    H7 5138   3.089   2.642  17.351  0.9764 -2.0520 -0.0572
  343TMC3    C1 5139   3.122   2.409  17.290 -1.0009  0.3235 -1.0337
  343TMC3    C2 5140   3.215   2.324  17.241  0.0909 -0.5013 -0.2330
  343TMC3    C3 5141   3.261   2.221  17.316  0.2977 -0.0022  0.6875
  343TMC3    C4 5142   3.093   2.398  17.425  0.6010  0.1822  0.1350
  343TMC3    C5 5143   3.143   2.297  17.502  0.5194  0.4717  0.1348
  343TMC3    C6 5144   3.225   2.200  17.446  0.0719 -0.0009  0.2991
  343TMC3     C 5145   3.061   2.510  17.204 -0.0252 -0.2559 -0.1724
  343TMC3     O 5146   3.045   2.482  17.086 -0.6439  0.1993  0.0954
  343TMC3     H 5147   3.259   2.333  17.142  4.7815 -0.6647  1.8549
  343TMC3    H1 5148   3.013   2.463  17.457 -2.7448 -3.1383 -1.5051
  343TMC3    H2 5149   3.257   2.115  17.504  1.2277  0.4734  0.3584
  343TMC3    C7 5150   3.063   2.243  17.614 -0.6563 -0.0289  0.6138
  343TMC3    C8 5151   3.350   2.141  17.238  0.4690 -0.4777 -0.4571
  343TMC3    O1 5152   2.946   2.285  17.619  0.2193 -0.8363  0.0904
  343TMC3    O2 5153   3.338   2.119  17.115  0.5713 -0.5362 -0.9557
  344MPD2     C 5154   0.151   1.568  10.378 -0.5732 -0.3807 -0.4427
  344MPD2    C1 5155   0.024   1.576  10.328  0.1741 -0.2247 -0.1091
  344MPD2    C2 5156   0.004   1.654  10.213 -0.6439 -0.4897  0.3235
  344MPD2    C3 5157   0.112   1.704  10.145  0.7850  0.2925  0.5741
  344MPD2    C4 5158   0.236   1.687  10.199 -0.4848 -0.7552 -0.1412
  344MPD2    C5 5159   0.256   1.624  10.319 -0.3478 -0.0110  0.3628
  344MPD2     H 5160   4.626   1.669  10.177 -0.4285  2.6502  1.0799
  344MPD2    H1 5161   0.328   1.723  10.156 -1.3375  3.1377  1.2878
  344MPD2    H2 5162   0.172   1.520  10.473  1.3527 -1.4840 -1.4512
  344MPD2    H3 5163   0.353   1.616  10.367 -0.3696  0.3369  0.4632
  344MPD2     N 5164   0.110   1.779  10.032  0.1489  0.0325  0.3007
  344MPD2    H5 5165   0.192   1.834  10.007  1.8518 -2.6105  0.1084
  344MPD2    N1 5166   4.639   1.510  10.401  0.3041  0.7276  0.3111
  344MPD2    H7 5167   4.671   1.467  10.487  0.5653 -0.4460 -0.3604
  345TMC3    C1 5168   0.050   1.903   9.853  0.0418  0.0489  0.1087
  345TMC3    C2 5169   0.183   1.908   9.803  1.0717  0.0736 -0.8122
  345TMC3    C3 5170   0.216   2.004   9.704  0.4045 -0.2064  0.2914
  345TMC3    C4 5171   4.681   1.983   9.801  0.1940 -0.8158  0.5824
  345TMC3    C5 5172   4.721   2.083   9.719 -0.0087 -0.2559 -0.6192
  345TMC3    C6 5173   0.120   2.092   9.660 -0.7644 -1.0056  0.2689
  345TMC3     C 5174   0.002   1.818   9.957  0.3264  0.0707  0.3534
  345TMC3     O 5175   4.607   1.800   9.979  0.7247  0.2010 -0.1469
  345TMC3     H 5176   0.261   1.853   9.855  0.9076  0.0550 -0.5841
  345TMC3    H1 5177   4.588   1.987   9.858 -0.0533 -2.8633  0.3371
  345TMC3    H2 5178   0.149   2.168   9.589 -0.1675  0.6686  2.3050
  345TMC3    C7 5179   4.634   2.201   9.711  0.3196  0.4441  0.2704
  345TMC3    C8 5180   0.363   2.018   9.680  1.1610 -0.6034  0.2718
  345TMC3    O1 5181   4.691   2.304   9.687  0.2674 -0.3405 -0.3168
  345TMC3    O2 5182   0.431   1.924   9.720 -0.1763 -0.1636  0.1028
  346MPD2     C 5183   0.000   3.595  14.283 -0.0219  0.0477  0.0126
  346MPD2    C1 5184   4.636   3.697  14.256 -0.9694  0.1199 -0.5717
  346MPD2    C2 5185   4.617   3.794  14.351 -0.5179 -0.1924  0.0221
  346MPD2    C3 5186   4.705   3.806  14.453  0.6358  0.9124  0.5350
  346MPD2    C4 5187   0.078   3.712  14.477  0.6707  0.6998  0.5371
  346MPD2    C5 5188   0.081   3.606  14.391 -0.2978 -0.0656 -0.3941
  346MPD2     H 5189   4.543   3.872  14.344  0.1342  0.1420 -3.0450
  346MPD2    H1 5190   0.146   3.711  14.562  2.9143  1.5600 -1.2447
  346MPD2    H2 5191   0.015   3.510  14.217 -1.6315  0.0474 -0.3377
  346MPD2    H3 5192   0.152   3.526  14.406 -0.1656 -0.0955 -1.1698
  346MPD2     N 5193   4.692   3.920  14.534  0.8902 -0.3131  0.2065
  346MPD2    H5 5194   4.611   3.980  14.520  0.2373 -1.0821  0.6829
  346MPD2    N1 5195   4.558   3.698  14.142 -0.0586 -0.1761 -0.6224
  346MPD2    H7 5196   4.507   3.784  14.124  0.6455 -0.0234 -1.8668
  347TMC3    C1 5197   0.073   4.124  14.593 -0.1385  0.1598  0.0151
  347TMC3    C2 5198   0.050   4.157  14.456 -0.5653 -0.3639 -0.1226
  347TMC3    C3 5199   0.148   4.215  14.380  0.0096 -0.0697  0.4215
  347TMC3    C4 5200   0.185   4.172  14.655 -0.1431  0.0175  0.0297
  347TMC3    C5 5201   0.276   4.238  14.577  0.1265 -0.3883  0.3822
  347TMC3    C6 5202   0.260   4.261  14.444  0.3818  0.0923  0.1082
  347TMC3     C 5203   0.069   3.976  14.610  0.7806  0.3159  0.0261
  347TMC3     O 5204   0.184   3.936  14.621  0.1617 -0.0820  0.2919
  347TMC3     H 5205   4.688   4.120  14.399  0.8327  0.6197 -2.8557
  347TMC3    H1 5206   0.216   4.123  14.747 -0.0041 -0.1484 -0.1051
  347TMC3    H2 5207   0.343   4.299  14.385 -1.5554  1.5657 -1.6588
  347TMC3    C7 5208   0.354   4.324  14.661 -0.7273  0.4767  0.7710
  347TMC3    C8 5209   0.163   4.153  14.254  1.1622  0.1539  0.1979
  347TMC3    O1 5210   0.370   4.277  14.776  0.3651  0.1158 -0.2224
  347TMC3    O2 5211   0.279   4.105  14.237 -0.0228 -0.3040  0.0774
  348MPD2     C 5212   3.182   3.487  11.961  0.2510 -0.8485  0.1743
  348MPD2    C1 5213   3.297   3.547  11.917  0.4790  0.0571  0.0177
  348MPD2    C2 5214   3.302   3.610  11.791  0.2147  0.1285 -0.3665
  348MPD2    C3 5215   3.190   3.610  11.711 -0.3822  0.0815 -0.0249
  348MPD2    C4 5216   3.072   3.559  11.761  0.6804 -0.8448 -0.4072
  348MPD2    C5 5217   3.068   3.496  11.880 -0.8485  0.1491 -0.7830
  348MPD2     H 5218   3.389   3.659  11.747 -1.6723  2.7286 -1.1710
  348MPD2    H1 5219   2.984   3.564  11.697  0.0449 -0.9055  0.4534
  348MPD2    H2 5220   3.175   3.443  12.059  0.1301  0.2245  0.6453
  348MPD2    H3 5221   2.974   3.452  11.910 -0.6671  0.3168  0.0315
  348MPD2     N 5222   3.200   3.667  11.583  0.1280 -0.1340 -0.0845
  348MPD2    H5 5223   3.287   3.718  11.570  0.9983 -0.7908  3.0495
  348MPD2    N1 5224   3.417   3.558  11.993  0.1618 -0.2166 -0.4123
  348MPD2    H7 5225   3.484   3.607  11.935  1.9994 -1.5424  0.5802
  349TMC3    C1 5226   3.589   3.511  12.147  0.0337 -0.3004 -0.2258
  349TMC3    C2 5227   3.632   3.386  12.177 -0.1659 -0.2151  0.0233
  349TMC3    C3 5228   3.739   3.336  12.114 -0.5693 -0.3108  0.0450
  349TMC3    C4 5229   3.649   3.579  12.043 -0.0927  0.2690  0.0635
  349TMC3    C5 5230   3.772   3.537  11.994  0.7598  0.3009 -0.1034
  349TMC3    C6 5231   3.822   3.415  12.035 -0.4413  0.0324 -0.1788
  349TMC3     C 5232   3.451   3.497  12.114  0.9401  0.2719  0.2862
  349TMC3     O 5233   3.376   3.431  12.191  0.1594  0.1877 -0.3947
  349TMC3     H 5234   3.581   3.321  12.247  1.8099 -1.3287  0.4152
  349TMC3    H1 5235   3.619   3.681  12.025 -0.3907 -0.1050 -1.5183
  349TMC3    H2 5236   3.906   3.366  11.986 -1.0847 -0.1897 -1.0582
  349TMC3    C7 5237   3.792   3.558  11.851 -0.6494  0.5493  0.3535
  349TMC3    C8 5238   3.786   3.201  12.151 -0.0873  0.1084  0.5447
  349TMC3    O1 5239   3.833   3.462  11.788  0.5528 -0.0349 -0.3048
  349TMC3    O2 5240   3.750   3.161  12.259 -0.1733  0.1002  0.2861
  350MPD2     C 5241   2.157   1.494  10.183  0.0832 -0.6350  0.3687
  350MPD2    C1 5242   2.258   1.439  10.109  0.8995 -0.1708 -0.0317
  350MPD2    C2 5243   2.381   1.491  10.123 -0.1534 -0.3552 -0.0778
  350MPD2    C3 5244   2.412   1.610  10.197  0.2939  0.1734 -0.0020
  350MPD2    C4 5245   2.307   1.673  10.265 -0.2884  0.2225 -0.2358
  350MPD2    C5 5246   2.184   1.608  10.254  0.1041 -0.0353 -0.1928
  350MPD2     H 5247   2.461   1.438  10.072  0.9239 -0.7254  1.9836
  350MPD2    H1 5248   2.316   1.765  10.321 -1.7153 -0.1536  0.6273
  350MPD2    H2 5249   2.054   1.461  10.196 -0.9226  2.4205  0.1872
  350MPD2    H3 5250   2.095   1.649  10.302  0.8530 -0.5380  1.6410
  350MPD2     N 5251   2.549   1.646  10.213  0.3003  0.3820 -0.1849
  350MPD2    H5 5252   2.606   1.591  10.150  2.1232  2.0127  0.0309
  350MPD2    N1 5253   2.239   1.323  10.028 -0.1657 -0.4794  0.8780
  350MPD2    H7 5254   2.323   1.283   9.985  0.1127  1.1158 -0.0498
  351TMC3    C1 5255   2.133   1.126   9.942  0.0300 -0.3954 -0.1745
  351TMC3    C2 5256   2.222   1.103   9.840  0.3866 -0.1556 -1.0351
  351TMC3    C3 5257   2.202   0.987   9.765 -0.6890 -0.2339 -0.8348
  351TMC3    C4 5258   2.018   1.048   9.958  0.0336 -0.2076 -0.1284
  351TMC3    C5 5259   1.998   0.937   9.871 -0.2226  0.3291 -0.4846
  351TMC3    C6 5260   2.093   0.905   9.777 -0.1848  0.4364  0.1425
  351TMC3     C 5261   2.121   1.253  10.008 -0.2888  0.0689 -0.4801
  351TMC3     O 5262   2.015   1.280  10.059 -0.6105 -0.7502 -0.0960
  351TMC3     H 5263   2.311   1.164   9.831 -0.6510  1.4079 -0.6695
  351TMC3    H1 5264   1.938   1.072  10.028  1.9133  0.6076  1.7446
  351TMC3    H2 5265   2.074   0.815   9.719 -1.4825  0.5918  0.3291
  351TMC3    C7 5266   1.863   0.879   9.870  0.4840  0.5457 -0.4366
  351TMC3    C8 5267   2.319   0.932   9.705  0.0722 -0.1615 -0.1771
  351TMC3    O1 5268   1.836   0.828   9.759  0.2578  0.1311  0.5408
  351TMC3    O2 5269   2.415   1.002   9.686  0.3547 -0.2494  0.1109
  352MPD2     C 5270   4.474   3.973   1.534  0.3470  0.1282 -0.0777
  352MPD2    C1 5271   4.408   3.891   1.442  0.4583 -0.3014 -0.2949
  352MPD2    C2 5272   4.355   3.774   1.487  0.3157  0.8108  1.0367
  352MPD2    C3 5273   4.354   3.737   1.619 -0.1370 -0.6587 -0.9088
  352MPD2    C4 5274   4.410   3.823   1.711  0.1031  0.0917  0.8559
  352MPD2    C5 5275   4.468   3.939   1.664 -0.1752 -0.3962 -0.0693
  352MPD2     H 5276   4.299   3.717   1.414  0.0220  0.5460  1.4743
  352MPD2    H1 5277   4.417   3.810   1.818  0.0026 -1.3506  0.6925
  352MPD2    H2 5278   4.504   4.072   1.504  0.3437  0.3811  0.7565
  352MPD2    H3 5279   4.518   4.001   1.737 -1.1895  0.9244 -0.5085
  352MPD2     N 5280   4.296   3.622   1.664  0.0965  0.0840  0.4561
  352MPD2    H5 5281   4.326   3.602   1.759  2.3977 -3.8381 -1.1538
  352MPD2    N1 5282   4.414   3.920   1.301  0.1218 -0.0274  0.0253
  352MPD2    H7 5283   4.448   4.013   1.277 -0.3811  0.2334  0.3222
  353TMC3    C1 5284   4.201   3.402   1.654  0.1343  0.3217 -0.1739
  353TMC3    C2 5285   4.285   3.363   1.753 -0.1762 -0.1783  0.1568
  353TMC3    C3 5286   4.312   3.227   1.764 -0.4405  0.8343 -0.6880
  353TMC3    C4 5287   4.140   3.302   1.577  0.3991 -0.1522  0.0255
  353TMC3    C5 5288   4.169   3.167   1.588 -0.3409  0.1762 -1.1259
  353TMC3    C6 5289   4.260   3.126   1.679 -0.1447  0.0986 -0.1540
  353TMC3     C 5290   4.214   3.533   1.590 -0.3651  0.2072  0.2606
  353TMC3     O 5291   4.172   3.539   1.474 -0.5691  0.0339 -0.1002
  353TMC3     H 5292   4.350   3.424   1.814 -0.5689  1.1839 -0.8050
  353TMC3    H1 5293   4.059   3.334   1.511  1.2092 -0.7528 -1.2558
  353TMC3    H2 5294   4.292   3.023   1.690 -0.4421 -0.1270 -1.4574
  353TMC3    C7 5295   4.179   3.105   1.455 -0.0870  0.2751 -0.8597
  353TMC3    C8 5296   4.397   3.184   1.877  0.4565 -0.4966 -0.5885
  353TMC3    O1 5297   4.152   3.170   1.355  0.0536 -0.6106 -0.3663
  353TMC3    O2 5298   4.384   3.222   1.989  0.6726  0.6254  0.2625
  354TMC3    C1 5299   2.377   4.405  13.660 -0.3848 -0.0597  0.2302
  354TMC3    C2 5300   2.490   4.457  13.707  1.2399 -0.0103 -0.9624
  354TMC3    C3 5301   2.569   4.522  13.618  0.0260  0.7404  0.2653
  354TMC3    C4 5302   2.343   4.405  13.528 -0.0253 -0.1559  0.4831
  354TMC3    C5 5303   2.436   4.448  13.438  0.5371 -0.2202  1.0434
  354TMC3    C6 5304   2.551   4.507  13.482 -0.2807  1.3045  0.6622
  354TMC3     C 5305   2.262   4.437  13.747  0.4138  0.1463  0.6044
  354TMC3     O 5306   2.181   4.519  13.705  0.0384  0.1717  0.1901
  354TMC3     H 5307   2.496   4.490  13.810  1.4642 -1.3340 -0.5555
  354TMC3    H1 5308   2.242   4.384  13.496  0.2119 -1.3197  0.4873
  354TMC3    H2 5309   2.630   4.551  13.423  0.6968 -0.4378  0.6738
  354TMC3    C7 5310   2.377   4.523  13.325 -1.1906  0.6910 -0.3915
  354TMC3    C8 5311   2.619   4.655  13.674 -0.4197 -0.1019  0.4609
  354TMC3    O1 5312   2.282   4.599  13.347 -0.8553 -0.0455 -0.4263
  354TMC3    O2 5313   2.631   4.666  13.791 -0.0137 -0.2386  1.0766
  355MPD2     C 5314   2.953   0.742  12.383  0.6517 -0.3608  0.2227
  355MPD2    C1 5315   2.930   0.759  12.250 -0.6267  0.7390  0.1518
  355MPD2    C2 5316   3.034   0.806  12.174 -0.2248  0.0560 -0.5694
  355MPD2    C3 5317   3.149   0.851  12.236  0.6331  0.4838  0.2671
  355MPD2    C4 5318   3.163   0.844  12.370 -0.4892  0.1254 -0.4967
  355MPD2    C5 5319   3.063   0.787  12.447 -0.8620 -0.2977 -0.9708
  355MPD2     H 5320   3.023   0.808  12.066 -0.1544 -0.9599 -0.5919
  355MPD2    H1 5321   3.256   0.859  12.422 -1.1493  0.0777  0.6998
  355MPD2    H2 5322   2.873   0.698  12.442  0.8357  2.7231  2.7434
  355MPD2    H3 5323   3.077   0.781  12.555 -0.1121 -1.7444 -1.1518
  355MPD2     N 5324   3.263   0.899  12.172 -0.0449  0.5637  0.0788
  355MPD2    H5 5325   3.343   0.911  12.233 -0.0833  0.7126  0.0996
  355MPD2    N1 5326   2.805   0.711  12.203  0.1542 -0.0340  0.4271
  355MPD2    H7 5327   2.752   0.653  12.267  2.6147 -0.3526  2.1966
  356TMC3    C1 5328   3.397   0.985  11.994  0.5273  0.5560  0.1891
  356TMC3    C2 5329   3.436   0.984  11.861  0.1224 -0.5012  0.2843
  356TMC3    C3 5330   3.535   1.070  11.817 -0.0821 -0.2368 -0.3585
  356TMC3    C4 5331   3.456   1.075  12.081  0.3888  0.8502  0.0577
  356TMC3    C5 5332   3.542   1.168  12.027  0.3382 -0.0739 -0.0705
  356TMC3    C6 5333   3.586   1.168  11.898  0.2125 -0.1041 -0.0532
  356TMC3     C 5334   3.273   0.918  12.036  0.0165 -0.1030 -0.0794
  356TMC3     O 5335   3.190   0.884  11.950  0.2673  0.6494  0.7250
  356TMC3     H 5336   3.406   0.900  11.799 -1.0378  0.6845 -0.7499
  356TMC3    H1 5337   3.420   1.086  12.182 -2.2142 -2.2358 -0.5154
  356TMC3    H2 5338   3.649   1.248  11.863  0.2038  1.5879  3.7911
  356TMC3    C7 5339   3.569   1.281  12.115 -0.4490  0.3795  0.1225
  356TMC3    C8 5340   3.577   1.061  11.675 -1.0806 -0.1567  0.2459
  356TMC3    O1 5341   3.569   1.248  12.232  0.4935  0.3860  0.1508
  356TMC3    O2 5342   3.534   0.968  11.610 -0.2033  0.1151  0.0456
  357MPD2     C 5343   1.677   1.557   1.249 -0.8262 -0.4762  0.0319
  357MPD2    C1 5344   1.554   1.590   1.204  0.1350 -0.3755 -0.3537
  357MPD2    C2 5345   1.449   1.601   1.291  0.0615  0.1511 -0.2190
  357MPD2    C3 5346   1.465   1.584   1.425  0.7486  0.4723 -0.1531
  357MPD2    C4 5347   1.590   1.552   1.473  0.1586  0.2856 -0.2461
  357MPD2    C5 5348   1.699   1.538   1.384  0.0710 -0.2286  0.3818
  357MPD2     H 5349   1.354   1.632   1.248 -0.7379  0.3551  1.6914
  357MPD2    H1 5350   1.608   1.525   1.576 -1.1455 -1.1257 -0.3894
  357MPD2    H2 5351   1.760   1.541   1.181 -0.2301 -3.1803  1.3977
  357MPD2    H3 5352   1.803   1.516   1.407  0.6929  1.2418 -0.9942
  357MPD2     N 5353   1.359   1.596   1.520  0.0972 -0.4088 -0.4913
  357MPD2    H5 5354   1.382   1.582   1.618  1.2374 -0.2024 -0.7301
  357MPD2    N1 5355   1.538   1.591   1.067 -0.3599 -0.1287  0.5704
  357MPD2    H7 5356   1.613   1.555   1.010  0.3672  1.8543  0.2592
  358TMC3    C1 5357   1.441   1.608   0.856 -0.1445  0.0455 -0.4615
  358TMC3    C2 5358   1.512   1.495   0.831 -0.1448  0.4278  0.0625
  358TMC3    C3 5359   1.566   1.467   0.714 -0.2073 -0.2514 -0.9460
  358TMC3    C4 5360   1.453   1.708   0.768 -0.1026  0.7943  0.2061
  358TMC3    C5 5361   1.520   1.685   0.648  1.1840 -0.4303  0.7089
  358TMC3    C6 5362   1.572   1.560   0.617  0.0948  0.0782  0.9760
  358TMC3     C 5363   1.424   1.641   0.999  0.2897  0.2943 -0.4487
  358TMC3     O 5364   1.354   1.734   1.030 -0.2382  0.1177  0.2810
  358TMC3     H 5365   1.508   1.416   0.905  2.5973  0.6566  0.4456
  358TMC3    H1 5366   1.406   1.804   0.787 -0.9958  0.3852  0.0735
  358TMC3    H2 5367   1.597   1.541   0.513 -0.4590 -0.2668  0.9042
  358TMC3    C7 5368   1.525   1.792   0.546  0.1524 -0.4169 -0.5192
  358TMC3    C8 5369   1.636   1.335   0.698  0.7400  0.6283  0.2175
  358TMC3    O1 5370   1.472   1.894   0.581 -0.2339  0.4314  0.3644
  358TMC3    O2 5371   1.717   1.325   0.608  0.1199 -0.3505  0.3891
  359MPD2     C 5372   2.907   4.711  12.298  0.2512  0.4454 -0.2315
  359MPD2    C1 5373   2.878   4.616  12.205 -0.4709 -0.0398  0.4860
  359MPD2    C2 5374   2.740   4.596  12.189 -0.3843  0.1596  0.0179
  359MPD2    C3 5375   2.646   4.663  12.263 -0.8322  0.1725 -0.0379
  359MPD2    C4 5376   2.683   0.027  12.365 -0.4486  0.7947  0.4348
  359MPD2    C5 5377   2.816   0.048  12.379 -0.2919  0.1430  0.0211
  359MPD2     H 5378   2.728   4.512  12.122 -0.9912  0.7836 -0.6563
  359MPD2    H1 5379   2.615   0.065  12.440  0.5301 -1.3909  2.4573
  359MPD2    H2 5380   3.011   0.002  12.324 -0.1706  0.4492  1.4530
  359MPD2    H3 5381   2.861   0.121  12.446  0.4095  0.2723 -0.6014
  359MPD2     N 5382   2.509   4.641  12.249 -0.0941 -0.2684  0.1252
  359MPD2    H5 5383   2.446   4.700  12.302  1.9899 -0.8246  3.2444
  359MPD2    N1 5384   2.967   4.556  12.114 -0.4039  0.4107  0.2605
  359MPD2    H7 5385   2.922   4.492  12.050 -0.2039 -0.1305  0.6498
  360TMC3    C1 5386   3.183   4.541  12.001 -0.0351  0.3349 -0.1158
  360TMC3    C2 5387   3.302   4.607  11.973 -0.7351  0.9168 -0.3941
  360TMC3    C3 5388   3.387   4.542  11.886  0.4981 -0.1137 -0.0153
  360TMC3    C4 5389   3.160   4.415  11.974 -0.1455  0.3373  0.0257
  360TMC3    C5 5390   3.254   4.341  11.911 -0.5467  0.7217  0.3154
  360TMC3    C6 5391   3.367   4.404  11.864 -0.7308  0.0289 -0.5569
  360TMC3     C 5392   3.099   4.598  12.103 -1.1197 -0.3642  0.0269
  360TMC3     O 5393   3.149   4.699  12.157 -0.8127 -0.4537  0.0235
  360TMC3     H 5394   3.304   4.715  11.978  2.4083  0.8932 -0.8651
  360TMC3    H1 5395   3.070   4.373  12.017  0.3363  1.6326  2.2643
  360TMC3    H2 5396   3.436   4.353  11.798 -1.0588 -1.8741  0.5663
  360TMC3    C7 5397   3.222   4.205  11.854 -0.3864  0.2968 -0.2479
  360TMC3    C8 5398   3.495   4.614  11.823 -0.4172 -0.0800 -0.1996
  360TMC3    O1 5399   3.293   4.173  11.761 -0.5300  0.0117  0.3106
  360TMC3    O2 5400   3.468   0.011  11.816  0.5093 -0.3163 -0.2870
  361MPD2     C 5401   3.953   2.924  17.260  0.4317 -0.1829 -0.0370
  361MPD2    C1 5402   3.981   2.981  17.387  0.2980 -0.2444  0.2639
  361MPD2    C2 5403   4.090   2.943  17.460 -0.2844 -0.2937  0.2347
  361MPD2    C3 5404   4.175   2.843  17.415  0.5091  0.0876  0.7225
  361MPD2    C4 5405   4.143   2.777  17.301 -0.2878  1.0812  0.5765
  361MPD2    C5 5406   4.031   2.816  17.227  0.0573 -0.6423 -1.0894
  361MPD2     H 5407   4.102   2.996  17.555  1.8261 -1.3009  0.5441
  361MPD2    H1 5408   4.202   2.691  17.272 -1.8127 -0.0489  0.8369
  361MPD2    H2 5409   3.874   2.952  17.191  0.6031  0.9139  0.2055
  361MPD2    H3 5410   4.003   2.768  17.134 -2.4494 -0.0239 -0.6547
  361MPD2     N 5411   4.283   2.797  17.488 -0.2502 -0.4437  0.1429
  361MPD2    H5 5412   4.328   2.710  17.462 -3.0125 -2.4829  2.0832
  361MPD2    N1 5413   3.896   3.094  17.435  0.2601 -0.2424  0.6543
  361MPD2    H7 5414   3.930   3.146  17.515 -0.8542  3.1380 -1.0586
  362TMC3    C1 5415   3.693   3.228  17.452 -0.1484  0.7836  0.2984
  362TMC3    C2 5416   3.563   3.249  17.420 -0.0007  0.2602 -0.3099
  362TMC3    C3 5417   3.513   3.374  17.428  0.8121  0.0234 -0.1045
  362TMC3    C4 5418   3.771   3.337  17.489 -0.1346 -0.3211  0.7219
  362TMC3    C5 5419   3.709   3.457  17.518  0.1800 -0.5142  0.1565
  362TMC3    C6 5420   3.577   3.476  17.482  0.0188 -0.7278 -0.9466
  362TMC3     C 5421   3.769   3.122  17.386 -0.3944 -0.9045 -0.4175
  362TMC3     O 5422   3.710   3.058  17.298 -0.0043 -0.6363 -0.2715
  362TMC3     H 5423   3.502   3.166  17.385 -2.0917  0.0498  3.8696
  362TMC3    H1 5424   3.874   3.319  17.519 -0.1729 -1.4864  0.1381
  362TMC3    H2 5425   3.543   3.578  17.467 -0.3780 -0.7520 -0.2081
  362TMC3    C7 5426   3.782   3.565  17.461 -0.1824 -0.7061 -0.0732
  362TMC3    C8 5427   3.379   3.387  17.365 -0.1012  0.9141 -0.5750
  362TMC3    O1 5428   3.732   3.628  17.368  0.3849 -0.2819 -0.1357
  362TMC3    O2 5429   3.331   3.285  17.318 -0.0443 -0.4818 -0.2621
  363TMC3    C1 5430   3.228   1.605   9.612 -0.2152 -0.4958 -0.2218
  363TMC3    C2 5431   3.181   1.475   9.608 -0.5739 -0.8194 -0.1633
  363TMC3    C3 5432   3.054   1.454   9.656 -0.1566 -0.3383 -0.4132
  363TMC3    C4 5433   3.153   1.705   9.660 -0.1263 -0.0562 -0.2145
  363TMC3    C5 5434   3.026   1.679   9.697 -0.6030  0.2486 -0.4803
  363TMC3    C6 5435   2.968   1.550   9.691  0.5670 -0.2937 -0.1488
  363TMC3     C 5436   3.359   1.642   9.560  0.1030 -0.3722 -0.0431
  363TMC3     O 5437   3.386   1.758   9.554 -0.2541  0.1085 -0.3043
  363TMC3     H 5438   3.235   1.392   9.564 -0.3870 -0.8848  0.1818
  363TMC3    H1 5439   3.184   1.807   9.642 -1.4304  0.1119 -1.5072
  363TMC3    H2 5440   2.866   1.521   9.711  0.3866 -0.5457 -1.4277
  363TMC3    C7 5441   2.935   1.790   9.718  0.7263 -0.5554  0.1604
  363TMC3    C8 5442   3.002   1.319   9.657  0.2969 -0.1112  1.1742
  363TMC3    O1 5443   2.817   1.761   9.703  0.0563  0.0940  0.5505
  363TMC3    O2 5444   2.880   1.308   9.650 -0.3378 -0.2390 -0.1772
  364MPD2     C 5445   2.023   4.621  10.087 -0.5388  0.0371  0.1351
  364MPD2    C1 5446   2.024   4.681  10.212 -0.3187  0.2473  0.2922
  364MPD2    C2 5447   1.985   4.603  10.321 -0.1436  0.9244  0.1476
  364MPD2    C3 5448   1.945   4.470  10.309  0.9405 -0.0420 -0.2875
  364MPD2    C4 5449   1.952   4.411  10.183 -0.2596 -0.3441  0.2618
  364MPD2    C5 5450   1.985   4.490  10.079  0.4585 -0.1653  0.0382
  364MPD2     H 5451   1.976   4.656  10.415 -1.7102  0.3644  0.3148
  364MPD2    H1 5452   1.942   4.307  10.157  2.7509 -0.5957  0.1618
  364MPD2    H2 5453   2.051   4.670   9.994 -0.0093 -0.1986  0.1684
  364MPD2    H3 5454   1.983   4.445   9.980  0.0030 -1.7425  0.7737
  364MPD2     N 5455   1.906   4.404  10.428  0.4206 -0.1177  0.0765
  364MPD2    H5 5456   1.915   4.453  10.516 -0.0982 -0.6907  0.4465
  364MPD2    N1 5457   2.068   0.096  10.216  0.0037 -0.3548  0.5241
  364MPD2    H7 5458   2.096   0.136  10.127  1.2679 -2.8313 -0.1867
  365TMC3    C1 5459   2.135   0.294  10.314  0.1326 -0.0800  0.3908
  365TMC3    C2 5460   2.228   0.298  10.219 -0.1126  0.3009  0.2779
  365TMC3    C3 5461   2.280   0.422  10.182  0.0290 -0.1148  0.0809
  365TMC3    C4 5462   2.088   0.397  10.392  0.1845 -0.1960  0.5711
  365TMC3    C5 5463   2.160   0.513  10.367 -0.0459 -0.0821 -0.4025
  365TMC3    C6 5464   2.257   0.526  10.267  0.3724 -0.3549 -0.1332
  365TMC3     C 5465   2.061   0.169  10.332  0.1996  1.1708 -0.1514
  365TMC3     O 5466   2.004   0.146  10.441  0.1298  0.4726  0.0451
  365TMC3     H 5467   2.265   0.215  10.160  1.0296  0.4022  0.8423
  365TMC3    H1 5468   2.017   0.391  10.473 -0.8752 -2.3123 -0.4928
  365TMC3    H2 5469   2.318   0.615  10.251 -0.3009  0.2678  0.7375
  365TMC3    C7 5470   2.165   0.618  10.471  0.1295  0.4881  0.4044
  365TMC3    C8 5471   2.392   0.426  10.094 -0.2302  0.0331 -0.0148
  365TMC3    O1 5472   2.217   0.723  10.448  0.0579  0.7791 -0.0986
  365TMC3    O2 5473   2.491   0.488  10.125  0.3149  0.2353 -0.3371
  366MPD2     C 5474   4.680   1.185  15.540 -0.1472 -0.5763 -0.3155
  366MPD2    C1 5475   0.051   1.269  15.594 -0.2144  0.1651  0.0510
  366MPD2    C2 5476   0.183   1.227  15.599 -0.3592  0.2128  0.0442
  366MPD2    C3 5477   0.220   1.102  15.550  0.2843 -1.1101 -1.0627
  366MPD2    C4 5478   0.126   1.017  15.503 -0.0993  0.3493 -0.5446
  366MPD2    C5 5479   4.716   1.057  15.508 -0.2267 -0.1686 -0.2936
  366MPD2     H 5480   0.250   1.292  15.655  0.2701 -1.0922  0.7899
  366MPD2    H1 5481   0.152   0.928  15.447 -0.9421 -0.3137  0.1228
  366MPD2    H2 5482   4.574   1.208  15.545  0.3402  1.1508  2.3957
  366MPD2    H3 5483   4.643   0.982  15.477  0.8764 -0.9419 -1.0322
  366MPD2     N 5484   0.360   1.067  15.551 -0.2978 -0.2465  0.0954
  366MPD2    H5 5485   0.373   0.967  15.547  1.2603 -0.0826  1.2398
  366MPD2    N1 5486   0.029   1.395  15.637  0.0035  0.0029  0.3950
  366MPD2    H7 5487   0.097   1.451  15.687  3.3296  0.1771 -4.3467
  367TMC3    C1 5488   4.649   1.615  15.627 -0.0726 -0.6910 -0.1514
  367TMC3    C2 5489   0.021   1.672  15.707 -0.3106 -0.1088  0.1329
  367TMC3    C3 5490   0.002   1.801  15.741  0.4859 -0.3755 -0.0838
  367TMC3    C4 5491   4.551   1.688  15.568 -0.0651  0.4267  0.3097
  367TMC3    C5 5492   4.542   1.817  15.596 -0.5190 -0.4011 -0.0061
  367TMC3    C6 5493   4.611   1.872  15.700  0.3649 -0.0997 -0.2135
  367TMC3     C 5494   4.638   1.471  15.603 -1.1222  0.1421 -0.3603
  367TMC3     O 5495   4.532   1.432  15.557  0.8116 -0.4176  0.5238
  367TMC3     H 5496   0.095   1.610  15.756  1.8552  2.1649 -0.2606
  367TMC3    H1 5497   4.495   1.633  15.493 -1.6366  1.1216  0.9819
  367TMC3    H2 5498   4.590   1.977  15.717 -0.5671 -0.0435 -1.7274
  367TMC3    C7 5499   4.412   1.890  15.563  0.5774 -0.5658 -0.5314
  367TMC3    C8 5500   0.089   1.853  15.850  0.2562  0.0292  0.2730
  367TMC3    O1 5501   4.396   1.997  15.623 -0.7820  0.0999 -0.3901
  367TMC3    O2 5502   0.183   1.782  15.886  0.1166 -0.4097  0.6195
  368MPD2     C 5503   1.378   3.374  12.818  1.0040  0.4175  0.3137
  368MPD2    C1 5504   1.406   3.505  12.841 -0.2371  0.0291 -0.2091
  368MPD2    C2 5505   1.538   3.555  12.842 -0.2754  0.8566  0.4976
  368MPD2    C3 5506   1.645   3.464  12.824 -0.1113 -0.7696 -0.2453
  368MPD2    C4 5507   1.618   3.330  12.818 -0.5294 -0.6298  0.5383
  368MPD2    C5 5508   1.489   3.286  12.813  0.5390  0.2065  0.7623
  368MPD2     H 5509   1.547   3.663  12.841  0.2533  0.7860 -1.3267
  368MPD2    H1 5510   1.694   3.255  12.801 -2.0285 -2.0674  0.2177
  368MPD2    H2 5511   1.278   3.333  12.813  0.0158  2.7170  0.9384
  368MPD2    H3 5512   1.481   3.178  12.801  1.1453 -0.0536  2.8096
  368MPD2     N 5513   1.778   3.507  12.818 -0.3759  1.3007 -0.1185
  368MPD2    H5 5514   1.848   3.434  12.807 -0.7379  1.0245 -0.5499
  368MPD2    N1 5515   1.291   3.582  12.851 -0.1009  0.1483  0.0823
  368MPD2    H7 5516   1.202   3.532  12.848 -0.5159  1.0927 -3.4074
  369TMC3    C1 5517   1.140   3.763  12.860 -0.2581 -0.1029  0.0547
  369TMC3    C2 5518   1.133   3.877  12.792 -0.2216 -0.0609  0.0052
  369TMC3    C3 5519   1.032   3.899  12.703  0.3071 -0.0233 -0.6656
  369TMC3    C4 5520   1.039   3.671  12.852  0.4856 -0.3228  0.4254
  369TMC3    C5 5521   0.938   3.694  12.765  0.0221 -0.3816  0.2700
  369TMC3    C6 5522   0.926   3.811  12.693 -0.4642 -0.0473  0.7976
  369TMC3     C 5523   1.277   3.714  12.874  0.3366 -0.7992  1.0635
  369TMC3     O 5524   1.360   3.799  12.870  0.7659  0.7454 -0.1708
  369TMC3     H 5525   1.211   3.952  12.803 -2.0802  1.6249  1.5833
  369TMC3    H1 5526   1.041   3.576  12.905 -2.3872 -0.1743  0.7971
  369TMC3    H2 5527   0.840   3.825  12.629 -0.4646  0.3634  0.8891
  369TMC3    C7 5528   0.834   3.593  12.749 -0.1001 -0.6265 -0.3594
  369TMC3    C8 5529   1.040   4.016  12.616 -0.6579  0.8846  0.0536
  369TMC3    O1 5530   0.832   3.514  12.845  0.4741 -0.9214  0.2189
  369TMC3    O2 5531   0.930   4.043  12.561  0.1462 -0.1304  0.2343
  370TMC3    C1 5532   0.710   4.134  16.416 -0.7321 -0.5536  0.5666
  370TMC3    C2 5533   0.718   4.050  16.527  0.9325 -0.3983 -0.3079
  370TMC3    C3 5534   0.667   3.928  16.521 -0.9025  0.0551 -1.0031
  370TMC3    C4 5535   0.652   4.083  16.301 -0.2679 -0.5161 -0.4995
  370TMC3    C5 5536   0.593   3.958  16.303 -0.3392 -0.2504 -0.4115
  370TMC3    C6 5537   0.600   3.874  16.416  0.3546  0.0111  0.5101
  370TMC3     C 5538   0.817   4.231  16.399  0.0346  0.3621 -0.6857
  370TMC3     O 5539   0.795   4.329  16.330  0.4601 -0.0736  0.0574
  370TMC3     H 5540   0.790   4.077  16.604  0.9792 -3.9600  0.9119
  370TMC3    H1 5541   0.674   4.132  16.207  0.7601 -1.3615 -0.7035
  370TMC3    H2 5542   0.541   3.784  16.431 -0.7902  0.6311 -0.2781
  370TMC3    C7 5543   0.586   3.883  16.185  0.0747 -0.9990  0.4090
  370TMC3    C8 5544   0.660   3.846  16.644  0.3591  0.1910 -0.2012
  370TMC3    O1 5545   0.572   3.931  16.073 -0.5089  0.5808  0.2623
  370TMC3    O2 5546   0.624   3.733  16.626 -0.3404 -0.3172 -0.6116
  371TMC3    C1 5547   1.892   2.276  15.780  0.5525  1.1541  0.2131
  371TMC3    C2 5548   1.761   2.288  15.822 -0.0624  0.0599  0.1688
  371TMC3    C3 5549   1.702   2.407  15.797 -0.7188 -0.1877 -0.5002
  371TMC3    C4 5550   1.960   2.372  15.706 -0.9782 -0.4244  0.0985
  371TMC3    C5 5551   1.885   2.483  15.679 -0.0324  0.4302  0.1927
  371TMC3    C6 5552   1.758   2.506  15.727 -0.1189  0.0428  0.4407
  371TMC3     C 5553   1.966   2.147  15.799 -0.0999  0.0581  0.4905
  371TMC3     O 5554   2.081   2.154  15.840  0.4434  0.6295  0.2707
  371TMC3     H 5555   1.717   2.212  15.886 -0.2884  0.1594  0.1301
  371TMC3    H1 5556   2.064   2.361  15.681 -1.2618 -3.0899  0.1085
  371TMC3    H2 5557   1.695   2.590  15.699  0.3709 -0.4476 -2.1198
  371TMC3    C7 5558   1.915   2.575  15.577 -1.0730  0.2112  0.4947
  371TMC3    C8 5559   1.550   2.407  15.805  0.3646 -0.1751  1.3551
  371TMC3    O1 5560   1.881   2.690  15.593  0.0679  0.1415 -0.3149
  371TMC3    O2 5561   1.495   2.297  15.795 -0.4451 -0.2895  0.3371
  372MPD2     C 5562   2.183   3.546  13.897  0.5996 -0.4079  0.0128
  372MPD2    C1 5563   2.191   3.432  13.824 -0.2084  0.3689  0.2678
  372MPD2    C2 5564   2.075   3.373  13.783 -0.5896  0.1113  0.8742
  372MPD2    C3 5565   1.955   3.415  13.826 -0.0671  0.3870 -0.5271
  372MPD2    C4 5566   1.952   3.530  13.900  0.7102 -0.4084  0.0207
  372MPD2    C5 5567   2.066   3.597  13.936  0.3318 -0.4431  0.0528
  372MPD2     H 5568   2.079   3.281  13.725 -0.3029 -0.2433  1.4553
  372MPD2    H1 5569   1.859   3.577  13.930  0.1059 -1.5056 -0.1444
  372MPD2    H2 5570   2.274   3.599  13.922  0.4887  0.3900 -1.3149
  372MPD2    H3 5571   2.051   3.696  13.979  0.6657  0.0334 -0.9355
  372MPD2     N 5572   1.839   3.334  13.810  0.3481 -0.1685 -0.5869
  372MPD2    H5 5573   1.851   3.248  13.758  1.5521 -1.5412  1.9383
  372MPD2    N1 5574   2.314   3.376  13.805  0.1547  0.0122  0.2824
  372MPD2    H7 5575   2.389   3.410  13.864  0.3333  1.4302 -0.7738
  373TMC3    C1 5576   1.624   3.236  13.840  0.0572  0.8145 -0.0556
  373TMC3    C2 5577   1.491   3.251  13.862 -0.4884 -0.1202 -0.2571
  373TMC3    C3 5578   1.405   3.141  13.838 -1.1634  0.3763 -0.3764
  373TMC3    C4 5579   1.678   3.115  13.795 -0.8681  0.2865 -0.8158
  373TMC3    C5 5580   1.590   3.009  13.782 -0.3822  0.0226  0.0156
  373TMC3    C6 5581   1.455   3.020  13.801  0.2525  0.1593  1.1296
  373TMC3     C 5582   1.715   3.347  13.871  0.8011  0.2547 -0.5568
  373TMC3     O 5583   1.674   3.443  13.936 -0.1226 -0.1320 -0.3001
  373TMC3     H 5584   1.451   3.345  13.898  3.3821  1.1478  0.7437
  373TMC3    H1 5585   1.785   3.100  13.803 -1.5998 -4.1474  0.4732
  373TMC3    H2 5586   1.402   2.926  13.792 -0.3129  0.6662 -0.9319
  373TMC3    C7 5587   1.642   2.872  13.766 -0.3504  0.0569  0.0764
  373TMC3    C8 5588   1.263   3.154  13.864  0.3302  0.5352  0.2546
  373TMC3    O1 5589   1.584   2.795  13.694 -0.0327 -0.4723 -0.0430
  373TMC3    O2 5590   1.191   3.125  13.772  0.1851 -0.5326 -0.8879
  374TMC3    C1 5591   2.237   3.611   9.674 -0.2983 -0.2153  0.4213
  374TMC3    C2 5592   2.321   3.719   9.677  0.7917 -0.2632  0.1084
  374TMC3    C3 5593   2.359   3.769   9.551  0.5848  0.6934  0.0632
  374TMC3    C4 5594   2.211   3.543   9.556  0.3031 -0.3272 -0.2426
  374TMC3    C5 5595   2.252   3.602   9.439  0.3547  0.1740 -0.1812
  374TMC3    C6 5596   2.325   3.716   9.432 -0.0033  0.1590 -0.7558
  374TMC3     C 5597   2.217   3.541   9.800  0.0415  0.0604  0.1746
  374TMC3     O 5598   2.288   3.580   9.896  0.0755  0.2502 -0.8474
  374TMC3     H 5599   2.331   3.775   9.769 -1.6841 -0.0270  0.2102
  374TMC3    H1 5600   2.147   3.456   9.553  1.8589 -1.5127  0.8469
  374TMC3    H2 5601   2.381   3.739   9.342  1.5561 -0.7210  0.0032
  374TMC3    C7 5602   2.233   3.527   9.315  0.0506  0.1553  0.9949
  374TMC3    C8 5603   2.447   3.879   9.545  0.6290  0.5197  0.6771
  374TMC3    O1 5604   2.170   3.422   9.318  0.2072 -0.1580  0.3601
  374TMC3    O2 5605   2.481   3.925   9.435  0.6416 -0.6325 -0.2226
  375MPD2     C 5606   2.306   4.011  17.191 -0.2365  0.0654  0.5579
  375MPD2    C1 5607   2.215   4.054  17.094  0.0490 -0.1092 -0.1483
  375MPD2    C2 5608   2.255   4.074  16.960 -0.2471  0.0496  0.6208
  375MPD2    C3 5609   2.392   4.075  16.939  0.6401 -0.1144  0.2058
  375MPD2    C4 5610   2.483   4.055  17.041 -0.4674 -0.0410 -0.2699
  375MPD2    C5 5611   2.440   4.013  17.163  0.2792  0.6060  0.0680
  375MPD2     H 5612   2.181   4.113  16.891  0.0244 -0.4630  0.0444
  375MPD2    H1 5613   2.586   4.071  17.012 -0.1546  0.4751  1.1050
  375MPD2    H2 5614   2.292   3.978  17.294  1.1613 -1.0525  0.3841
  375MPD2    H3 5615   2.504   3.984  17.245 -0.0461  0.1607  0.1594
  375MPD2     N 5616   2.447   4.103  16.811  0.6283  0.4274  0.1365
  375MPD2    H5 5617   2.547   4.119  16.801  0.5634  1.5494  1.2906
  375MPD2    N1 5618   2.082   4.086  17.130 -0.1238  0.3088 -0.4931
  375MPD2    H7 5619   2.010   4.088  17.059 -0.2740 -0.0148 -0.3520
  376TMC3    C1 5620   2.443   4.126  16.570 -0.4224  0.7411 -0.0002
  376TMC3    C2 5621   2.518   4.248  16.562 -0.5200 -0.3061 -0.3860
  376TMC3    C3 5622   2.529   4.307  16.433 -0.0881 -0.2874  0.2869
  376TMC3    C4 5623   2.402   4.067  16.450 -0.0181 -0.3250  0.2127
  376TMC3    C5 5624   2.417   4.132  16.328  0.6634 -0.1522 -0.1330
  376TMC3    C6 5625   2.476   4.252  16.321  0.2951  0.4379  0.0968
  376TMC3     C 5626   2.379   4.085  16.692 -0.9547 -0.3022 -0.7785
  376TMC3     O 5627   2.269   4.032  16.675  0.2137  0.5036 -0.5333
  376TMC3     H 5628   2.568   4.296  16.646 -0.8373  0.0681 -0.4102
  376TMC3    H1 5629   2.328   3.988  16.450  2.0930 -2.3070  0.6276
  376TMC3    H2 5630   2.456   4.325  16.243  1.0741  1.4555  0.8354
  376TMC3    C7 5631   2.306   4.107  16.235 -0.2587 -1.0148 -0.2939
  376TMC3    C8 5632   2.579   4.442  16.412 -0.2657  0.8639  0.1050
  376TMC3    O1 5633   2.221   4.027  16.277 -0.2848  0.4136 -0.2819
  376TMC3    O2 5634   2.505   4.519  16.357  0.4772 -0.0059 -0.1272
  377MPD2     C 5635   0.605   4.146  12.177 -0.1194  0.2171  0.3698
  377MPD2    C1 5636   0.624   4.017  12.229  0.7034  0.5092 -0.5506
  377MPD2    C2 5637   0.515   3.946  12.276 -0.8230 -0.0641 -0.0655
  377MPD2    C3 5638   0.391   3.997  12.271  0.9797  0.3673 -0.0143
  377MPD2    C4 5639   0.366   4.111  12.196 -0.3726 -0.0465 -0.3910
  377MPD2    C5 5640   0.473   4.182  12.150  0.7148 -0.5140 -0.4412
  377MPD2     H 5641   0.534   3.848  12.319  1.8851  0.7761  0.6342
  377MPD2    H1 5642   0.265   4.137  12.167 -0.4573 -0.5749 -0.5756
  377MPD2    H2 5643   0.683   4.211  12.138 -1.5465  0.8652 -1.3559
  377MPD2    H3 5644   0.466   4.276  12.097 -1.1015 -1.7130 -2.3152
  377MPD2     N 5645   0.277   3.929  12.321  0.8351 -0.2621  0.4647
  377MPD2    H5 5646   0.187   3.976  12.320  1.5797  1.1748  1.5091
  377MPD2    N1 5647   0.756   3.975  12.226  0.1089  0.4499  0.2120
  377MPD2    H7 5648   0.819   4.039  12.179 -0.0505 -0.2143 -0.9277
  378TMC3    C1 5649   1.095   3.834  12.071  0.9418 -0.1360  0.7889
  378TMC3    C2 5650   0.967   3.848  12.117  0.1399  0.2798  0.6114
  378TMC3    C3 5651   0.945   3.847  12.250  0.1254 -0.3070 -0.6666
  378TMC3    C4 5652   1.207   3.832  12.153 -0.1978 -1.1803  0.2171
  378TMC3    C5 5653   1.169   3.815  12.283 -0.2750 -0.5206  0.9626
  378TMC3    C6 5654   1.041   3.812  12.336  1.7854 -0.7215 -0.3616
  378TMC3     C 5655   1.095   3.822  11.927  0.0399 -0.6783  0.1636
  378TMC3     O 5656   0.990   3.841  11.867 -0.3164 -0.0256  0.4838
  378TMC3     H 5657   0.883   3.848  12.048 -0.2728 -0.7274  1.1204
  378TMC3    H1 5658   1.303   3.851  12.107 -1.0965  1.4241 -0.5912
  378TMC3    H2 5659   1.017   3.793  12.440 -1.1447 -1.1722 -1.1310
  378TMC3    C7 5660   1.277   3.792  12.376  0.0340 -0.7153  0.1211
  378TMC3    C8 5661   0.809   3.864  12.294  0.4686 -0.6065  0.2803
  378TMC3    O1 5662   1.243   3.776  12.495  0.2761  0.3559  0.2670
  378TMC3    O2 5663   0.771   3.788  12.383  0.0670  0.1632 -0.3376
  379MPD2     C 5664   1.404   2.051  16.242 -0.4276 -0.4082 -0.6009
  379MPD2    C1 5665   1.284   1.987  16.262 -0.2063 -0.0044  0.3245
  379MPD2    C2 5666   1.270   1.875  16.337 -0.7427  0.9011  0.2793
  379MPD2    C3 5667   1.382   1.825  16.402  0.6443  1.4125 -0.6705
  379MPD2    C4 5668   1.499   1.895  16.404 -0.2772  0.0502 -0.3422
  379MPD2    C5 5669   1.508   2.014  16.330 -0.3796  0.2126  0.0318
  379MPD2     H 5670   1.174   1.826  16.329  0.5995 -1.6485 -0.2022
  379MPD2    H1 5671   1.584   1.868  16.467 -0.7483 -3.0952 -1.0469
  379MPD2    H2 5672   1.398   2.137  16.177  1.9342  1.6556  1.9295
  379MPD2    H3 5673   1.592   2.083  16.338  0.0963 -0.4250  0.4879
  379MPD2     N 5674   1.383   1.714  16.487  0.4465 -0.0739 -0.0604
  379MPD2    H5 5675   1.470   1.688  16.532  1.4367  0.7464 -1.5072
  379MPD2    N1 5676   1.172   2.037  16.187 -0.4114  0.7727 -0.8337
  379MPD2    H7 5677   1.194   2.103  16.113 -1.0745  0.2941 -1.4577
  380TMC3    C1 5678   0.954   2.075  16.116 -0.9654 -0.2386  0.3575
  380TMC3    C2 5679   0.982   2.049  15.982 -0.4030  0.0757 -0.0425
  380TMC3    C3 5680   0.873   2.052  15.901 -0.3153 -0.4726  0.0520
  380TMC3    C4 5681   0.829   2.109  16.162 -0.1237 -0.3538  0.5454
  380TMC3    C5 5682   0.726   2.115  16.072  0.7451 -1.2118  0.0242
  380TMC3    C6 5683   0.746   2.083  15.940  0.0079  0.0431 -0.3878
  380TMC3     C 5684   1.040   2.015  16.210  0.0143  0.0831  0.3103
  380TMC3     O 5685   0.987   1.969  16.313 -0.5759  0.6061  0.5260
  380TMC3     H 5686   1.076   2.003  15.954 -0.4923  1.3431 -2.3712
  380TMC3    H1 5687   0.805   2.113  16.267 -1.3474  1.8710  0.1697
  380TMC3    H2 5688   0.669   2.102  15.866  1.2680 -0.8746 -1.9411
  380TMC3    C7 5689   0.596   2.160  16.115 -0.2538  0.0740 -0.4843
  380TMC3    C8 5690   0.890   1.979  15.773 -0.3359  0.1550  0.0226
  380TMC3    O1 5691   0.593   2.231  16.216 -0.1590  0.5590  0.3191
  380TMC3    O2 5692   1.003   1.951  15.738  0.1186 -0.3076  1.1296
  381TMC3    C1 5693   0.433   3.163  16.541 -0.5317 -0.4428  0.2573
  381TMC3    C2 5694   0.512   3.255  16.471 -0.2035 -0.0669 -0.3265
  381TMC3    C3 5695   0.558   3.363  16.539  0.4680 -0.4558  0.6942
  381TMC3    C4 5696   0.410   3.179  16.673  0.4224  0.5757  0.1464
  381TMC3    C5 5697   0.459   3.288  16.741 -0.2924  0.6215  0.2522
  381TMC3    C6 5698   0.529   3.385  16.669  0.3248 -0.0409  0.3968
  381TMC3     C 5699   0.399   3.037  16.480  0.0441  0.3555 -0.3329
  381TMC3     O 5700   0.377   2.947  16.562  0.0601  0.1070 -0.2838
  381TMC3     H 5701   0.544   3.230  16.370  0.5729  1.0063 -0.3489
  381TMC3    H1 5702   0.360   3.102  16.730 -0.2824 -0.0329 -1.2979
  381TMC3    H2 5703   0.558   3.471  16.729  1.7372 -0.5074  0.3803
  381TMC3    C7 5704   0.446   3.281  16.884  0.0120  0.5869 -0.3294
  381TMC3    C8 5705   0.686   3.410  16.495  0.1364 -0.1452 -1.0743
  381TMC3    O1 5706   0.430   3.173  16.933  0.6521  0.3079  0.2585
  381TMC3    O2 5707   0.725   3.364  16.384  0.1714 -0.2082  0.3362
  382MPD2     C 5708   4.513   1.265   0.362 -0.8530 -0.1385 -0.5062
  382MPD2    C1 5709   4.552   1.203   0.245  0.1538 -0.4493  0.6550
  382MPD2    C2 5710   4.496   1.080   0.208  0.3132  0.5625  0.3277
  382MPD2    C3 5711   4.424   1.013   0.302 -0.2938  0.0515 -0.4610
  382MPD2    C4 5712   4.423   1.061   0.428  0.1935  0.4776 -0.0085
  382MPD2    C5 5713   4.463   1.187   0.464 -0.3486  0.3556  0.5034
  382MPD2     H 5714   4.506   1.039   0.107  0.3768  1.1555  0.0964
  382MPD2    H1 5715   4.373   1.009   0.509  1.9002 -0.7012  0.2980
  382MPD2    H2 5716   4.541   1.366   0.389 -0.8379 -1.0472  2.8840
  382MPD2    H3 5717   4.443   1.222   0.565 -0.3016 -0.9138  0.9426
  382MPD2     N 5718   4.375   0.881   0.288  0.5442 -0.5042  0.1444
  382MPD2    H5 5719   4.344   0.830   0.370  0.8960 -2.9629 -1.2436
  382MPD2    N1 5720   4.634   1.271   0.151  0.1992 -0.1408  0.7012
  382MPD2    H7 5721   4.632   1.240   0.054  2.8890 -1.7537  1.1770
  383TMC3    C1 5722   4.291   0.692   0.167  0.2707  0.1028 -0.3417
  383TMC3    C2 5723   4.218   0.657   0.058  0.3929  0.6312 -0.2061
  383TMC3    C3 5724   4.167   0.534   0.066 -0.0525 -0.9465 -0.3809
  383TMC3    C4 5725   4.297   0.614   0.285  0.5196  0.5295 -0.7370
  383TMC3    C5 5726   4.218   0.506   0.294  0.0084 -0.7277  0.1314
  383TMC3    C6 5727   4.146   0.471   0.185 -0.4442  0.2189  0.6973
  383TMC3     C 5728   4.352   0.818   0.166 -0.5433  0.0621  0.1118
  383TMC3     O 5729   4.360   0.871   0.053 -0.6441  0.2144  0.0058
  383TMC3     H 5730   4.214   0.716  17.662 -3.4351  0.1896 -0.3227
  383TMC3    H1 5731   4.359   0.645   0.368  1.2158 -2.2000 -0.2435
  383TMC3    H2 5732   4.075   0.389   0.187 -0.6057  0.3775  2.0393
  383TMC3    C7 5733   4.209   0.424   0.411  0.6190 -0.0322 -0.3276
  383TMC3    C8 5734   4.115   0.478  17.638 -0.0082 -0.3238  0.0935
  383TMC3    O1 5735   4.145   0.321   0.398 -0.5517  0.6664 -0.4640
  383TMC3    O2 5736   4.078   0.559  17.553  0.4457  0.0442  0.0841
  384MPD2     C 5737   1.916   1.620  11.817  0.6343 -0.6710  0.5651
  384MPD2    C1 5738   1.870   1.572  11.932  0.1282  0.5820 -0.3243
  384MPD2    C2 5739   1.904   1.443  11.968 -0.4598 -0.0970 -0.1537
  384MPD2    C3 5740   1.973   1.364  11.880 -0.3881 -0.9433 -0.2339
  384MPD2    C4 5741   2.029   1.423  11.763  0.3409 -0.0647  0.7080
  384MPD2    C5 5742   1.992   1.550  11.736 -0.2003  0.1016 -0.4419
  384MPD2     H 5743   1.878   1.394  12.061  0.7422  0.7700  0.6362
  384MPD2    H1 5744   2.082   1.363  11.690 -2.1590 -0.7543 -0.5519
  384MPD2    H2 5745   1.897   1.725  11.798  0.3169 -0.9164 -0.4840
  384MPD2    H3 5746   2.035   1.587  11.644 -1.9354 -0.0692 -1.3331
  384MPD2     N 5747   2.000   1.228  11.913 -0.3991  0.7494 -0.7573
  384MPD2    H5 5748   1.976   1.209  12.010 -0.5368  0.8644 -0.7685
  384MPD2    N1 5749   1.799   1.658  12.018 -0.1818  0.1508  0.0888
  384MPD2    H7 5750   1.815   1.758  12.017 -0.9563  0.2678 -0.8865
  385TMC3    C1 5751   2.110   1.027  11.930  0.2234  0.5318 -1.0160
  385TMC3    C2 5752   2.032   0.910  11.934 -0.1617  0.4078 -0.5403
  385TMC3    C3 5753   1.998   0.857  12.059 -0.2024 -0.3797  0.6741
  385TMC3    C4 5754   2.148   1.089  12.049 -0.0173 -0.2616 -0.2680
  385TMC3    C5 5755   2.116   1.032  12.168  1.0698  0.1558  0.7090
  385TMC3    C6 5756   2.044   0.909  12.181  0.3998 -0.3232 -0.0413
  385TMC3     C 5757   2.066   1.134  11.836  0.2814  0.5876  0.4877
  385TMC3     O 5758   2.118   1.146  11.722 -0.2287  0.0167 -0.1787
  385TMC3     H 5759   2.002   0.871  11.837 -2.5467  0.5857  0.1162
  385TMC3    H1 5760   2.202   1.183  12.048  0.5888 -0.5885  1.9244
  385TMC3    H2 5761   2.026   0.852  12.271  0.7737  1.7065  1.3135
  385TMC3    C7 5762   2.114   1.118  12.289 -0.2194 -0.2508  0.2521
  385TMC3    C8 5763   1.938   0.725  12.071 -0.3525 -1.1619  0.1406
  385TMC3    O1 5764   2.144   1.236  12.268 -0.0950  0.3775  0.4560
  385TMC3    O2 5765   1.943   0.664  12.172  0.2640  0.4378  0.6952
  386TMC3    C1 5766   1.944   3.683  11.594 -1.0012  0.4340  0.1859
  386TMC3    C2 5767   1.939   3.601  11.486  0.2611  0.3205 -0.1053
  386TMC3    C3 5768   1.818   3.583  11.422 -0.0576  0.2398  0.2862
  386TMC3    C4 5769   1.829   3.741  11.639 -0.6935 -0.0073 -0.1524
  386TMC3    C5 5770   1.709   3.724  11.570  0.2220  0.1059 -0.6748
  386TMC3    C6 5771   1.702   3.641  11.466  0.3642  0.8475 -0.1229
  386TMC3     C 5772   2.053   3.665  11.686  0.3695  0.1394  0.1363
  386TMC3     O 5773   2.047   3.726  11.793 -0.3392 -0.4172 -0.3345
  386TMC3     H 5774   2.031   3.559  11.447  0.0581 -0.2804  0.0613
  386TMC3    H1 5775   1.840   3.822  11.710 -0.5891 -0.2811  0.1443
  386TMC3    H2 5776   1.608   3.614  11.419 -0.1450 -2.3172  2.7726
  386TMC3    C7 5777   1.625   3.840  11.569  0.6469  0.5962  0.0216
  386TMC3    C8 5778   1.812   3.527  11.289  0.0290  0.3010 -0.1836
  386TMC3    O1 5779   1.594   3.883  11.681  0.2081  0.6022  0.1073
  386TMC3    O2 5780   1.708   3.543  11.226 -0.0025  0.8208  0.2107
  387MPD2     C 5781   4.231   3.692   9.984 -0.2319 -0.8081 -0.9456
  387MPD2    C1 5782   4.350   3.667   9.925 -0.9982  0.5105 -0.4222
  387MPD2    C2 5783   4.359   3.550   9.860  0.0704 -0.6910  0.2192
  387MPD2    C3 5784   4.259   3.455   9.851  0.7961 -0.0931 -0.1511
  387MPD2    C4 5785   4.140   3.483   9.910 -0.7680  0.3843 -0.0836
  387MPD2    C5 5786   4.127   3.604   9.978  0.3806  0.3965  0.0513
  387MPD2     H 5787   4.451   3.521   9.811 -0.2402  0.4183 -1.0303
  387MPD2    H1 5788   4.061   3.410   9.905  0.1723 -0.8590  3.0766
  387MPD2    H2 5789   4.208   3.781  10.041 -2.1598 -0.8364 -1.6854
  387MPD2    H3 5790   4.032   3.636  10.018 -1.2205 -0.4584 -3.1011
  387MPD2     N 5791   4.288   3.329   9.798  0.7318 -0.2492 -0.4082
  387MPD2    H5 5792   4.379   3.322   9.754  1.4559  2.4789  0.6073
  387MPD2    N1 5793   4.462   3.749   9.938  0.7943 -0.9533  0.1388
  387MPD2    H7 5794   4.535   3.726   9.871  1.4196 -2.3626  1.2989
  388TMC3    C1 5795   4.614   3.884  10.046  0.1191  1.0592 -0.1656
  388TMC3    C2 5796   4.666   4.012  10.043  0.5555  0.3353 -0.7825
  388TMC3    C3 5797   0.080   4.022  10.049 -0.5807  0.2482 -0.3614
  388TMC3    C4 5798   4.691   3.774  10.041 -0.0125  0.4075  0.1661
  388TMC3    C5 5799   0.101   3.785  10.046 -0.5150  0.7561  0.0775
  388TMC3    C6 5800   0.158   3.913  10.057 -0.1380 -0.2317  0.5139
  388TMC3     C 5801   4.469   3.865  10.010  0.2180 -0.3877  0.0541
  388TMC3     O 5802   4.387   3.913  10.091 -0.3149  0.4242 -0.5757
  388TMC3     H 5803   4.604   4.101  10.050 -0.3288 -0.3633  0.4046
  388TMC3    H1 5804   4.642   3.677  10.045  1.6299 -0.4414 -0.3396
  388TMC3    H2 5805   0.266   3.920  10.059 -0.1374 -0.0463 -0.1974
  388TMC3    C7 5806   0.186   3.664  10.046 -0.7338  0.4744 -0.0609
  388TMC3    C8 5807   0.140   4.150  10.028 -0.4645  0.0023  1.3350
  388TMC3    O1 5808   0.292   3.674  10.110 -0.6398  0.1981 -0.0840
  388TMC3    O2 5809   0.247   4.153   9.967 -0.0081 -0.1035 -0.3760
  389MPD2     C 5810   4.008   1.919  11.062 -0.4850  0.1958 -0.3313
  389MPD2    C1 5811   3.922   1.839  10.991 -0.1570  0.9055 -0.2318
  389MPD2    C2 5812   3.834   1.762  11.057 -0.6714  0.0333  0.5585
  389MPD2    C3 5813   3.829   1.755  11.195  0.0014  0.1872 -0.8122
  389MPD2    C4 5814   3.908   1.846  11.265  0.6656  0.5989 -0.2298
  389MPD2    C5 5815   3.992   1.919  11.198 -0.1199  0.0831  0.4093
  389MPD2     H 5816   3.759   1.711  10.998  1.5799 -1.8435 -0.6448
  389MPD2    H1 5817   3.915   1.835  11.373 -0.8373 -0.8788 -0.2810
  389MPD2    H2 5818   4.084   1.980  11.016 -0.1317 -0.0824 -0.1179
  389MPD2    H3 5819   4.062   1.981  11.252  0.4743 -0.4812  0.2879
  389MPD2     N 5820   3.751   1.670  11.278 -0.6451 -0.2468  0.5463
  389MPD2    H5 5821   3.743   1.687  11.378  2.8487 -0.4370  0.8382
  389MPD2    N1 5822   3.939   1.843  10.849  1.0435  0.8315  0.0655
  389MPD2    H7 5823   4.006   1.907  10.809  0.3972  1.3838 -0.1295
  390TMC3    C1 5824   3.556   1.531  11.336  0.0688 -0.4865 -0.3347
  390TMC3    C2 5825   3.572   1.556  11.470  0.0424  0.4945  0.0425
  390TMC3    C3 5826   3.460   1.555  11.544 -0.1127  0.2964  0.4813
  390TMC3    C4 5827   3.433   1.499  11.283 -0.4059  0.1994  0.0929
  390TMC3    C5 5828   3.329   1.499  11.366  0.3092  0.1298  0.3338
  390TMC3    C6 5829   3.333   1.534  11.495 -0.2978  0.0173  0.6807
  390TMC3     C 5830   3.654   1.574  11.235  0.4626 -0.5943 -0.6092
  390TMC3     O 5831   3.631   1.538  11.118  0.0668  0.5602 -0.4840
  390TMC3     H 5832   3.670   1.563  11.517 -0.0450  0.7916  0.1832
  390TMC3    H1 5833   3.432   1.476  11.177 -0.6832  2.3133 -0.3471
  390TMC3    H2 5834   3.245   1.532  11.558 -0.5584 -1.2679  0.2859
  390TMC3    C7 5835   3.215   1.424  11.317  0.3117 -0.1699  0.0832
  390TMC3    C8 5836   3.469   1.547  11.686 -0.0902 -0.6451 -0.1888
  390TMC3    O1 5837   3.231   1.354  11.219 -0.0380  0.4225 -0.3079
  390TMC3    O2 5838   3.509   1.642  11.754  0.3580  0.6622  0.1915
  391MPD2     C 5839   3.009   3.488  10.843 -0.3199  0.0832  0.3207
  391MPD2    C1 5840   3.062   3.613  10.853  0.5328 -0.2903 -0.2732
  391MPD2    C2 5841   3.104   3.684  10.740  0.1035 -0.5256  0.3571
  391MPD2    C3 5842   3.066   3.631  10.615  0.1093 -0.5418 -0.1392
  391MPD2    C4 5843   3.011   3.502  10.606  0.2476  0.5215 -0.3233
  391MPD2    C5 5844   2.980   3.436  10.723 -0.2069  0.0957  0.2949
  391MPD2     H 5845   3.138   3.786  10.753 -0.0150 -0.4706  0.2367
  391MPD2    H1 5846   2.991   3.456  10.510  1.5883 -0.1165 -0.3017
  391MPD2    H2 5847   2.984   3.424  10.927 -0.3729 -0.8587 -0.4120
  391MPD2    H3 5848   2.921   3.346  10.705  1.5512 -0.5804 -2.1408
  391MPD2     N 5849   3.114   3.710  10.506 -0.3699 -0.2203  0.3983
  391MPD2    H5 5850   3.161   3.798  10.527  2.3099 -1.2337 -1.4901
  391MPD2    N1 5851   3.090   3.665  10.987  0.1758 -0.6807  0.0862
  391MPD2    H7 5852   3.061   3.604  11.063 -1.3653  2.3123  1.9021
  392TMC3    C1 5853   3.096   3.800  10.292 -0.0758 -0.2908 -0.1610
  392TMC3    C2 5854   3.010   3.800  10.183  0.1802  0.1366  0.3802
  392TMC3    C3 5855   2.998   3.919  10.117  0.2539 -0.0770  0.8077
  392TMC3    C4 5856   3.189   3.902  10.318 -0.4632  1.0450  0.1162
  392TMC3    C5 5857   3.172   4.016  10.249  0.2848 -0.1723 -0.5742
  392TMC3    C6 5858   3.071   4.031  10.151  0.1961 -0.5065  0.2108
  392TMC3     C 5859   3.064   3.690  10.384  0.4979 -0.2810  0.3113
  392TMC3     O 5860   2.992   3.603  10.339 -0.1606  0.3008 -0.8654
  392TMC3     H 5861   2.966   3.708  10.149  2.3466 -1.0480  0.7399
  392TMC3    H1 5862   3.274   3.891  10.384  2.6599 -1.2084 -4.2900
  392TMC3    H2 5863   3.049   4.128  10.108 -0.6128  0.0723  1.9540
  392TMC3    C7 5864   3.236   4.140  10.297  0.1359 -0.4316 -0.1969
  392TMC3    C8 5865   2.911   3.915  10.005 -0.3805  0.2881 -0.0115
  392TMC3    O1 5866   3.280   4.121  10.410 -0.2006 -0.6170 -0.5760
  392TMC3    O2 5867   2.876   3.804   9.965  0.2446  0.8105  0.2918
  393TMC3    C1 5868   2.191   1.779  10.640  0.2934  0.9133 -0.0960
  393TMC3    C2 5869   2.088   1.753  10.728  0.5297 -0.2725  0.2048
  393TMC3    C3 5870   2.098   1.639  10.807  0.3404  0.7557 -0.5670
  393TMC3    C4 5871   2.299   1.693  10.627  0.4876 -0.3027 -0.7622
  393TMC3    C5 5872   2.296   1.578  10.696  0.0953  0.1414  0.8834
  393TMC3    C6 5873   2.193   1.551  10.776 -0.3407 -0.4118  0.4533
  393TMC3     C 5874   2.168   1.895  10.562  0.7345  0.3782 -0.9281
  393TMC3     O 5875   2.055   1.943  10.560 -0.0705 -0.2974 -0.0492
  393TMC3     H 5876   2.001   1.817  10.732 -2.1865 -3.9624  0.2241
  393TMC3    H1 5877   2.371   1.714  10.548  3.1414  1.0458  2.0451
  393TMC3    H2 5878   2.191   1.454  10.823  0.1129  0.2937  1.9228
  393TMC3    C7 5879   2.327   1.465  10.613  0.1450 -0.7455  0.0193
  393TMC3    C8 5880   1.988   1.592  10.887 -0.0646  0.0560  0.1408
  393TMC3    O1 5881   2.237   1.381  10.602 -0.0477 -0.2211 -0.1035
  393TMC3    O2 5882   2.032   1.551  10.995 -0.2936 -0.1197 -0.1892
  394TMC3    C1 5883   3.874   1.792  10.631 -0.3646 -0.1587 -0.0284
  394TMC3    C2 5884   3.818   1.699  10.538 -0.1230 -0.1352 -0.2048
  394TMC3    C3 5885   3.773   1.751  10.416  0.0428  0.1147 -0.1649
  394TMC3    C4 5886   3.900   1.918  10.591 -0.2827  1.3211 -0.4565
  394TMC3    C5 5887   3.848   1.965  10.474  0.5968 -0.0831  0.4658
  394TMC3    C6 5888   3.788   1.882  10.384  0.4051 -0.0197 -0.1377
  394TMC3     C 5889   3.869   1.756  10.766 -0.1017  0.1705 -0.4420
  394TMC3     O 5890   3.802   1.654  10.788  0.2523 -0.4315  0.2058
  394TMC3     H 5891   3.801   1.597  10.569 -0.4505 -0.1538 -0.4440
  394TMC3    H1 5892   3.938   1.984  10.668 -1.6492 -1.2569  2.4342
  394TMC3    H2 5893   3.751   1.922  10.290  1.9774  2.2776  0.2302
  394TMC3    C7 5894   3.899   2.087  10.420  0.2685 -0.4112 -0.6435
  394TMC3    C8 5895   3.718   1.653  10.326  0.0778 -0.5244 -0.4263
  394TMC3    O1 5896   4.004   2.136  10.462  0.9138 -0.1459  0.1820
  394TMC3    O2 5897   3.705   1.541  10.367 -0.4801 -0.3987  0.2868
  395TMC3    C1 5898   3.224   4.089  14.609  0.0727  0.8705  0.1654
  395TMC3    C2 5899   3.094   4.110  14.619  0.1488  0.6289 -0.0630
  395TMC3    C3 5900   3.051   4.197  14.717  0.0374  0.3856 -0.4833
  395TMC3    C4 5901   3.320   4.171  14.668 -0.2139  0.4085  0.0183
  395TMC3    C5 5902   3.273   4.269  14.753  0.5683 -0.9470  0.3237
  395TMC3    C6 5903   3.140   4.281  14.777 -0.4613  0.6045  0.5305
  395TMC3     C 5904   3.236   3.955  14.667  0.3557 -0.4600  0.7367
  395TMC3     O 5905   3.259   3.944  14.789  0.1967  0.2718  0.2105
  395TMC3     H 5906   3.030   4.041  14.563  1.3671 -0.9698  0.5097
  395TMC3    H1 5907   3.423   4.136  14.677 -0.4504  0.1719  1.8334
  395TMC3    H2 5908   3.103   4.366  14.832  0.9368  1.3329  0.3534
  395TMC3    C7 5909   3.365   4.373  14.795 -0.1114 -0.1201  0.0858
  395TMC3    C8 5910   2.953   4.141  14.803  0.4229 -0.2828  0.4807
  395TMC3    O1 5911   3.314   4.463  14.861  0.1043  1.0883 -0.1552
  395TMC3    O2 5912   2.923   4.196  14.909  0.0063 -0.2549 -0.3546
  396MPD2     C 5913   2.381   0.901   0.201 -0.1274  0.1043  0.0511
  396MPD2    C1 5914   2.515   0.925   0.186  0.2529  0.4408 -0.3980
  396MPD2    C2 5915   2.555   1.060   0.150 -0.3815  0.2442 -0.1916
  396MPD2    C3 5916   2.460   1.156   0.132  0.2846  0.4872 -0.1650
  396MPD2    C4 5917   2.327   1.130   0.163 -0.2750 -0.4341 -0.6065
  396MPD2    C5 5918   2.291   1.007   0.200  0.4276  0.0548  0.5951
  396MPD2     H 5919   2.658   1.087   0.132 -1.6481  1.0161 -6.1793
  396MPD2    H1 5920   2.246   1.203   0.164  0.7394  0.6546  1.8450
  396MPD2    H2 5921   2.332   0.808   0.226  1.4989 -0.1852  2.1243
  396MPD2    H3 5922   2.188   0.995   0.230  0.2931 -1.5144 -0.4887
  396MPD2     N 5923   2.497   1.275   0.071  0.6878  0.0887  0.0405
  396MPD2    H5 5924   2.597   1.292   0.070  0.3623  1.8672 -1.2714
  396MPD2    N1 5925   2.604   0.817   0.207 -0.0741 -0.2582 -0.1848
  396MPD2    H7 5926   2.570   0.724   0.228 -1.7231  0.5849  0.9200
  397TMC3    C1 5927   2.798   0.693   0.202 -0.0878 -0.3615  0.3851
  397TMC3    C2 5928   2.853   0.658   0.080 -0.1449 -0.2025  0.0359
  397TMC3    C3 5929   2.855   0.530   0.046  0.6896  0.2936  0.0187
  397TMC3    C4 5930   2.746   0.603   0.286  0.4062 -0.0989  0.1344
  397TMC3    C5 5931   2.762   0.469   0.253  0.4132  0.2646  0.2757
  397TMC3    C6 5932   2.815   0.432   0.129  0.6521 -0.4442  0.0629
  397TMC3     C 5933   2.737   0.830   0.194 -0.3505  0.1616 -0.1311
  397TMC3     O 5934   2.804   0.922   0.143 -0.1730 -0.0766  0.0406
  397TMC3     H 5935   2.851   0.740   0.009  2.4329 -0.9062 -0.8124
  397TMC3    H1 5936   2.703   0.642   0.378 -1.1658 -3.3463  0.7895
  397TMC3    H2 5937   2.821   0.330   0.092  2.7259  0.4981 -2.1862
  397TMC3    C7 5938   2.681   0.371   0.316 -0.5048  0.0432 -0.2782
  397TMC3    C8 5939   2.916   0.490  17.616  0.0522  0.9408 -0.2473
  397TMC3    O1 5940   2.649   0.282   0.239  0.8233 -0.5569  0.0350
  397TMC3    O2 5941   2.931   0.369  17.582  0.0221  0.4338 -0.8639
  398MPD2     C 5942   0.435   1.276   0.206 -0.3980  0.5199 -1.2472
  398MPD2    C1 5943   0.443   1.136   0.220 -0.1034  0.1056 -0.1973
  398MPD2    C2 5944   0.542   1.080   0.304 -0.3199  0.2997  0.6085
  398MPD2    C3 5945   0.622   1.169   0.373 -0.1277 -0.2289  0.4324
  398MPD2    C4 5946   0.617   1.308   0.346  0.1731  0.0638 -0.1815
  398MPD2    C5 5947   0.525   1.356   0.262 -0.7444  0.2901  0.4059
  398MPD2     H 5948   0.543   0.972   0.320 -0.7125  0.1886 -0.1014
  398MPD2    H1 5949   0.686   1.382   0.384  1.1959  0.1358 -2.1955
  398MPD2    H2 5950   0.352   1.327   0.158 -0.3582  1.4409 -0.3076
  398MPD2    H3 5951   0.511   1.463   0.254  2.7025  0.5732 -1.6786
  398MPD2     N 5952   0.716   1.116   0.462  0.0194  0.0515  0.4814
  398MPD2    H5 5953   0.723   1.015   0.472  0.0587  0.1889  1.9139
  398MPD2    N1 5954   0.348   1.054   0.153 -0.1742 -0.1942 -0.0981
  398MPD2    H7 5955   0.353   0.954   0.168  0.7170 -0.1943 -0.3833
  399TMC3    C1 5956   0.163   0.978   0.035  0.1834 -0.0942  0.7317
  399TMC3    C2 5957   0.091   0.990  17.612  0.6426  0.2997 -0.3174
  399TMC3    C3 5958   4.706   0.906  17.597  0.3622  0.4513  0.2122
  399TMC3    C4 5959   0.134   0.896   0.142 -0.3287  0.4162 -0.4301
  399TMC3    C5 5960   0.019   0.823   0.116  0.2853  0.5832 -0.8114
  399TMC3    C6 5961   4.666   0.826   0.003 -0.1708  0.5234 -0.0879
  399TMC3     C 5962   0.250   1.093   0.068 -0.0612 -0.5391 -0.4167
  399TMC3     O 5963   0.211   1.197   0.013  0.0487  0.0893  0.0738
  399TMC3     H 5964   0.122   1.062  17.538  2.6865  0.7272  0.9520
  399TMC3    H1 5965   0.200   0.877   0.226  0.8397 -0.7519 -1.6105
  399TMC3    H2 5966   4.586   0.753  17.690 -1.1508  1.5676  0.2857
  399TMC3    C7 5967   4.720   0.725   0.213  0.1641 -0.0383  0.4267
  399TMC3    C8 5968   4.623   0.928  17.486 -0.4960 -0.1106  0.0976
  399TMC3    O1 5969   4.675   0.618   0.178  0.8428  0.1139 -0.4364
  399TMC3    O2 5970   4.676   0.984  17.389  0.3178  0.1752  0.7453
  400TMC3    C1 5971   3.993   0.358  16.970  0.1339  0.0845  0.3698
  400TMC3    C2 5972   3.937   0.249  16.910  0.6778  0.5049 -0.0276
  400TMC3    C3 5973   3.860   0.281  16.806  0.0106 -0.2929  0.1233
  400TMC3    C4 5974   3.980   0.488  16.928 -0.2474 -0.0001  0.0694
  400TMC3    C5 5975   3.897   0.513  16.820 -0.0213  0.6791 -0.1718
  400TMC3    C6 5976   3.830   0.407  16.765  0.2981  0.0515 -0.2907
  400TMC3     C 5977   4.097   0.318  17.071 -0.0856  0.9427 -0.6727
  400TMC3     O 5978   4.142   0.204  17.066 -0.0138 -0.2333 -0.1614
  400TMC3     H 5979   3.945   0.155  16.962  2.7958  0.0637 -1.1542
  400TMC3    H1 5980   4.032   0.572  16.973 -1.0250  0.0927  0.7992
  400TMC3    H2 5981   3.767   0.424  16.678  0.5396 -0.8437 -0.6341
  400TMC3    C7 5982   3.868   0.646  16.783  0.0055  0.0700 -0.5695
  400TMC3    C8 5983   3.778   0.175  16.760 -0.3328  0.0713  0.3767
  400TMC3    O1 5984   3.820   0.657  16.671 -0.0326  0.2806  0.5085
  400TMC3    O2 5985   3.660   0.204  16.737  0.0703 -0.1615  0.5985
  401MPD2     C 5986   2.259   3.819   1.564  0.9933  0.2513 -0.7818
  401MPD2    C1 5987   2.358   3.812   1.467  0.5380  0.2941 -0.6052
  401MPD2    C2 5988   2.355   3.702   1.383 -0.5010 -0.0249  0.4617
  401MPD2    C3 5989   2.262   3.604   1.384  0.5696 -0.1402 -0.0516
  401MPD2    C4 5990   2.167   3.612   1.482  0.1327  0.5538 -0.0988
  401MPD2    C5 5991   2.163   3.722   1.564  0.2736 -0.3039  0.1696
  401MPD2     H 5992   2.437   3.702   1.313  1.0213  0.4267  2.2566
  401MPD2    H1 5993   2.089   3.538   1.498 -0.5151  1.4497  0.8686
  401MPD2    H2 5994   2.262   3.896   1.640  0.3099 -0.0797 -0.4226
  401MPD2    H3 5995   2.074   3.738   1.623  0.1520  3.6495 -1.1038
  401MPD2     N 5996   2.287   3.493   1.301 -0.2232  0.0324  0.1470
  401MPD2    H5 5997   2.378   3.496   1.254 -1.5754  1.2068 -2.4034
  401MPD2    N1 5998   2.463   3.905   1.448  0.0160  0.1829 -0.4099
  401MPD2    H7 5999   2.535   3.883   1.380  0.8788 -0.4634  0.7142
  402TMC3    C1 6000   2.269   3.278   1.214  0.0700  0.0976  0.2835
  402TMC3    C2 6001   2.282   3.156   1.272 -0.3157  0.3865 -0.3242
  402TMC3    C3 6002   2.346   3.059   1.196 -0.5281  0.7166 -0.1071
  402TMC3    C4 6003   2.322   3.311   1.091 -0.6327  0.2175  0.1509
  402TMC3    C5 6004   2.400   3.219   1.026 -0.2656 -0.0340  0.1099
  402TMC3    C6 6005   2.403   3.090   1.075 -0.4328 -0.3365  0.0013
  402TMC3     C 6006   2.207   3.381   1.296  0.4820  0.2550 -0.0702
  402TMC3     O 6007   2.104   3.353   1.354  0.0456 -0.0480 -0.1909
  402TMC3     H 6008   2.242   3.138   1.371 -2.0972  1.2262 -0.8914
  402TMC3    H1 6009   2.334   3.407   1.042  0.4823 -0.6637 -1.2956
  402TMC3    H2 6010   2.450   3.007   1.022  0.0919 -0.3663  0.5169
  402TMC3    C7 6011   2.465   3.236   0.897 -0.1890 -0.7318 -0.3963
  402TMC3    C8 6012   2.404   2.947   1.271  0.2253 -0.4185 -0.1289
  402TMC3    O1 6013   2.407   3.308   0.818 -0.0337  0.0583  0.0962
  402TMC3    O2 6014   2.514   2.902   1.238 -0.1902  0.0317 -0.2115
  403MPD2     C 6015   1.245   1.988  13.310 -0.4001  0.0120 -0.3960
  403MPD2    C1 6016   1.219   1.903  13.414 -0.0959  0.1034  0.4398
  403MPD2    C2 6017   1.292   1.918  13.536 -0.0967  0.5976  0.3607
  403MPD2    C3 6018   1.399   2.016  13.537 -0.1084  0.0993 -0.0361
  403MPD2    C4 6019   1.420   2.099  13.435  0.8261  0.4798  0.2005
  403MPD2    C5 6020   1.340   2.087  13.327  0.2669  0.7312 -0.2334
  403MPD2     H 6021   1.278   1.853  13.621  1.5529  0.3412  0.4369
  403MPD2    H1 6022   1.498   2.174  13.441 -0.6043  1.9611  0.6114
  403MPD2    H2 6023   1.190   1.976  13.217  1.2266 -0.4564 -1.2994
  403MPD2    H3 6024   1.351   2.158  13.245  0.0731 -1.4634 -2.1635
  403MPD2     N 6025   1.493   2.018  13.641  0.2970 -0.0963 -0.0234
  403MPD2    H5 6026   1.488   1.938  13.703 -1.0576 -0.9373 -1.2149
  403MPD2    N1 6027   1.122   1.809  13.384 -0.5725 -0.2695 -0.2481
  403MPD2    H7 6028   1.083   1.821  13.291  1.2453  0.5317 -0.9074
  404TMC3    C1 6029   0.986   1.619  13.390  0.7809 -0.5067 -0.0485
  404TMC3    C2 6030   0.933   1.523  13.471 -0.5946 -0.8185  0.2830
  404TMC3    C3 6031   0.888   1.412  13.405  0.4429  0.6596  0.2881
  404TMC3    C4 6032   0.990   1.615  13.247  0.8366  0.3046  0.1625
  404TMC3    C5 6033   0.956   1.495  13.192  0.5600  0.1585 -0.2005
  404TMC3    C6 6034   0.915   1.384  13.268 -0.6664  0.7462 -0.1083
  404TMC3     C 6035   1.060   1.720  13.467 -0.2104 -0.4203  0.3943
  404TMC3     O 6036   1.100   1.687  13.577 -0.3629 -0.1219 -0.3036
  404TMC3     H 6037   0.925   1.533  13.578  1.0138  1.1250  0.2288
  404TMC3    H1 6038   1.022   1.701  13.189 -1.9572  1.7164  0.6658
  404TMC3    H2 6039   0.877   1.295  13.219  0.9268  0.3585 -0.6501
  404TMC3    C7 6040   0.965   1.485  13.044 -0.2912 -0.0323 -0.8329
  404TMC3    C8 6041   0.861   1.291  13.488 -0.1317 -0.2200  0.3024
  404TMC3    O1 6042   1.063   1.541  13.003 -0.6665  0.4645  0.4778
  404TMC3    O2 6043   0.905   1.180  13.466  0.1079 -0.2607 -0.7176
  405MPD2     C 6044   1.411   2.124  14.794 -1.3603 -0.2818  0.0338
  405MPD2    C1 6045   1.344   2.062  14.693 -0.3777 -0.3462 -0.3986
  405MPD2    C2 6046   1.327   2.127  14.566  0.1359 -0.4459 -0.0191
  405MPD2    C3 6047   1.371   2.256  14.551 -0.4587  0.2625  0.4990
  405MPD2    C4 6048   1.426   2.320  14.658 -0.2051  0.0418 -0.5733
  405MPD2    C5 6049   1.445   2.256  14.783  0.7235 -0.1786  0.4640
  405MPD2     H 6050   1.269   2.071  14.494 -0.2857  0.6595 -0.5535
  405MPD2    H1 6051   1.482   2.413  14.653  1.9712 -1.2513 -0.2160
  405MPD2    H2 6052   1.429   2.070  14.886 -0.1480  1.7820  0.9871
  405MPD2    H3 6053   1.508   2.305  14.856 -0.0655  0.7607  0.5213
  405MPD2     N 6054   1.362   2.341  14.433  0.2431 -0.0593 -0.0059
  405MPD2    H5 6055   1.395   2.436  14.433 -0.5486  0.2143  0.6606
  405MPD2    N1 6056   1.283   1.936  14.706 -0.0070  0.1451 -0.2995
  405MPD2    H7 6057   1.225   1.917  14.624 -2.3011 -0.7623  1.5585
  406TMC3    C1 6058   1.156   2.558  14.176  0.1392 -0.0017 -0.4817
  406TMC3    C2 6059   1.084   2.482  14.087 -0.1059 -0.4634 -0.1357
  406TMC3    C3 6060   1.130   2.361  14.052 -0.9634  0.1489  0.0699
  406TMC3    C4 6061   1.262   2.501  14.246  0.2847  0.0210 -0.4355
  406TMC3    C5 6062   1.307   2.379  14.214  0.6205  0.7522 -0.5128
  406TMC3    C6 6063   1.248   2.316  14.110  0.3751 -0.1420  0.3683
  406TMC3     C 6064   1.063   2.639  14.241 -0.2017  0.2877 -0.1638
  406TMC3     O 6065   0.963   2.582  14.281  0.6332  0.0813  0.3421
  406TMC3     H 6066   0.988   2.513  14.046  0.4226  1.9786  0.4479
  406TMC3    H1 6067   1.308   2.560  14.326 -0.7434 -0.4112  0.4744
  406TMC3    H2 6068   1.282   2.221  14.070 -0.6179  0.0773 -1.0038
  406TMC3    C7 6069   1.305   2.291  14.319 -0.2173 -0.1972 -0.3257
  406TMC3    C8 6070   1.031   2.258  14.043 -0.5514  0.1836 -0.4592
  406TMC3    O1 6071   1.251   2.181  14.306 -0.1550 -0.3089 -0.6183
  406TMC3    O2 6072   0.930   2.279  13.973 -0.0253  0.5185  0.2756
  407MPD2     C 6073   3.725   3.680   9.697  0.0463  0.0968 -0.4243
  407MPD2    C1 6074   3.768   3.803   9.638  0.1570  0.2698 -0.0691
  407MPD2    C2 6075   3.787   3.909   9.718  0.4967 -0.8053  0.5587
  407MPD2    C3 6076   3.763   3.898   9.854  0.2686 -0.1346 -0.1150
  407MPD2    C4 6077   3.733   3.780   9.910  0.2581  0.4300  0.6321
  407MPD2    C5 6078   3.713   3.666   9.832 -0.0898 -0.1844 -0.0416
  407MPD2     H 6079   3.821   4.004   9.679 -1.1737 -0.5271 -0.2476
  407MPD2    H1 6080   3.728   3.760  10.017  0.5754  0.3971  0.6406
  407MPD2    H2 6081   3.695   3.595   9.637  1.6511 -0.6801 -0.1230
  407MPD2    H3 6082   3.697   3.570   9.879  0.8681 -0.4327 -0.2191
  407MPD2     N 6083   3.783   4.018   9.934 -0.1168  1.4455 -0.1923
  407MPD2    H5 6084   3.810   4.094   9.874 -1.5400  3.7458  2.0791
  407MPD2    N1 6085   3.795   3.817   9.495 -0.3020 -0.6864 -0.0240
  407MPD2    H7 6086   3.816   3.909   9.456 -0.3687 -1.1500 -1.1474
  408TMC3    C1 6087   3.798   3.750   9.268  0.3410  0.3697  0.1734
  408TMC3    C2 6088   3.871   3.674   9.176  0.0600 -0.0795 -0.1707
  408TMC3    C3 6089   3.866   3.722   9.049 -0.5576 -0.1209  0.0928
  408TMC3    C4 6090   3.740   3.869   9.241 -0.3104  0.0029  0.1443
  408TMC3    C5 6091   3.759   3.914   9.114 -0.3110  0.3827 -1.0462
  408TMC3    C6 6092   3.825   3.846   9.013 -0.9878 -0.4969 -0.3230
  408TMC3     C 6093   3.791   3.709   9.408  0.0083  0.3940  0.2878
  408TMC3     O 6094   3.807   3.592   9.436  0.3239  0.1313  0.9432
  408TMC3     H 6095   3.924   3.585   9.205 -0.4969  0.0462  1.2384
  408TMC3    H1 6096   3.662   3.917   9.298 -0.8456  0.3905 -0.9024
  408TMC3    H2 6097   3.838   3.880   8.911 -0.1726  2.2985  0.7213
  408TMC3    C7 6098   3.675   4.025   9.068 -0.9207  0.5244  0.0451
  408TMC3    C8 6099   3.990   3.675   8.983  0.1317 -0.2563 -0.7075
  408TMC3    O1 6100   3.615   4.021   8.962  0.3806  0.5201  0.4811
  408TMC3    O2 6101   3.983   3.621   8.871  0.2762 -0.5101 -0.6872
  409MPD2     C 6102   3.016   4.545  16.876 -0.1162 -0.2595 -0.4848
  409MPD2    C1 6103   3.047   4.558  17.012  1.0618  0.0129  0.2822
  409MPD2    C2 6104   3.135   4.665  17.046 -0.8046  0.3152  0.4082
  409MPD2    C3 6105   3.176   0.032  16.953 -0.3678  0.5209 -0.3266
  409MPD2    C4 6106   3.131   0.022  16.828  0.8368 -0.0470  0.0387
  409MPD2    C5 6107   3.047   4.644  16.792  0.8048  0.8820  0.6509
  409MPD2     H 6108   3.185   4.661  17.142  0.1445  0.0544 -0.0947
  409MPD2    H1 6109   3.155   0.080  16.739  3.2383 -0.7075  0.2421
  409MPD2    H2 6110   2.953   4.465  16.840 -3.3994  1.8480  0.5074
  409MPD2    H3 6111   3.022   4.642  16.687  0.7680  1.6478  0.6452
  409MPD2     N 6112   3.274   0.132  16.974 -0.3098  0.6324  0.5123
  409MPD2    H5 6113   3.301   0.176  16.887 -1.0843  1.3256  0.6193
  409MPD2    N1 6114   3.010   4.464  17.115  0.3015  0.5826  0.5627
  409MPD2    H7 6115   3.037   4.476  17.212 -0.7138  3.1962  0.5209
  410TMC3    C1 6116   3.470   0.230  17.060 -0.6108 -0.0426 -0.5119
  410TMC3    C2 6117   3.572   0.229  17.156 -0.4907 -0.0786 -0.7108
  410TMC3    C3 6118   3.668   0.330  17.152 -0.2346 -0.8192  0.0048
  410TMC3    C4 6119   3.461   0.335  16.972  0.4790  0.3146  0.1143
  410TMC3    C5 6120   3.553   0.438  16.991  0.4113  0.4056 -0.2432
  410TMC3    C6 6121   3.653   0.445  17.084 -0.3674 -0.5057  0.3403
  410TMC3     C 6122   3.354   0.149  17.085  0.5270 -0.0147  0.6249
  410TMC3     O 6123   3.352   0.087  17.189 -0.0222  0.0001 -0.0753
  410TMC3     H 6124   3.580   0.138  17.214  0.7161  0.2840 -0.3057
  410TMC3    H1 6125   3.377   0.353  16.906 -0.6453 -1.6567  1.0324
  410TMC3    H2 6126   3.730   0.521  17.096 -1.3760 -0.0898  4.3156
  410TMC3    C7 6127   3.519   0.565  16.927  0.1426  0.6849  0.1406
  410TMC3    C8 6128   3.759   0.332  17.267  0.2961  0.7497  0.0678
  410TMC3    O1 6129   3.481   0.551  16.813 -0.5367 -0.0556  0.0751
  410TMC3    O2 6130   3.785   0.445  17.310 -0.3898 -0.4886 -0.0761
  411MPD2     C 6131   3.189   0.177  15.175  0.0370 -0.4397 -0.1732
  411MPD2    C1 6132   3.137   0.251  15.071 -0.3671 -0.4233 -0.2031
  411MPD2    C2 6133   3.022   0.205  15.004 -0.0572 -0.1480 -0.1876
  411MPD2    C3 6134   2.971   0.081  15.032  0.2270 -0.1068 -0.1547
  411MPD2    C4 6135   3.035   0.006  15.129  0.4858 -0.3581 -0.2762
  411MPD2    C5 6136   3.136   0.060  15.211  0.9467 -0.1255 -0.0595
  411MPD2     H 6137   2.975   0.264  14.927  0.2558 -1.2097 -1.1879
  411MPD2    H1 6138   2.997   4.630  15.152 -0.4910 -0.3767 -1.9647
  411MPD2    H2 6139   3.279   0.208  15.227  0.0635  0.4341 -0.7328
  411MPD2    H3 6140   3.185   0.005  15.289 -1.3457 -1.1234  0.6884
  411MPD2     N 6141   2.854   0.024  14.970  0.3583  0.5469  0.1668
  411MPD2    H5 6142   2.825   4.655  15.001 -0.6713  1.2240  1.2362
  411MPD2    N1 6143   3.194   0.373  15.037  0.7022  0.5037  0.3252
  411MPD2    H7 6144   3.265   0.410  15.099  0.4200  1.1956  0.2356
  412TMC3    C1 6145   2.663   4.710  14.837  0.1426  0.1446  0.1783
  412TMC3    C2 6146   2.571   0.038  14.748 -0.0537 -0.6729  0.0575
  412TMC3    C3 6147   2.476   4.682  14.694 -0.5245 -0.2411  0.7597
  412TMC3    C4 6148   2.680   4.576  14.865 -0.0471  0.3786 -0.5958
  412TMC3    C5 6149   2.576   4.494  14.817  0.3098 -0.7392  0.3489
  412TMC3    C6 6150   2.483   4.549  14.730  0.1712 -0.3456 -0.0766
  412TMC3     C 6151   2.766   0.085  14.884  1.0361 -0.0484 -0.3241
  412TMC3     O 6152   2.763   0.205  14.867  0.1401  0.2657  0.3890
  412TMC3     H 6153   2.578   0.141  14.715  2.3393 -0.8093  0.1412
  412TMC3    H1 6154   2.761   4.530  14.920 -0.3020  0.4837 -0.1278
  412TMC3    H2 6155   2.427   4.470  14.680  1.2708 -1.8628  1.0823
  412TMC3    C7 6156   2.632   4.369  14.772 -0.2838 -0.5069  0.4415
  412TMC3    C8 6157   2.441   4.685  14.555  0.1877 -0.3209 -0.8126
  412TMC3    O1 6158   2.584   4.269  14.822 -0.0412  0.2604  0.4839
  412TMC3    O2 6159   2.334   4.629  14.527 -0.1873  0.2067  0.3353
  413MPD2     C 6160   4.682   3.283  15.730 -0.3277  0.4261  0.0217
  413MPD2    C1 6161   4.647   3.245  15.604  0.1472 -0.1323  0.1927
  413MPD2    C2 6162   0.002   3.150  15.536  0.5463  0.4159  0.1755
  413MPD2    C3 6163   0.110   3.088  15.592  0.4181  0.4648  0.8159
  413MPD2    C4 6164   0.147   3.124  15.719 -0.3893 -0.3252  0.6394
  413MPD2    C5 6165   0.067   3.214  15.786 -0.7405  0.0970  0.5499
  413MPD2     H 6166   4.692   3.119  15.437  1.5339  0.1522 -0.0664
  413MPD2    H1 6167   0.232   3.077  15.765  0.4537  2.5649  2.0197
  413MPD2    H2 6168   4.625   3.351  15.792 -0.4622  0.8750 -0.5988
  413MPD2    H3 6169   0.093   3.230  15.890 -0.4287 -0.5771  0.5722
  413MPD2     N 6170   0.181   3.005  15.507 -0.3380  0.2403 -0.3283
  413MPD2    H5 6171   0.143   2.979  15.417 -1.3056 -1.9303  0.7159
  413MPD2    N1 6172   4.534   3.313  15.549  0.2159 -0.2016  0.4266
  413MPD2    H7 6173   4.502   3.393  15.603 -0.0622 -0.3316  0.4550
  414TMC3    C1 6174   0.331   2.840  15.450  0.7582  0.6241 -0.4769
  414TMC3    C2 6175   0.433   2.757  15.483 -0.1738  0.5262  0.1648
  414TMC3    C3 6176   0.438   2.637  15.409  0.1439 -0.3343  0.3846
  414TMC3    C4 6177   0.268   2.835  15.322 -0.0941  0.3120  0.1804
  414TMC3    C5 6178   0.279   2.720  15.247 -0.0428  0.0563 -0.1447
  414TMC3    C6 6179   0.350   2.612  15.300 -0.0135  0.5078 -0.0884
  414TMC3     C 6180   0.301   2.944  15.544  0.3432  0.8437  0.7106
  414TMC3     O 6181   0.375   2.966  15.638  0.1704 -0.4940 -0.4240
  414TMC3     H 6182   0.487   2.764  15.577 -2.1791  1.9438  1.2074
  414TMC3    H1 6183   0.203   2.913  15.282 -1.4942 -0.8390  0.2349
  414TMC3    H2 6184   0.378   2.529  15.236 -0.3365  1.0309 -0.9069
  414TMC3    C7 6185   0.192   2.715  15.128 -0.2643  0.5218  0.2753
  414TMC3    C8 6186   0.567   2.569  15.400 -0.0560 -0.4465 -0.4144
  414TMC3    O1 6187   0.087   2.783  15.136  0.1891 -0.1124 -0.2837
  414TMC3    O2 6188   0.585   2.481  15.315 -0.0598 -0.0277 -0.3783
  415TMC3    C1 6189   1.551   1.245  10.070  1.7074 -1.1991  0.5792
  415TMC3    C2 6190   1.653   1.273   9.987 -0.6274 -0.2551  0.0909
  415TMC3    C3 6191   1.665   1.212   9.863  0.3396 -0.3054 -0.2441
  415TMC3    C4 6192   1.448   1.165  10.031  1.0742 -0.2689 -0.1392
  415TMC3    C5 6193   1.452   1.113   9.904  0.3110  0.1855 -0.1091
  415TMC3    C6 6194   1.565   1.122   9.820 -0.7940  1.0118  0.8815
  415TMC3     C 6195   1.588   1.204  10.204 -0.3078 -0.2890 -0.1731
  415TMC3     O 6196   1.512   1.121  10.255 -0.1151  0.2916  0.3653
  415TMC3     H 6197   1.717   1.351  10.027  0.1044 -0.9984  0.3559
  415TMC3    H1 6198   1.364   1.150  10.098  0.0704  1.4121 -1.0279
  415TMC3    H2 6199   1.561   1.071   9.724  4.3644 -0.9519  1.7369
  415TMC3    C7 6200   1.337   1.041   9.856 -0.4421  0.2955  0.4211
  415TMC3    C8 6201   1.783   1.233   9.774  0.9431  0.0056 -0.3273
  415TMC3    O1 6202   1.333   1.010   9.737  0.1424 -0.4551 -0.1113
  415TMC3    O2 6203   1.788   1.161   9.676 -0.1139  0.0357 -0.5174
  416MPD2     C 6204   3.004   0.063  11.835 -0.4130 -0.4123  0.1519
  416MPD2    C1 6205   2.873   0.024  11.818  0.2390  0.7561  0.3517
  416MPD2    C2 6206   2.839   4.649  11.727 -0.1198 -0.2966  0.1574
  416MPD2    C3 6207   2.932   4.607  11.639  0.1870  0.1131 -0.7368
  416MPD2    C4 6208   3.057   4.658  11.642 -0.0255  0.3956  0.2955
  416MPD2    C5 6209   3.093   0.019  11.737  0.3292 -0.5540  0.3369
  416MPD2     H 6210   2.737   4.614  11.722 -0.6737  1.3296  0.0175
  416MPD2    H1 6211   3.132   4.636  11.567  0.7918  0.7290  1.0134
  416MPD2    H2 6212   3.040   0.137  11.906  3.2442 -1.0286 -1.0642
  416MPD2    H3 6213   3.195   0.054  11.739  0.7347 -1.7882  1.2582
  416MPD2     N 6214   2.911   4.514  11.536 -1.1652  0.0433  0.2225
  416MPD2    H5 6215   2.985   4.511  11.466 -1.7584 -1.8354 -0.3059
  416MPD2    N1 6216   2.770   0.078  11.906 -0.2866 -0.7653 -0.3747
  416MPD2    H7 6217   2.815   0.147  11.965  0.1832 -0.3236 -1.2523
  417TMC3    C1 6218   2.553   0.158  11.978  0.4724 -0.4849 -0.3867
  417TMC3    C2 6219   2.625   0.230  12.072 -0.4292  0.3806 -0.1211
  417TMC3    C3 6220   2.566   0.340  12.128 -0.1128  0.1997  0.2170
  417TMC3    C4 6221   2.428   0.185  11.937 -0.9352 -0.1796 -0.3028
  417TMC3    C5 6222   2.372   0.297  11.989  0.0114  0.2341  1.0528
  417TMC3    C6 6223   2.442   0.379  12.083 -0.0407  0.4176  0.0754
  417TMC3     C 6224   2.633   0.069  11.888 -1.2066 -0.0675 -0.1123
  417TMC3     O 6225   2.559   4.721  11.818 -0.6249 -0.0170 -0.3456
  417TMC3     H 6226   2.715   0.188  12.114  0.0634  1.6576  0.0875
  417TMC3    H1 6227   2.379   0.121  11.865 -1.3869 -0.2330  0.0478
  417TMC3    H2 6228   2.393   0.465  12.126  0.4068  1.2463 -1.0537
  417TMC3    C7 6229   2.308   0.369  11.882  0.2899 -0.6655  0.4023
  417TMC3    C8 6230   2.624   0.409  12.238 -0.0349  0.7019  0.0070
  417TMC3    O1 6231   2.326   0.491  11.868 -0.5229 -0.0956 -0.4199
  417TMC3    O2 6232   2.546   0.470  12.312 -0.4304 -0.0797 -0.4100
  418TMC3    C1 6233   0.999   0.949   0.702  0.0691 -0.5991  0.0431
  418TMC3    C2 6234   0.911   1.002   0.618  0.3937  0.2748  0.2835
  418TMC3    C3 6235   0.836   1.113   0.664  0.0420 -0.0726 -1.7505
  418TMC3    C4 6236   1.028   1.000   0.826  0.4376  0.1140  0.4058
  418TMC3    C5 6237   0.945   1.092   0.869  0.9030  0.2606 -0.0067
  418TMC3    C6 6238   0.847   1.158   0.794 -0.1567  0.0775 -0.1805
  418TMC3     C 6239   1.081   0.846   0.654  0.2810 -0.1813  0.5915
  418TMC3     O 6240   1.104   0.834   0.538  0.0639 -0.5377 -0.5260
  418TMC3     H 6241   0.891   0.960   0.520 -0.8744  0.6394  0.3816
  418TMC3    H1 6242   1.092   0.954   0.900 -0.2808  0.4946  1.2581
  418TMC3    H2 6243   0.779   1.231   0.838 -1.7363 -2.1145  1.0492
  418TMC3    C7 6244   0.941   1.111   1.012  0.1019 -0.9332 -0.5013
  418TMC3    C8 6245   0.766   1.192   0.568  0.0462 -0.4467 -0.3088
  418TMC3    O1 6246   0.977   1.024   1.085 -0.2354  0.2571 -0.2874
  418TMC3    O2 6247   0.770   1.312   0.597 -0.6951 -0.5659  0.0702
  419MPD2     C 6248   4.633   4.403  12.140  0.7196  1.0127 -1.2225
  419MPD2    C1 6249   0.024   4.461  12.186 -0.3420  0.2745 -0.1953
  419MPD2    C2 6250   0.026   4.493  12.323 -0.0985 -0.2928 -0.2690
  419MPD2    C3 6251   4.646   4.474  12.408  0.0959  0.6336 -0.5522
  419MPD2    C4 6252   4.527   4.429  12.352 -0.0508  0.2823  0.2295
  419MPD2    C5 6253   4.524   4.391  12.222  0.5416  0.1659 -0.2753
  419MPD2     H 6254   0.110   4.551  12.359 -0.3284 -1.0035  1.4358
  419MPD2    H1 6255   4.440   4.407  12.413 -0.9666 -0.7350 -1.4452
  419MPD2    H2 6256   4.613   4.373  12.037 -1.6529  0.6383 -0.6437
  419MPD2    H3 6257   4.436   4.341  12.182  0.8940 -3.2624  3.2474
  419MPD2     N 6258   4.651   4.537  12.536 -0.3306  0.7530 -0.3386
  419MPD2    H5 6259   0.016   4.581  12.561 -0.2369  1.1976 -1.4293
  419MPD2    N1 6260   0.137   4.485  12.105  0.1723  0.0024 -0.6884
  419MPD2    H7 6261   0.220   4.523  12.149 -0.0632  0.1062 -0.3358
  420TMC3    C1 6262   4.577   4.670  12.721 -0.1073 -0.9535 -0.1253
  420TMC3    C2 6263   4.644   0.053  12.677  0.1727 -0.7200  0.2684
  420TMC3    C3 6264   4.636   0.171  12.750 -0.7806 -0.3822  0.9771
  420TMC3    C4 6265   4.502   4.665  12.839  0.2673  0.3596 -0.3125
  420TMC3    C5 6266   4.498   0.059  12.905  0.6519 -0.1335 -0.2326
  420TMC3    C6 6267   4.568   0.170  12.871  0.0201  0.1440 -0.4879
  420TMC3     C 6268   4.548   4.566  12.621 -0.2743  0.4258 -0.5335
  420TMC3     O 6269   4.439   4.512  12.619  0.1053  0.4355 -0.5769
  420TMC3     H 6270   4.680   0.059  12.575  1.6953  1.4787  0.9359
  420TMC3    H1 6271   4.441   4.582  12.873 -0.9024  0.9822 -0.8915
  420TMC3    H2 6272   4.567   0.258  12.935 -0.4623  0.2455 -0.6301
  420TMC3    C7 6273   4.427   0.055  13.032  0.5082  0.2108  0.3671
  420TMC3    C8 6274   4.641   0.295  12.673 -0.4087 -0.0905 -0.4498
  420TMC3    O1 6275   4.415   4.675  13.093  0.2803 -0.0868 -0.2918
  420TMC3    O2 6276   4.559   0.382  12.709  0.2265  0.0698 -0.7333
  421TMC3    C1 6277   1.679   2.052  13.765  0.6377 -0.1422  1.0297
  421TMC3    C2 6278   1.750   2.141  13.846 -0.3913 -0.2048  0.5565
  421TMC3    C3 6279   1.836   2.087  13.939  0.3404 -0.2062  0.9130
  421TMC3    C4 6280   1.705   1.915  13.769 -0.1088 -0.1286 -0.2050
  421TMC3    C5 6281   1.805   1.873  13.856 -0.0260  0.4078 -0.7203
  421TMC3    C6 6282   1.869   1.952  13.951 -0.1321  0.3403  0.0668
  421TMC3     C 6283   1.590   2.108  13.666 -0.7011  0.5643 -0.0425
  421TMC3     O 6284   1.615   2.217  13.618  0.4689 -0.1766 -0.1358
  421TMC3     H 6285   1.738   2.247  13.828 -0.7358 -0.0556  1.6792
  421TMC3    H1 6286   1.654   1.845  13.704  1.6252  0.6163 -2.3691
  421TMC3    H2 6287   1.950   1.909  14.008 -2.7865 -0.5143  3.1923
  421TMC3    C7 6288   1.861   1.737  13.850 -0.5303  0.4651 -0.1078
  421TMC3    C8 6289   1.928   2.174  14.010  0.8403 -0.5195 -0.0728
  421TMC3    O1 6290   1.914   1.699  13.955 -0.4552  0.1564 -0.1415
  421TMC3    O2 6291   2.034   2.133  14.054  0.4533 -0.4127  0.1259
  422TMC3    C1 6292   4.003   3.170  12.515  0.0651 -0.8236 -0.6916
  422TMC3    C2 6293   3.973   3.275  12.597  0.5128  0.0576 -0.3805
  422TMC3    C3 6294   3.869   3.270  12.683 -0.1607  0.7088 -0.3224
  422TMC3    C4 6295   3.925   3.062  12.508 -0.3157 -0.4616  0.3367
  422TMC3    C5 6296   3.811   3.061  12.585  0.9393 -0.6825 -0.4639
  422TMC3    C6 6297   3.797   3.155  12.685 -0.4503 -1.3530  0.4428
  422TMC3     C 6298   4.078   3.205  12.404 -0.4062 -0.2094 -0.0644
  422TMC3     O 6299   4.079   3.321  12.359 -0.0273 -0.4490  0.3421
  422TMC3     H 6300   4.032   3.366  12.593 -1.4042  1.3832  1.8775
  422TMC3    H1 6301   3.937   2.984  12.434  1.0114 -0.0915  0.1466
  422TMC3    H2 6302   3.706   3.161  12.744 -0.6923  1.6239 -0.2501
  422TMC3    C7 6303   3.708   2.967  12.552  0.1663 -0.0178  0.0912
  422TMC3    C8 6304   3.813   3.396  12.712  0.0380 -0.0214  0.1667
  422TMC3    O1 6305   3.746   2.874  12.479 -0.1622  0.3126  0.7346
  422TMC3    O2 6306   3.761   3.410  12.821 -0.2004  0.3452 -0.1322
  423MPD2     C 6307   4.647   4.193   0.542 -0.5736  0.0014 -0.0765
  423MPD2    C1 6308   4.627   4.057   0.573  0.0629  0.5707 -0.3121
  423MPD2    C2 6309   4.705   3.964   0.504  0.1737 -0.1702  0.1048
  423MPD2    C3 6310   0.067   4.008   0.403 -0.5257 -0.4364  0.1210
  423MPD2    C4 6311   0.083   4.145   0.380 -0.7917 -0.2144 -0.0453
  423MPD2    C5 6312   0.018   4.239   0.449  0.2927  0.2377 -1.1384
  423MPD2     H 6313   4.690   3.859   0.524 -0.3236 -0.4045 -1.5331
  423MPD2    H1 6314   0.158   4.179   0.309  0.6715 -2.0659  0.5811
  423MPD2    H2 6315   4.580   4.265   0.588 -1.5963  0.4393 -2.2776
  423MPD2    H3 6316   0.046   4.343   0.446 -0.6009  0.5243  0.4517
  423MPD2     N 6317   0.149   3.923   0.330 -0.5528  0.2848  0.5071
  423MPD2    H5 6318   0.222   3.963   0.273 -0.6503 -0.1347  0.0874
  423MPD2    N1 6319   4.543   4.026   0.678 -0.7237  0.0342 -0.1447
  423MPD2    H7 6320   4.494   4.107   0.714 -1.6472 -0.0009 -1.3296
  424TMC3    C1 6321   4.414   3.917   0.838 -0.0792 -0.5936 -0.4462
  424TMC3    C2 6322   4.433   3.845   0.956 -0.1992 -0.4292  0.3140
  424TMC3    C3 6323   4.371   3.905   1.064 -0.2818 -0.4187 -0.5179
  424TMC3    C4 6324   4.321   4.017   0.827 -0.1177  0.2998 -0.2272
  424TMC3    C5 6325   4.241   4.050   0.933  0.0228 -0.1811 -0.8314
  424TMC3    C6 6326   4.280   4.008   1.058  0.2428  0.1445  0.3548
  424TMC3     C 6327   4.508   3.902   0.727  0.7385 -0.5331  0.1751
  424TMC3     O 6328   4.554   3.789   0.695 -0.0604  0.9534  0.3501
  424TMC3     H 6329   4.507   3.766   0.964 -1.1337 -1.2242  1.0312
  424TMC3    H1 6330   4.292   4.059   0.731  1.4328  3.0278  0.4999
  424TMC3    H2 6331   4.251   4.071   1.141  1.8151 -0.5631  1.4346
  424TMC3    C7 6332   4.149   4.157   0.912  0.4893 -0.2246  0.1922
  424TMC3    C8 6333   4.375   3.836   1.198 -0.0477  0.8373  0.2475
  424TMC3    O1 6334   4.166   4.228   0.816 -0.0375  0.4438 -0.4591
  424TMC3    O2 6335   4.390   3.717   1.184 -1.0607  0.4247  0.4855
  425MPD2     C 6336   3.576   3.210   0.142  0.2359  0.0713 -1.3570
  425MPD2    C1 6337   3.517   3.113   0.067  0.3713  0.3102 -0.2369
  425MPD2    C2 6338   3.393   3.141   0.010 -0.1753  0.7224  0.2327
  425MPD2    C3 6339   3.342   3.267   0.012  0.6901 -0.6550 -0.3104
  425MPD2    C4 6340   3.413   3.371   0.082  0.2799  0.5698 -0.0274
  425MPD2    C5 6341   3.532   3.341   0.144 -0.1644  0.4118  0.0791
  425MPD2     H 6342   3.336   3.063  17.656  0.9761 -0.3249  0.5785
  425MPD2    H1 6343   3.374   3.471   0.088 -0.0025  0.4458  0.2120
  425MPD2    H2 6344   3.666   3.188   0.200 -1.9527 -1.9719  1.2465
  425MPD2    H3 6345   3.594   3.416   0.191  0.2706  0.5077 -0.6587
  425MPD2     N 6346   3.214   3.280  17.645  0.0845 -0.2184  0.3618
  425MPD2    H5 6347   3.158   3.202  17.612  0.5045 -0.4620  0.2303
  425MPD2    N1 6348   3.581   2.988   0.059 -0.4694 -0.4150  1.0774
  425MPD2    H7 6349   3.661   2.973   0.121  2.6316 -1.6977 -3.1812
  426TMC3    C1 6350   3.613   2.764  17.676 -0.3642 -0.2329  0.2915
  426TMC3    C2 6351   3.596   2.673  17.570  0.9482 -0.2371  0.1265
  426TMC3    C3 6352   3.606   2.546  17.598 -0.1395  0.8122  0.9776
  426TMC3    C4 6353   3.664   2.722   0.098 -0.1825  0.0876  0.2376
  426TMC3    C5 6354   3.689   2.588   0.117  0.1562 -0.4129 -0.5964
  426TMC3    C6 6355   3.651   2.500   0.024  0.2848 -0.8724 -0.5223
  426TMC3     C 6356   3.537   2.889  17.674 -0.9690 -0.0628 -0.2101
  426TMC3     O 6357   3.456   2.887  17.585  0.3292  0.1320  0.5305
  426TMC3     H 6358   3.562   2.711  17.474 -2.1783 -0.7386  1.0344
  426TMC3    H1 6359   3.693   2.795   0.174 -1.7745  0.7288  0.2392
  426TMC3    H2 6360   3.636   2.393   0.039 -3.2428 -0.4851 -1.3100
  426TMC3    C7 6361   3.751   2.538   0.242  0.0013 -0.4359  0.2916
  426TMC3    C8 6362   3.594   2.447  17.490 -0.2419  0.0009 -0.6582
  426TMC3    O1 6363   3.823   2.440   0.230 -0.0429  0.3402 -0.9191
  426TMC3    O2 6364   3.625   2.331  17.519 -0.0358 -0.0139 -0.2969
  427MPD2     C 6365   2.102   4.609  14.746  0.5282  0.1018 -0.6560
  427MPD2    C1 6366   2.133   4.686  14.854 -0.0282 -0.0623  0.7257
  427MPD2    C2 6367   2.085   0.092  14.873 -0.3256  0.7701 -0.0600
  427MPD2    C3 6368   2.000   0.142  14.775 -0.1912 -0.4296 -0.7971
  427MPD2    C4 6369   1.980   0.061  14.658 -0.4235 -0.0288  0.3370
  427MPD2    C5 6370   2.030   4.663  14.642 -0.0595  0.0848  0.5014
  427MPD2     H 6371   2.109   0.145  14.964  1.6699  0.4829 -0.4166
  427MPD2    H1 6372   1.920   0.088  14.572  1.4806  1.5413 -0.4745
  427MPD2    H2 6373   2.159   4.522  14.714  2.0447  1.1268 -0.7325
  427MPD2    H3 6374   2.019   4.611  14.547 -0.1061 -1.7976  1.5448
  427MPD2     N 6375   1.939   0.261  14.794  0.4849 -0.2940 -0.6727
  427MPD2    H5 6376   1.965   0.306  14.882  0.0627 -1.0597 -0.1525
  427MPD2    N1 6377   2.219   4.641  14.956 -0.1872 -0.1518 -0.1553
  427MPD2    H7 6378   2.271   4.712  15.006  0.2585 -0.0645 -0.7384
  428TMC3    C1 6379   2.328   4.497  15.105 -0.2614  0.4485  0.1470
  428TMC3    C2 6380   2.323   4.367  15.144 -0.1813  0.0518 -0.9846
  428TMC3    C3 6381   2.432   4.312  15.202 -0.5426 -0.5825  0.3923
  428TMC3    C4 6382   2.423   4.585  15.131 -0.0209 -0.3870 -0.1063
  428TMC3    C5 6383   2.529   4.525  15.197  0.2782 -0.3821 -0.4257
  428TMC3    C6 6384   2.534   4.390  15.234  0.2508 -0.2755  0.5335
  428TMC3     C 6385   2.252   4.513  14.983 -0.3524 -0.4587  0.0487
  428TMC3     O 6386   2.201   4.410  14.936 -0.4685  0.3167 -1.1666
  428TMC3     H 6387   2.238   4.303  15.125  0.3193 -0.7258 -0.6050
  428TMC3    H1 6388   2.425   4.689  15.102 -0.5066 -0.4923 -0.5141
  428TMC3    H2 6389   2.609   4.352  15.302  1.3336  0.3560 -0.3057
  428TMC3    C7 6390   2.621   4.616  15.260  0.3932 -0.2588 -0.0208
  428TMC3    C8 6391   2.447   4.176  15.244 -0.0378  0.2153 -0.0369
  428TMC3    O1 6392   2.594   0.011  15.263  0.5566 -0.2151 -0.9345
  428TMC3    O2 6393   2.551   4.128  15.292 -0.5087 -0.3005 -0.0209
  429MPD2     C 6394   3.193   0.780   0.160 -0.2682  0.3956  0.3305
  429MPD2    C1 6395   3.276   0.710   0.073 -0.3079  0.5963 -0.1253
  429MPD2    C2 6396   3.352   0.786  17.679  0.0940 -0.4804 -0.0703
  429MPD2    C3 6397   3.344   0.920  17.661  0.3893  0.1478  0.6253
  429MPD2    C4 6398   3.254   0.985   0.046  0.1096  0.4004  0.2257
  429MPD2    C5 6399   3.178   0.912   0.133 -0.2147  0.6178  0.3914
  429MPD2     H 6400   3.416   0.722  17.619 -1.1483  0.0446 -1.9769
  429MPD2    H1 6401   3.230   1.090   0.040 -1.5882  0.1273  2.0223
  429MPD2    H2 6402   3.121   0.734   0.226  1.8763 -2.1096  0.8913
  429MPD2    H3 6403   3.104   0.957   0.199  1.9024  0.0828  3.1039
  429MPD2     N 6404   3.422   0.985  17.561  0.0425  0.2114 -0.4682
  429MPD2    H5 6405   3.493   0.927  17.516  0.6395  1.3384 -0.9915
  429MPD2    N1 6406   3.294   0.569   0.068 -0.4013 -0.5738  0.0017
  429MPD2    H7 6407   3.363   0.532   0.003  0.0932  1.4066 -0.5982
  430TMC3    C1 6408   3.491   1.175  17.434  0.1036  0.1850 -0.3379
  430TMC3    C2 6409   3.457   1.292  17.375  0.4147 -0.0518 -0.0178
  430TMC3    C3 6410   3.548   1.367  17.300  0.9400 -0.0381 -0.7386
  430TMC3    C4 6411   3.612   1.119  17.408 -0.3518 -0.2571 -0.6896
  430TMC3    C5 6412   3.702   1.184  17.331 -0.3552  0.1749  0.5292
  430TMC3    C6 6413   3.671   1.309  17.281  0.3397 -0.0803 -0.7322
  430TMC3     C 6414   3.403   1.122  17.536  0.3013  0.1372  0.8327
  430TMC3     O 6415   3.295   1.180  17.536  0.5046 -0.3356 -0.1014
  430TMC3     H 6416   3.353   1.321  17.386  0.5718  0.5059 -0.0266
  430TMC3    H1 6417   3.640   1.035  17.470 -1.9409 -0.8266 -0.7608
  430TMC3    H2 6418   3.741   1.368  17.223  2.0921  1.8253  3.3447
  430TMC3    C7 6419   3.772   1.094  17.248 -0.1614  0.2686  0.1192
  430TMC3    C8 6420   3.499   1.406  17.169 -0.3839 -0.3694 -0.9984
  430TMC3    O1 6421   3.780   0.976  17.278  0.0373 -0.4597 -0.3835
  430TMC3    O2 6422   3.565   1.373  17.073  0.4225  0.3087 -0.1931
  431MPD2     C 6423   0.460   0.312  12.612  0.7039  0.3999  0.3805
  431MPD2    C1 6424   0.489   0.371  12.495  0.2234  0.1065  0.2539
  431MPD2    C2 6425   0.459   0.308  12.373 -0.3320  0.1245 -0.5627
  431MPD2    C3 6426   0.403   0.181  12.366  0.0455 -0.4759  0.2200
  431MPD2    C4 6427   0.382   0.120  12.483 -0.2752  0.1820  0.0255
  431MPD2    C5 6428   0.406   0.185  12.605 -0.1100 -0.2250  0.6767
  431MPD2     H 6429   0.456   0.364  12.280 -1.8015 -0.5480 -0.9232
  431MPD2    H1 6430   0.351   0.017  12.492  2.3577 -0.6097 -0.0316
  431MPD2    H2 6431   0.481   0.365  12.705 -0.2144  0.2948  0.6429
  431MPD2    H3 6432   0.389   0.131  12.697 -1.6903 -0.2537  0.3651
  431MPD2     N 6433   0.371   0.131  12.242 -0.0992 -0.3872 -0.1750
  431MPD2    H5 6434   0.343   0.034  12.249 -0.2714 -0.4556 -1.8104
  431MPD2    N1 6435   0.549   0.499  12.494  0.2526  0.5503  0.6911
  431MPD2    H7 6436   0.591   0.532  12.407  0.1830 -1.8760 -0.2482
  432TMC3    C1 6437   0.368   0.067  12.019  0.2140  0.3479 -0.9927
  432TMC3    C2 6438   0.421   0.083  11.893  0.1712 -0.6052  0.1521
  432TMC3    C3 6439   0.375   0.003  11.793  0.3981  0.0649 -0.7651
  432TMC3    C4 6440   0.274   4.696  12.056  0.0977  0.1907  0.8583
  432TMC3    C5 6441   0.228   4.618  11.953 -0.0271 -0.0606 -0.5793
  432TMC3    C6 6442   0.266   4.643  11.817 -0.2335  0.0567 -0.7691
  432TMC3     C 6443   0.408   0.166  12.115 -0.3356  0.4074 -0.3473
  432TMC3     O 6444   0.484   0.251  12.077 -0.2553  0.7702  0.1153
  432TMC3     H 6445   0.481   0.169  11.867 -0.2927 -0.9733 -2.1309
  432TMC3    H1 6446   0.222   4.703  12.151  0.9032  0.3150  1.2936
  432TMC3    H2 6447   0.216   4.580  11.744  0.2566  0.2269 -1.2457
  432TMC3    C7 6448   0.121   4.523  11.977 -0.0184 -0.4763 -0.8384
  432TMC3    C8 6449   0.422   0.013  11.657 -0.1735  0.2837  0.3255
  432TMC3    O1 6450   0.029   4.509  11.899 -0.3035  0.2380 -0.1080
  432TMC3    O2 6451   0.355   4.673  11.574  0.3432 -0.0343  0.0307
  433MPD2     C 6452   3.635   4.059  10.476  0.2713 -1.0605 -0.3517
  433MPD2    C1 6453   3.747   3.997  10.519 -0.1818  0.2803  0.0173
  433MPD2    C2 6454   3.785   4.011  10.647  0.5214 -0.3143  0.1916
  433MPD2    C3 6455   3.707   4.075  10.740 -0.0472  1.1920  0.1126
  433MPD2    C4 6456   3.596   4.136  10.701 -0.5588 -0.1035  0.2762
  433MPD2    C5 6457   3.561   4.129  10.570  0.1266  0.0616  0.6083
  433MPD2     H 6458   3.876   3.963  10.679  1.2741  2.7700  2.6110
  433MPD2    H1 6459   3.528   4.182  10.772  0.0217 -0.1515  0.8556
  433MPD2    H2 6460   3.599   4.042  10.375 -0.2548 -0.9590 -0.1840
  433MPD2    H3 6461   3.474   4.177  10.525  1.0002  1.2341  0.1917
  433MPD2     N 6462   3.757   4.079  10.874 -0.8407 -0.0130  0.5967
  433MPD2    H5 6463   3.844   4.028  10.885 -2.0387 -1.9829  0.9287
  433MPD2    N1 6464   3.817   3.910  10.430 -0.4516  0.5692  0.1558
  433MPD2    H7 6465   3.790   3.901  10.333  0.3521 -0.6422  0.0448
  434TMC3    C1 6466   3.996   3.766  10.356  0.8084  0.6873  0.3774
  434TMC3    C2 6467   4.114   3.721  10.407  0.6167 -0.7913  0.4428
  434TMC3    C3 6468   4.142   3.589  10.397 -0.0785  0.0145  0.1996
  434TMC3    C4 6469   3.923   3.695  10.273 -0.1241  0.0153 -0.2735
  434TMC3    C5 6470   3.955   3.567  10.256 -0.4628 -0.6028  0.1297
  434TMC3    C6 6471   4.058   3.512  10.324  0.0419  0.6408 -0.9965
  434TMC3     C 6472   3.927   3.832  10.468  0.0143 -0.3165 -0.9237
  434TMC3     O 6473   3.989   3.817  10.573  0.7863 -0.8418  0.3296
  434TMC3     H 6474   4.180   3.790  10.459 -0.3079  1.6207 -1.6091
  434TMC3    H1 6475   3.829   3.736  10.236 -0.7259  1.4435  2.8928
  434TMC3    H2 6476   4.076   3.406  10.308 -1.8137  0.0652  0.8159
  434TMC3    C7 6477   3.851   3.502  10.190  0.1684 -0.3141  0.2878
  434TMC3    C8 6478   4.229   3.515  10.490 -0.9127  0.3010 -0.7060
  434TMC3    O1 6479   3.760   3.560  10.130 -0.0179 -0.1045 -0.4972
  434TMC3    O2 6480   4.207   3.400  10.515 -0.3045 -0.2083 -0.0004
  435MPD2     C 6481   0.650   3.949  15.598 -0.5549  0.9469  0.2238
  435MPD2    C1 6482   0.653   3.953  15.729 -0.6052 -0.2200  0.0282
  435MPD2    C2 6483   0.760   3.905  15.797  0.0890  0.4306 -0.0840
  435MPD2    C3 6484   0.867   3.841  15.736  0.1039 -0.1802 -0.2309
  435MPD2    C4 6485   0.863   3.833  15.600 -0.1887  0.3059 -0.0472
  435MPD2    C5 6486   0.758   3.889  15.535  0.0060  0.0693 -0.1609
  435MPD2     H 6487   0.761   3.913  15.905  0.7366  3.2485 -0.2914
  435MPD2    H1 6488   0.945   3.789  15.546  0.9733  3.0782 -0.5094
  435MPD2    H2 6489   0.569   3.985  15.537 -0.7793  1.6055  0.9135
  435MPD2    H3 6490   0.755   3.901  15.427 -0.0208 -0.3774 -0.2087
  435MPD2     N 6491   0.969   3.776  15.821 -0.6351 -0.6138  0.5218
  435MPD2    H5 6492   0.962   3.789  15.921  0.7629 -0.4751  0.5959
  435MPD2    N1 6493   0.540   3.993  15.803  0.1213  0.2761 -0.3018
  435MPD2    H7 6494   0.547   3.975  15.903  1.5261  0.4832 -0.3605
  436TMC3    C1 6495   0.197   4.064  16.025  0.4677  0.3970 -0.7287
  436TMC3    C2 6496   0.293   4.020  15.944  0.2645  0.4331 -0.0442
  436TMC3    C3 6497   0.353   4.114  15.870  0.8609 -0.1036  0.5729
  436TMC3    C4 6498   0.154   4.196  16.030 -0.8151 -0.6696 -0.2153
  436TMC3    C5 6499   0.216   4.292  15.950  0.3455  0.4062 -0.7061
  436TMC3    C6 6500   0.316   4.247  15.868 -0.1134  0.1994  0.2263
  436TMC3     C 6501   0.148   3.968  16.114  0.9074  0.1580 -0.0486
  436TMC3     O 6502   0.131   3.852  16.080 -0.1220 -0.1045  0.4905
  436TMC3     H 6503   0.338   3.922  15.930  1.0097  0.6471  0.8413
  436TMC3    H1 6504   0.073   4.217  16.098  0.6511 -2.2032  2.0138
  436TMC3    H2 6505   0.367   4.320  15.806 -1.7805  1.1472 -0.0407
  436TMC3    C7 6506   0.199   4.429  15.984 -0.2424 -0.4148  0.7605
  436TMC3    C8 6507   0.434   4.069  15.758 -0.3039 -0.2096 -0.2028
  436TMC3    O1 6508   0.291   4.507  15.976 -0.3027  0.2144 -0.4357
  436TMC3    O2 6509   0.419   4.125  15.652  0.6874  0.4789  0.3262
  437TMC3    C1 6510   4.675   1.417  12.004  0.2138  0.2815 -0.4068
  437TMC3    C2 6511   4.653   1.485  11.889 -0.2905 -0.1779 -0.3732
  437TMC3    C3 6512   4.715   1.453  11.775  0.6342 -0.2228  0.0376
  437TMC3    C4 6513   0.061   1.328  12.012  0.2975  0.3977 -0.0264
  437TMC3    C5 6514   0.124   1.303  11.891  0.0469 -0.5651  0.2514
  437TMC3    C6 6515   0.100   1.368  11.770  0.3211 -0.0999  0.6792
  437TMC3     C 6516   4.630   1.490  12.121 -1.0768 -0.1564 -0.3047
  437TMC3     O 6517   4.564   1.590  12.099  0.4141  0.6514 -0.1195
  437TMC3     H 6518   4.566   1.551  11.886  1.6508  2.4405  0.6042
  437TMC3    H1 6519   0.081   1.265  12.098 -1.8954  0.7509  0.7420
  437TMC3    H2 6520   0.163   1.364  11.681 -0.4220  2.4123  0.0352
  437TMC3    C7 6521   0.273   1.272  11.905  0.3303  1.1352 -0.4300
  437TMC3    C8 6522   4.687   1.531  11.659  0.8458  0.2556 -0.6554
  437TMC3    O1 6523   0.333   1.253  11.803  0.7292  0.0111 -0.3692
  437TMC3    O2 6524   4.667   1.470  11.556 -0.1766 -0.1494  0.5842
  438MPD2     C 6525   1.325   1.792  16.861  0.8913 -0.5843 -0.9278
  438MPD2    C1 6526   1.405   1.729  16.954 -0.2048 -0.5853  0.6120
  438MPD2    C2 6527   1.360   1.714  17.085  0.2975 -0.0431  0.6106
  438MPD2    C3 6528   1.237   1.752  17.120 -0.5118 -0.7451 -0.1485
  438MPD2    C4 6529   1.149   1.814  17.027 -0.1945 -0.0962 -0.0998
  438MPD2    C5 6530   1.200   1.835  16.902  0.7281 -0.8231  0.3731
  438MPD2     H 6531   1.428   1.662  17.151  0.1008 -1.6458 -0.4335
  438MPD2    H1 6532   1.043   1.831  17.036  0.4442  2.5757  2.2574
  438MPD2    H2 6533   1.363   1.818  16.763  0.1718 -0.6228 -1.2110
  438MPD2    H3 6534   1.137   1.895  16.838  2.1599 -1.6334 -1.7941
  438MPD2     N 6535   1.186   1.728  17.253  0.2711  0.1117 -0.0261
  438MPD2    H5 6536   1.247   1.677  17.317 -0.4831  1.1039  1.4897
  438MPD2    N1 6537   1.539   1.701  16.932 -0.0959 -0.4253 -0.6019
  438MPD2    H7 6538   1.606   1.697  17.008 -1.1344  0.6073  0.3626
  439TMC3    C1 6539   1.737   1.729  16.827  0.0444 -0.6043 -0.2831
  439TMC3    C2 6540   1.808   1.634  16.760  0.1125 -0.3011 -0.2335
  439TMC3    C3 6541   1.944   1.647  16.780  0.0489 -0.4904  0.4340
  439TMC3    C4 6542   1.779   1.814  16.923  0.4420  0.1145 -0.3434
  439TMC3    C5 6543   1.913   1.821  16.942  0.4231  0.4958 -0.8433
  439TMC3    C6 6544   1.994   1.736  16.872  0.4955  0.5485  0.1969
  439TMC3     C 6545   1.595   1.713  16.810  0.0093 -0.3792  0.5052
  439TMC3     O 6546   1.545   1.713  16.699 -0.4153 -0.1626 -0.0404
  439TMC3     H 6547   1.770   1.593  16.667  0.4021 -1.3985  0.1351
  439TMC3    H1 6548   1.709   1.868  16.985 -0.1027  1.0212 -1.7414
  439TMC3    H2 6549   2.100   1.738  16.898 -0.3230  0.0882  3.6409
  439TMC3    C7 6550   1.967   1.852  17.070  0.0738  0.2169  0.3627
  439TMC3    C8 6551   2.037   1.546  16.725  0.5142  0.1940 -0.1761
  439TMC3    O1 6552   2.073   1.806  17.107 -0.0125 -0.1443 -0.6748
  439TMC3    O2 6553   2.154   1.567  16.755 -0.1751 -0.6274  0.1337
  440MPD2     C 6554   0.425   2.112  14.989  0.1667  0.0374  0.2431
  440MPD2    C1 6555   0.495   2.172  15.094 -0.3328 -0.6783 -0.0205
  440MPD2    C2 6556   0.630   2.197  15.078 -0.2340 -0.0306  0.2213
  440MPD2    C3 6557   0.695   2.142  14.960  0.2229  0.0200  0.0709
  440MPD2    C4 6558   0.621   2.080  14.857  0.1022  0.0910  0.2455
  440MPD2    C5 6559   0.485   2.066  14.869 -0.5621  0.2633 -0.0040
  440MPD2     H 6560   0.690   2.246  15.154  0.6163 -0.9245  0.1212
  440MPD2    H1 6561   0.677   2.049  14.769 -1.8336  0.0257 -0.9634
  440MPD2    H2 6562   0.317   2.098  14.993  0.3241 -0.7570  1.7058
  440MPD2    H3 6563   0.429   2.019  14.789 -0.0171 -1.1738  0.4605
  440MPD2     N 6564   0.828   2.164  14.931 -0.2989  0.3763  0.3767
  440MPD2    H5 6565   0.857   2.099  14.860 -1.5752 -0.4051  0.5568
  440MPD2    N1 6566   0.436   2.222  15.212 -0.0163 -0.3611  0.3802
  440MPD2    H7 6567   0.493   2.295  15.254 -0.7467 -0.8030  2.1213
  441TMC3    C1 6568   1.043   2.216  14.980  0.1182 -0.6261  0.1568
  441TMC3    C2 6569   1.119   2.325  15.025  0.0301  0.9879 -0.5513
  441TMC3    C3 6570   1.202   2.303  15.131 -0.2842 -0.3614 -0.0958
  441TMC3    C4 6571   1.066   2.090  15.022 -0.9894 -0.6222  0.0953
  441TMC3    C5 6572   1.141   2.070  15.135  0.0833  0.1111 -0.7108
  441TMC3    C6 6573   1.221   2.174  15.182 -0.6128 -0.8862 -0.5367
  441TMC3     C 6574   0.911   2.260  14.991 -0.4353 -0.0466  0.0894
  441TMC3     O 6575   0.884   2.354  15.063 -0.2471 -0.0764  0.2302
  441TMC3     H 6576   1.098   2.426  14.995 -2.7676  0.1692 -1.3317
  441TMC3    H1 6577   0.999   2.009  14.994 -1.4439 -0.6864  1.3464
  441TMC3    H2 6578   1.301   2.159  15.253 -0.1916  2.4488 -0.3366
  441TMC3    C7 6579   1.075   2.017  15.252 -0.3216 -0.0082 -0.0676
  441TMC3    C8 6580   1.188   2.396  15.237 -0.4856  0.1226  0.4102
  441TMC3    O1 6581   1.139   2.045  15.353  0.3010  0.2584 -0.2817
  441TMC3    O2 6582   1.277   2.413  15.319 -0.2121  0.2856  0.2672
  442MPD2     C 6583   3.400   3.190  16.307 -0.4203 -0.0716  0.4415
  442MPD2    C1 6584   3.296   3.150  16.390 -0.8253  0.6448  0.2240
  442MPD2    C2 6585   3.298   3.015  16.427  1.1690 -0.5466  0.0695
  442MPD2    C3 6586   3.411   2.933  16.411  0.4205 -0.2283  0.4123
  442MPD2    C4 6587   3.521   2.989  16.347 -0.4401 -0.1767 -0.1847
  442MPD2    C5 6588   3.510   3.116  16.297 -0.2339 -0.3984 -0.3865
  442MPD2     H 6589   3.213   2.977  16.483  0.2294  2.1936  0.5056
  442MPD2    H1 6590   3.618   2.941  16.335 -0.9927 -0.9938 -1.3785
  442MPD2    H2 6591   3.405   3.292  16.272  2.5052  0.0934  1.3292
  442MPD2    H3 6592   3.592   3.153  16.237  0.2883 -0.6488  0.1775
  442MPD2     N 6593   3.422   2.793  16.437  0.3900  0.0516  0.4546
  442MPD2    H5 6594   3.499   2.742  16.394  0.7761  0.1370  1.0374
  442MPD2    N1 6595   3.187   3.229  16.424  0.2139  0.0617 -0.1885
  442MPD2    H7 6596   3.101   3.185  16.457 -0.6877 -0.6314 -3.4702
  443TMC3    C1 6597   3.045   3.415  16.423 -0.3396  0.1450  0.3784
  443TMC3    C2 6598   3.004   3.522  16.348  0.3363 -0.2365 -0.5289
  443TMC3    C3 6599   2.878   3.577  16.377  0.3012  1.1748 -0.6574
  443TMC3    C4 6600   2.964   3.366  16.523  0.3066  0.3473  0.3282
  443TMC3    C5 6601   2.839   3.422  16.543  0.5627 -0.5442  0.1753
  443TMC3    C6 6602   2.792   3.532  16.476 -0.5272  0.5959 -0.0110
  443TMC3     C 6603   3.172   3.362  16.392  0.5548 -0.3294 -0.4141
  443TMC3     O 6604   3.250   3.437  16.332 -0.3165 -0.3920  0.2651
  443TMC3     H 6605   3.063   3.560  16.266 -1.0682  1.1584 -0.8876
  443TMC3    H1 6606   3.006   3.290  16.587  1.4393  0.4381 -0.3071
  443TMC3    H2 6607   2.695   3.580  16.477 -0.8250 -0.0093  0.0119
  443TMC3    C7 6608   2.743   3.362  16.632  0.6131 -0.4027  0.4196
  443TMC3    C8 6609   2.819   3.653  16.274  0.2020 -0.4319 -0.2545
  443TMC3    O1 6610   2.796   3.290  16.720  0.9449  0.1461  1.0487
  443TMC3    O2 6611   2.865   3.762  16.260 -0.5638  0.5194 -0.7253
  444MPD2     C 6612   3.561   1.888  17.395  0.5071  0.0939 -0.1952
  444MPD2    C1 6613   3.525   1.969  17.296  0.7923  0.2791 -1.0706
  444MPD2    C2 6614   3.594   1.958  17.172 -0.4699  0.5721 -0.3544
  444MPD2    C3 6615   3.689   1.863  17.150  0.2147  0.2805  0.2704
  444MPD2    C4 6616   3.723   1.781  17.251  0.2792  0.2203  0.4647
  444MPD2    C5 6617   3.654   1.786  17.365  0.3240  0.2050 -0.4601
  444MPD2     H 6618   3.574   2.029  17.092 -1.6935  1.9767  1.1907
  444MPD2    H1 6619   3.796   1.701  17.241 -0.5683 -0.4046 -0.7225
  444MPD2    H2 6620   3.520   1.893  17.496  0.2653 -0.0106 -0.2888
  444MPD2    H3 6621   3.677   1.717  17.446 -1.7022 -0.1652 -0.1955
  444MPD2     N 6622   3.748   1.866  17.019  0.5923 -0.3702  0.5649
  444MPD2    H5 6623   3.702   1.916  16.944 -0.7013  0.7960  2.1209
  444MPD2    N1 6624   3.431   2.070  17.330  0.3303  0.2042  0.9783
  444MPD2    H7 6625   3.428   2.089  17.429 -2.3293 -1.1439  1.1575
  445TMC3    C1 6626   3.905   1.811  16.852  0.6217 -0.1619 -0.2206
  445TMC3    C2 6627   3.816   1.798  16.747  0.1567  0.0620  0.0751
  445TMC3    C3 6628   3.860   1.751  16.623 -0.6828 -0.5120  0.1719
  445TMC3    C4 6629   4.036   1.797  16.839 -0.2237 -0.6189  0.3896
  445TMC3    C5 6630   4.081   1.753  16.721  0.0574 -0.1523 -0.1958
  445TMC3    C6 6631   4.000   1.730  16.610 -0.1270 -0.0333 -0.9594
  445TMC3     C 6632   3.865   1.806  16.987 -0.4780 -0.4335 -0.2867
  445TMC3     O 6633   3.944   1.750  17.062  0.0436 -0.4034  0.5730
  445TMC3     H 6634   3.709   1.803  16.764 -0.2413 -0.5382 -2.3213
  445TMC3    H1 6635   4.105   1.815  16.920 -0.3159  1.4163  0.0088
  445TMC3    H2 6636   4.055   1.709  16.519  1.5489 -1.5072  0.4100
  445TMC3    C7 6637   4.223   1.746  16.697  0.3473 -0.2476  0.1956
  445TMC3    C8 6638   3.772   1.737  16.510  0.5161 -0.2700  0.1240
  445TMC3    O1 6639   4.292   1.800  16.781 -0.0177 -0.1555  0.0641
  445TMC3    O2 6640   3.658   1.781  16.528  0.1137  0.5900 -0.0472
  446MPD2     C 6641   3.873   3.164  10.901 -0.5493 -0.1905  0.7239
  446MPD2    C1 6642   3.805   3.268  10.928  0.2133  0.5029  0.2063
  446MPD2    C2 6643   3.850   3.403  10.921  0.2356 -0.3417 -0.0107
  446MPD2    C3 6644   3.984   3.409  10.903  0.2799 -0.2701  0.5153
  446MPD2    C4 6645   4.067   3.302  10.865 -0.0018  0.0527 -0.1867
  446MPD2    C5 6646   4.000   3.177  10.862 -0.4980 -0.3171  0.6307
  446MPD2     H 6647   3.787   3.489  10.942  1.3283  0.3502  0.4817
  446MPD2    H1 6648   4.175   3.310  10.857 -0.0364 -0.4654 -1.2031
  446MPD2    H2 6649   3.834   3.063  10.900 -0.4164 -0.2564  2.5005
  446MPD2    H3 6650   4.058   3.087  10.844  0.6099  0.1824  1.6836
  446MPD2     N 6651   4.043   3.541  10.920  0.3004 -0.1781  0.1570
  446MPD2    H5 6652   3.983   3.623  10.919 -0.1516 -0.5199 -1.0728
  446MPD2    N1 6653   3.669   3.260  10.972  0.1799 -0.2350 -0.1364
  446MPD2    H7 6654   3.607   3.339  10.962  0.4475  0.0462  0.4348
  447TMC3    C1 6655   4.219   3.702  10.947  0.1734 -0.0880 -0.0085
  447TMC3    C2 6656   4.176   3.771  10.840 -0.2231 -0.2256  0.3522
  447TMC3    C3 6657   4.263   3.863  10.787 -0.1359  0.2685 -0.0767
  447TMC3    C4 6658   4.339   3.724  11.007 -0.0673  0.0377  0.0686
  447TMC3    C5 6659   4.426   3.810  10.941 -0.5337 -0.0464  0.5317
  447TMC3    C6 6660   4.395   3.875  10.828  0.3160 -0.7057  0.3637
  447TMC3     C 6661   4.174   3.554  10.943 -0.2560  0.1966  0.1633
  447TMC3     O 6662   4.253   3.471  10.988  0.6669 -0.0161  0.1072
  447TMC3     H 6663   4.072   3.756  10.814  0.2527 -1.7026 -0.7127
  447TMC3    H1 6664   4.374   3.655  11.084 -0.6213 -1.0902 -0.6961
  447TMC3    H2 6665   4.454   3.955  10.785 -1.6678  0.8915  0.5860
  447TMC3    C7 6666   4.563   3.809  10.982 -0.6945 -0.5555 -0.3105
  447TMC3    C8 6667   4.211   3.980  10.719 -0.5805 -0.0750  0.2338
  447TMC3    O1 6668   4.656   3.840  10.910  0.1827  0.5471 -0.6031
  447TMC3    O2 6669   4.265   4.001  10.608  0.3229 -0.0113  0.2817
  448TMC3    C1 6670   2.261   3.587  17.028 -0.0630 -0.1166  0.2675
  448TMC3    C2 6671   2.201   3.470  17.005  0.6384  0.5681  0.0470
  448TMC3    C3 6672   2.210   3.381  17.112 -0.9277  0.0880  0.0607
  448TMC3    C4 6673   2.316   3.632  17.144  0.8872  0.5061  0.1859
  448TMC3    C5 6674   2.317   3.539  17.243  0.1747 -0.4138  0.0581
  448TMC3    C6 6675   2.265   3.411  17.231  0.4851  0.2005  0.3858
  448TMC3     C 6676   2.289   3.651  16.908  0.4731  0.0420  0.8375
  448TMC3     O 6677   2.206   3.652  16.822 -0.2353  0.1876  0.3658
  448TMC3     H 6678   2.173   3.445  16.903 -2.2455  0.3540  0.8736
  448TMC3    H1 6679   2.364   3.728  17.160  1.7057 -0.2132  2.0857
  448TMC3    H2 6680   2.273   3.344  17.316  0.5262 -0.1446  0.1097
  448TMC3    C7 6681   2.371   3.579  17.377 -0.5388 -0.2316 -0.1667
  448TMC3    C8 6682   2.134   3.254  17.108 -0.4974 -0.0582  0.6085
  448TMC3    O1 6683   2.392   3.698  17.394  0.0045  0.0758 -0.1835
  448TMC3    O2 6684   2.145   3.188  17.212  0.1383 -0.7941 -0.4337
  449MPD2     C 6685   3.288   1.726  13.993  0.2643 -0.2857  0.0927
  449MPD2    C1 6686   3.225   1.832  13.938 -0.2332  0.7311  0.0258
  449MPD2    C2 6687   3.096   1.815  13.904  0.0174 -0.0168  0.5089
  449MPD2    C3 6688   3.029   1.694  13.917 -0.1522  0.2379  0.1030
  449MPD2    C4 6689   3.089   1.584  13.970  0.3984  0.1345  0.5493
  449MPD2    C5 6690   3.216   1.609  14.009 -0.7071 -0.1967  0.1939
  449MPD2     H 6691   3.050   1.898  13.851 -0.1449  0.7475  1.8669
  449MPD2    H1 6692   3.046   1.485  13.979  0.5980  0.0685  0.7696
  449MPD2    H2 6693   3.391   1.717  14.024 -0.2843 -2.2067  1.3192
  449MPD2    H3 6694   3.266   1.526  14.057  0.2795  0.5423  0.4171
  449MPD2     N 6695   2.902   1.685  13.857  0.6601  1.2704 -0.2778
  449MPD2    H5 6696   2.868   1.771  13.816  1.0107  2.6598  2.3666
  449MPD2    N1 6697   3.285   1.950  13.909  0.1453  0.4226  0.0100
  449MPD2    H7 6698   3.226   2.015  13.858 -1.5328  0.1363  1.5934
  450TMC3    C1 6699   3.443   2.106  13.852 -0.1817 -0.6680  0.2571
  450TMC3    C2 6700   3.516   2.091  13.732  0.0531  0.3575 -0.5447
  450TMC3    C3 6701   3.475   2.172  13.627 -0.8168 -0.1150 -0.1646
  450TMC3    C4 6702   3.334   2.184  13.857 -0.0788 -0.2462  0.0350
  450TMC3    C5 6703   3.295   2.256  13.748 -0.7279  0.2927 -0.1223
  450TMC3    C6 6704   3.363   2.247  13.631  0.4098  0.0466  0.1291
  450TMC3     C 6705   3.422   1.977  13.908  0.5389 -0.0518 -0.0744
  450TMC3     O 6706   3.522   1.919  13.953 -0.0689  0.3982  0.3101
  450TMC3     H 6707   3.601   2.024  13.733 -0.3745 -0.1424  1.3337
  450TMC3    H1 6708   3.265   2.196  13.939 -2.3155  0.4065 -1.9640
  450TMC3    H2 6709   3.334   2.308  13.546  0.1546 -0.8923 -0.4538
  450TMC3    C7 6710   3.157   2.240  13.724  0.2967  0.2455  0.3471
  450TMC3    C8 6711   3.538   2.165  13.498 -0.0814 -1.2009 -0.0541
  450TMC3    O1 6712   3.112   2.150  13.795  0.5467  0.1773 -0.2482
  450TMC3    O2 6713   3.491   2.238  13.410 -0.4060 -0.7464 -0.1938
  451MPD2     C 6714   4.345   0.970   1.970  0.1622 -0.5426 -0.3152
  451MPD2    C1 6715   4.311   0.958   1.836 -0.3503  0.5604  0.1560
  451MPD2    C2 6716   4.313   0.837   1.776  0.8811  0.3098  0.0773
  451MPD2    C3 6717   4.353   0.725   1.843  0.5035  0.4411  0.1881
  451MPD2    C4 6718   4.398   0.744   1.978  0.9871 -0.4827 -0.0485
  451MPD2    C5 6719   4.400   0.866   2.041 -0.1027  0.2351  0.2242
  451MPD2     H 6720   4.291   0.840   1.670 -3.3514 -1.0938  0.8993
  451MPD2    H1 6721   4.435   0.659   2.033 -0.8934 -0.7245  0.8633
  451MPD2    H2 6722   4.335   1.062   2.027 -0.0572 -1.0843  0.5229
  451MPD2    H3 6723   4.428   0.867   2.145 -0.4202  1.1305  0.3014
  451MPD2     N 6724   4.360   0.596   1.793 -0.5096 -0.4203  0.7434
  451MPD2    H5 6725   4.401   0.522   1.848  0.4118  0.6133  1.4548
  451MPD2    N1 6726   4.275   1.083   1.772  0.4589 -0.0976  0.0344
  451MPD2    H7 6727   4.263   1.168   1.826 -0.4089 -0.3549  0.2635
  452TMC3    C1 6728   4.300   0.412   1.660  0.5047 -0.1878  0.2293
  452TMC3    C2 6729   4.311   0.333   1.769  0.1692 -0.2267  0.9749
  452TMC3    C3 6730   4.294   0.197   1.761  0.3701  0.6985 -0.4290
  452TMC3    C4 6731   4.292   0.353   1.536  0.2777 -0.1117  0.0867
  452TMC3    C5 6732   4.262   0.223   1.533  0.0215  0.2496 -0.4487
  452TMC3    C6 6733   4.280   0.141   1.637 -0.0562 -0.3153 -0.3148
  452TMC3     C 6734   4.297   0.558   1.677  0.5456 -0.0872 -0.3460
  452TMC3     O 6735   4.246   0.627   1.592 -0.1873 -1.1305 -0.2161
  452TMC3     H 6736   4.303   0.376   1.868  1.2884  1.2227  0.4345
  452TMC3    H1 6737   4.267   0.421   1.455  3.9156  1.7593  0.5463
  452TMC3    H2 6738   4.273   0.033   1.634  0.0555 -0.3682  1.7425
  452TMC3    C7 6739   4.242   0.170   1.394 -0.2703  0.3292 -0.4471
  452TMC3    C8 6740   4.278   0.116   1.873  1.1366 -0.4060 -0.0259
  452TMC3    O1 6741   4.257   0.242   1.301 -0.1078 -0.5799  0.2167
  452TMC3    O2 6742   4.211   0.013   1.853  0.3365  0.0083 -0.0570
  453TMC3    C1 6743   1.500   2.531  11.979  0.1531 -0.3841  0.3371
  453TMC3    C2 6744   1.392   2.477  12.045  0.1252  0.1848  0.6312
  453TMC3    C3 6745   1.327   2.383  11.975 -0.3542 -0.7434 -0.4020
  453TMC3    C4 6746   1.533   2.490  11.855  0.3786 -0.3486  0.1127
  453TMC3    C5 6747   1.455   2.398  11.787 -0.6987  0.1795 -0.4626
  453TMC3    C6 6748   1.343   2.349  11.840  0.2218 -0.1651 -0.2823
  453TMC3     C 6749   1.606   2.594  12.055 -0.0506  0.0779 -0.4906
  453TMC3     O 6750   1.718   2.546  12.047 -0.1940  0.2447  0.0388
  453TMC3     H 6751   1.369   2.503  12.147  0.5189 -1.0657  1.0351
  453TMC3    H1 6752   1.624   2.533  11.815  1.5916 -2.3575  0.7448
  453TMC3    H2 6753   1.283   2.272  11.793 -1.4748  0.9413  0.0466
  453TMC3    C7 6754   1.473   2.383  11.643  1.2740  0.1404  0.2380
  453TMC3    C8 6755   1.251   2.292  12.062  0.1368 -0.2638  0.5332
  453TMC3    O1 6756   1.382   2.333  11.579  0.2274  0.3708  0.5798
  453TMC3    O2 6757   1.199   2.337  12.162 -0.1793  0.1124 -0.4590
  454MPD2     C 6758   4.624   2.148  16.805  0.5019  0.2355 -0.4713
  454MPD2    C1 6759   4.545   2.239  16.729 -0.3355 -0.6545 -0.3056
  454MPD2    C2 6760   4.457   2.326  16.794  0.6922  0.1694 -0.0386
  454MPD2    C3 6761   4.421   2.309  16.927  0.0456  0.2145  0.2791
  454MPD2    C4 6762   4.496   2.221  17.000 -0.3367  0.8614  0.3691
  454MPD2    C5 6763   4.602   2.150  16.939  0.0475 -0.9125 -0.8942
  454MPD2     H 6764   4.399   2.392  16.731  0.6450 -1.1418 -1.3592
  454MPD2    H1 6765   4.487   2.210  17.108 -1.0962 -0.1396  0.2072
  454MPD2    H2 6766   4.681   2.066  16.761  0.0606 -1.3870  2.0074
  454MPD2    H3 6767   4.669   2.081  16.990  0.3289 -1.0624 -1.4635
  454MPD2     N 6768   4.308   2.376  16.981 -0.0618  0.0273 -0.1481
  454MPD2    H5 6769   4.286   2.347  17.075  0.7986  1.8050  0.6052
  454MPD2    N1 6770   4.547   2.261  16.590 -0.1073  0.3349 -0.2324
  454MPD2    H7 6771   4.494   2.336  16.547 -1.0645 -0.8108 -1.0629
  455TMC3    C1 6772   4.105   2.334  16.878  0.0982 -0.3494  0.0913
  455TMC3    C2 6773   4.049   2.282  16.991  0.3819  0.6326  0.2869
  455TMC3    C3 6774   3.948   2.186  16.970 -0.7877 -0.0675  0.9443
  455TMC3    C4 6775   4.069   2.304  16.752  0.7932  1.0242 -0.1254
  455TMC3    C5 6776   3.969   2.213  16.726  0.1208  0.3788 -0.6561
  455TMC3    C6 6777   3.904   2.157  16.840  0.8502 -0.3087  0.0699
  455TMC3     C 6778   4.210   2.427  16.900 -0.1132 -0.3156  0.2713
  455TMC3     O 6779   4.233   2.516  16.822  0.1275 -0.4741 -0.8406
  455TMC3     H 6780   4.076   2.317  17.091 -1.0540 -0.2612  0.9842
  455TMC3    H1 6781   4.121   2.348  16.668 -0.4337  2.1635 -0.2849
  455TMC3    H2 6782   3.832   2.076  16.830 -1.1095  1.3064  0.9749
  455TMC3    C7 6783   3.969   2.137  16.607  0.5141  0.0004 -0.5497
  455TMC3    C8 6784   3.845   2.198  17.069 -0.7167 -0.6171 -0.1002
  455TMC3    O1 6785   3.868   2.092  16.560  0.0008 -0.8325  0.0272
  455TMC3    O2 6786   3.887   2.230  17.180 -0.5371 -0.0083  0.1467
  456MPD2     C 6787   1.974   1.983  16.596 -0.1813 -0.0859 -0.5535
  456MPD2    C1 6788   2.097   1.986  16.657  0.3813  0.2759  0.3501
  456MPD2    C2 6789   2.118   2.072  16.767 -0.3077  0.0597  0.2976
  456MPD2    C3 6790   2.011   2.143  16.825  0.0289 -0.5933  0.2304
  456MPD2    C4 6791   1.889   2.122  16.768 -0.3304  0.1125  0.1792
  456MPD2    C5 6792   1.869   2.043  16.658 -0.7753 -0.1448 -0.1430
  456MPD2     H 6793   2.212   2.088  16.819  0.1915 -0.5286 -0.4167
  456MPD2    H1 6794   1.799   2.171  16.803  0.0017  0.8447 -0.0146
  456MPD2    H2 6795   1.963   1.925  16.505  0.4389 -0.3220 -0.4824
  456MPD2    H3 6796   1.768   2.032  16.620 -1.0008  0.0850  0.3775
  456MPD2     N 6797   2.027   2.240  16.930 -0.8729 -0.2695 -0.0109
  456MPD2    H5 6798   2.124   2.251  16.960 -0.4369 -1.4013 -0.9941
  456MPD2    N1 6799   2.203   1.901  16.595 -0.7807  0.6463 -0.1890
  456MPD2    H7 6800   2.175   1.845  16.515  2.6379 -1.7787  0.2754
  457TMC3    C1 6801   1.973   2.395  17.094  0.0631  0.3031 -0.1547
  457TMC3    C2 6802   1.913   2.513  17.091 -0.5456 -0.1809 -0.5449
  457TMC3    C3 6803   1.938   2.602  17.193 -0.0527  0.5098  0.1973
  457TMC3    C4 6804   2.043   2.346  17.199 -0.5578 -0.2181 -0.3278
  457TMC3    C5 6805   2.053   2.435  17.302  0.1427 -0.3948  0.7381
  457TMC3    C6 6806   2.006   2.565  17.302 -0.0134 -0.7988  0.0916
  457TMC3     C 6807   1.923   2.299  16.997  0.2058  0.0797  0.0671
  457TMC3     O 6808   1.804   2.285  16.978 -0.4869  0.0887  0.1288
  457TMC3     H 6809   1.865   2.542  16.998 -0.8142  0.8367 -0.0824
  457TMC3    H1 6810   2.043   2.238  17.215 -1.4411 -0.2770 -0.7716
  457TMC3    H2 6811   2.037   2.638  17.375 -0.7551 -1.5846  1.1836
  457TMC3    C7 6812   2.130   2.399  17.413  0.4931 -0.0549 -0.0683
  457TMC3    C8 6813   1.937   2.752  17.177  0.0705 -0.1313  0.6313
  457TMC3    O1 6814   2.109   2.454  17.518  0.0887  0.2286  0.0555
  457TMC3    O2 6815   2.027   2.810  17.240  0.2605  0.7439  0.1231
  458MPD2     C 6816   0.711   1.311  12.156  0.0539 -0.6006  0.6190
  458MPD2    C1 6817   0.616   1.364  12.233 -0.3154  0.8672 -0.2710
  458MPD2    C2 6818   0.482   1.362  12.193  0.2587  0.6053 -0.1375
  458MPD2    C3 6819   0.455   1.314  12.065 -0.0077 -0.5458  0.0541
  458MPD2    C4 6820   0.556   1.247  11.996 -0.5023 -0.0911 -0.1030
  458MPD2    C5 6821   0.681   1.240  12.044 -0.3055 -0.0964 -0.2634
  458MPD2     H 6822   0.407   1.409  12.256  0.1896  2.9037 -1.9300
  458MPD2    H1 6823   0.543   1.193  11.903 -0.8734 -0.1019 -0.0480
  458MPD2    H2 6824   0.812   1.288  12.186  0.0432 -0.9735  0.3665
  458MPD2    H3 6825   0.759   1.184  11.995  0.0095 -0.6329  0.8566
  458MPD2     N 6826   0.322   1.323  12.022 -0.0089 -0.2904 -0.2963
  458MPD2    H5 6827   0.257   1.370  12.083  1.1076  0.0244  0.6474
  458MPD2    N1 6828   0.665   1.432  12.347 -0.3857 -0.0700 -0.6289
  458MPD2    H7 6829   0.766   1.438  12.353 -0.5383 -0.4312  2.0946
  459TMC3    C1 6830   0.653   1.551  12.546 -0.2274 -0.1156  0.8833
  459TMC3    C2 6831   0.773   1.617  12.527 -0.6018  0.0998  0.2415
  459TMC3    C3 6832   0.827   1.671  12.638 -0.1363 -0.4959 -0.4982
  459TMC3    C4 6833   0.600   1.537  12.668  0.2967 -0.2807  0.3349
  459TMC3    C5 6834   0.657   1.594  12.772  0.6770 -0.3021  0.5504
  459TMC3    C6 6835   0.776   1.659  12.766  0.2597 -0.0178  0.7524
  459TMC3     C 6836   0.580   1.473  12.448  0.1770  0.0714  0.3274
  459TMC3     O 6837   0.465   1.450  12.470  0.6144  0.4292  0.0961
  459TMC3     H 6838   0.813   1.637  12.428  0.3244 -2.2071  0.1422
  459TMC3    H1 6839   0.513   1.475  12.684  1.2385 -1.5916  0.3731
  459TMC3    H2 6840   0.829   1.672  12.860  0.7316 -1.2520  0.6587
  459TMC3    C7 6841   0.591   1.569  12.904 -0.1667 -0.0389 -0.4087
  459TMC3    C8 6842   0.962   1.724  12.623 -0.3266  0.4757 -0.5479
  459TMC3    O1 6843   0.523   1.467  12.919 -0.0386  0.4606  0.1464
  459TMC3    O2 6844   1.025   1.704  12.518 -0.0040  0.0511  0.1870
  460MPD2     C 6845   4.027   4.261  10.852 -0.5248  0.0824  0.6292
  460MPD2    C1 6846   4.079   4.181  10.756  0.5065  0.4048 -0.0665
  460MPD2    C2 6847   4.043   4.191  10.629 -0.0498 -0.9695  0.0139
  460MPD2    C3 6848   3.954   4.288  10.597  0.2416  0.9252  0.3745
  460MPD2    C4 6849   3.904   4.375  10.693 -1.0917 -0.0256 -0.5807
  460MPD2    C5 6850   3.945   4.364  10.820 -0.1797 -0.1756 -0.0625
  460MPD2     H 6851   4.074   4.120  10.554  1.1779 -0.1223 -0.2919
  460MPD2    H1 6852   3.828   4.451  10.680 -0.6237  0.8178  1.5286
  460MPD2    H2 6853   4.035   4.244  10.958  0.0631 -3.0036  0.1079
  460MPD2    H3 6854   3.896   4.424  10.895 -0.8719 -1.9698  0.9148
  460MPD2     N 6855   3.922   4.305  10.459 -0.4474 -0.7706  0.3851
  460MPD2    H5 6856   3.962   4.236  10.397  2.9314  1.5007  0.0875
  460MPD2    N1 6857   4.145   4.067  10.803  0.2419 -0.2149 -0.0412
  460MPD2    H7 6858   4.163   4.056  10.902  1.7323 -1.1498 -0.4013
  461TMC3    C1 6859   3.790   4.341  10.269  0.3132 -0.5828 -1.1707
  461TMC3    C2 6860   3.816   4.219  10.234 -0.0711  0.2965  0.5414
  461TMC3    C3 6861   3.779   4.187  10.105 -0.2487 -0.0914 -0.4256
  461TMC3    C4 6862   3.734   4.437  10.186 -0.2529  0.3209 -0.2473
  461TMC3    C5 6863   3.698   4.398  10.062  0.6175 -0.1126 -0.0021
  461TMC3    C6 6864   3.721   4.269  10.016 -0.3400 -0.4112 -0.4881
  461TMC3     C 6865   3.841   4.398  10.400  0.5779  0.1371 -0.1671
  461TMC3     O 6866   3.819   4.517  10.433 -0.7340  0.0844  0.0640
  461TMC3     H 6867   3.868   4.143  10.292  1.1902  0.8964  0.1976
  461TMC3    H1 6868   3.728   4.540  10.216 -2.6430  0.2452 -0.4952
  461TMC3    H2 6869   3.684   4.241   9.918 -2.1065  0.6323 -0.1232
  461TMC3    C7 6870   3.671   4.506   9.961  0.6576 -0.1406  0.0360
  461TMC3    C8 6871   3.784   4.040  10.071 -0.3226  0.4364  1.3926
  461TMC3    O1 6872   3.715   4.612   9.998  0.2071 -0.1081  0.4495
  461TMC3    O2 6873   3.779   3.954  10.160  0.4185 -0.7110  0.3970
  462TMC3    C1 6874   3.700   0.220   0.338 -0.2756 -0.8431  0.3813
  462TMC3    C2 6875   3.770   0.118   0.278  0.2510  0.3278 -0.6387
  462TMC3    C3 6876   3.721   4.712   0.296 -0.4210 -0.4105 -0.0441
  462TMC3    C4 6877   3.582   0.201   0.410 -0.7568 -0.0176  0.5715
  462TMC3    C5 6878   3.537   0.071   0.420 -0.5629 -0.1393  0.2646
  462TMC3    C6 6879   3.602   4.689   0.364 -0.0307 -0.3394  0.3264
  462TMC3     C 6880   3.772   0.339   0.381  0.1787 -0.4131  0.3894
  462TMC3     O 6881   3.753   0.386   0.491  0.1527  0.2205 -0.3203
  462TMC3     H 6882   3.855   0.130   0.212  1.1779 -1.4704  0.2492
  462TMC3    H1 6883   3.527   0.286   0.449  0.5069  1.0645  0.0001
  462TMC3    H2 6884   3.585   4.585   0.392 -1.7021 -0.2456 -0.3168
  462TMC3    C7 6885   3.415   0.036   0.501 -0.0975 -0.6473 -0.3157
  462TMC3    C8 6886   3.791   4.592   0.246 -1.0921 -0.2643 -0.2320
  462TMC3    O1 6887   3.398   4.638   0.530  0.1460  0.0337 -0.2838
  462TMC3    O2 6888   3.725   4.488   0.241  0.7528  0.7339  0.1376
  463MPD2     C 6889   4.324   4.325   1.866 -0.1768 -0.0854 -0.2763
  463MPD2    C1 6890   4.286   4.296   1.737 -0.2153 -0.2027  0.4946
  463MPD2    C2 6891   4.342   4.376   1.641  0.5739 -0.7322  0.4099
  463MPD2    C3 6892   4.434   4.478   1.668  0.0115  0.0159  0.4945
  463MPD2    C4 6893   4.454   4.508   1.799 -0.2335 -0.3543 -0.0648
  463MPD2    C5 6894   4.402   4.430   1.894 -0.2863  0.3982 -0.2269
  463MPD2     H 6895   4.317   4.362   1.536  0.8449  0.8770  0.1164
  463MPD2    H1 6896   4.531   4.578   1.829  0.9482 -1.6309 -0.1243
  463MPD2    H2 6897   4.295   4.260   1.948  0.9358 -2.2241 -1.5677
  463MPD2    H3 6898   4.441   4.451   1.993 -2.3077  2.8057  0.0664
  463MPD2     N 6899   4.505   4.551   1.567  0.5974  0.3151 -0.1904
  463MPD2    H5 6900   4.538   4.644   1.589  0.4344  0.5831 -1.1063
  463MPD2    N1 6901   4.193   4.194   1.705 -0.0569  0.5996 -0.2622
  463MPD2    H7 6902   4.178   4.176   1.607  0.3045 -1.6695  0.1087
  464TMC3    C1 6903   4.056   3.996   1.743 -0.2838 -0.0596  1.1109
  464TMC3    C2 6904   3.984   4.017   1.627 -0.0310  0.3162 -0.2735
  464TMC3    C3 6905   3.895   3.917   1.589  0.1616 -0.6115 -0.4122
  464TMC3    C4 6906   4.043   3.877   1.809 -0.3110 -0.4064  0.1900
  464TMC3    C5 6907   3.959   3.776   1.758 -0.1642 -0.1177  0.4287
  464TMC3    C6 6908   3.879   3.799   1.651 -0.1794 -0.2952  0.1271
  464TMC3     C 6909   4.149   4.096   1.795  0.8024 -0.4769 -0.7588
  464TMC3     O 6910   4.180   4.075   1.907 -0.5282  0.0135  0.0626
  464TMC3     H 6911   4.005   4.108   1.572  0.3454  0.6905  0.4980
  464TMC3    H1 6912   4.090   3.861   1.905  0.1192  0.3719  0.1096
  464TMC3    H2 6913   3.804   3.732   1.610 -0.3553  1.0393 -1.6774
  464TMC3    C7 6914   3.939   3.651   1.825  0.4376  0.7623 -0.2568
  464TMC3    C8 6915   3.796   3.970   1.491  0.0556  0.0741 -0.8316
  464TMC3    O1 6916   4.002   3.642   1.928  0.1333  0.6389 -0.1784
  464TMC3    O2 6917   3.821   4.069   1.421  0.0278  0.4521  0.2458
  465MPD2     C 6918   1.511   2.160  16.829 -0.3743 -0.0429 -0.2994
  465MPD2    C1 6919   1.399   2.150  16.903 -0.5166 -0.2772 -0.0488
  465MPD2    C2 6920   1.270   2.169  16.851 -0.3297 -0.4515 -0.3713
  465MPD2    C3 6921   1.260   2.191  16.717 -0.5645  0.1354 -0.5203
  465MPD2    C4 6922   1.377   2.210  16.641 -0.1533 -0.0437 -0.0532
  465MPD2    C5 6923   1.499   2.195  16.703 -0.2527  0.1048 -0.1484
  465MPD2     H 6924   1.179   2.158  16.909 -0.1999 -0.0344 -0.0933
  465MPD2    H1 6925   1.377   2.229  16.535 -0.1459  2.2336  0.3602
  465MPD2    H2 6926   1.608   2.155  16.876 -0.5277 -1.4111 -0.1296
  465MPD2    H3 6927   1.590   2.201  16.644  0.1762 -0.8592  0.4215
  465MPD2     N 6928   1.134   2.198  16.648  0.0494  0.1478 -0.1824
  465MPD2    H5 6929   1.053   2.186  16.709 -1.6654  0.8754 -2.3113
  465MPD2    N1 6930   1.397   2.124  17.039 -0.6115 -0.3176 -0.3186
  465MPD2    H7 6931   1.305   2.124  17.083 -0.4460  4.9149  0.0586
  466TMC3    C1 6932   0.821   2.270  16.672  0.8269  0.4627 -0.4473
  466TMC3    C2 6933   0.767   2.380  16.613 -0.5038 -0.0591  0.4291
  466TMC3    C3 6934   0.838   2.429  16.509 -0.2495 -0.5561  0.2973
  466TMC3    C4 6935   0.905   2.181  16.606  0.0357 -0.8386 -0.3269
  466TMC3    C5 6936   0.973   2.237  16.493 -1.0797 -0.4708  0.2967
  466TMC3    C6 6937   0.930   2.356  16.438 -0.4046  0.0309 -0.4354
  466TMC3     C 6938   0.782   2.247  16.806  0.1639  0.0538  0.3334
  466TMC3     O 6939   0.862   2.183  16.879 -0.1789 -0.3101  0.1983
  466TMC3     H 6940   0.679   2.426  16.657 -0.9446 -1.4764  1.0362
  466TMC3    H1 6941   0.908   2.080  16.644 -2.5924 -0.2751  1.3573
  466TMC3    H2 6942   0.993   2.410  16.368  0.2043 -0.6210 -0.3837
  466TMC3    C7 6943   1.113   2.244  16.518  0.3811  0.3161 -0.3321
  466TMC3    C8 6944   0.821   2.568  16.470  0.6252 -0.4710  0.6716
  466TMC3    O1 6945   1.194   2.294  16.438  0.0553 -0.1951  0.1588
  466TMC3    O2 6946   0.871   2.597  16.366  0.0631  0.3756 -0.2770
  467TMC3    C1 6947   2.191   0.532  14.113  0.4084 -0.5149  0.4940
  467TMC3    C2 6948   2.181   0.525  13.980  0.2837 -0.0562 -0.9287
  467TMC3    C3 6949   2.058   0.555  13.921 -0.3759  0.9879 -0.2953
  467TMC3    C4 6950   2.089   0.574  14.187  0.0422  0.3673 -0.7092
  467TMC3    C5 6951   1.968   0.608  14.134 -0.6274  0.7024  0.1931
  467TMC3    C6 6952   1.956   0.601  13.997  0.0398 -0.3809 -0.4213
  467TMC3     C 6953   2.324   0.532  14.166  0.0604  0.9936 -0.6008
  467TMC3     O 6954   2.351   0.620  14.244  0.1644  0.0963  0.4247
  467TMC3     H 6955   2.270   0.513  13.919 -0.6235  2.5156 -2.7655
  467TMC3    H1 6956   2.101   0.592  14.293 -0.1244  0.3346 -0.6841
  467TMC3    H2 6957   1.862   0.631  13.951 -0.8544 -0.8255  1.1171
  467TMC3    C7 6958   1.858   0.602  14.226  0.1163 -0.3866  0.1494
  467TMC3    C8 6959   2.066   0.623  13.794 -1.0391  0.2496  0.0096
  467TMC3    O1 6960   1.878   0.574  14.343 -0.0672  0.2816 -0.2069
  467TMC3    O2 6961   1.976   0.700  13.767 -0.1087  0.3094  0.8612
  468MPD2     C 6962   1.063   3.304  10.496 -0.0303 -0.1156 -0.0165
  468MPD2    C1 6963   1.183   3.277  10.562 -0.0287  0.1012  0.1410
  468MPD2    C2 6964   1.194   3.168  10.644  0.0299 -0.2889  0.4692
  468MPD2    C3 6965   1.079   3.095  10.683  0.5724  0.3883  0.0482
  468MPD2    C4 6966   0.955   3.129  10.625 -0.6805 -0.0940 -0.1327
  468MPD2    C5 6967   0.950   3.236  10.537 -0.1670 -0.1906 -0.3026
  468MPD2     H 6968   1.289   3.146  10.691 -0.8172  1.4159  2.9566
  468MPD2    H1 6969   0.859   3.089  10.655 -0.4005 -1.4743 -1.0552
  468MPD2    H2 6970   1.059   3.384  10.422 -0.0325 -1.3605 -1.3600
  468MPD2    H3 6971   0.853   3.270  10.503  1.0945  1.6442 -2.0449
  468MPD2     N 6972   1.090   2.998  10.785 -0.1597 -0.3771  0.0180
  468MPD2    H5 6973   1.004   2.989  10.837 -0.1397  0.5583  0.2133
  468MPD2    N1 6974   1.300   3.353  10.541 -0.1305  0.2781 -0.3382
  468MPD2    H7 6975   1.385   3.319  10.585 -1.3491 -1.9637  0.2731
  469TMC3    C1 6976   1.437   3.557  10.535  0.7941 -0.4565  0.0272
  469TMC3    C2 6977   1.549   3.476  10.544 -0.0100  0.7728 -0.2846
  469TMC3    C3 6978   1.662   3.520  10.611  0.7282  0.0928  0.1933
  469TMC3    C4 6979   1.445   3.687  10.577  0.8231  0.1231 -0.7983
  469TMC3    C5 6980   1.559   3.733  10.640 -0.6783 -0.4514 -0.7150
  469TMC3    C6 6981   1.671   3.651  10.659 -0.5516  0.4833 -0.4819
  469TMC3     C 6982   1.304   3.493  10.512 -0.3111  0.6541 -0.2136
  469TMC3     O 6983   1.216   3.568  10.470 -0.0451 -0.6376  0.4125
  469TMC3     H 6984   1.549   3.371  10.520 -0.2790  1.1576 -1.9941
  469TMC3    H1 6985   1.353   3.744  10.568  0.0027 -0.9665  0.5901
  469TMC3    H2 6986   1.766   3.687  10.700  0.0146 -1.1714 -0.3653
  469TMC3    C7 6987   1.535   3.827  10.751 -0.0178  0.1139 -0.4587
  469TMC3    C8 6988   1.747   3.419  10.669  0.6007  0.2755  0.3718
  469TMC3    O1 6989   1.425   3.877  10.767 -0.5473 -0.4298 -0.4284
  469TMC3    O2 6990   1.772   3.320  10.605 -0.0377 -0.6257 -0.2711
  470TMC3    C1 6991   2.521   0.583   1.982 -0.4651  0.1529  0.1382
  470TMC3    C2 6992   2.616   0.665   1.926 -0.2788 -0.2697  0.1806
  470TMC3    C3 6993   2.741   0.613   1.928  0.1500  0.0516  0.4712
  470TMC3    C4 6994   2.535   0.462   2.032  0.3523 -0.3360  0.1104
  470TMC3    C5 6995   2.658   0.411   2.020  0.2671  0.3299  0.3813
  470TMC3    C6 6996   2.766   0.486   1.978 -0.5627 -0.3149  0.0002
  470TMC3     C 6997   2.395   0.652   1.988  0.6783  0.0299 -0.1517
  470TMC3     O 6998   2.394   0.772   1.988  0.1050  0.6570 -0.2912
  470TMC3     H 6999   2.592   0.758   1.878  1.0997 -0.7006 -1.3360
  470TMC3    H1 7000   2.456   0.420   2.093  0.9213 -1.2161  0.2410
  470TMC3    H2 7001   2.863   0.437   1.989 -0.2328  0.5845  1.1041
  470TMC3    C7 7002   2.685   0.279   2.087  0.0050  0.0189 -0.0008
  470TMC3    C8 7003   2.839   0.723   1.926 -0.3828 -0.2275  0.1786
  470TMC3    O1 7004   2.797   0.234   2.087  0.3026  0.0787  0.2478
  470TMC3    O2 7005   2.787   0.833   1.937 -0.1220 -0.3680 -0.2713
  471MPD2     C 7006   3.123   1.484  16.838 -0.8141  0.3449  0.1992
  471MPD2    C1 7007   3.242   1.412  16.824 -0.1157 -0.7831 -0.1419
  471MPD2    C2 7008   3.327   1.415  16.930 -0.0794  0.6595  0.2014
  471MPD2    C3 7009   3.288   1.466  17.054  0.5058 -0.2020 -0.2215
  471MPD2    C4 7010   3.168   1.526  17.066 -0.5328  0.6186 -0.8729
  471MPD2    C5 7011   3.085   1.539  16.952 -0.4755  0.0294  0.2308
  471MPD2     H 7012   3.425   1.374  16.909 -0.9179 -1.7776  1.0487
  471MPD2    H1 7013   3.128   1.558  17.162 -3.2985 -0.7017 -1.6011
  471MPD2    H2 7014   3.062   1.512  16.753 -0.3036 -0.5270 -0.4445
  471MPD2    H3 7015   2.990   1.589  16.961 -0.6990 -0.0277 -1.9865
  471MPD2     N 7016   3.370   1.450  17.169  0.2711  0.0282  0.0136
  471MPD2    H5 7017   3.345   1.496  17.256  3.4941  0.5944  0.6433
  471MPD2    N1 7018   3.281   1.342  16.704 -0.4687  0.7977  0.0193
  471MPD2    H7 7019   3.375   1.303  16.697 -2.1053 -3.2023  0.8503
  472TMC3    C1 7020   3.236   1.231  16.496  0.0449 -0.6055 -0.4653
  472TMC3    C2 7021   3.139   1.167  16.419  0.4356 -0.2817 -0.3706
  472TMC3    C3 7022   3.158   1.040  16.370 -0.1096  0.8854  0.2968
  472TMC3    C4 7023   3.355   1.164  16.519 -0.4297 -0.1967 -0.1591
  472TMC3    C5 7024   3.372   1.035  16.480  0.9112 -0.7863  0.5370
  472TMC3    C6 7025   3.272   0.974  16.401  0.1700 -0.6269 -0.4659
  472TMC3     C 7026   3.195   1.321  16.594  0.1887 -0.0708 -0.8135
  472TMC3     O 7027   3.073   1.341  16.579  0.5749  0.2106 -0.0774
  472TMC3     H 7028   3.053   1.218  16.377  1.2774  1.3319 -0.1258
  472TMC3    H1 7029   3.448   1.215  16.540 -0.2241 -0.4098 -0.5583
  472TMC3    H2 7030   3.294   0.873  16.368 -0.2817 -0.6777 -0.6049
  472TMC3    C7 7031   3.435   0.954  16.582 -0.1538 -0.4460  0.3926
  472TMC3    C8 7032   3.044   0.955  16.326 -0.4379 -0.5594 -0.0838
  472TMC3    O1 7033   3.463   0.836  16.555 -0.1196  0.2117 -0.4030
  472TMC3    O2 7034   2.949   1.002  16.259  0.1221 -0.1769  0.9224
  473MPD2     C 7035   3.521   3.240  13.823 -0.3772 -0.0530  0.4210
  473MPD2    C1 7036   3.548   3.345  13.745 -0.0400  0.0069  0.5135
  473MPD2    C2 7037   3.602   3.457  13.812 -0.0321 -0.1140  0.0291
  473MPD2    C3 7038   3.625   3.459  13.954 -0.3036  0.3029 -0.0186
  473MPD2    C4 7039   3.609   3.345  14.026 -0.0082 -0.3130 -0.0459
  473MPD2    C5 7040   3.554   3.239  13.955  0.1222 -0.7588  0.1499
  473MPD2     H 7041   3.623   3.546  13.754 -1.8953 -0.0970 -0.6252
  473MPD2    H1 7042   3.643   3.344  14.129  0.2031 -2.3047 -0.1428
  473MPD2    H2 7043   3.492   3.145  13.779  1.0730 -0.5227  0.4687
  473MPD2    H3 7044   3.537   3.151  14.017  3.3485 -1.4969 -0.0268
  473MPD2     N 7045   3.672   3.566  14.019  0.2571  0.3230  0.6741
  473MPD2    H5 7046   3.696   3.558  14.118  1.1875 -1.6268  0.2852
  473MPD2    N1 7047   3.538   3.349  13.604  0.7326 -0.1540 -0.5995
  473MPD2    H7 7048   3.553   3.435  13.552 -0.2580 -0.7907 -1.9384
  474TMC3    C1 7049   3.755   3.789  14.057  0.0805  0.4597 -0.5965
  474TMC3    C2 7050   3.714   3.920  14.054 -0.0410 -0.6387  0.9764
  474TMC3    C3 7051   3.802   4.016  14.087 -0.4116  0.2981  0.7424
  474TMC3    C4 7052   3.886   3.763  14.084  0.7259  0.2186 -0.8619
  474TMC3    C5 7053   3.972   3.858  14.132  0.2377 -0.2193  0.0311
  474TMC3    C6 7054   3.928   3.986  14.143 -0.1417 -0.4568 -0.1686
  474TMC3     C 7055   3.687   3.691  13.970  0.0824  0.2746 -0.2512
  474TMC3     O 7056   3.631   3.741  13.873  0.1872  0.1344  0.2357
  474TMC3     H 7057   3.625   3.959  14.004  0.6044  0.3158  0.5740
  474TMC3    H1 7058   3.917   3.659  14.080  2.6748  0.7214  1.1689
  474TMC3    H2 7059   3.988   4.070  14.176 -1.6124  0.7658 -0.5946
  474TMC3    C7 7060   4.077   3.807  14.225  0.6282 -0.3440  0.8532
  474TMC3    C8 7061   3.741   4.139  14.128  0.0659 -0.1901  0.3328
  474TMC3    O1 7062   4.141   3.713  14.175  0.2274  0.3010 -0.6009
  474TMC3    O2 7063   3.814   4.239  14.136 -0.4595  0.0689 -0.3784
  475MPD2     C 7064   2.605   1.211  10.266 -0.3860  0.1455 -0.5493
  475MPD2    C1 7065   2.694   1.294  10.328 -0.8988 -0.1459 -0.2661
  475MPD2    C2 7066   2.637   1.371  10.429 -0.2269  0.5506 -0.0597
  475MPD2    C3 7067   2.501   1.383  10.463 -0.0229  0.2754  0.2125
  475MPD2    C4 7068   2.418   1.303  10.387 -0.1807 -1.0863  0.2532
  475MPD2    C5 7069   2.472   1.222  10.289  0.3459 -0.4180  0.2918
  475MPD2     H 7070   2.704   1.427  10.493 -0.7900  1.0705  0.0820
  475MPD2    H1 7071   2.310   1.296  10.393 -0.2592  1.0544  1.1564
  475MPD2    H2 7072   2.632   1.136  10.193 -1.7890 -0.9792  0.0763
  475MPD2    H3 7073   2.403   1.160  10.234  1.1631  0.2060 -1.4680
  475MPD2     N 7074   2.457   1.470  10.563  0.4224 -0.4237 -0.0670
  475MPD2    H5 7075   2.523   1.537  10.600 -0.6185  0.4906  0.1171
  475MPD2    N1 7076   2.829   1.285  10.289  0.0523 -0.2939 -0.3321
  475MPD2    H7 7077   2.855   1.207  10.231  1.9767  0.8500 -1.0118
  476TMC3    C1 7078   2.888   1.516  10.359 -0.0969  0.1327 -0.0503
  476TMC3    C2 7079   2.789   1.583  10.289  0.1834  0.2671  0.3488
  476TMC3    C3 7080   2.739   1.701  10.344  1.0266  1.0832  0.2497
  476TMC3    C4 7081   2.955   1.566  10.460  0.5999 -0.2016 -0.2702
  476TMC3    C5 7082   2.906   1.687  10.503  0.5266  0.0982  1.1642
  476TMC3    C6 7083   2.802   1.756  10.455  0.4956  0.3545 -1.1861
  476TMC3     C 7084   2.928   1.381  10.313  0.6362 -0.2792 -0.3628
  476TMC3     O 7085   3.047   1.363  10.301  0.2040  0.4246  0.1944
  476TMC3     H 7086   2.756   1.541  10.194  2.2328  0.7537 -0.5861
  476TMC3    H1 7087   3.043   1.523  10.506 -0.8051 -1.6608  1.0343
  476TMC3    H2 7088   2.779   1.857  10.485 -0.0903 -0.6263  1.6340
  476TMC3    C7 7089   2.987   1.753  10.606 -0.1273 -0.2394  0.1333
  476TMC3    C8 7090   2.595   1.725  10.317 -1.3710 -0.2935  0.1637
  476TMC3    O1 7091   3.112   1.752  10.596  0.2013  0.2766  0.4782
  476TMC3    O2 7092   2.538   1.802  10.390  0.3111 -0.3939 -0.0237
  477MPD2     C 7093   4.654   3.568  11.621 -0.2910  0.7258 -0.6479
  477MPD2    C1 7094   4.636   3.433  11.637  0.6592  0.1548 -0.1587
  477MPD2    C2 7095   4.620   3.378  11.764  0.1186 -0.5246 -0.1997
  477MPD2    C3 7096   4.611   3.461  11.871  0.1363  0.7764 -0.0982
  477MPD2    C4 7097   4.640   3.592  11.860 -0.9704 -0.0884  0.1791
  477MPD2    C5 7098   4.662   3.644  11.735 -0.3419 -0.3211  0.7651
  477MPD2     H 7099   4.595   3.273  11.771 -3.4813  0.5016  2.0672
  477MPD2    H1 7100   4.650   3.656  11.947  0.2006  0.8681 -0.6537
  477MPD2    H2 7101   4.673   3.607  11.522 -0.8725  1.0012 -0.6519
  477MPD2    H3 7102   4.686   3.750  11.731 -1.4324 -0.0447  1.5171
  477MPD2     N 7103   4.571   3.393  11.990 -0.4178 -0.1877 -0.1176
  477MPD2    H5 7104   4.580   3.291  11.992  1.2973 -0.0081  0.8384
  477MPD2    N1 7105   4.613   3.373  11.510  0.3771  0.0856 -0.5025
  477MPD2    H7 7106   4.603   3.440  11.434  0.5281  1.0405  0.3106
  478TMC3    C1 7107   4.537   3.204  11.361 -0.5070 -0.0525 -0.1064
  478TMC3    C2 7108   4.401   3.155  11.349 -0.3041 -0.5754 -0.5706
  478TMC3    C3 7109   4.334   3.185  11.236 -0.6793  0.2687 -0.2160
  478TMC3    C4 7110   4.592   3.278  11.254  0.5384 -0.0672 -0.1562
  478TMC3    C5 7111   4.524   3.279  11.137  0.1241 -0.1710  0.1902
  478TMC3    C6 7112   4.394   3.245  11.131  0.1523  0.4695 -0.0063
  478TMC3     C 7113   4.594   3.233  11.495 -0.6761 -0.4115  0.5977
  478TMC3     O 7114   4.593   3.150  11.584 -0.3378  0.1222 -0.1716
  478TMC3     H 7115   4.347   3.118  11.435  0.0811  0.5807  0.1768
  478TMC3    H1 7116   4.698   3.302  11.253  0.5407 -0.0702  0.0032
  478TMC3    H2 7117   4.355   3.239  11.030  0.9564 -0.1168 -0.2829
  478TMC3    C7 7118   4.590   3.345  11.023  0.1469  0.6961 -0.1125
  478TMC3    C8 7119   4.193   3.207  11.258 -0.8525  0.6269 -0.0060
  478TMC3    O1 7120   4.711   3.353  11.022  0.0705  0.0473 -0.0742
  478TMC3    O2 7121   4.124   3.117  11.304 -0.3911  0.1708 -0.3098
  479MPD2     C 7122   2.940   4.537  15.411 -0.0035 -0.0996 -1.0780
  479MPD2    C1 7123   2.827   4.603  15.392 -0.0680  0.6333 -0.3799
  479MPD2    C2 7124   2.794   4.713  15.470 -0.8323 -0.4405  0.0209
  479MPD2    C3 7125   2.878   0.030  15.569 -0.4007  0.2753  0.0393
  479MPD2    C4 7126   2.999   4.687  15.579  0.2394 -0.1008 -0.6199
  479MPD2    C5 7127   3.024   4.575  15.509 -0.1471  0.2638 -0.0241
  479MPD2     H 7128   2.700   0.043  15.455 -1.0227 -1.5477 -2.7938
  479MPD2    H1 7129   3.073   0.008  15.644  0.0071  1.1287 -1.1816
  479MPD2    H2 7130   2.959   4.442  15.362  1.6335 -1.1365  1.5282
  479MPD2    H3 7131   3.113   4.515  15.524  0.8305  1.1378 -2.3296
  479MPD2     N 7132   2.844   0.129  15.665  0.2987  0.6245  0.1751
  479MPD2    H5 7133   2.910   0.151  15.739  0.9242 -1.6073  0.2929
  479MPD2    N1 7134   2.739   4.554  15.296 -0.4532 -0.0986  0.2347
  479MPD2    H7 7135   2.750   4.468  15.243  0.4515 -0.3079  0.7700
  480TMC3    C1 7136   2.877   0.396  15.961  0.2126  0.4204 -0.1549
  480TMC3    C2 7137   2.855   0.533  15.925  0.7371  0.6342  0.2814
  480TMC3    C3 7138   2.794   0.550  15.805 -0.0175  0.2097 -0.0363
  480TMC3    C4 7139   2.849   0.291  15.872  0.4645 -0.4618  0.3012
  480TMC3    C5 7140   2.773   0.321  15.764 -0.1040  0.7672  0.7316
  480TMC3    C6 7141   2.745   0.448  15.728  0.0859 -0.1973 -0.5165
  480TMC3     C 7142   2.991   0.365  16.049  0.4561  0.2094 -0.3128
  480TMC3     O 7143   3.016   0.248  16.057  0.7134 -0.4639  0.6979
  480TMC3     H 7144   2.894   0.613  15.986 -1.5755  0.8454  1.4646
  480TMC3    H1 7145   2.841   0.188  15.903  1.3585 -0.6416 -0.0469
  480TMC3    H2 7146   2.713   0.469  15.627 -0.0998  3.8445  0.3720
  480TMC3    C7 7147   2.749   0.227  15.653 -0.5796 -0.1108  0.8078
  480TMC3    C8 7148   2.794   0.689  15.746 -0.2234  0.5374 -0.4480
  480TMC3    O1 7149   2.675   0.245  15.559  0.4522 -0.5495 -0.3490
  480TMC3    O2 7150   2.771   0.782  15.816 -0.9387 -0.2992 -0.3393
  481MPD2     C 7151   0.159   0.273  14.036  0.0145  0.2993  0.0147
  481MPD2    C1 7152   0.044   0.200  14.078  0.2548 -0.2701 -0.0631
  481MPD2    C2 7153   4.723   0.217  14.206  0.1836 -0.1099 -0.9318
  481MPD2    C3 7154   0.069   0.296  14.295  0.5197  0.5843 -0.3771
  481MPD2    C4 7155   0.190   0.359  14.257 -0.3378 -0.4486  0.0164
  481MPD2    C5 7156   0.236   0.339  14.133  0.0213  0.4363  0.7635
  481MPD2     H 7157   4.631   0.166  14.234  0.5547 -0.8324 -1.0370
  481MPD2    H1 7158   0.250   0.414  14.329 -1.3218 -2.0331  2.0540
  481MPD2    H2 7159   0.194   0.253  13.935 -1.4900 -2.0952 -0.0419
  481MPD2    H3 7160   0.327   0.390  14.104 -1.1584  0.7937 -2.2988
  481MPD2     N 7161   0.025   0.319  14.427  0.0601  0.1089  0.3406
  481MPD2    H5 7162   0.097   0.359  14.486  1.1915  0.0073 -0.9823
  481MPD2    N1 7163   4.706   0.112  13.983  0.4311 -0.4394 -0.0296
  481MPD2    H7 7164   0.022   0.116  13.890  2.6757 -0.4512  0.9093
  482TMC3    C1 7165   4.527   4.701  13.894 -0.2213  0.7750 -0.3113
  482TMC3    C2 7166   4.482   4.575  13.889 -0.7382  0.8544  0.1655
  482TMC3    C3 7167   4.370   4.553  13.819  0.8971 -0.0534 -0.0836
  482TMC3    C4 7168   4.469   0.081  13.832  0.4799  0.0794 -0.0611
  482TMC3    C5 7169   4.357   0.056  13.760 -0.1838  0.1575  0.3860
  482TMC3    C6 7170   4.298   4.657  13.755 -0.4501 -0.2880  1.0563
  482TMC3     C 7171   4.611   0.021  14.010  0.6460  0.2086 -0.5903
  482TMC3     O 7172   4.594   4.681  14.113  0.7060  0.0457  0.0584
  482TMC3     H 7173   4.527   4.501  13.954 -1.8919 -0.5043 -0.5815
  482TMC3    H1 7174   4.519   0.177  13.838 -0.8280  0.6224  2.3946
  482TMC3    H2 7175   4.213   4.635  13.691  1.7083  2.5154 -2.6950
  482TMC3    C7 7176   4.324   0.161  13.673  0.0700  0.2489 -0.1772
  482TMC3    C8 7177   4.326   4.414  13.825 -0.1423 -0.3241 -0.2388
  482TMC3    O1 7178   4.308   0.273  13.718 -0.4185 -0.0907 -0.1333
  482TMC3    O2 7179   4.415   4.331  13.830  0.2991  0.0223 -0.1282
  483TMC3    C1 7180   2.625   4.047   1.517 -0.1824 -0.8795  0.2331
  483TMC3    C2 7181   2.650   4.055   1.384  0.2212 -1.0696  0.5587
  483TMC3    C3 7182   2.785   4.062   1.359  0.0574  0.8350  0.0797
  483TMC3    C4 7183   2.716   4.038   1.616  0.0253 -0.1127  0.0118
  483TMC3    C5 7184   2.848   4.055   1.585 -0.1881 -0.2236 -0.4946
  483TMC3    C6 7185   2.886   4.063   1.455 -0.3004  0.1004  0.5260
  483TMC3     C 7186   2.499   3.996   1.543 -0.7909  0.3337  0.4586
  483TMC3     O 7187   2.453   4.019   1.654 -0.1995 -0.8919  0.0771
  483TMC3     H 7188   2.574   4.060   1.307  2.4133  0.9517 -1.5037
  483TMC3    H1 7189   2.686   4.001   1.713  0.3721  1.3773  0.6912
  483TMC3    H2 7190   2.991   4.062   1.430 -0.3586 -1.1194  0.3481
  483TMC3    C7 7191   2.936   3.998   1.685  0.0179 -0.1795 -0.2419
  483TMC3    C8 7192   2.817   4.046   1.219  0.2122 -0.2069 -0.4464
  483TMC3    O1 7193   3.038   3.943   1.640 -0.1087 -0.2573 -0.1973
  483TMC3    O2 7194   2.732   4.067   1.132  0.6631 -0.2958  0.1318
  484MPD2     C 7195   1.171   1.895  12.866  0.1708 -0.1031  0.5846
  484MPD2    C1 7196   1.138   1.828  12.749 -0.5581  0.3540  0.4905
  484MPD2    C2 7197   1.245   1.789  12.664  0.3862 -0.2153  0.8192
  484MPD2    C3 7198   1.374   1.833  12.694 -0.5910  0.2564 -0.1468
  484MPD2    C4 7199   1.400   1.899  12.807 -0.6255  0.4554 -0.1139
  484MPD2    C5 7200   1.298   1.933  12.894 -0.4290  0.3198  0.3464
  484MPD2     H 7201   1.227   1.714  12.588  2.9704 -0.4612  0.4641
  484MPD2    H1 7202   1.503   1.912  12.838 -0.8710 -0.1779  0.9518
  484MPD2    H2 7203   1.086   1.933  12.921  0.8455  1.4075  0.5890
  484MPD2    H3 7204   1.323   1.988  12.985  0.3910 -0.9396  0.8775
  484MPD2     N 7205   1.480   1.794  12.610 -0.4555 -1.2113 -0.8412
  484MPD2    H5 7206   1.571   1.833  12.635 -2.1690  1.3722  1.3553
  484MPD2    N1 7207   1.004   1.785  12.736 -0.5671  0.1209 -0.2071
  484MPD2    H7 7208   0.938   1.811  12.808  0.7097  3.8482 -0.3956
  485TMC3    C1 7209   1.595   1.696  12.436 -0.0754 -0.3852 -0.4057
  485TMC3    C2 7210   1.702   1.663  12.515 -0.5450  1.0111 -0.8888
  485TMC3    C3 7211   1.826   1.648  12.450 -0.5176 -0.5872 -0.8626
  485TMC3    C4 7212   1.603   1.703  12.295  0.0172 -0.2580 -0.0771
  485TMC3    C5 7213   1.729   1.700  12.234 -0.4541  0.0169  0.1083
  485TMC3    C6 7214   1.843   1.673  12.313  0.2767 -0.2264  0.3348
  485TMC3     C 7215   1.466   1.737  12.490  1.4415 -0.7018  0.3993
  485TMC3     O 7216   1.366   1.738  12.415 -0.3533 -0.2343 -0.5761
  485TMC3     H 7217   1.699   1.668  12.623 -1.5652 -0.9711 -0.8260
  485TMC3    H1 7218   1.515   1.738  12.243  0.5814  2.4428  0.7514
  485TMC3    H2 7219   1.943   1.664  12.272  1.3725  0.7811  2.7799
  485TMC3    C7 7220   1.725   1.611  12.123  0.0035 -0.7590 -0.6543
  485TMC3    C8 7221   1.918   1.543  12.491 -0.0499  0.0520  0.6097
  485TMC3    O1 7222   1.684   1.502  12.152 -0.1502  0.1100 -0.0861
  485TMC3    O2 7223   2.027   1.540  12.431  0.1450 -0.3960  0.2938
  486MPD2     C 7224   3.060   0.467  13.315  0.4286 -0.1566  0.9954
  486MPD2    C1 7225   3.061   0.440  13.179  0.0389  1.0805  0.2532
  486MPD2    C2 7226   3.059   0.549  13.090 -0.3736 -0.2277 -0.2733
  486MPD2    C3 7227   3.052   0.678  13.142  0.2696 -0.1911 -0.1018
  486MPD2    C4 7228   3.038   0.697  13.277 -0.1557  0.5625 -0.9523
  486MPD2    C5 7229   3.059   0.595  13.365 -0.8093 -0.1585 -0.3713
  486MPD2     H 7230   3.083   0.532  12.986 -1.5430 -2.1898 -0.2343
  486MPD2    H1 7231   3.037   0.792  13.329  0.7747 -0.3945  0.8301
  486MPD2    H2 7232   3.031   0.385  13.380  1.1059 -1.3671 -0.2284
  486MPD2    H3 7233   3.066   0.603  13.473 -0.2893  0.8700 -0.4729
  486MPD2     N 7234   3.026   0.777  13.044  0.6780 -0.0452 -0.0455
  486MPD2    H5 7235   3.027   0.750  12.946  1.2888  0.9218 -0.3047
  486MPD2    N1 7236   3.031   0.305  13.140 -0.1651 -0.9499 -0.6105
  486MPD2    H7 7237   3.021   0.234  13.212  1.1838 -1.5670 -1.0541
  487TMC3    C1 7238   3.038   0.125  12.991 -0.0894  0.1478 -0.1621
  487TMC3    C2 7239   2.974   0.075  12.877  0.5916  0.1612 -0.1617
  487TMC3    C3 7240   2.970   4.660  12.861  0.2972 -0.1387 -0.6109
  487TMC3    C4 7241   3.112   0.047  13.082 -0.0179 -0.1495  0.2480
  487TMC3    C5 7242   3.111   4.633  13.048  1.0407  0.4309  0.7722
  487TMC3    C6 7243   3.058   4.580  12.932  0.0598 -0.1159 -0.1985
  487TMC3     C 7244   3.029   0.269  13.003 -0.1494  0.4328  0.0586
  487TMC3     O 7245   3.012   0.339  12.906 -0.2744  0.0004  0.4335
  487TMC3     H 7246   2.926   0.140  12.804 -0.3383  0.0923  0.3991
  487TMC3    H1 7247   3.165   0.087  13.168 -1.4867  1.3571  0.4432
  487TMC3    H2 7248   3.059   4.472  12.937  0.6749 -0.1707 -1.5595
  487TMC3    C7 7249   3.092   4.547  13.162 -0.1637 -0.6502  0.2314
  487TMC3    C8 7250   2.841   4.601  12.869 -0.2049 -0.0137 -0.5695
  487TMC3    O1 7251   3.163   4.546  13.262 -0.0602 -0.2058 -0.3272
  487TMC3    O2 7252   2.833   4.485  12.909 -0.2421 -0.6239  0.4297
  488MPD2     C 7253   2.876   2.489  16.558 -1.0110 -0.8490  0.7187
  488MPD2    C1 7254   2.845   2.623  16.544 -0.2181 -0.7874 -0.6546
  488MPD2    C2 7255   2.775   2.682  16.646  0.1076  0.3459 -0.2289
  488MPD2    C3 7256   2.736   2.618  16.756  0.8523  0.0555 -0.0226
  488MPD2    C4 7257   2.779   2.493  16.771 -0.7167  0.1744  0.4340
  488MPD2    C5 7258   2.839   2.424  16.668  0.0265  0.2270  0.0286
  488MPD2     H 7259   2.748   2.786  16.633  1.2557  0.7892  0.8816
  488MPD2    H1 7260   2.756   2.437  16.861 -0.3810  1.0377  1.0557
  488MPD2    H2 7261   2.947   2.442  16.490 -2.2696  1.0239 -1.8476
  488MPD2    H3 7262   2.856   2.318  16.683 -1.5444 -0.0405 -0.0996
  488MPD2     N 7263   2.659   2.684  16.859  0.6825 -0.2319 -0.6157
  488MPD2    H5 7264   2.632   2.779  16.832  1.8577 -0.5147 -2.7981
  488MPD2    N1 7265   2.893   2.710  16.442 -0.3243  0.2737  0.0792
  488MPD2    H7 7266   2.874   2.809  16.453  2.6761  0.6318  2.0169
  489TMC3    C1 7267   2.534   2.733  17.048  0.0482 -0.0976  0.4610
  489TMC3    C2 7268   2.473   2.840  16.984 -1.0044 -0.4974 -0.3134
  489TMC3    C3 7269   2.453   2.953  17.065  0.4709  0.5266 -0.1588
  489TMC3    C4 7270   2.573   2.741  17.180  0.3590  0.0195  0.0411
  489TMC3    C5 7271   2.564   2.865  17.237 -0.0909  0.1394 -0.1292
  489TMC3    C6 7272   2.499   2.975  17.187 -0.1437 -0.6045  0.2833
  489TMC3     C 7273   2.604   2.628  16.970  0.3376 -0.8058  0.0272
  489TMC3     O 7274   2.627   2.519  17.021 -0.4502 -0.3642  0.7538
  489TMC3     H 7275   2.444   2.847  16.880  1.3818 -1.4765 -1.0438
  489TMC3    H1 7276   2.626   2.663  17.232 -0.7895 -0.4876  0.4386
  489TMC3    H2 7277   2.497   3.071  17.237  1.6237 -1.7702  2.5791
  489TMC3    C7 7278   2.639   2.886  17.361  0.4212 -0.1115  0.2220
  489TMC3    C8 7279   2.461   3.077  16.986 -0.0560  0.5440  0.0418
  489TMC3    O1 7280   2.721   2.797  17.393  0.3722  0.1115  0.0545
  489TMC3    O2 7281   2.540   3.162  17.026  0.7696 -0.0468 -0.5326
  490MPD2     C 7282   3.900   1.185  17.589  0.0158 -0.6032 -0.1080
  490MPD2    C1 7283   3.834   1.295  17.648  0.5419  0.1651 -0.2869
  490MPD2    C2 7284   3.866   1.427  17.606  0.4260 -0.1776  0.4395
  490MPD2    C3 7285   3.963   1.445  17.514 -0.3337  0.1142  0.4229
  490MPD2    C4 7286   4.029   1.332  17.463  0.6729 -0.3999 -0.0064
  490MPD2    C5 7287   3.993   1.205  17.490 -0.4397 -0.4213  0.0887
  490MPD2     H 7288   3.804   1.504  17.651 -2.0267 -1.9078  0.0479
  490MPD2    H1 7289   4.107   1.351  17.391  1.8287  3.2272  2.1767
  490MPD2    H2 7290   3.874   1.082  17.611 -0.2770 -0.9570 -2.1224
  490MPD2    H3 7291   4.050   1.124  17.447 -0.7947 -1.9251  2.4405
  490MPD2     N 7292   4.006   1.571  17.464  0.0880 -0.0568 -0.5978
  490MPD2    H5 7293   4.071   1.578  17.386  1.1182  0.4776  0.3062
  490MPD2    N1 7294   3.730   1.277   0.056 -0.8115  0.5523 -0.3585
  490MPD2    H7 7295   3.689   1.361   0.096 -1.3764  0.1739 -0.1443
  491TMC3    C1 7296   3.586   1.163   0.195 -0.1264  0.0296 -0.1556
  491TMC3    C2 7297   3.566   1.073   0.301  0.2045  0.1255  0.0979
  491TMC3    C3 7298   3.443   1.082   0.364  0.3682  0.8884  0.1187
  491TMC3    C4 7299   3.493   1.257   0.151  0.1762  0.3470 -0.1962
  491TMC3    C5 7300   3.380   1.267   0.230  0.0358  0.0847 -0.1991
  491TMC3    C6 7301   3.360   1.184   0.333  0.0884  0.8876  0.0274
  491TMC3     C 7302   3.707   1.158   0.124 -0.2863 -1.1037  1.0182
  491TMC3     O 7303   3.776   1.061   0.120  0.5806  0.5439 -0.3885
  491TMC3     H 7304   3.650   1.016   0.339  0.0282 -0.7117 -0.7656
  491TMC3    H1 7305   3.502   1.313   0.059  0.0092  0.4720 -0.1366
  491TMC3    H2 7306   3.272   1.191   0.396 -0.2042 -1.1574 -0.1572
  491TMC3    C7 7307   3.268   1.355   0.187  0.3441 -0.9881  0.2069
  491TMC3    C8 7308   3.416   0.993   0.473 -0.0206  0.1994 -0.6457
  491TMC3    O1 7309   3.160   1.336   0.244  0.0401  0.1095 -0.1948
  491TMC3    O2 7310   3.310   0.938   0.478 -0.4229 -0.1050  0.2446
  492MPD2     C 7311   4.715   1.492  10.997  0.4414 -0.1219 -0.6820
  492MPD2    C1 7312   4.602   1.421  10.989 -0.3153 -0.0987 -0.5126
  492MPD2    C2 7313   4.539   1.369  11.098  0.6521 -0.2800 -0.4770
  492MPD2    C3 7314   4.574   1.399  11.232 -0.1739  0.1438  0.5311
  492MPD2    C4 7315   4.698   1.464  11.237  0.0006  0.3577 -0.9131
  492MPD2    C5 7316   0.037   1.515  11.128 -0.3725 -0.3189 -0.2601
  492MPD2     H 7317   4.457   1.300  11.087 -0.2057  0.5635  0.5986
  492MPD2    H1 7318   0.024   1.500  11.326  1.3822  0.2349 -1.6354
  492MPD2    H2 7319   0.043   1.540  10.914  0.9975  0.5596  0.0548
  492MPD2    H3 7320   0.121   1.583  11.137 -1.3852  1.1289 -1.6314
  492MPD2     N 7321   4.511   1.354  11.351  0.1590 -0.9461  0.2890
  492MPD2    H5 7322   4.557   1.364  11.441  0.2620  0.0926  0.1165
  492MPD2    N1 7323   4.554   1.389  10.857  0.0281  0.8866 -0.2598
  492MPD2    H7 7324   4.612   1.421  10.780 -0.3764 -0.6155 -1.1817
  493TMC3    C1 7325   4.413   1.324  10.687 -0.0860  0.6840  0.0410
  493TMC3    C2 7326   4.470   1.416  10.599  0.5728  0.2348  0.4326
  493TMC3    C3 7327   4.438   1.421  10.467  0.6085  0.1509 -0.5232
  493TMC3    C4 7328   4.302   1.254  10.651  0.0571  1.0310 -0.3575
  493TMC3    C5 7329   4.262   1.276  10.518  0.3692  0.1600  0.1846
  493TMC3    C6 7330   4.318   1.370  10.429 -0.0136  0.1265  0.3316
  493TMC3     C 7331   4.439   1.319  10.831 -0.2998  0.6294  0.3565
  493TMC3     O 7332   4.359   1.255  10.895 -0.5415  0.3895 -0.1099
  493TMC3     H 7333   4.546   1.484  10.633  0.8183  0.6419 -0.9305
  493TMC3    H1 7334   4.249   1.192  10.723 -1.6241 -0.7528 -3.0938
  493TMC3    H2 7335   4.299   1.370  10.322  1.1716  3.3654  0.1258
  493TMC3    C7 7336   4.126   1.237  10.477 -0.0976 -0.8034 -0.1281
  493TMC3    C8 7337   4.506   1.515  10.374  0.3352 -0.0891  0.0216
  493TMC3    O1 7338   4.090   1.263  10.362  0.3378  0.0592 -1.0944
  493TMC3    O2 7339   4.445   1.570  10.284  0.4049 -0.0450  0.2941
  494TMC3    C1 7340   4.135   4.221   0.434  0.2705  0.3372 -0.4760
  494TMC3    C2 7341   4.132   4.091   0.479 -0.0955  0.4880  0.4436
  494TMC3    C3 7342   4.224   4.008   0.422  0.0586 -0.6265 -0.2057
  494TMC3    C4 7343   4.230   4.264   0.342  0.1785 -0.3902  0.4619
  494TMC3    C5 7344   4.323   4.176   0.298 -0.8862 -0.8834 -0.3310
  494TMC3    C6 7345   4.321   4.046   0.334 -0.2558  0.6755 -0.0614
  494TMC3     C 7346   4.038   4.300   0.493 -0.4708 -0.0673 -0.3257
  494TMC3     O 7347   3.954   4.242   0.557 -0.2203 -0.4121  0.1461
  494TMC3     H 7348   4.045   4.050   0.529 -0.3017  1.3023  0.7558
  494TMC3    H1 7349   4.230   4.365   0.303  0.7005 -1.0005 -1.1388
  494TMC3    H2 7350   4.398   3.976   0.306 -1.4305 -0.2322 -1.0307
  494TMC3    C7 7351   4.433   4.210   0.217 -0.0136  0.5363 -0.3110
  494TMC3    C8 7352   4.210   3.869   0.455 -0.2830 -0.0987  0.9798
  494TMC3    O1 7353   4.485   4.115   0.157  0.0595  0.0679  0.1783
  494TMC3    O2 7354   4.183   3.839   0.568  0.6507 -0.9866  0.3032
  495TMC3    C1 7355   3.210   0.574  14.913  0.5174  0.2954 -0.6729
  495TMC3    C2 7356   3.139   0.636  14.812 -0.1044 -0.1613  0.3125
  495TMC3    C3 7357   3.090   0.763  14.834  0.0803 -0.1222 -0.2127
  495TMC3    C4 7358   3.212   0.635  15.030 -0.1489 -0.6508 -0.2369
  495TMC3    C5 7359   3.158   0.759  15.057  0.0921 -0.1981 -0.3337
  495TMC3    C6 7360   3.101   0.829  14.951  0.0969 -0.1140 -0.7095
  495TMC3     C 7361   3.178   0.434  14.914  0.5266 -0.0258  1.4348
  495TMC3     O 7362   3.117   0.392  14.821  0.2849 -0.1986 -0.7541
  495TMC3     H 7363   3.120   0.579  14.722  1.9906 -2.1133  1.0869
  495TMC3    H1 7364   3.248   0.581  15.117  1.2236 -0.4453 -0.6719
  495TMC3    H2 7365   3.062   0.928  14.973 -2.9614 -1.7353  1.0847
  495TMC3    C7 7366   3.114   0.776  15.196  0.3722  0.3063 -0.5243
  495TMC3    C8 7367   3.006   0.830  14.738  0.9353 -0.7493 -0.2630
  495TMC3    O1 7368   3.183   0.723  15.283  0.0910  0.2067 -0.1025
  495TMC3    O2 7369   2.978   0.951  14.744 -0.8040  0.0963 -0.9280
  496MPD2     C 7370   0.307   0.318  15.495  0.3498  0.1576 -0.2752
  496MPD2    C1 7371   0.387   0.428  15.469  0.9107 -0.1114 -0.6639
  496MPD2    C2 7372   0.352   0.546  15.527  0.0988 -0.1135 -0.1298
  496MPD2    C3 7373   0.253   0.550  15.625  0.1880  0.4132 -0.3842
  496MPD2    C4 7374   0.177   0.438  15.649 -0.6592  0.1847 -0.0144
  496MPD2    C5 7375   0.207   0.322  15.588 -0.2532  0.0829  0.2165
  496MPD2     H 7376   0.405   0.635  15.498  3.0786 -1.0213  2.4131
  496MPD2    H1 7377   0.089   0.441  15.712  0.6435  2.3472  1.7145
  496MPD2    H2 7378   0.331   0.217  15.462 -2.6788 -0.4865 -0.4884
  496MPD2    H3 7379   0.145   0.234  15.600  1.1477 -1.0514 -0.8422
  496MPD2     N 7380   0.225   0.674  15.703 -0.1757 -0.0751  0.0576
  496MPD2    H5 7381   0.148   0.669  15.768 -1.3712 -0.1382 -1.3708
  496MPD2    N1 7382   0.501   0.412  15.384  0.3117 -0.0913  0.2497
  496MPD2    H7 7383   0.516   0.318  15.349  3.4026  0.9193 -1.0847
  497TMC3    C1 7384   0.271   0.874  15.820 -0.2900  0.3598 -0.1943
  497TMC3    C2 7385   0.135   0.910  15.832  0.3478  0.0167  0.4530
  497TMC3    C3 7386   0.113   1.023  15.896  0.5537 -0.2552  1.2708
  497TMC3    C4 7387   0.377   0.947  15.864  0.3346  0.0997  0.6769
  497TMC3    C5 7388   0.346   1.064  15.930 -0.1876 -0.2103 -0.6595
  497TMC3    C6 7389   0.211   1.105  15.948  0.0983 -0.9567  0.6808
  497TMC3     C 7390   0.304   0.781  15.708 -0.4249  0.0314 -0.0241
  497TMC3     O 7391   0.398   0.816  15.640 -0.3015  0.6009 -0.3503
  497TMC3     H 7392   0.053   0.857  15.785 -0.3853  3.3298 -2.0035
  497TMC3    H1 7393   0.476   0.930  15.822  0.5361  0.4719  1.0058
  497TMC3    H2 7394   0.181   1.191  16.007  0.1992  0.7312 -1.7481
  497TMC3    C7 7395   0.449   1.145  15.992  0.8939  0.2049  0.3137
  497TMC3    C8 7396   4.701   1.064  15.935 -0.5823 -0.4077  0.9524
  497TMC3    O1 7397   0.421   1.254  16.037 -0.0195  0.4693  0.1458
  497TMC3    O2 7398   4.684   1.180  15.974 -0.4037 -0.0895 -0.5809
  498MPD2     C 7399   2.232   1.458   9.675  0.0885 -0.4031 -0.1511
  498MPD2    C1 7400   2.168   1.530   9.771  0.1121  0.0765 -0.0855
  498MPD2    C2 7401   2.041   1.499   9.820 -0.4403  0.5999 -0.0325
  498MPD2    C3 7402   1.981   1.385   9.762 -0.2563  0.1156  0.1577
  498MPD2    C4 7403   2.040   1.320   9.661 -0.4198 -0.1721 -0.4772
  498MPD2    C5 7404   2.165   1.351   9.624 -0.5772  0.0048 -0.5596
  498MPD2     H 7405   1.991   1.553   9.900  0.3060  0.9833  0.1753
  498MPD2    H1 7406   1.990   1.246   9.600 -1.2997 -0.9986  1.2302
  498MPD2    H2 7407   2.326   1.492   9.634 -0.3352  0.7518 -0.1883
  498MPD2    H3 7408   2.215   1.286   9.553  0.6627  0.3996 -0.0392
  498MPD2     N 7409   1.852   1.345   9.811 -0.4434 -0.5886 -0.0850
  498MPD2    H5 7410   1.820   1.393   9.894  1.5684 -0.7281  0.7684
  498MPD2    N1 7411   2.226   1.650   9.827 -0.4460  0.1181 -0.0918
  498MPD2    H7 7412   2.171   1.711   9.886 -0.9164 -0.9642  0.5819
  499TMC3    C1 7413   2.372   1.825   9.888  0.5774 -0.4265 -0.0927
  499TMC3    C2 7414   2.503   1.830   9.938 -0.3689  0.0740 -0.4869
  499TMC3    C3 7415   2.546   1.955   9.973  0.5098  0.1344  0.8865
  499TMC3    C4 7416   2.280   1.919   9.908  0.3873 -0.1722  0.9735
  499TMC3    C5 7417   2.322   2.034   9.963 -0.2126 -0.0957 -0.0392
  499TMC3    C6 7418   2.457   2.057   9.990 -0.2999  0.0223 -0.2523
  499TMC3     C 7419   2.354   1.701   9.813 -0.4189  0.4555 -0.3507
  499TMC3     O 7420   2.453   1.642   9.769 -0.3639  0.0501  0.1694
  499TMC3     H 7421   2.576   1.751   9.923  2.0234  1.9286  1.4674
  499TMC3    H1 7422   2.180   1.892   9.877  0.2383  1.1385  0.2972
  499TMC3    H2 7423   2.491   2.156  10.021 -0.7098  0.8288 -2.3556
  499TMC3    C7 7424   2.238   2.153   9.947 -0.4189  0.4152  0.8615
  499TMC3    C8 7425   2.680   1.969  10.029  0.4011  0.2730 -0.4474
  499TMC3    O1 7426   2.293   2.253   9.900 -0.6327  0.3027  0.0589
  499TMC3    O2 7427   2.703   2.064  10.103 -0.4201  0.3819 -0.2560
  500MPD2     C 7428   3.302   2.254  10.570 -0.2880  0.4543  0.1434
  500MPD2    C1 7429   3.322   2.349  10.473 -0.2624  0.3631 -0.3866
  500MPD2    C2 7430   3.215   2.373  10.387 -0.1707  0.1145  0.0157
  500MPD2    C3 7431   3.091   2.303  10.407  0.8070  0.2307  0.9292
  500MPD2    C4 7432   3.078   2.215  10.511  0.0378  0.4575 -0.5896
  500MPD2    C5 7433   3.187   2.190  10.587 -0.2085 -0.6037 -0.2721
  500MPD2     H 7434   3.233   2.443  10.307  0.6394 -0.1876 -0.0685
  500MPD2    H1 7435   2.984   2.172  10.543 -0.1712 -0.7457 -2.8309
  500MPD2    H2 7436   3.383   2.219  10.634  0.0328  1.6617  0.4010
  500MPD2    H3 7437   3.173   2.107  10.655  0.1917  0.5800  1.2584
  500MPD2     N 7438   2.979   2.331  10.333  0.0843 -0.0231  0.4227
  500MPD2    H5 7439   2.887   2.322  10.374  0.6689  2.6403  2.2983
  500MPD2    N1 7440   3.443   2.422  10.456  0.3355  0.0694  0.0770
  500MPD2    H7 7441   3.461   2.490  10.383  1.0647  0.0823  0.2671
  501TMC3    C1 7442   3.643   2.517  10.500 -0.8568 -0.2578 -1.0593
  501TMC3    C2 7443   3.594   2.615  10.418  0.6787 -0.0678  0.6665
  501TMC3    C3 7444   3.686   2.691  10.356  0.2706  0.1893  0.5460
  501TMC3    C4 7445   3.775   2.493  10.520 -0.0680  0.2601  0.2088
  501TMC3    C5 7446   3.861   2.577  10.456  0.3394  0.3033  0.0902
  501TMC3    C6 7447   3.820   2.678  10.378 -0.2889 -0.3971  0.9556
  501TMC3     C 7448   3.557   2.408  10.535  0.2009  0.3954 -0.2537
  501TMC3     O 7449   3.588   2.330  10.624  0.2493 -0.1427 -0.2272
  501TMC3     H 7450   3.492   2.651  10.429  0.6321  0.1192 -0.4540
  501TMC3    H1 7451   3.811   2.404  10.570  1.3394  0.1342 -1.0185
  501TMC3    H2 7452   3.896   2.740  10.333  2.7174 -4.0947  0.9542
  501TMC3    C7 7453   4.000   2.548  10.489 -0.3023 -0.4746 -0.8619
  501TMC3    C8 7454   3.625   2.806  10.283 -0.5969  0.2301  0.3978
  501TMC3    O1 7455   4.028   2.438  10.531  0.2067  0.7855 -0.2877
  501TMC3    O2 7456   3.511   2.788  10.236  0.2289 -0.1502 -0.3573
  502TMC3    C1 7457   2.674   1.623  15.740 -0.0010  0.1742  0.5436
  502TMC3    C2 7458   2.695   1.683  15.622 -0.6138 -0.4118  0.1842
  502TMC3    C3 7459   2.593   1.679  15.536  0.4275  0.2753  0.1122
  502TMC3    C4 7460   2.556   1.571  15.769  1.0413  0.1709  0.6612
  502TMC3    C5 7461   2.454   1.562  15.679  0.2075 -0.0409  0.0183
  502TMC3    C6 7462   2.472   1.634  15.563 -0.4437 -0.1017  0.1057
  502TMC3     C 7463   2.790   1.631  15.836 -0.7680  0.2220 -0.0489
  502TMC3     O 7464   2.893   1.685  15.805 -0.4472  0.0443  0.2423
  502TMC3     H 7465   2.790   1.719  15.587 -0.7210 -0.8475 -0.5672
  502TMC3    H1 7466   2.540   1.529  15.867  0.5123 -2.5513 -0.5982
  502TMC3    H2 7467   2.402   1.635  15.480 -1.7108 -0.7224  1.1712
  502TMC3    C7 7468   2.357   1.460  15.685 -0.6784 -0.0385  0.3584
  502TMC3    C8 7469   2.620   1.719  15.399 -0.2879  0.7870 -0.2275
  502TMC3    O1 7470   2.380   1.368  15.771 -0.3888 -0.1091  0.2965
  502TMC3    O2 7471   2.557   1.811  15.354 -0.6150 -0.2458 -0.1553
  503MPD2     C 7472   4.559   2.175  17.435  0.2033  0.0675 -1.2973
  503MPD2    C1 7473   4.653   2.247  17.502 -0.3428 -0.0329  0.1675
  503MPD2    C2 7474   0.063   2.208  17.485  0.5577  0.2987  0.2250
  503MPD2    C3 7475   0.094   2.101  17.402  0.8128  0.0416  0.1653
  503MPD2    C4 7476   4.717   2.033  17.336 -0.1254  0.0855  0.0768
  503MPD2    C5 7477   4.587   2.074  17.350  0.4661 -0.9524  0.2661
  503MPD2     H 7478   0.143   2.264  17.532  1.6218 -0.5761 -0.5544
  503MPD2    H1 7479   0.021   1.945  17.279 -1.1732 -0.2160  0.0512
  503MPD2    H2 7480   4.454   2.204  17.430  0.3440  0.7635 -0.1789
  503MPD2    H3 7481   4.517   2.011  17.295 -0.6348  0.8751 -0.4340
  503MPD2     N 7482   0.229   2.061  17.391 -0.0630  0.2565 -0.2237
  503MPD2    H5 7483   0.295   2.096  17.459 -0.0558  1.0352 -0.6283
  503MPD2    N1 7484   4.625   2.364  17.569 -0.4805 -0.0563  0.3857
  503MPD2    H7 7485   4.706   2.417  17.600  0.3645 -1.4665  0.5996
  504TMC3    C1 7486   0.416   1.938  17.316  0.4197  0.5662  0.7761
  504TMC3    C2 7487   0.456   1.934  17.447 -0.1826  0.0464  0.0306
  504TMC3    C3 7488   0.590   1.925  17.471 -0.0315 -0.4377  0.6966
  504TMC3    C4 7489   0.498   1.906  17.210 -0.0946 -0.2993  0.1693
  504TMC3    C5 7490   0.628   1.880  17.239  0.2206 -0.7627  0.3459
  504TMC3    C6 7491   0.674   1.890  17.366  0.4895  0.1212  1.1172
  504TMC3     C 7492   0.277   1.967  17.298 -0.5093  0.6090 -0.3763
  504TMC3     O 7493   0.238   1.941  17.184 -0.2633  0.2468  0.2927
  504TMC3     H 7494   0.390   1.956  17.530  1.2265 -0.7849  1.3648
  504TMC3    H1 7495   0.455   1.891  17.111 -1.0202 -0.5283  0.6038
  504TMC3    H2 7496   0.782   1.895  17.371  0.4684  1.3778  0.4692
  504TMC3    C7 7497   0.702   1.789  17.160  0.2800 -0.2453 -0.3285
  504TMC3    C8 7498   0.654   1.937  17.597 -0.5183 -0.1559 -0.3020
  504TMC3    O1 7499   0.704   1.798  17.039  0.3033 -0.1724 -0.2783
  504TMC3    O2 7500   0.768   1.975  17.588  0.3363  0.2411  0.3486
  505MPD2     C 7501   0.969   0.742  10.829  0.9959 -0.3120 -0.1411
  505MPD2    C1 7502   1.024   0.656  10.728 -0.2311  0.3233  0.7860
  505MPD2    C2 7503   1.159   0.634  10.734 -0.2280 -0.5328 -0.3513
  505MPD2    C3 7504   1.239   0.696  10.834 -0.1133  0.1527 -1.0024
  505MPD2    C4 7505   1.178   0.776  10.919  0.6359  0.4064 -0.0849
  505MPD2    C5 7506   1.045   0.797  10.919  0.0062  0.0718 -0.0882
  505MPD2     H 7507   1.198   0.566  10.660  2.2873  0.3448  0.1624
  505MPD2    H1 7508   1.244   0.821  10.993  1.9576 -0.9102 -0.4787
  505MPD2    H2 7509   0.863   0.764  10.836  1.0703 -0.4451  1.3032
  505MPD2    H3 7510   0.996   0.861  10.992 -0.0977 -1.0073  0.7979
  505MPD2     N 7511   1.383   0.667  10.845 -0.0894 -0.0669  0.5382
  505MPD2    H5 7512   1.440   0.715  10.914  0.0058  0.4119  0.1219
  505MPD2    N1 7513   0.940   0.602  10.627  0.5379  0.0188 -0.7835
  505MPD2    H7 7514   0.853   0.651  10.608  1.9199  2.7459 -0.1232
  506TMC3    C1 7515   0.886   0.451  10.460 -0.2255 -0.5645 -0.5007
  506TMC3    C2 7516   0.853   0.554  10.377 -0.2581 -0.6088 -0.5003
  506TMC3    C3 7517   0.825   0.522  10.247  0.2517  0.9092  0.6467
  506TMC3    C4 7518   0.897   0.323  10.415 -0.4490 -0.2123  0.6486
  506TMC3    C5 7519   0.886   0.303  10.279  0.4990 -0.3352 -0.1227
  506TMC3    C6 7520   0.833   0.395  10.194  0.3049 -0.0169  0.4297
  506TMC3     C 7521   0.972   0.482  10.568 -0.4321  0.3783  0.3657
  506TMC3     O 7522   1.066   0.397  10.579  0.5648  0.0826 -0.0546
  506TMC3     H 7523   0.833   0.654  10.413  0.4684 -0.2232 -1.1577
  506TMC3    H1 7524   0.935   0.241  10.475  2.4597  0.3729 -0.4276
  506TMC3    H2 7525   0.842   0.386  10.086  1.5183  2.7484  0.2733
  506TMC3    C7 7526   1.013   0.262  10.225 -0.3875 -0.3093 -1.5350
  506TMC3    C8 7527   0.810   0.619  10.137  0.9113 -0.4368  0.0015
  506TMC3    O1 7528   1.016   0.237  10.107 -0.1142 -0.1706  0.1623
  506TMC3    O2 7529   0.736   0.581  10.046  0.0264  0.1056 -0.3751
  507TMC3    C1 7530   0.933   1.736  14.813  0.0227 -0.1626 -0.2618
  507TMC3    C2 7531   0.919   1.688  14.684  0.1155  0.2550 -0.1828
  507TMC3    C3 7532   1.031   1.690  14.606 -0.4807 -0.2244 -0.0320
  507TMC3    C4 7533   1.056   1.770  14.871  0.2592  0.2477  0.0911
  507TMC3    C5 7534   1.161   1.770  14.787  0.0647 -0.2643  0.3006
  507TMC3    C6 7535   1.155   1.721  14.661  0.4552  0.0861  1.1167
  507TMC3     C 7536   0.825   1.743  14.905  0.1920 -0.3899  0.3653
  507TMC3     O 7537   0.829   1.834  14.984 -0.6015 -0.4026  0.3687
  507TMC3     H 7538   0.818   1.679  14.647 -1.4529 -2.3166  4.7176
  507TMC3    H1 7539   1.060   1.800  14.974  1.4660 -0.2530  0.1822
  507TMC3    H2 7540   1.240   1.707  14.596  1.2902  0.8919  2.0310
  507TMC3    C7 7541   1.255   1.868  14.823  0.2426 -0.1122 -0.5998
  507TMC3    C8 7542   1.013   1.791  14.503  0.1148  0.3482  0.9155
  507TMC3    O1 7543   1.287   1.883  14.942  0.8168  0.1636  0.1236
  507TMC3    O2 7544   1.109   1.869  14.506  0.8116 -0.0348 -0.9481
  508MPD2     C 7545   2.103   4.144  16.015 -0.4691  0.1912 -0.7026
  508MPD2    C1 7546   2.225   4.208  16.016  0.4759 -0.4960  0.3332
  508MPD2    C2 7547   2.255   4.290  15.911 -0.3231 -0.2182  0.5055
  508MPD2    C3 7548   2.170   4.322  15.807  0.0516 -0.3238  0.3426
  508MPD2    C4 7549   2.047   4.263  15.811 -0.0367  0.1942  0.6463
  508MPD2    C5 7550   2.011   4.177  15.911 -0.3953 -0.3288 -0.9232
  508MPD2     H 7551   2.357   4.326  15.915 -0.8082  1.1949  0.0779
  508MPD2    H1 7552   1.969   4.283  15.738  0.5670 -3.9011 -1.0946
  508MPD2    H2 7553   2.075   4.064  16.083 -1.0603  3.0359  2.4050
  508MPD2    H3 7554   1.916   4.126  15.901 -1.0089  1.2598 -3.3390
  508MPD2     N 7555   2.226   4.390  15.696 -0.5450  0.8801 -0.0456
  508MPD2    H5 7556   2.318   4.428  15.713 -0.0060 -1.0251  1.3337
  508MPD2    N1 7557   2.320   4.186  16.118 -0.4940  0.2138 -0.2339
  508MPD2    H7 7558   2.405   4.238  16.100  0.7762 -1.3084  1.3015
  509TMC3    C1 7559   2.259   0.022  15.445  0.6375  0.8738 -0.1165
  509TMC3    C2 7560   2.386   0.025  15.489 -0.6219 -0.2524 -0.5267
  509TMC3    C3 7561   2.448   4.638  15.539 -0.1542  0.4372 -0.8401
  509TMC3    C4 7562   2.185   4.625  15.451  0.3133 -0.5198  0.6830
  509TMC3    C5 7563   2.246   4.510  15.498  0.8346 -0.1094  0.1706
  509TMC3    C6 7564   2.376   4.518  15.543  0.8781 -0.2877 -0.6316
  509TMC3     C 7565   2.196   0.152  15.468 -0.3228  0.2655  0.0280
  509TMC3     O 7566   2.252   0.224  15.548 -0.2656  0.4584 -0.6466
  509TMC3     H 7567   2.427   0.124  15.472 -0.3074 -0.4534 -0.9457
  509TMC3    H1 7568   2.082   4.632  15.417 -0.0338  1.9377  2.1899
  509TMC3    H2 7569   2.432   4.437  15.590 -0.1272 -0.6694 -0.0858
  509TMC3    C7 7570   2.161   4.428  15.580 -0.1116 -0.6586 -0.8693
  509TMC3    C8 7571   2.512   4.661  15.665  0.5102  0.1196 -0.0298
  509TMC3    O1 7572   2.045   4.406  15.550  0.0379 -0.3400 -0.2919
  509TMC3    O2 7573   2.554   4.559  15.718 -0.3775 -0.1111 -0.5588
  510MPD2     C 7574   4.403   1.223  14.351  0.0674 -0.2409 -0.9697
  510MPD2    C1 7575   4.451   1.248  14.475 -0.2742 -0.4347 -0.0738
  510MPD2    C2 7576   4.583   1.296  14.486 -0.2506  0.5575 -0.1999
  510MPD2    C3 7577   4.663   1.326  14.371  0.4802  0.2589  0.5483
  510MPD2    C4 7578   4.607   1.297  14.245 -0.5772 -0.1897 -0.4167
  510MPD2    C5 7579   4.478   1.248  14.238 -0.1020 -0.2494 -0.1899
  510MPD2     H 7580   4.628   1.300  14.585 -1.4307  1.5957  0.2988
  510MPD2    H1 7581   4.666   1.299  14.154 -0.1694 -0.0081 -0.1472
  510MPD2    H2 7582   4.308   1.173  14.333 -1.5289  2.4677 -0.0959
  510MPD2    H3 7583   4.439   1.234  14.138  1.9046 -0.3675 -0.9538
  510MPD2     N 7584   0.078   1.348  14.387  0.1778  0.0876 -0.2067
  510MPD2    H5 7585   0.118   1.350  14.480  0.3805  1.8716 -0.3374
  510MPD2    N1 7586   4.370   1.202  14.577  0.5409  0.1136  0.6182
  510MPD2    H7 7587   4.289   1.146  14.553  0.5011  0.3804  0.1156
  511TMC3    C1 7588   4.289   1.176  14.797 -0.4947  0.2145  0.1123
  511TMC3    C2 7589   4.285   1.232  14.921  1.3404  0.3375 -0.1436
  511TMC3    C3 7590   4.243   1.153  15.023  0.6381  0.3453 -0.2464
  511TMC3    C4 7591   4.261   1.041  14.772  0.5583  0.4438 -0.8312
  511TMC3    C5 7592   4.227   0.965  14.878 -0.8345 -0.3972 -1.1916
  511TMC3    C6 7593   4.222   1.014  15.005  0.2624  0.6794  0.0823
  511TMC3     C 7594   4.373   1.249  14.703 -0.1748  0.1069  0.3920
  511TMC3     O 7595   4.452   1.329  14.755 -0.5670 -0.7663 -0.4466
  511TMC3     H 7596   4.305   1.337  14.941 -1.7322  1.1821 -1.5544
  511TMC3    H1 7597   4.275   0.992  14.675  0.6578 -1.9962  0.4045
  511TMC3    H2 7598   4.176   0.955  15.083  3.3939 -0.0296  1.3946
  511TMC3    C7 7599   4.198   0.830  14.851  0.3300  0.9411  0.0762
  511TMC3    C8 7600   4.213   1.208  15.148 -1.2755 -0.4094 -0.1969
  511TMC3    O1 7601   4.155   0.814  14.742 -0.0317  0.0280 -0.3437
  511TMC3    O2 7602   4.169   1.323  15.147  0.1160  0.0699 -0.0669
  512TMC3    C1 7603   3.457   0.538  13.341 -0.0334 -0.3202  0.2797
  512TMC3    C2 7604   3.514   0.485  13.456 -0.3994  0.1349 -0.2711
  512TMC3    C3 7605   3.546   0.351  13.449  0.5939 -0.1992  0.1279
  512TMC3    C4 7606   3.421   0.461  13.232 -0.6241 -0.0244  0.5032
  512TMC3    C5 7607   3.466   0.333  13.232  0.2172 -0.1362 -0.6912
  512TMC3    C6 7608   3.525   0.267  13.339 -0.4353 -0.0217  0.8779
  512TMC3     C 7609   3.431   0.684  13.336  0.0032 -1.1301 -0.3553
  512TMC3     O 7610   3.408   0.734  13.441 -0.2000 -0.0082 -0.3719
  512TMC3     H 7611   3.532   0.545  13.545 -2.0682  1.8839 -1.1011
  512TMC3    H1 7612   3.362   0.502  13.151  0.1870  1.2463  0.5560
  512TMC3    H2 7613   3.570   0.170  13.323 -1.4259 -0.2172 -0.7162
  512TMC3    C7 7614   3.436   0.267  13.107  0.0329  0.2938  0.6525
  512TMC3    C8 7615   3.622   0.296  13.559  0.2581 -0.8333 -0.0792
  512TMC3    O1 7616   3.416   0.340  13.012  0.2907  0.5480 -0.1202
  512TMC3    O2 7617   3.630   0.173  13.566  0.1077 -0.0838 -0.3788
  513MPD2     C 7618   0.525   4.674  12.953 -0.3126 -0.2458 -0.6415
  513MPD2    C1 7619   0.593   0.015  12.847 -0.1134 -0.4519  1.1894
  513MPD2    C2 7620   0.642   0.138  12.863 -0.1279 -0.8417  0.6724
  513MPD2    C3 7621   0.606   0.210  12.975  0.3073  0.9350 -0.4026
  513MPD2    C4 7622   0.534   0.152  13.078  0.4966  0.2750  0.1075
  513MPD2    C5 7623   0.483   0.029  13.063 -0.1851  0.1511  0.2191
  513MPD2     H 7624   0.710   0.178  12.789 -2.2436 -0.7244 -1.1976
  513MPD2    H1 7625   0.493   0.210  13.160  0.8749 -0.3107  0.7179
  513MPD2    H2 7626   0.487   4.573  12.939 -0.2386 -0.2767 -0.6180
  513MPD2    H3 7627   0.412   4.709  13.132 -1.2824 -0.8865 -1.5763
  513MPD2     N 7628   0.651   0.343  12.982 -0.2317 -0.2920 -0.1946
  513MPD2    H5 7629   0.704   0.373  12.900  0.7419  0.8946  0.8791
  513MPD2    N1 7630   0.628   4.647  12.746  0.6092 -0.3641 -0.0678
  513MPD2    H7 7631   0.608   4.550  12.767  0.2472 -0.0216  1.2010
  514TMC3    C1 7632   0.748   4.581  12.555  0.1851  0.6595 -0.1222
  514TMC3    C2 7633   0.723   4.589  12.417 -0.5486  0.8763 -0.2686
  514TMC3    C3 7634   0.807   4.536  12.329  0.4865 -0.2470  0.0694
  514TMC3    C4 7635   0.866   4.550  12.602 -0.7372 -0.1274  0.1168
  514TMC3    C5 7636   0.965   4.520  12.504 -0.3110  0.1232  0.0507
  514TMC3    C6 7637   0.927   4.488  12.375 -0.4171 -0.1134 -0.5706
  514TMC3     C 7638   0.683   4.688  12.627  0.2001  0.2845 -0.0242
  514TMC3     O 7639   0.712   0.076  12.580  0.3297  0.1271 -0.4197
  514TMC3     H 7640   0.621   4.618  12.393 -0.4952  1.4182  0.1486
  514TMC3    H1 7641   0.877   4.562  12.709 -0.6665  1.5511 -0.0865
  514TMC3    H2 7642   0.991   4.429  12.310  0.3964 -1.2375  1.2663
  514TMC3    C7 7643   1.076   4.606  12.506  0.7009  0.1321  0.2662
  514TMC3    C8 7644   0.761   4.522  12.194  0.1585  0.2267 -0.7433
  514TMC3    O1 7645   1.177   4.578  12.447  0.5150 -0.6318 -0.3380
  514TMC3    O2 7646   0.642   4.527  12.175 -0.4814 -0.4789 -0.6301
  515MPD2     C 7647   3.363   2.402  15.371  0.0832 -0.7474  0.2134
  515MPD2    C1 7648   3.426   2.342  15.268  0.8447  0.1235  0.2139
  515MPD2    C2 7649   3.537   2.394  15.205 -0.1878 -0.4162  0.3503
  515MPD2    C3 7650   3.598   2.503  15.270  0.3392 -0.2174 -1.1804
  515MPD2    C4 7651   3.541   2.566  15.380  0.2046  0.8230  0.2747
  515MPD2    C5 7652   3.422   2.508  15.429  0.3151 -0.4702  0.2862
  515MPD2     H 7653   3.591   2.336  15.132  2.4447 -0.9270  2.7194
  515MPD2    H1 7654   3.592   2.646  15.433 -0.9190  0.7621  1.4367
  515MPD2    H2 7655   3.268   2.369  15.413  0.5034 -1.7613  0.3661
  515MPD2    H3 7656   3.379   2.542  15.523  1.3155 -1.6633  1.1875
  515MPD2     N 7657   3.735   2.526  15.228  0.4557  0.3350 -0.3450
  515MPD2    H5 7658   3.782   2.458  15.169  1.9376  1.4376 -0.4257
  515MPD2    N1 7659   3.389   2.216  15.213 -0.1205  0.7370  0.4016
  515MPD2    H7 7660   3.429   2.195  15.122 -0.1248  4.1224 -0.3817
  516TMC3    C1 7661   3.256   2.014  15.184 -0.3296 -0.4320  1.0885
  516TMC3    C2 7662   3.271   2.021  15.048  0.2348  0.2813 -0.7456
  516TMC3    C3 7663   3.227   1.912  14.980 -0.1240  0.6039  0.1478
  516TMC3    C4 7664   3.204   1.910  15.258 -0.2201  0.6844 -0.4398
  516TMC3    C5 7665   3.162   1.811  15.177  0.3498 -0.0687 -0.0914
  516TMC3    C6 7666   3.171   1.810  15.041  0.2309  0.3117 -0.0145
  516TMC3     C 7667   3.299   2.125  15.267 -0.5399 -0.5316  0.1971
  516TMC3     O 7668   3.255   2.129  15.383 -0.0579 -0.0266 -0.0294
  516TMC3     H 7669   3.285   2.113  14.993 -1.1585  0.9080 -0.0507
  516TMC3    H1 7670   3.191   1.905  15.365  5.1450 -0.7335  0.1230
  516TMC3    H2 7671   3.129   1.732  14.979  0.8944 -0.2855  0.2813
  516TMC3    C7 7672   3.154   1.677  15.238  0.5107 -0.2644  0.3678
  516TMC3    C8 7673   3.217   1.918  14.828 -0.3504 -0.8785 -0.6061
  516TMC3    O1 7674   3.156   1.673  15.359 -0.0892  0.1327  0.4051
  516TMC3    O2 7675   3.128   1.857  14.773  0.1546  0.1960 -0.3835
  517MPD2     C 7676   2.638   3.909  17.486  0.0255  0.5688 -0.1874
  517MPD2    C1 7677   2.744   3.868  17.570  0.8609  0.6889 -0.5526
  517MPD2    C2 7678   2.777   3.959  17.679 -0.2200  0.6755 -0.3031
  517MPD2    C3 7679   2.706   4.071   0.006 -0.3990 -0.0545 -0.0487
  517MPD2    C4 7680   2.598   4.100  17.617  0.4478  0.1414 -0.0982
  517MPD2    C5 7681   2.566   4.017  17.516 -0.2034  0.6814 -0.3593
  517MPD2     H 7682   2.856   3.929   0.052 -1.7251 -0.1559  1.0875
  517MPD2    H1 7683   2.532   4.184  17.637  1.6391  1.1521 -0.4536
  517MPD2    H2 7684   2.600   3.865  17.395  1.7493 -0.1981 -0.5320
  517MPD2    H3 7685   2.493   4.057  17.447  0.2073  0.8312 -0.7044
  517MPD2     N 7686   2.730   4.141   0.128  0.2342 -0.2015 -0.0168
  517MPD2    H5 7687   2.659   4.200   0.171  1.7602  0.2116  1.8945
  517MPD2    N1 7688   2.808   3.739  17.565 -0.1481 -0.6360 -0.3708
  517MPD2    H7 7689   2.863   3.716  17.647  0.3318 -3.3059 -1.4483
  518TMC3    C1 7690   2.860   3.534  17.471  0.9119 -0.1175 -0.2888
  518TMC3    C2 7691   2.833   3.442  17.369 -0.5984  0.3924 -0.1489
  518TMC3    C3 7692   2.905   3.325  17.365 -0.2017 -0.2869  0.2175
  518TMC3    C4 7693   2.957   3.511  17.569 -0.6159 -0.2404 -0.3855
  518TMC3    C5 7694   3.022   3.396  17.557  0.6923 -0.8661 -0.1125
  518TMC3    C6 7695   3.005   3.301  17.456 -0.0324 -0.0181 -0.9466
  518TMC3     C 7696   2.788   3.657  17.454  0.0455 -0.4403 -0.1276
  518TMC3     O 7697   2.733   3.673  17.346 -0.0698  0.3611  0.7049
  518TMC3     H 7698   2.763   3.459  17.288 -0.3910 -1.4791 -0.7123
  518TMC3    H1 7699   2.988   3.585  17.643  1.0570  0.9309 -2.2764
  518TMC3    H2 7700   3.077   3.221  17.441 -0.5892 -0.6831 -0.1182
  518TMC3    C7 7701   3.147   3.397  17.629 -0.8196 -0.3515  0.1373
  518TMC3    C8 7702   2.886   3.222  17.256  0.1610 -0.1323 -0.3947
  518TMC3    O1 7703   3.187   3.507  17.668  0.0468 -0.2298  0.6172
  518TMC3    O2 7704   2.802   3.251  17.177  0.1525 -0.1014  0.1422
  519MPD2     C 7705   0.090   2.012  14.859  0.1406 -0.2841 -0.5909
  519MPD2    C1 7706   0.029   2.038  14.741 -0.5754 -0.1809  0.6456
  519MPD2    C2 7707   0.032   1.946  14.640 -0.2844 -0.3748 -0.3014
  519MPD2    C3 7708   0.104   1.825  14.652  0.6479 -0.2174  0.7001
  519MPD2    C4 7709   0.169   1.801  14.767 -0.3473 -0.3689 -0.0070
  519MPD2    C5 7710   0.145   1.885  14.872 -1.2677 -0.3296 -0.4847
  519MPD2     H 7711   4.702   1.969  14.548 -0.1973 -1.5534 -0.6355
  519MPD2    H1 7712   0.241   1.720  14.777 -0.9470 -0.7179  1.4407
  519MPD2    H2 7713   0.091   2.068  14.952  0.6260  0.5209 -1.0769
  519MPD2    H3 7714   0.187   1.863  14.969  0.2712 -1.9815 -1.5353
  519MPD2     N 7715   0.122   1.740  14.544 -1.1481 -0.1083 -0.4022
  519MPD2    H5 7716   0.195   1.669  14.548  0.6057  1.7450  0.6204
  519MPD2    N1 7717   4.682   2.158  14.731 -0.3438  0.3166 -0.2801
  519MPD2    H7 7718   4.691   2.220  14.811  0.3075  0.8292 -0.7571
  520TMC3    C1 7719   0.093   1.672  14.328  0.1904 -0.1408 -0.0575
  520TMC3    C2 7720   4.723   1.653  14.229 -0.6452  0.0839 -0.5421
  520TMC3    C3 7721   0.051   1.636  14.101 -0.2862 -0.1457 -0.0471
  520TMC3    C4 7722   0.230   1.680  14.306  0.3662  0.5167 -0.4845
  520TMC3    C5 7723   0.273   1.663  14.179 -0.9187  0.6701 -0.9332
  520TMC3    C6 7724   0.187   1.641  14.071 -0.7084 -0.7462 -0.5782
  520TMC3     C 7725   0.034   1.730  14.440  0.0730 -0.1506  0.1216
  520TMC3     O 7726   4.641   1.755  14.448 -0.3330 -0.0173 -0.1854
  520TMC3     H 7727   4.616   1.661  14.245 -0.3986 -0.1179  1.1877
  520TMC3    H1 7728   0.300   1.714  14.382 -1.8579  1.0468  1.3127
  520TMC3    H2 7729   0.225   1.622  13.971  2.2391  1.9466  0.0101
  520TMC3    C7 7730   0.412   1.664  14.164 -0.8690  0.6364  0.5617
  520TMC3    C8 7731   4.686   1.638  13.989  0.7380 -0.1645  0.1114
  520TMC3    O1 7732   0.479   1.653  14.267 -0.3472  0.5259 -0.4706
  520TMC3    O2 7733   0.008   1.600  13.883  0.1923 -0.1306 -0.0114
  521MPD2     C 7734   1.563   0.241  17.437  0.1446  0.2676 -0.5887
  521MPD2    C1 7735   1.453   0.157  17.430 -0.2025  0.2488 -0.4097
  521MPD2    C2 7736   1.491   0.022  17.423  0.0724 -0.4385  0.1541
  521MPD2    C3 7737   1.624   4.702  17.408 -0.7873 -0.1801  0.6799
  521MPD2    C4 7738   1.725   0.071  17.401  0.3155  0.5809 -0.1801
  521MPD2    C5 7739   1.698   0.207  17.425 -0.2870  0.0305  0.1480
  521MPD2     H 7740   1.418   4.664  17.421 -0.4021 -0.0235  0.4576
  521MPD2    H1 7741   1.828   0.048  17.378 -0.5607 -0.9485 -2.6082
  521MPD2    H2 7742   1.550   0.348  17.435  2.1681  0.4891 -2.2057
  521MPD2    H3 7743   1.776   0.282  17.431  1.8530 -1.9943 -2.2719
  521MPD2     N 7744   1.646   4.564  17.387  0.3841 -0.8539 -0.3412
  521MPD2    H5 7745   1.559   4.511  17.386  2.1647 -3.7931  0.8043
  521MPD2    N1 7746   1.321   0.209  17.427 -0.5420 -0.5298  0.7525
  521MPD2    H7 7747   1.308   0.309  17.416 -1.4156 -0.5475  1.5780
  522TMC3    C1 7748   1.762   4.370  17.338  0.4650  0.1604  0.2726
  522TMC3    C2 7749   1.890   4.307  17.336  0.5825  0.8367 -0.4938
  522TMC3    C3 7750   1.908   4.206  17.245 -0.2582  0.4326  0.7138
  522TMC3    C4 7751   1.657   4.330  17.255 -0.3655 -0.4864  0.3847
  522TMC3    C5 7752   1.682   4.224  17.166 -0.1089 -0.2857 -0.5822
  522TMC3    C6 7753   1.801   4.169  17.160  0.2723 -0.3045  0.5461
  522TMC3     C 7754   1.769   4.514  17.365 -0.4485  0.0810  0.0230
  522TMC3     O 7755   1.881   4.564  17.376  0.2021 -0.2811  0.6969
  522TMC3     H 7756   1.958   4.335  17.416 -1.4349  2.0272  0.8090
  522TMC3    H1 7757   1.557   4.373  17.258  0.9531  2.6696 -0.4296
  522TMC3    H2 7758   1.820   4.083  17.096 -0.8987  0.7978 -1.2924
  522TMC3    C7 7759   1.580   4.162  17.083 -0.1301 -0.5595 -0.1348
  522TMC3    C8 7760   2.038   4.134  17.252 -0.1229  0.0355 -0.0413
  522TMC3    O1 7761   1.585   4.048  17.049  0.2678  0.2236 -0.3123
  522TMC3    O2 7762   2.114   4.157  17.350  0.1398 -0.4926 -0.0284
  523MPD2     C 7763   3.388   4.520   9.725 -0.5486 -0.6403 -0.0328
  523MPD2    C1 7764   3.500   4.571   9.789  0.5699 -0.1492  0.7023
  523MPD2    C2 7765   3.530   4.708   9.785 -0.4123 -0.6227 -0.5876
  523MPD2    C3 7766   3.445   0.075   9.730  0.7350  0.6201 -0.1313
  523MPD2    C4 7767   3.328   0.026   9.674 -0.1650  0.5330 -0.6736
  523MPD2    C5 7768   3.302   4.609   9.671 -0.5121 -0.3757  0.0651
  523MPD2     H 7769   3.625   0.017   9.826 -1.5952 -0.1326  1.8140
  523MPD2    H1 7770   3.259   0.094   9.625  0.2800  2.0222  0.7664
  523MPD2    H2 7771   3.362   4.415   9.729  0.5912 -0.8893  1.0339
  523MPD2    H3 7772   3.222   4.559   9.617 -1.0365  1.4999 -0.8688
  523MPD2     N 7773   3.455   0.217   9.734  0.6370  0.1851 -0.3587
  523MPD2    H5 7774   3.383   0.266   9.683 -1.7484 -2.2241  0.6748
  523MPD2    N1 7775   3.576   4.473   9.865  0.2692 -0.4090  0.2289
  523MPD2    H7 7776   3.552   4.374   9.859 -0.2717 -0.2363 -0.5019
  524TMC3    C1 7777   3.546   0.439   9.791 -0.4801  0.5013 -0.2923
  524TMC3    C2 7778   3.654   0.516   9.820 -0.2817  0.8261  0.3104
  524TMC3    C3 7779   3.636   0.654   9.810 -0.5798 -0.4093 -0.1414
  524TMC3    C4 7780   3.422   0.486   9.766  0.3216  0.2675  0.5647
  524TMC3    C5 7781   3.410   0.623   9.758  0.0589  0.4470  0.7281
  524TMC3    C6 7782   3.514   0.706   9.783 -0.2919 -0.3931  0.3226
  524TMC3     C 7783   3.557   0.287   9.800  0.3540  0.3859 -0.4214
  524TMC3     O 7784   3.657   0.244   9.860 -0.2967 -0.1817  0.2995
  524TMC3     H 7785   3.756   0.480   9.809  0.2567  2.3993  0.0844
  524TMC3    H1 7786   3.338   0.425   9.737  0.9020  0.2369 -1.0696
  524TMC3    H2 7787   3.509   0.814   9.781  1.4889 -0.3344 -0.9402
  524TMC3    C7 7788   3.272   0.667   9.777  0.5793 -0.0415 -0.3806
  524TMC3    C8 7789   3.747   0.740   9.769 -0.5807  0.4027  0.3348
  524TMC3    O1 7790   3.182   0.585   9.803  0.1701 -0.1751  0.0005
  524TMC3    O2 7791   3.724   0.846   9.708  0.1449  0.1120 -0.3764
  525MPD2     C 7792   1.392   1.646  14.401 -0.7973  0.8594  0.1388
  525MPD2    C1 7793   1.519   1.657  14.446 -0.2534 -0.1120  1.1109
  525MPD2    C2 7794   1.600   1.754  14.399  0.0595  0.0874  0.5758
  525MPD2    C3 7795   1.549   1.862  14.324  0.1496 -0.2962  0.3151
  525MPD2    C4 7796   1.420   1.856  14.287  0.6507  0.6982 -0.0022
  525MPD2    C5 7797   1.341   1.753  14.329  0.4737  0.1056  0.1551
  525MPD2     H 7798   1.703   1.760  14.431 -0.1969  0.1302  1.3805
  525MPD2    H1 7799   1.376   1.940  14.234 -0.5942  0.2724  0.3593
  525MPD2    H2 7800   1.320   1.571  14.431  0.8001 -1.2594 -1.2982
  525MPD2    H3 7801   1.239   1.751  14.292 -0.0239  1.0333  1.4831
  525MPD2     N 7802   1.634   1.972  14.302 -0.2576 -0.1560 -0.0711
  525MPD2    H5 7803   1.588   2.060  14.280 -1.5720 -0.6047  0.8690
  525MPD2    N1 7804   1.574   1.565  14.541  0.4103 -0.5762  0.4012
  525MPD2    H7 7805   1.675   1.561  14.555  0.7792  1.5416 -1.6673
  526TMC3    C1 7806   1.570   1.365  14.688  0.0029  0.2347  0.1081
  526TMC3    C2 7807   1.493   1.288  14.766 -0.3397 -0.3413 -0.0354
  526TMC3    C3 7808   1.549   1.189  14.838 -0.3744  0.5049  0.0297
  526TMC3    C4 7809   1.703   1.338  14.678 -0.3697  0.1176  0.1317
  526TMC3    C5 7810   1.755   1.229  14.733 -0.3647 -0.5215 -0.0044
  526TMC3    C6 7811   1.681   1.155  14.827 -0.7942  0.5776  0.2098
  526TMC3     C 7812   1.502   1.470  14.610 -0.2046  0.7274 -0.3693
  526TMC3     O 7813   1.379   1.462  14.611 -0.2455  0.2558 -0.1955
  526TMC3     H 7814   1.390   1.316  14.787 -0.1791 -0.3376  0.7599
  526TMC3    H1 7815   1.757   1.399  14.607  2.7356 -1.1974  1.3951
  526TMC3    H2 7816   1.721   1.072  14.885  2.8039  1.6090 -0.7784
  526TMC3    C7 7817   1.894   1.208  14.723  0.3885  0.3151  0.3562
  526TMC3    C8 7818   1.497   1.141  14.971  0.0468  0.1712  0.2199
  526TMC3    O1 7819   1.961   1.306  14.696 -0.5122 -0.3698 -0.4624
  526TMC3    O2 7820   1.576   1.101  15.055 -0.4350 -0.3484  0.3275
  527MPD2     C 7821   3.789   4.460   1.109 -0.8586 -0.6225  0.0382
  527MPD2    C1 7822   3.777   4.342   1.174 -0.0261 -0.6574  0.2586
  527MPD2    C2 7823   3.860   4.238   1.138  0.5913 -0.0436  0.3843
  527MPD2    C3 7824   3.947   4.255   1.034  0.2169 -0.2175 -1.1017
  527MPD2    C4 7825   3.943   4.371   0.959 -0.3674  0.0091 -0.2837
  527MPD2    C5 7826   3.874   4.477   0.999 -0.1389 -0.7768  0.2830
  527MPD2     H 7827   3.845   4.140   1.183 -0.6233 -1.0721 -2.2389
  527MPD2    H1 7828   4.011   4.399   0.879 -1.6659 -1.3265 -1.8557
  527MPD2    H2 7829   3.727   4.543   1.141 -0.1355 -0.5383  1.2190
  527MPD2    H3 7830   3.860   4.569   0.944 -0.2640 -0.7123  0.4235
  527MPD2     N 7831   4.045   4.159   1.012  0.3371  0.3738  0.3317
  527MPD2    H5 7832   4.050   4.082   1.077 -0.7353  1.3974  1.6374
  527MPD2    N1 7833   3.690   4.328   1.283 -0.3826 -0.4631  0.0370
  527MPD2    H7 7834   3.706   4.248   1.345 -0.1810  1.0744  1.9705
  528TMC3    C1 7835   3.535   4.379   1.449  0.2988  0.4006  0.1869
  528TMC3    C2 7836   3.615   4.314   1.533 -0.0938  0.0820 -0.2797
  528TMC3    C3 7837   3.558   4.261   1.641  0.4466  0.2701 -0.3610
  528TMC3    C4 7838   3.396   4.381   1.460  0.5951  0.1453  0.5049
  528TMC3    C5 7839   3.343   4.308   1.560  0.3139  0.0377 -0.0293
  528TMC3    C6 7840   3.420   4.254   1.659 -0.2452 -0.0302  0.3453
  528TMC3     C 7841   3.590   4.412   1.320 -0.0142 -0.7241  0.3508
  528TMC3     O 7842   3.559   4.521   1.275 -0.3762  0.7288 -0.5016
  528TMC3     H 7843   3.723   4.317   1.524 -0.0865 -0.1128 -0.2509
  528TMC3    H1 7844   3.340   4.432   1.382  0.3771 -0.6358  0.1466
  528TMC3    H2 7845   3.383   4.207   1.750 -2.7547  2.1140  0.4491
  528TMC3    C7 7846   3.200   4.303   1.584 -0.0055 -0.1049 -0.3039
  528TMC3    C8 7847   3.650   4.194   1.731 -0.2247 -0.0834 -0.1915
  528TMC3    O1 7848   3.161   4.273   1.697  0.1203  0.0692  0.4071
  528TMC3    O2 7849   3.771   4.227   1.731  0.1537  0.0819  0.0457
  529MPD2     C 7850   2.602   2.700   0.976 -0.2546  0.0123  0.2351
  529MPD2    C1 7851   2.468   2.701   0.991  0.0201  0.0266  0.2978
  529MPD2    C2 7852   2.397   2.768   0.893  0.2156 -0.1726 -0.2392
  529MPD2    C3 7853   2.453   2.821   0.783 -0.1281 -0.4709  0.0439
  529MPD2    C4 7854   2.594   2.808   0.759  0.4127  0.5611  0.4374
  529MPD2    C5 7855   2.660   2.746   0.860  0.6483  0.1666 -0.2351
  529MPD2     H 7856   2.289   2.770   0.901  0.1900  2.2719 -1.2661
  529MPD2    H1 7857   2.644   2.850   0.672  0.7705 -2.8170 -0.9692
  529MPD2    H2 7858   2.669   2.661   1.051  0.1842 -0.7529 -0.5438
  529MPD2    H3 7859   2.767   2.732   0.855  0.7620  0.7342  0.6968
  529MPD2     N 7860   2.386   2.899   0.685  0.3089 -0.5827  0.0410
  529MPD2    H5 7861   2.445   2.923   0.605 -0.1330 -3.2454 -1.1040
  529MPD2    N1 7862   2.399   2.649   1.099  0.1160 -0.5724  0.3562
  529MPD2    H7 7863   2.299   2.663   1.100  0.1553 -0.3449  0.7985
  530TMC3    C1 7864   2.353   2.478   1.255 -0.0044  0.1340 -0.1972
  530TMC3    C2 7865   2.394   2.401   1.363  0.2713  0.4039 -0.5874
  530TMC3    C3 7866   2.296   2.332   1.430  0.3029  0.2324 -0.1820
  530TMC3    C4 7867   2.222   2.488   1.220  0.3684  0.5684 -0.1033
  530TMC3    C5 7868   2.130   2.416   1.293  0.0111 -0.5103  0.2609
  530TMC3    C6 7869   2.162   2.344   1.399 -0.1413  0.1841 -0.1830
  530TMC3     C 7870   2.451   2.565   1.191  0.4985  0.9595 -0.7923
  530TMC3     O 7871   2.562   2.556   1.234 -0.8509  0.2082  0.3496
  530TMC3     H 7872   2.490   2.423   1.408  0.3422 -2.7422  0.8155
  530TMC3    H1 7873   2.190   2.532   1.126  0.8877  1.1592  0.0003
  530TMC3    H2 7874   2.093   2.268   1.434 -0.6457  1.2029  1.0676
  530TMC3    C7 7875   1.988   2.418   1.256 -0.6453  0.4971  0.1000
  530TMC3    C8 7876   2.325   2.321   1.571  0.4812  0.8874  0.0475
  530TMC3    O1 7877   1.965   2.447   1.139 -0.0658  0.1155 -0.1915
  530TMC3    O2 7878   2.229   2.326   1.649  0.3195  0.1951  0.4652
  531MPD2     C 7879   1.277   0.290  12.747 -0.3373 -0.7049  0.4784
  531MPD2    C1 7880   1.148   0.307  12.727  0.9229 -0.4853  0.3510
  531MPD2    C2 7881   1.068   0.211  12.671 -0.1467 -0.0878 -0.6422
  531MPD2    C3 7882   1.128   0.101  12.609  0.2132 -0.0069 -0.3662
  531MPD2    C4 7883   1.268   0.091  12.609 -0.2319  0.0014 -0.3827
  531MPD2    C5 7884   1.340   0.186  12.679  0.1944  0.1164  0.1303
  531MPD2     H 7885   0.960   0.210  12.680 -0.1902  0.9003 -1.0858
  531MPD2    H1 7886   1.329   0.018  12.556  0.5360 -0.6812  1.4286
  531MPD2    H2 7887   1.337   0.354  12.810  0.9988 -1.7359  0.2444
  531MPD2    H3 7888   1.448   0.177  12.683  0.1039 -0.4420  1.2189
  531MPD2     N 7889   1.043   0.003  12.562  0.7369 -0.2382  0.3233
  531MPD2    H5 7890   0.944   0.011  12.580  1.1120 -0.1128  2.3726
  531MPD2    N1 7891   1.090   0.420  12.797 -0.6500 -0.2773 -0.1329
  531MPD2    H7 7892   1.158   0.480  12.844 -2.1180  0.0888  1.5133
  532TMC3    C1 7893   0.923   0.532  12.933 -0.5277  0.2127  0.1479
  532TMC3    C2 7894   0.788   0.552  12.940  0.4109  0.4575 -0.1883
  532TMC3    C3 7895   0.733   0.541  13.068  0.3769  0.9084  0.2866
  532TMC3    C4 7896   1.000   0.517  13.045  0.2755 -1.1517  0.0564
  532TMC3    C5 7897   0.936   0.512  13.165  0.1716  0.1409 -0.5623
  532TMC3    C6 7898   0.806   0.536  13.179 -0.4070 -0.1588  0.8005
  532TMC3     C 7899   0.954   0.446  12.816  0.1291  0.7567 -0.3949
  532TMC3     O 7900   0.862   0.386  12.768 -0.0066 -0.0877  0.3110
  532TMC3     H 7901   0.729   0.572  12.852  0.7174 -0.5620 -0.6299
  532TMC3    H1 7902   1.104   0.490  13.033  0.7676  1.5463 -1.8804
  532TMC3    H2 7903   0.762   0.511  13.274  1.8409  0.0458  1.8905
  532TMC3    C7 7904   1.027   0.488  13.278  0.1554  0.3573 -0.5484
  532TMC3    C8 7905   0.635   0.436  13.080  0.2612  0.6921  0.2788
  532TMC3    O1 7906   1.036   0.583  13.355  0.3031  0.0094 -0.3693
  532TMC3    O2 7907   0.588   0.411  13.189  0.0228 -0.0491 -0.9876
  533TMC3    C1 7908   1.809   2.112  14.372 -0.2527  0.4983  0.1424
  533TMC3    C2 7909   1.945   2.119  14.365 -0.7639 -0.3508  0.6914
  533TMC3    C3 7910   2.017   2.180  14.461  0.0970  0.4570 -0.2624
  533TMC3    C4 7911   1.737   2.169  14.471  0.2356 -0.2575  0.0396
  533TMC3    C5 7912   1.810   2.232  14.566 -0.2136 -0.3577 -0.5243
  533TMC3    C6 7913   1.947   2.251  14.556 -0.4117 -0.1386  0.0945
  533TMC3     C 7914   1.767   1.980  14.322  0.3368 -0.1421 -0.0217
  533TMC3     O 7915   1.848   1.889  14.299  0.0433  0.2379  0.1771
  533TMC3     H 7916   2.002   2.061  14.293 -1.7268  2.4372 -2.3825
  533TMC3    H1 7917   1.629   2.170  14.474  0.2789  0.9325  1.2788
  533TMC3    H2 7918   1.995   2.286  14.647 -1.8672 -0.0326  0.8115
  533TMC3    C7 7919   1.767   2.169  14.691 -0.3253 -0.2420  0.0149
  533TMC3    C8 7920   2.162   2.179  14.470  0.2299 -0.1600 -0.7492
  533TMC3    O1 7921   1.704   2.064  14.682  0.4298  0.5692  0.2989
  533TMC3    O2 7922   2.211   2.213  14.576  0.3176  0.8172 -0.4903
  534MPD2     C 7923   3.855   3.386   1.943  0.2588 -0.0294  0.6907
  534MPD2    C1 7924   3.850   3.417   1.809  0.5179  0.1587 -0.0151
  534MPD2    C2 7925   3.839   3.310   1.718  0.4092 -0.6056 -0.0702
  534MPD2    C3 7926   3.840   3.179   1.772 -0.1513  0.1584  0.3078
  534MPD2    C4 7927   3.840   3.150   1.911 -0.3327  1.0104  0.0570
  534MPD2    C5 7928   3.838   3.261   1.994  0.1892  0.6742  0.0238
  534MPD2     H 7929   3.847   3.326   1.611 -0.5585  0.4225  0.0032
  534MPD2    H1 7930   3.848   3.051   1.954  1.2347  2.5617  3.3092
  534MPD2    H2 7931   3.859   3.468   2.015  1.2945 -0.6498  1.3420
  534MPD2    H3 7932   3.844   3.260   2.102 -1.5864  1.9646  0.1442
  534MPD2     N 7933   3.829   3.061   1.697  0.4618 -0.5418  0.3603
  534MPD2    H5 7934   3.817   2.974   1.748 -0.8320 -1.8454 -2.1618
  534MPD2    N1 7935   3.876   3.544   1.754  0.4078 -0.4464 -0.5958
  534MPD2    H7 7936   3.855   3.556   1.655  1.6961  1.5837 -0.6395
  535TMC3    C1 7937   3.835   2.920   1.507 -0.4123 -0.1960 -0.0674
  535TMC3    C2 7938   3.823   2.810   1.585 -0.5683  0.8603  0.4990
  535TMC3    C3 7939   3.825   2.685   1.532  0.5576  0.2176 -0.4985
  535TMC3    C4 7940   3.855   2.905   1.373  0.6468 -0.2140 -0.5697
  535TMC3    C5 7941   3.859   2.781   1.322  0.6258  0.0080 -0.7275
  535TMC3    C6 7942   3.842   2.670   1.397  0.3412  0.6277 -0.1141
  535TMC3     C 7943   3.825   3.058   1.563  0.8226 -0.4449 -0.0899
  535TMC3     O 7944   3.847   3.142   1.478  0.6449 -0.2545  0.0929
  535TMC3     H 7945   3.806   2.814   1.692 -0.4509 -2.4934  0.6397
  535TMC3    H1 7946   3.871   3.001   1.324  1.2151  0.6792  1.3773
  535TMC3    H2 7947   3.840   2.572   1.349 -0.6048 -0.8671  3.0211
  535TMC3    C7 7948   3.907   2.776   1.187 -0.6540 -0.2729 -0.3305
  535TMC3    C8 7949   3.741   2.582   1.583  0.6855 -0.1662 -0.1829
  535TMC3    O1 7950   3.949   2.670   1.147  0.0432  0.0074 -0.2639
  535TMC3    O2 7951   3.686   2.505   1.503 -0.0667 -0.2346  0.5980
  536MPD2     C 7952   2.684   1.877  17.150 -0.2668  0.5960  0.2215
  536MPD2    C1 7953   2.632   1.758  17.181  0.1271 -0.2735 -0.0655
  536MPD2    C2 7954   2.654   1.655  17.096  0.2811  0.0586  0.1492
  536MPD2    C3 7955   2.720   1.668  16.973 -0.3371  0.7462 -0.2394
  536MPD2    C4 7956   2.765   1.791  16.943  0.2406  0.7504  0.6347
  536MPD2    C5 7957   2.747   1.896  17.030 -0.4797 -0.2639 -0.2220
  536MPD2     H 7958   2.624   1.560  17.141 -0.2562  0.7666  1.3052
  536MPD2    H1 7959   2.813   1.807  16.847  2.1721  0.4062  1.5422
  536MPD2    H2 7960   2.682   1.963  17.216 -2.9702  0.8912 -0.2345
  536MPD2    H3 7961   2.773   1.997  17.001  1.1305  0.1283  2.6200
  536MPD2     N 7962   2.744   1.567  16.883  0.2528  0.6378 -0.4970
  536MPD2    H5 7963   2.796   1.592  16.799  1.2882 -0.5002 -0.1969
  536MPD2    N1 7964   2.596   1.742  17.313 -0.0638 -0.8092  0.1942
  536MPD2    H7 7965   2.614   1.817  17.379 -1.9957 -0.3570  0.2137
  537TMC3    C1 7966   2.542   1.637  17.505  0.0942 -0.0920  0.6541
  537TMC3    C2 7967   2.666   1.654  17.564  0.3129  0.6428  0.0323
  537TMC3    C3 7968   2.687   1.600  17.682  0.4257  0.3794  0.3061
  537TMC3    C4 7969   2.449   1.555  17.565  0.0611 -0.5413  0.2448
  537TMC3    C5 7970   2.485   1.492  17.684 -0.1414 -0.5203 -0.7938
  537TMC3    C6 7971   2.604   1.512   0.058 -0.1365 -0.0655 -0.7616
  537TMC3     C 7972   2.524   1.642  17.365  0.0937 -0.5108 -0.0869
  537TMC3     O 7973   2.467   1.553  17.310 -0.7352 -0.1598  0.1072
  537TMC3     H 7974   2.745   1.695  17.502  0.9320 -0.4410  0.1172
  537TMC3    H1 7975   2.350   1.541  17.522  0.0187  0.2582  0.0767
  537TMC3    H2 7976   2.627   1.485   0.160 -0.6792 -0.7717 -0.8288
  537TMC3    C7 7977   2.413   1.369   0.019 -0.0573 -1.0358 -0.6902
  537TMC3    C8 7978   2.818   1.614   0.054  0.2477  0.2723 -0.2285
  537TMC3    O1 7979   2.295   1.357  17.684  0.0291  0.1531  0.1896
  537TMC3    O2 7980   2.832   1.558   0.165 -0.2387  0.1404 -0.2561
  538TMC3    C1 7981   4.651   4.180  11.017 -0.5291  0.4258 -0.0178
  538TMC3    C2 7982   4.721   4.136  10.908  0.4181 -0.4300  0.6168
  538TMC3    C3 7983   4.667   4.181  10.792  0.2911  0.0527  0.1879
  538TMC3    C4 7984   4.539   4.259  11.012  0.1334 -0.8281 -0.0604
  538TMC3    C5 7985   4.498   4.301  10.893 -0.6609  1.0211 -0.4871
  538TMC3    C6 7986   4.558   4.270  10.779  0.3924  0.6101 -0.6544
  538TMC3     C 7987   4.717   4.175  11.151 -0.2656 -0.4082 -0.0157
  538TMC3     O 7988   4.659   4.227  11.248  0.6026  0.2506  0.4389
  538TMC3     H 7989   0.083   4.070  10.920  2.0908  1.4374 -1.0406
  538TMC3    H1 7990   4.507   4.306  11.105  0.7799 -0.8061  0.1509
  538TMC3    H2 7991   4.532   4.311  10.682  1.0553 -0.3613 -1.2341
  538TMC3    C7 7992   4.393   4.400  10.898 -0.2306 -0.3229  0.0384
  538TMC3    C8 7993   0.002   4.148  10.660 -0.0499 -0.1220  0.7690
  538TMC3    O1 7994   4.318   4.397  10.994 -0.6004 -0.2729  1.2613
  538TMC3    O2 7995   4.679   4.207  10.565 -0.4611  0.1570 -0.1417
  539MPD2     C 7996   3.919   3.323  11.265  0.7037 -0.4650  0.0002
  539MPD2    C1 7997   4.034   3.402  11.256 -0.5353  0.1586  0.1919
  539MPD2    C2 7998   4.034   3.536  11.225  0.1977 -0.3416 -0.1280
  539MPD2    C3 7999   3.909   3.599  11.213 -0.3838  0.9311 -0.4948
  539MPD2    C4 8000   3.791   3.522  11.214  0.1630 -0.2754  0.0610
  539MPD2    C5 8001   3.802   3.390  11.244 -0.0910 -0.0950 -0.4941
  539MPD2     H 8002   4.127   3.587  11.204 -0.4380  0.9423  0.2231
  539MPD2    H1 8003   3.692   3.564  11.200  0.5722  1.3188  1.9541
  539MPD2    H2 8004   3.916   3.216  11.279  0.4664 -0.5302 -0.5361
  539MPD2    H3 8005   3.710   3.335  11.261 -0.3722  0.1237 -1.2880
  539MPD2     N 8006   3.902   3.736  11.186 -0.0312  0.4192  1.0999
  539MPD2    H5 8007   3.816   3.781  11.159  0.7078  1.2640  0.1315
  539MPD2    N1 8008   4.161   3.340  11.246 -0.4853 -0.2112  0.1751
  539MPD2    H7 8009   4.242   3.400  11.232 -2.3583  2.6928  2.0167
  540TMC3    C1 8010   3.934   3.964  11.214 -0.1662  0.1413  0.5625
  540TMC3    C2 8011   3.870   3.994  11.095  0.4126  0.3214 -0.4153
  540TMC3    C3 8012   3.792   4.110  11.094  0.8388  0.6088  0.4007
  540TMC3    C4 8013   3.934   4.040  11.328 -0.8721  0.3443 -0.1244
  540TMC3    C5 8014   3.878   4.165  11.315 -0.1613 -0.0313  0.7991
  540TMC3    C6 8015   3.810   4.199  11.197 -1.1803 -0.2394 -0.0238
  540TMC3     C 8016   3.991   3.832  11.229  0.1518  0.1073  0.2841
  540TMC3     O 8017   4.094   3.820  11.283 -0.7579  0.2009 -0.0717
  540TMC3     H 8018   3.869   3.924  11.012  0.4208  0.3034 -0.4003
  540TMC3    H1 8019   3.986   4.013  11.419  0.3553  0.4798 -0.7904
  540TMC3    H2 8020   3.742   4.283  11.196 -1.5067 -0.4716  1.9755
  540TMC3    C7 8021   3.858   4.249  11.434  0.7578  0.1308  0.1696
  540TMC3    C8 8022   3.715   4.152  10.976  0.3611 -0.3024 -0.3767
  540TMC3    O1 8023   3.863   4.206  11.549 -0.6129 -0.2261  0.0180
  540TMC3    O2 8024   3.631   4.238  10.978 -0.4514  0.0892 -0.2351
  541MPD2     C 8025   2.669   0.227  13.728 -0.2469  0.1582  0.3858
  541MPD2    C1 8026   2.655   0.170  13.601 -0.0864  0.3509 -0.4192
  541MPD2    C2 8027   2.669   0.246  13.488  0.1551  0.0850  0.1719
  541MPD2    C3 8028   2.687   0.384  13.496 -0.2579  0.4448  0.1084
  541MPD2    C4 8029   2.700   0.441  13.623  0.1321 -0.5295  0.1747
  541MPD2    C5 8030   2.691   0.360  13.735 -0.1553 -0.3006  0.3903
  541MPD2     H 8031   2.663   0.188  13.397 -0.5562 -1.4526  1.1931
  541MPD2    H1 8032   2.707   0.549  13.629 -0.2270 -0.4024 -1.5257
  541MPD2    H2 8033   2.668   0.174  13.822  0.4469 -0.8046 -0.1480
  541MPD2    H3 8034   2.703   0.401  13.834 -0.1278 -1.0855  0.7083
  541MPD2     N 8035   2.694   0.465  13.378  0.1676  0.4236  0.4530
  541MPD2    H5 8036   2.690   0.565  13.393  1.5884  0.7645 -1.4141
  541MPD2    N1 8037   2.638   0.029  13.580 -0.3833 -0.6800  0.5875
  541MPD2    H7 8038   2.622   4.720  13.485 -3.1669  2.1796  0.0642
  542TMC3    C1 8039   2.692   0.516  13.137 -0.7369  0.6164  0.0471
  542TMC3    C2 8040   2.713   0.482  13.005 -0.0506 -0.6234  0.1250
  542TMC3    C3 8041   2.683   0.569  12.907  0.0699  0.6462  0.4024
  542TMC3    C4 8042   2.669   0.646  13.172 -0.3442 -0.1873 -0.2980
  542TMC3    C5 8043   2.644   0.738  13.073  1.0538 -0.5682  0.0524
  542TMC3    C6 8044   2.642   0.691  12.945 -1.0774 -0.8909  0.4905
  542TMC3     C 8045   2.700   0.422  13.247 -0.6890 -0.2736 -0.0709
  542TMC3     O 8046   2.718   0.307  13.211  0.5562  0.2662 -0.3463
  542TMC3     H 8047   2.750   0.382  12.990  3.5061  0.8322 -0.6947
  542TMC3    H1 8048   2.675   0.678  13.275 -1.4448 -0.8264 -0.0249
  542TMC3    H2 8049   2.627   0.761  12.863  0.2760 -0.3428  0.7011
  542TMC3    C7 8050   2.647   0.875  13.114  0.9136 -0.3101  0.5809
  542TMC3    C8 8051   2.697   0.531  12.763 -0.4581  0.4701 -0.4097
  542TMC3    O1 8052   2.648   0.895  13.235  0.4599  0.4671  0.1946
  542TMC3    O2 8053   2.595   0.539  12.694  0.0620 -0.2153  0.1203
  543TMC3    C1 8054   1.040   1.752  17.441 -0.3101 -0.0738  0.2147
  543TMC3    C2 8055   1.068   1.620  17.478 -0.0065 -0.1625 -0.0975
  543TMC3    C3 8056   1.110   1.600  17.604  0.2614 -0.1347  0.5035
  543TMC3    C4 8057   1.040   1.852  17.533  0.0963 -0.2310  0.7526
  543TMC3    C5 8058   1.072   1.826  17.668  0.2899  0.0256 -0.5224
  543TMC3    C6 8059   1.109   1.698   0.011  0.2063 -0.0185 -0.4564
  543TMC3     C 8060   1.066   1.792  17.303  0.2071 -0.0679  0.4480
  543TMC3     O 8061   1.006   1.886  17.255 -0.1773 -0.3873 -0.7037
  543TMC3     H 8062   1.088   1.543  17.404  1.6867 -1.9443  2.1875
  543TMC3    H1 8063   1.013   1.952  17.502 -2.3436 -1.2668 -0.4086
  543TMC3    H2 8064   1.143   1.677   0.112 -1.5859 -0.4946  0.0469
  543TMC3    C7 8065   1.100   1.948   0.041 -0.0088 -0.0873  0.4595
  543TMC3    C8 8066   1.170   1.472  17.619  0.0689 -0.3030  0.3454
  543TMC3    O1 8067   1.111   2.046  17.669 -0.2947 -0.7649  0.1164
  543TMC3    O2 8068   1.123   1.376  17.556 -0.1590 -0.2465 -0.1960
  544MPD2     C 8069   1.523   1.166   0.149 -0.5200  0.5793 -0.0610
  544MPD2    C1 8070   1.429   1.142   0.055  0.5497 -0.1707  0.6225
  544MPD2    C2 8071   1.341   1.235   0.016 -0.7689  0.0133 -0.4548
  544MPD2    C3 8072   1.347   1.364   0.070  0.2582  0.7348  0.1938
  544MPD2    C4 8073   1.440   1.387   0.163 -0.3419 -0.0009  0.3275
  544MPD2    C5 8074   1.522   1.289   0.207  0.2570 -0.4003 -0.7853
  544MPD2     H 8075   1.265   1.205  17.639 -1.2937 -0.3968  0.2593
  544MPD2    H1 8076   1.451   1.489   0.197 -0.9256  0.1849 -0.0420
  544MPD2    H2 8077   1.595   1.096   0.192 -0.5535 -0.8675 -2.3979
  544MPD2    H3 8078   1.592   1.315   0.285 -1.3655 -2.6760  1.4457
  544MPD2     N 8079   1.272   1.474   0.016  0.2547 -0.5314  0.8505
  544MPD2    H5 8080   1.282   1.568   0.055 -0.7254 -0.5093  1.0543
  544MPD2    N1 8081   1.424   1.009   0.010  0.3461 -0.1373 -0.3864
  544MPD2    H7 8082   1.496   0.950   0.051  0.8460  0.9939  0.3573
  545TMC3    C1 8083   1.412   0.832  17.553  0.2227 -0.0722 -0.3752
  545TMC3    C2 8084   1.357   0.785  17.435 -0.4007  0.3399  0.0579
  545TMC3    C3 8085   1.407   0.677  17.368  0.4547 -0.0420  0.3712
  545TMC3    C4 8086   1.541   0.784  17.588 -0.5267 -0.3575  0.3863
  545TMC3    C5 8087   1.588   0.676  17.512  0.1065  0.3690 -0.0167
  545TMC3    C6 8088   1.526   0.628  17.401 -0.2486  0.0426  0.7002
  545TMC3     C 8089   1.358   0.957  17.595 -0.0530 -0.3652  0.0556
  545TMC3     O 8090   1.272   1.012  17.535  0.1644  0.4678  0.1991
  545TMC3     H 8091   1.254   0.808  17.412 -0.3619  0.4267 -0.0320
  545TMC3    H1 8092   1.614   0.841  17.644 -0.0084  0.3919 -1.0321
  545TMC3    H2 8093   1.574   0.555  17.337 -1.5884  0.1732 -0.4375
  545TMC3    C7 8094   1.715   0.621  17.540  0.1569 -0.3821  0.1016
  545TMC3    C8 8095   1.329   0.587  17.272 -0.2004  0.1351 -0.2258
  545TMC3    O1 8096   1.763   0.551  17.458  0.1974  0.2791 -0.0656
  545TMC3    O2 8097   1.362   0.470  17.267 -0.0732  0.1593  0.5144
  546MPD2     C 8098   2.899   1.958   0.309 -0.9007  0.2400  0.4906
  546MPD2    C1 8099   2.841   1.989   0.192 -0.6589 -0.0874 -0.2817
  546MPD2    C2 8100   2.910   2.052   0.091 -0.2139 -0.2075  0.1678
  546MPD2    C3 8101   3.047   2.084   0.104  0.2202  0.0078 -0.3593
  546MPD2    C4 8102   3.107   2.049   0.224 -0.0358  0.3127 -0.5089
  546MPD2    C5 8103   3.036   1.983   0.320  0.0310 -0.3173 -0.0491
  546MPD2     H 8104   2.862   2.068  17.689 -0.7934 -1.6904  0.2107
  546MPD2    H1 8105   3.212   2.068   0.241 -0.3369  0.2809  1.4027
  546MPD2    H2 8106   2.848   1.903   0.387  0.8745  3.0732  3.6650
  546MPD2    H3 8107   3.085   1.949   0.411  0.2124 -1.1331 -0.4451
  546MPD2     N 8108   3.118   2.148   0.000 -0.4378 -0.5669 -0.2055
  546MPD2    H5 8109   3.217   2.127   0.005 -0.1068  0.7567 -1.2818
  546MPD2    N1 8110   2.706   1.941   0.181  0.0109 -0.5637 -0.2300
  546MPD2    H7 8111   2.659   1.902   0.262 -0.7831  0.1886 -0.3254
  547TMC3    C1 8112   2.506   1.889   0.080 -0.1502  0.7274  0.1309
  547TMC3    C2 8113   2.419   1.926  17.679  0.0889  0.4864  0.0968
  547TMC3    C3 8114   2.291   1.897  17.692 -0.2244 -0.2617  0.0426
  547TMC3    C4 8115   2.478   1.825   0.195  0.6798 -0.0923  0.1331
  547TMC3    C5 8116   2.343   1.798   0.208 -0.2208 -0.0225 -0.1319
  547TMC3    C6 8117   2.250   1.833   0.110  0.1128 -0.0976 -0.3438
  547TMC3     C 8118   2.639   1.937   0.059 -0.1229 -0.0209 -0.4089
  547TMC3     O 8119   2.676   1.947  17.641 -0.0694  0.2213 -0.6013
  547TMC3     H 8120   2.462   1.955  17.583 -2.1742  0.3825 -0.9493
  547TMC3    H1 8121   2.551   1.798   0.272 -0.3143 -0.5100  0.9325
  547TMC3    H2 8122   2.143   1.829   0.129  0.0200  3.5789 -0.2053
  547TMC3    C7 8123   2.312   1.689   0.298  0.2847  0.3356  0.8250
  547TMC3    C8 8124   2.206   1.899  17.571  0.5662 -0.4523 -0.3825
  547TMC3    O1 8125   2.396   1.673   0.386 -0.1734 -0.5892  0.5213
  547TMC3    O2 8126   2.261   1.860  17.467 -0.6091  0.1956  0.6156
  548MPD2     C 8127   3.491   2.515  12.375  0.0646  0.1928  0.0224
  548MPD2    C1 8128   3.489   2.380  12.388 -0.3830 -0.1050  0.5427
  548MPD2    C2 8129   3.550   2.302  12.291 -0.4594 -0.5290  0.1407
  548MPD2    C3 8130   3.622   2.363  12.186  0.5383 -0.7526  0.1054
  548MPD2    C4 8131   3.629   2.501  12.183  1.0655 -0.4890 -0.5755
  548MPD2    C5 8132   3.557   2.580  12.271 -0.4594  0.2451  0.6334
  548MPD2     H 8133   3.555   2.195  12.306  4.6212 -0.3921 -0.6463
  548MPD2    H1 8134   3.678   2.561  12.107 -0.4015  0.8878 -0.4394
  548MPD2    H2 8135   3.430   2.578  12.440 -0.2785 -0.4478  0.3203
  548MPD2    H3 8136   3.551   2.688  12.269  1.7204  0.4033  3.3644
  548MPD2     N 8137   3.688   2.277  12.098  0.1161  0.0466 -0.7501
  548MPD2    H5 8138   3.670   2.178  12.109 -1.5406  0.4411  0.2070
  548MPD2    N1 8139   3.420   2.330  12.503  0.2374  0.5139  1.1067
  548MPD2    H7 8140   3.387   2.398  12.571  0.1939 -0.3982  1.9927
  549TMC3    C1 8141   3.285   2.192  12.638 -0.8929 -0.2587  0.3176
  549TMC3    C2 8142   3.204   2.295  12.663 -0.0281 -0.5166 -0.5370
  549TMC3    C3 8143   3.116   2.280  12.766  0.1517 -0.1865  0.3611
  549TMC3    C4 8144   3.263   2.070  12.707 -0.8165 -0.2063  0.3466
  549TMC3    C5 8145   3.179   2.067  12.818 -0.4321 -0.7180  0.1554
  549TMC3    C6 8146   3.112   2.177  12.851  0.1796 -0.0201 -0.0169
  549TMC3     C 8147   3.381   2.200  12.522  0.3058  0.0222  0.0699
  549TMC3     O 8148   3.413   2.103  12.455 -0.1575  0.0984  0.0431
  549TMC3     H 8149   3.188   2.379  12.597 -3.5444 -1.0719 -0.3763
  549TMC3    H1 8150   3.327   1.985  12.690 -0.7939 -0.3430  1.0858
  549TMC3    H2 8151   3.040   2.164  12.931 -1.5983  1.8484 -1.3125
  549TMC3    C7 8152   3.216   1.984  12.926 -0.1427  0.0729 -0.0530
  549TMC3    C8 8153   2.999   2.364  12.770  0.1033 -0.7000  0.3736
  549TMC3    O1 8154   3.310   2.019  13.001 -0.8377 -0.1201  0.1838
  549TMC3    O2 8155   2.975   2.435  12.672 -0.3136 -0.0892 -0.0148
  550TMC3    C1 8156   1.680   4.698  12.536 -0.5415  0.9161 -0.3078
  550TMC3    C2 8157   1.742   0.048  12.633  0.1200 -0.1548 -0.5842
  550TMC3    C3 8158   1.720   0.184  12.624  0.3938 -0.0067 -0.3063
  550TMC3    C4 8159   1.595   0.023  12.440 -0.4037  0.7140 -0.3224
  550TMC3    C5 8160   1.577   0.156  12.431  0.0238  0.1831  0.0618
  550TMC3    C6 8161   1.643   0.237  12.520  0.1815  0.6442  0.5027
  550TMC3     C 8162   1.720   4.560  12.528 -0.1268 -0.4150  0.0392
  550TMC3     O 8163   1.756   4.507  12.633  0.0392  0.5661 -0.0380
  550TMC3     H 8164   1.792   4.720  12.714  0.3040 -2.1032 -1.9287
  550TMC3    H1 8165   1.556   4.675  12.368  0.1704 -1.3203  1.3425
  550TMC3    H2 8166   1.641   0.345  12.512  1.5989  0.7263  1.2249
  550TMC3    C7 8167   1.514   0.198  12.304 -0.4737 -0.4206 -0.1579
  550TMC3    C8 8168   1.735   0.259  12.747  0.4108  0.6371  0.5790
  550TMC3    O1 8169   1.443   0.116  12.246  0.0348 -0.2080  0.0360
  550TMC3    O2 8170   1.802   0.198  12.827  0.2678  0.3166 -0.2060
  551TMC3    C1 8171   4.276   3.068  13.187 -0.2881 -0.8589  0.7815
  551TMC3    C2 8172   4.401   3.067  13.136  0.2772 -0.0161 -1.0721
  551TMC3    C3 8173   4.498   3.114  13.220  0.0073  0.5866  0.1456
  551TMC3    C4 8174   4.254   3.090  13.319 -1.1865 -0.0007 -0.4180
  551TMC3    C5 8175   4.355   3.134  13.403  0.2685 -0.3946  0.3458
  551TMC3    C6 8176   4.485   3.140  13.351 -0.0324 -0.2013 -0.1772
  551TMC3     C 8177   4.178   2.990  13.119 -0.3844  0.1048 -0.1382
  551TMC3     O 8178   4.225   2.890  13.070  0.3176 -0.2140 -0.2778
  551TMC3     H 8179   4.429   3.035  13.036  0.1636  0.9753 -1.4176
  551TMC3    H1 8180   4.161   3.069  13.371 -1.0145  0.2091 -0.0227
  551TMC3    H2 8181   4.560   3.182  13.416  0.3467  2.1545 -2.1082
  551TMC3    C7 8182   4.325   3.194  13.531 -0.2148 -0.3118  0.2126
  551TMC3    C8 8183   4.627   3.156  13.167 -0.3880  0.6979 -0.1647
  551TMC3    O1 8184   4.407   3.202  13.623 -0.0067 -0.1266  0.5960
  551TMC3    O2 8185   4.706   3.184  13.257  0.2069 -0.5923  0.0013
  552MPD2     C 8186   0.947   0.464  13.686  0.6877  0.2074  0.6300
  552MPD2    C1 8187   0.908   0.335  13.734  0.0756  0.1553 -0.4836
  552MPD2    C2 8188   0.945   0.307  13.860  0.9477  0.0067  0.1714
  552MPD2    C3 8189   1.012   0.402  13.936  0.2098 -0.4339  0.2125
  552MPD2    C4 8190   1.045   0.526  13.877 -0.7842  1.0108 -0.4128
  552MPD2    C5 8191   1.023   0.555  13.751 -1.0615 -0.6390  0.1618
  552MPD2     H 8192   0.927   0.211  13.909 -1.2345  0.5290  0.3739
  552MPD2    H1 8193   1.104   0.599  13.931  1.9784 -0.1777 -1.8240
  552MPD2    H2 8194   0.922   0.492  13.584 -0.0395  2.1873  1.3386
  552MPD2    H3 8195   1.040   0.654  13.712  0.7810 -1.2216 -0.5123
  552MPD2     N 8196   1.048   0.388  14.077  0.1549  0.3533 -0.2330
  552MPD2    H5 8197   1.098   0.466  14.121  1.6876 -0.6928 -0.1184
  552MPD2    N1 8198   0.845   0.234  13.662  0.7902 -0.2813 -0.3067
  552MPD2    H7 8199   0.824   0.149  13.715  1.8758 -1.4034 -1.6799
  553TMC3    C1 8200   0.746   0.123  13.477  0.6003 -0.0526  0.4090
  553TMC3    C2 8201   0.750   0.111  13.347  0.8596  0.5982  0.0827
  553TMC3    C3 8202   0.764   4.706  13.298 -0.4442 -0.6965  0.7243
  553TMC3    C4 8203   0.733   0.015  13.562 -0.9303  0.3161 -0.3001
  553TMC3    C5 8204   0.753   4.611  13.514  0.2906  0.1772  0.8770
  553TMC3    C6 8205   0.765   4.591  13.377 -0.7919  0.0496  0.2866
  553TMC3     C 8206   0.804   0.245  13.534  0.1761 -0.1087 -0.2486
  553TMC3     O 8207   0.793   0.345  13.465  0.6491 -0.1027  0.1701
  553TMC3     H 8208   0.768   0.195  13.280  1.3096 -0.9860 -1.7832
  553TMC3    H1 8209   0.718   0.036  13.667  3.2704  2.2501 -0.0930
  553TMC3    H2 8210   0.768   4.493  13.331  0.1833 -1.5875  3.8382
  553TMC3    C7 8211   0.874   4.562  13.587  0.0014  0.5558 -1.2274
  553TMC3    C8 8212   0.851   4.704  13.182  0.0527  0.1867  0.2854
  553TMC3    O1 8213   0.902   4.629  13.688  0.1511 -0.3282  1.2177
  553TMC3    O2 8214   0.941   0.062  13.167  0.1041 -0.4586  0.1609
  554TMC3    C1 8215   3.144   3.774  11.382 -0.4170 -0.0702 -0.5731
  554TMC3    C2 8216   3.120   3.744  11.251  0.1643 -0.3043  0.1954
  554TMC3    C3 8217   3.207   3.789  11.159  0.0952  0.6788  0.0164
  554TMC3    C4 8218   3.243   3.865  11.417 -0.2592  0.4345 -0.4594
  554TMC3    C5 8219   3.321   3.912  11.318  0.1974 -1.1459 -0.1064
  554TMC3    C6 8220   3.306   3.869  11.188  0.1364 -0.3932  0.0281
  554TMC3     C 8221   3.101   3.675  11.481 -0.1206 -0.0672  0.2278
  554TMC3     O 8222   2.995   3.619  11.472  0.2885 -0.2619  0.3057
  554TMC3     H 8223   3.028   3.692  11.226  1.2928 -3.2195  2.1131
  554TMC3    H1 8224   3.257   3.886  11.522 -1.1305  0.4042 -0.3366
  554TMC3    H2 8225   3.360   3.916  11.106 -0.2812  0.8392  0.4481
  554TMC3    C7 8226   3.414   4.024  11.331  0.6233  0.2797  0.8480
  554TMC3    C8 8227   3.185   3.767  11.015  0.0918  0.5215  0.7118
  554TMC3    O1 8228   3.507   4.014  11.252  0.5768 -0.8246 -0.0807
  554TMC3    O2 8229   3.267   3.820  10.941  1.0832  0.0349  0.0040
  555TMC3    C1 8230   1.859   3.191  14.911  0.1310 -0.0151 -0.6430
  555TMC3    C2 8231   1.804   3.307  14.961 -0.5810 -0.4665  0.2430
  555TMC3    C3 8232   1.796   3.310  15.095  0.4045  0.8167 -0.4648
  555TMC3    C4 8233   1.892   3.075  14.983 -0.4190 -0.2082 -0.0399
  555TMC3    C5 8234   1.874   3.086  15.124  0.0619  0.1268  0.7022
  555TMC3    C6 8235   1.834   3.211  15.182  0.0555 -0.1815 -0.1928
  555TMC3     C 8236   1.870   3.190  14.764  0.2179  0.0477 -0.2991
  555TMC3     O 8237   1.953   3.117  14.714  0.1668  0.1050  0.1594
  555TMC3     H 8238   1.808   3.396  14.899 -1.3742 -1.7094 -1.6023
  555TMC3    H1 8239   1.935   2.986  14.937 -1.8023 -1.6732  1.5206
  555TMC3    H2 8240   1.818   3.225  15.288  1.4675 -2.1368  0.2918
  555TMC3    C7 8241   1.899   2.980  15.219 -0.3239 -0.1322  0.2308
  555TMC3    C8 8242   1.778   3.440  15.144 -0.1386 -0.2511  0.3905
  555TMC3    O1 8243   1.866   2.986  15.338  0.4521  0.2305 -0.6256
  555TMC3    O2 8244   1.736   3.523  15.067  0.4526  0.1080 -0.4724
  556MPD2     C 8245   0.514   0.469  10.471 -0.4325 -0.2425 -0.0429
  556MPD2    C1 8246   0.523   0.361  10.558 -0.5061 -0.3874  0.5506
  556MPD2    C2 8247   0.514   0.237  10.498  0.1134  0.2404  0.1494
  556MPD2    C3 8248   0.511   0.225  10.362  0.1594 -0.1085 -0.2276
  556MPD2    C4 8249   0.505   0.333  10.283 -0.2667  0.1746 -0.0643
  556MPD2    C5 8250   0.506   0.459  10.336  0.5630  0.1627 -0.5591
  556MPD2     H 8251   0.521   0.143  10.551  0.4141  0.0851 -0.1680
  556MPD2    H1 8252   0.501   0.334  10.174 -0.9032 -0.9818 -0.0500
  556MPD2    H2 8253   0.504   0.567  10.515  0.1707 -0.3970  0.4327
  556MPD2    H3 8254   0.489   0.542  10.267 -0.8728  1.4007  1.2953
  556MPD2     N 8255   0.515   0.095  10.310 -0.6225 -0.3309  0.4624
  556MPD2    H5 8256   0.533   0.017  10.373 -1.7546 -0.1749  0.9780
  556MPD2    N1 8257   0.538   0.376  10.699  0.3935 -0.3628  0.3736
  556MPD2    H7 8258   0.539   0.296  10.762 -2.2524 -1.6328 -1.2168
  557TMC3    C1 8259   0.492   4.642  10.156  0.8607 -0.6618 -0.2555
  557TMC3    C2 8260   0.528   4.604  10.030 -0.0710 -0.0975  0.6731
  557TMC3    C3 8261   0.508   4.471  10.002  0.5104  0.3508 -0.0602
  557TMC3    C4 8262   0.412   4.565  10.239 -0.2991 -0.6217 -0.3394
  557TMC3    C5 8263   0.379   4.438  10.189 -1.0617 -0.4379 -0.1952
  557TMC3    C6 8264   0.438   4.385  10.078  0.6275 -0.0371  0.2268
  557TMC3     C 8265   0.493   0.059  10.178 -0.2384  0.0005  0.6976
  557TMC3     O 8266   0.475   0.129  10.075 -0.0217  0.4510 -0.6238
  557TMC3     H 8267   0.587   4.675   9.974  1.0130 -0.9968  0.6683
  557TMC3    H1 8268   0.377   4.602  10.335 -4.9698 -0.7168 -2.0481
  557TMC3    H2 8269   0.403   4.284  10.055 -1.1090  1.1177 -2.1913
  557TMC3    C7 8270   0.308   4.360  10.289  0.3147  0.1812  0.5900
  557TMC3    C8 8271   0.574   4.432   9.879 -0.1594  0.6240  0.1969
  557TMC3    O1 8272   0.239   4.415  10.373  0.5121  0.3012  0.1681
  557TMC3    O2 8273   0.665   4.502   9.833 -0.2586 -1.0898 -0.0007
  558TMC3    C1 8274   2.854   2.459  10.177 -0.8841 -0.2294  0.4242
  558TMC3    C2 8275   2.751   2.480  10.269  0.6711 -0.1558 -0.9464
  558TMC3    C3 8276   2.646   2.560  10.235 -0.4841 -0.4499 -0.9010
  558TMC3    C4 8277   2.861   2.535  10.067  0.3828 -0.0636 -0.5929
  558TMC3    C5 8278   2.748   2.607  10.028 -0.3978  0.8047  0.4327
  558TMC3    C6 8279   2.641   2.622  10.113  0.1419  0.4246 -0.5223
  558TMC3     C 8280   2.979   2.392  10.207 -0.3335  0.5044 -0.7517
  558TMC3     O 8281   3.063   2.391  10.116  0.0126  0.2478 -0.3489
  558TMC3     H 8282   2.748   2.418  10.358  1.2028 -1.7110 -2.0094
  558TMC3    H1 8283   2.939   2.525   9.993  0.9826  0.1033  0.0236
  558TMC3    H2 8284   2.558   2.679  10.072  0.2664  0.0362 -1.3187
  558TMC3    C7 8285   2.757   2.698   9.917 -0.2735  0.4922  0.6747
  558TMC3    C8 8286   2.536   2.572  10.324 -0.0474 -0.5146  0.4356
  558TMC3    O1 8287   2.866   2.731   9.873  0.4502  1.0009 -0.7518
  558TMC3    O2 8288   2.426   2.615  10.289  0.2182 -0.5819 -0.0084
  559MPD2     C 8289   2.841   2.990  10.494 -0.7339 -1.0588 -0.3295
  559MPD2    C1 8290   2.793   2.980  10.617 -0.4504 -0.0406 -0.4374
  559MPD2    C2 8291   2.876   3.031  10.715 -0.3812  0.3226 -0.0012
  559MPD2    C3 8292   2.997   3.091  10.689 -0.6034 -0.1247  0.6458
  559MPD2    C4 8293   3.044   3.104  10.561  1.0498  0.9144 -0.0285
  559MPD2    C5 8294   2.964   3.045  10.467  0.5606  1.0088  0.3374
  559MPD2     H 8295   2.837   3.020  10.816  1.1564 -1.6411  0.3845
  559MPD2    H1 8296   3.137   3.154  10.534  1.4341  0.8271  1.1399
  559MPD2    H2 8297   2.772   2.963  10.414  0.6527 -2.5028 -1.0401
  559MPD2    H3 8298   2.991   3.059  10.363  0.1034 -0.2843  0.0374
  559MPD2     N 8299   3.061   3.131  10.804  0.0303 -0.8109  0.1213
  559MPD2    H5 8300   3.009   3.123  10.891  0.8462  2.0181  0.8870
  559MPD2    N1 8301   2.660   2.938  10.630 -0.0610  0.0020  0.0787
  559MPD2    H7 8302   2.604   2.934  10.545  0.9190 -1.7416 -0.4780
  560TMC3    C1 8303   3.261   3.158  10.927 -0.1507 -0.5472  0.2338
  560TMC3    C2 8304   3.208   3.071  11.024  0.6954 -0.3290 -0.2314
  560TMC3    C3 8305   3.289   3.001  11.103 -0.3550  0.1147  0.6294
  560TMC3    C4 8306   3.395   3.191  10.926  0.1543 -0.1292  0.4628
  560TMC3    C5 8307   3.469   3.128  11.028  0.1127  0.4767 -0.4088
  560TMC3    C6 8308   3.425   3.030  11.110 -1.0143 -0.4177 -0.3707
  560TMC3     C 8309   3.191   3.170  10.800  0.2347 -0.0078 -0.0465
  560TMC3     O 8310   3.263   3.207  10.712  0.5328  0.1253  0.6328
  560TMC3     H 8311   3.106   3.038  11.007  0.6354  0.8771 -2.2029
  560TMC3    H1 8312   3.445   3.258  10.857 -0.8776 -0.0694 -0.2321
  560TMC3    H2 8313   3.498   2.998  11.183 -1.2465  2.0533  0.9485
  560TMC3    C7 8314   3.614   3.143  11.029  0.2746 -0.1293 -0.0002
  560TMC3    C8 8315   3.231   2.877  11.162  0.0490 -0.3672  0.3973
  560TMC3    O1 8316   3.674   3.048  11.071  0.9199  0.2194 -0.8173
  560TMC3    O2 8317   3.116   2.894  11.205 -0.0490 -0.1426  0.1074
  561TMC3    C1 8318   0.617   2.516  11.851 -0.0241 -0.3616 -0.2377
  561TMC3    C2 8319   0.537   2.524  11.956  0.1518 -0.6545 -0.8812
  561TMC3    C3 8320   0.451   2.623  11.967  0.1435  0.1368 -0.1641
  561TMC3    C4 8321   0.601   2.599  11.742  0.1543 -0.4971  0.1311
  561TMC3    C5 8322   0.505   2.696  11.751  0.0630  0.1578 -0.6451
  561TMC3    C6 8323   0.425   2.702  11.862 -0.3993 -0.1712  0.3517
  561TMC3     C 8324   0.731   2.425  11.858  0.2955 -0.4173 -0.1402
  561TMC3     O 8325   0.766   2.387  11.968  0.0999 -0.2771  0.3716
  561TMC3     H 8326   0.561   2.462  12.042 -0.8498  0.2299  0.0314
  561TMC3    H1 8327   0.669   2.590  11.658  0.2587  0.1121  0.1536
  561TMC3    H2 8328   0.349   2.780  11.868 -0.2837 -0.1013  0.8503
  561TMC3    C7 8329   0.510   2.811  11.662  0.0049  1.1648 -0.5232
  561TMC3    C8 8330   0.351   2.607  12.086  0.7464 -0.6471  0.1627
  561TMC3    O1 8331   0.439   2.903  11.699  0.5446 -0.2965 -0.0498
  561TMC3    O2 8332   0.350   2.501  12.154  0.7296 -0.8758 -0.3071
  562TMC3    C1 8333   1.399   3.963  16.113 -0.0178 -0.1466 -0.1767
  562TMC3    C2 8334   1.272   4.011  16.122  1.0045  0.0946 -0.1372
  562TMC3    C3 8335   1.198   4.004  16.011  0.6409 -0.4788  0.4957
  562TMC3    C4 8336   1.457   3.925  15.992 -0.3115 -0.3818 -0.5014
  562TMC3    C5 8337   1.373   3.919  15.882  0.2073 -0.8272 -0.0619
  562TMC3    C6 8338   1.245   3.957  15.891 -0.3330  0.4456 -0.1178
  562TMC3     C 8339   1.485   3.970  16.231  0.0495 -0.1886  0.2542
  562TMC3     O 8340   1.436   3.931  16.335 -0.6731  0.0781  0.3188
  562TMC3     H 8341   1.215   4.044  16.209 -0.8052  0.3648 -1.4339
  562TMC3    H1 8342   1.565   3.911  15.990 -0.5101 -1.8478 -0.8897
  562TMC3    H2 8343   1.183   3.962  15.803 -0.7689 -1.4536  0.0774
  562TMC3    C7 8344   1.409   3.829  15.774 -0.2585  0.2981 -0.0704
  562TMC3    C8 8345   1.053   4.041  16.012  0.3344 -0.2828 -0.2650
  562TMC3    O1 8346   1.361   3.843  15.663  0.4916  0.0009 -0.2326
  562TMC3    O2 8347   0.976   4.010  16.103  0.1967  0.2486 -0.3218
  563MPD2     C 8348   4.416   4.369  15.645 -0.5066  0.6199 -0.3798
  563MPD2    C1 8349   4.387   4.438  15.764  0.1225  0.0517 -0.4304
  563MPD2    C2 8350   4.476   4.532  15.818 -0.5576 -0.1678 -0.0424
  563MPD2    C3 8351   4.591   4.554  15.744 -0.5484 -1.0321  0.3081
  563MPD2    C4 8352   4.614   4.489  15.630  0.3104 -0.0525  0.5447
  563MPD2    C5 8353   4.534   4.388  15.581  0.2176 -0.1975  0.4952
  563MPD2     H 8354   4.454   4.590  15.907  1.2554 -0.6155  0.6827
  563MPD2    H1 8355   4.702   4.505  15.568 -1.9151  0.6628 -2.4636
  563MPD2    H2 8356   4.350   4.294  15.603 -0.7520 -0.3620  1.7192
  563MPD2    H3 8357   4.559   4.331  15.492  0.1255  1.1039 -0.3776
  563MPD2     N 8358   4.685   4.655  15.798 -0.2786  0.1726  0.9367
  563MPD2    H5 8359   4.653   4.703  15.881  1.0497 -1.9875  2.7002
  563MPD2    N1 8360   4.262   4.412  15.823 -0.0892  0.1562 -0.6902
  563MPD2    H7 8361   4.209   4.336  15.779  1.4460 -1.0369 -0.4609
  564TMC3    C1 8362   4.102   4.400  16.002  0.2097 -0.7371  0.1301
  564TMC3    C2 8363   4.062   4.273  15.971 -0.0795 -0.5959  0.0464
  564TMC3    C3 8364   3.973   4.210  16.050  0.4185  0.4859 -0.1060
  564TMC3    C4 8365   4.059   4.467  16.116  0.7798 -0.3401  1.0957
  564TMC3    C5 8366   3.982   4.394  16.199 -0.2410  0.8568  0.0144
  564TMC3    C6 8367   3.941   4.268  16.172  0.3392 -1.0501  0.0801
  564TMC3     C 8368   4.226   4.455  15.952 -0.8974 -0.3177  0.2025
  564TMC3     O 8369   4.276   4.540  16.022  0.2251  0.0234  0.4915
  564TMC3     H 8370   4.097   4.222  15.881 -1.8146 -0.9041 -0.4595
  564TMC3    H1 8371   4.092   4.567  16.145 -1.7059  0.9825 -0.6693
  564TMC3    H2 8372   3.866   4.225  16.237 -0.1586 -0.9775 -0.4467
  564TMC3    C7 8373   3.971   4.433  16.343 -0.3502  0.0938  0.7407
  564TMC3    C8 8374   3.988   4.065  16.054 -0.7322  0.3504  0.1999
  564TMC3    O1 8375   3.965   4.338  16.421 -0.1005 -0.4498  0.2887
  564TMC3    O2 8376   3.901   4.012  16.118  0.4929  0.8032 -0.3763
  565TMC3    C1 8377   0.462   1.314  10.225 -0.2524  0.2767  0.1282
  565TMC3    C2 8378   0.449   1.212  10.315 -0.5868 -0.2194  0.6007
  565TMC3    C3 8379   0.340   1.134  10.323 -0.1012  0.3973 -0.1682
  565TMC3    C4 8380   0.354   1.344  10.144 -0.8210 -0.3111 -0.4376
  565TMC3    C5 8381   0.245   1.274  10.158 -0.2927 -0.3267 -0.9202
  565TMC3    C6 8382   0.236   1.162  10.238 -0.9040 -0.1822 -0.0993
  565TMC3     C 8383   0.585   1.394  10.215  0.3113 -0.0074  0.3391
  565TMC3     O 8384   0.602   1.468  10.118  0.3706  0.6640 -0.3847
  565TMC3     H 8385   0.531   1.189  10.382  0.9173  1.7028 -0.5930
  565TMC3    H1 8386   0.365   1.437  10.089 -0.3398  0.1726  0.4771
  565TMC3    H2 8387   0.139   1.128  10.273 -0.1037  0.0584  2.2949
  565TMC3    C7 8388   0.131   1.304  10.075 -0.0215  0.2649 -0.2115
  565TMC3    C8 8389   0.314   1.075  10.454 -0.4478 -0.3013  0.4991
  565TMC3    O1 8390   0.034   1.229  10.082  0.1942  0.5811  0.5479
  565TMC3    O2 8391   0.377   1.124  10.544  0.1314  0.0261 -0.2151
  566MPD2     C 8392   1.361   3.291  14.357  0.3121 -0.5736 -0.0768
  566MPD2    C1 8393   1.418   3.196  14.277  0.2567  0.8973 -0.1566
  566MPD2    C2 8394   1.384   3.181  14.142  0.1458 -0.2152 -0.2843
  566MPD2    C3 8395   1.287   3.260  14.093 -0.3720 -0.3914  1.0934
  566MPD2    C4 8396   1.236   3.360  14.172  0.7185  0.5431  1.2752
  566MPD2    C5 8397   1.265   3.378  14.304 -0.4693  0.5789 -0.4313
  566MPD2     H 8398   1.426   3.098  14.086  1.0602  0.2209 -0.2492
  566MPD2    H1 8399   1.157   3.428  14.141  2.3129  1.1324 -1.4852
  566MPD2    H2 8400   1.370   3.299  14.465 -0.6278  1.9881 -0.1976
  566MPD2    H3 8401   1.220   3.457  14.363 -0.7123 -0.5805  0.9388
  566MPD2     N 8402   1.223   3.235  13.969  0.2765  0.1035  1.0623
  566MPD2    H5 8403   1.130   3.275  13.964 -0.1920 -1.6255 -3.6504
  566MPD2    N1 8404   1.521   3.118  14.332 -0.3562 -0.1077 -0.4840
  566MPD2    H7 8405   1.517   3.114  14.433 -0.8152  2.3931 -0.3924
  567TMC3    C1 8406   1.730   2.994  14.335  0.3110  0.4264  0.5021
  567TMC3    C2 8407   1.853   2.994  14.269 -0.1906  0.4149 -1.1200
  567TMC3    C3 8408   1.959   2.942  14.332 -0.2209 -0.5078 -0.0367
  567TMC3    C4 8409   1.711   2.947  14.464 -0.2557  0.8942 -0.6242
  567TMC3    C5 8410   1.824   2.897  14.523 -1.1026  0.1613 -0.0452
  567TMC3    C6 8411   1.948   2.899  14.460  0.1626  0.7472  0.2664
  567TMC3     C 8412   1.623   3.053  14.258 -0.0957 -0.0435  0.0229
  567TMC3     O 8413   1.641   3.058  14.138  0.0313 -0.3321  0.2109
  567TMC3     H 8414   1.867   3.026  14.166 -1.0139  0.7774 -1.1202
  567TMC3    H1 8415   1.609   2.930  14.498 -0.2015 -0.4976 -1.1898
  567TMC3    H2 8416   2.031   2.862  14.519  0.8174 -1.5662 -2.0815
  567TMC3    C7 8417   1.820   2.855  14.662 -0.4940 -0.2075  0.1911
  567TMC3    C8 8418   2.090   2.930  14.262 -0.8520  0.0647  0.2333
  567TMC3    O1 8419   1.927   2.810  14.705 -0.3468 -0.2870 -0.2898
  567TMC3    O2 8420   2.074   2.943  14.145  0.6145  0.7192  0.2185
  568MPD2     C 8421   4.130   3.625  17.522  0.2195 -0.6613 -0.4251
  568MPD2    C1 8422   4.012   3.638  17.455  0.1423  0.3955 -0.0942
  568MPD2    C2 8423   4.001   3.727  17.351 -0.4348 -0.4858  0.8997
  568MPD2    C3 8424   4.102   3.811  17.309 -0.5256  0.0536 -0.5357
  568MPD2    C4 8425   4.223   3.799  17.377  0.3866  0.7737 -0.2292
  568MPD2    C5 8426   4.232   3.713  17.488  0.2188 -0.2997 -0.8346
  568MPD2     H 8427   3.909   3.737  17.294  0.2513 -0.0513 -0.1383
  568MPD2    H1 8428   4.314   3.844  17.341 -0.5935  3.7650  1.0053
  568MPD2    H2 8429   4.148   3.553  17.601  1.4104 -0.3537 -0.4268
  568MPD2    H3 8430   4.324   3.713  17.546 -1.7240  0.1272  2.2853
  568MPD2     N 8431   4.084   3.888  17.188  0.0929  0.2752 -0.2626
  568MPD2    H5 8432   3.992   3.890  17.146 -0.7207 -1.6831  1.4132
  568MPD2    N1 8433   3.910   3.560  17.504 -0.0735  0.3798 -0.0583
  568MPD2    H7 8434   3.937   3.511  17.589  2.9896  2.4432  0.1688
  569TMC3    C1 8435   4.127   3.997  16.992  0.6527 -0.5248 -0.0953
  569TMC3    C2 8436   4.003   4.051  16.982  0.5089  0.1672 -0.1643
  569TMC3    C3 8437   3.970   4.105  16.865 -0.0991  0.5367  0.4732
  569TMC3    C4 8438   4.210   3.991  16.888  0.4409 -0.8018  0.2148
  569TMC3    C5 8439   4.169   4.043  16.771  0.9111  0.3100  0.5646
  569TMC3    C6 8440   4.046   4.095  16.755 -0.1456  0.6792  0.0851
  569TMC3     C 8441   4.182   3.939  17.112  0.0411 -0.5025  0.1608
  569TMC3     O 8442   4.305   3.941  17.127  0.0942 -0.3556  0.8100
  569TMC3     H 8443   3.939   4.066  17.068  0.0680 -0.6636 -0.3452
  569TMC3    H1 8444   4.306   3.942  16.902  1.0487 -0.2683 -2.1357
  569TMC3    H2 8445   4.011   4.147  16.666  2.3744 -2.2303 -2.5879
  569TMC3    C7 8446   4.247   4.008  16.655 -0.2726 -0.0949  0.1218
  569TMC3    C8 8447   3.846   4.180  16.857 -0.8770 -0.3511 -0.2909
  569TMC3    O1 8448   4.363   3.981  16.675  0.0613  1.0074 -0.4276
  569TMC3    O2 8449   3.751   4.145  16.922  0.6745  0.2269  0.0143
  570TMC3    C1 8450   3.020   2.788  16.258 -0.4882 -0.2271 -0.3400
  570TMC3    C2 8451   3.139   2.778  16.192 -0.1615 -0.5451  0.3784
  570TMC3    C3 8452   3.164   2.882  16.108  0.7896 -0.3077 -0.3606
  570TMC3    C4 8453   2.934   2.894  16.250 -0.2540  0.3312 -0.8753
  570TMC3    C5 8454   2.975   2.999  16.178 -0.1465  0.1503 -0.0389
  570TMC3    C6 8455   3.095   2.998  16.112  0.1473  0.2954  0.2140
  570TMC3     C 8456   2.978   2.676  16.341 -0.2073 -0.1657  0.6160
  570TMC3     O 8457   3.015   2.564  16.309 -0.3145 -0.4133  0.3501
  570TMC3     H 8458   3.198   2.688  16.206  0.4280 -0.1068  0.7501
  570TMC3    H1 8459   2.843   2.901  16.309  0.6499  0.8276  0.4688
  570TMC3    H2 8460   3.118   3.082  16.048 -2.8961  2.1986  1.5895
  570TMC3    C7 8461   2.914   3.125  16.179 -1.1339 -0.0143 -0.5107
  570TMC3    C8 8462   3.283   2.882  16.021 -0.3911 -0.1761 -0.0663
  570TMC3    O1 8463   2.985   3.224  16.164 -0.1230  0.0628 -0.1900
  570TMC3    O2 8464   3.307   2.983  15.959 -0.2034 -0.4274 -0.1600
  571MPD2     C 8465   2.099   4.247   0.337  0.4840  0.1546  0.7151
  571MPD2    C1 8466   2.113   4.377   0.378 -0.2613 -0.1582 -0.6402
  571MPD2    C2 8467   2.020   4.474   0.336  0.4071 -0.1234  0.4324
  571MPD2    C3 8468   1.917   4.434   0.253  0.2616 -0.1724  0.1760
  571MPD2    C4 8469   1.908   4.301   0.215 -0.4963 -0.5571  0.1891
  571MPD2    C5 8470   2.001   4.207   0.255 -0.0893 -0.0495  0.0474
  571MPD2     H 8471   2.032   4.574   0.376  1.9232  0.1098 -0.6142
  571MPD2    H1 8472   1.816   4.264   0.172 -0.1776 -0.5298 -0.5117
  571MPD2    H2 8473   2.173   4.174   0.367  1.5851  0.1143 -2.0854
  571MPD2    H3 8474   1.980   4.102   0.242  1.1078 -0.0553 -1.8946
  571MPD2     N 8475   1.810   4.516   0.216  0.0961  0.5188 -0.3428
  571MPD2    H5 8476   1.735   4.462   0.174 -0.8553  0.5381  1.3187
  571MPD2    N1 8477   2.214   4.401   0.472 -0.7891  0.3263  0.0759
  571MPD2    H7 8478   2.286   4.331   0.487  0.0406  0.9955 -0.8550
  572TMC3    C1 8479   1.676   4.717   0.178  0.3173  0.2725 -0.1353
  572TMC3    C2 8480   1.567   4.642   0.153 -0.0500 -0.3538 -0.4202
  572TMC3    C3 8481   1.456   4.702   0.098 -0.1116  0.4203  0.1390
  572TMC3    C4 8482   1.688   0.126   0.138  0.0465  0.6706 -0.0549
  572TMC3    C5 8483   1.585   0.177   0.073 -0.4795 -0.6044 -0.7431
  572TMC3    C6 8484   1.466   0.109   0.052  0.8790  0.7349  0.4403
  572TMC3     C 8485   1.796   4.653   0.242  0.0974  0.3380  0.2315
  572TMC3     O 8486   1.885   0.008   0.281 -0.0923 -0.2441 -0.2885
  572TMC3     H 8487   1.555   4.541   0.191 -2.1257 -0.5669 -1.6292
  572TMC3    H1 8488   1.785   0.172   0.143  0.5442 -0.5784  1.6664
  572TMC3    H2 8489   1.375   0.149   0.008  0.4420 -0.5177  0.1883
  572TMC3    C7 8490   1.560   0.316   0.095 -0.6542  0.6832 -0.0432
  572TMC3    C8 8491   1.340   4.624   0.075 -0.4760 -0.1899 -0.5090
  572TMC3    O1 8492   1.455   0.352   0.048 -0.7231  0.2193  0.3153
  572TMC3    O2 8493   1.341   4.503   0.081 -0.3679 -0.3771  0.2218
  573MPD2     C 8494   1.509   1.010   0.809  0.9518  0.4235  0.3075
  573MPD2    C1 8495   1.608   1.103   0.767 -1.0907  0.0825 -0.4199
  573MPD2    C2 8496   1.733   1.062   0.733  0.3790 -0.4416  0.1698
  573MPD2    C3 8497   1.768   0.928   0.758  1.0159 -0.3465 -0.0204
  573MPD2    C4 8498   1.670   0.836   0.789 -0.3213  0.1111  1.0496
  573MPD2    C5 8499   1.544   0.877   0.813 -0.0838 -0.4228  0.0511
  573MPD2     H 8500   1.808   1.130   0.694  1.3076  0.1567  3.0202
  573MPD2    H1 8501   1.683   0.730   0.811  0.6016  0.2089  0.9447
  573MPD2    H2 8502   1.410   1.045   0.837  1.6364  1.9728  0.7992
  573MPD2    H3 8503   1.476   0.797   0.840 -1.2602  0.6888  0.3587
  573MPD2     N 8504   1.894   0.880   0.721 -0.4569  0.6043 -0.1466
  573MPD2    H5 8505   1.911   0.780   0.721 -2.6839  0.2280 -0.7707
  573MPD2    N1 8506   1.567   1.235   0.762  0.2918  0.4962  0.3514
  573MPD2    H7 8507   1.475   1.262   0.794 -0.3714 -0.8512 -0.3666
  574TMC3    C1 8508   2.118   0.869   0.646  0.1707  0.8155 -0.3152
  574TMC3    C2 8509   2.099   0.745   0.596  0.5303  0.3902 -0.0382
  574TMC3    C3 8510   2.200   0.670   0.541 -0.0346  0.1750 -0.8965
  574TMC3    C4 8511   2.233   0.929   0.641  0.3411 -0.7845 -0.0135
  574TMC3    C5 8512   2.336   0.854   0.586 -0.6246 -0.0774 -0.5867
  574TMC3    C6 8513   2.326   0.730   0.534  0.3394  0.3122 -0.9212
  574TMC3     C 8514   2.011   0.953   0.690  0.0476  1.0034 -0.1803
  574TMC3     O 8515   2.034   1.071   0.705 -0.4185  0.0119  0.1521
  574TMC3     H 8516   2.005   0.690   0.599  0.0549  1.2274  0.3826
  574TMC3    H1 8517   2.262   1.015   0.701 -0.7976  0.2182 -0.8978
  574TMC3    H2 8518   2.403   0.686   0.472  2.2545  1.6272  0.5341
  574TMC3    C7 8519   2.458   0.918   0.539  0.4290  0.3502 -0.2821
  574TMC3    C8 8520   2.183   0.577   0.429 -0.4009  0.4692  0.5697
  574TMC3    O1 8521   2.554   0.844   0.518  0.6829  0.7225 -0.6467
  574TMC3    O2 8522   2.259   0.480   0.415 -0.1617  0.2018  0.1372
  575TMC3    C1 8523   0.573   1.027  11.236  0.4178 -0.5516  0.3441
  575TMC3    C2 8524   0.534   0.936  11.339 -0.2319 -0.3990 -0.3461
  575TMC3    C3 8525   0.459   0.833  11.303 -0.3398 -0.3558  0.0032
  575TMC3    C4 8526   0.533   1.032  11.110 -0.1170 -0.2353  0.1073
  575TMC3    C5 8527   0.454   0.928  11.076 -0.0568 -0.0573 -0.4568
  575TMC3    C6 8528   0.416   0.834  11.172 -0.3197 -0.6370 -0.9835
  575TMC3     C 8529   0.671   1.124  11.264 -0.0516  0.0225  0.6978
  575TMC3     O 8530   0.766   1.093  11.329  0.3793  0.1874  0.3106
  575TMC3     H 8531   0.580   0.937  11.438 -2.3700  2.6266  0.6418
  575TMC3    H1 8532   0.548   1.118  11.046  2.9287 -1.3058 -0.6345
  575TMC3    H2 8533   0.330   0.771  11.152  0.1650 -1.7788  0.6201
  575TMC3    C7 8534   0.384   0.928  10.949 -0.1658 -0.6424 -0.6393
  575TMC3    C8 8535   0.422   0.728  11.396 -0.3018  0.0910 -0.2014
  575TMC3    O1 8536   0.371   1.036  10.903 -0.1948 -0.0412  0.2524
  575TMC3    O2 8537   0.388   0.619  11.359  0.0073 -0.1069  0.3514
  576MPD2     C 8538   4.177   3.618  12.754  0.1826  0.2028  1.1169
  576MPD2    C1 8539   4.206   3.648  12.621  0.4398 -0.1812  0.5198
  576MPD2    C2 8540   4.150   3.759  12.564  0.0737  0.2927 -0.7761
  576MPD2    C3 8541   4.071   3.837  12.634  0.3249 -0.3995 -1.2676
  576MPD2    C4 8542   4.045   3.815  12.769  0.0060  0.1428  0.0380
  576MPD2    C5 8543   4.101   3.702  12.826 -0.3514  0.0789 -0.0363
  576MPD2     H 8544   4.178   3.779  12.462  0.3769  0.5410 -0.6440
  576MPD2    H1 8545   3.972   3.874  12.822 -1.8437 -1.2532 -0.9205
  576MPD2    H2 8546   4.217   3.530  12.802  2.1471 -0.1137 -1.1692
  576MPD2    H3 8547   4.082   3.678  12.930 -1.2816  0.3412 -0.1505
  576MPD2     N 8548   3.991   3.926  12.559 -0.4283  0.1978  0.1047
  576MPD2    H5 8549   3.982   3.903  12.460  0.0827  0.0948  0.0829
  576MPD2    N1 8550   4.282   3.574  12.530 -0.1049 -0.7617 -0.6607
  576MPD2    H7 8551   4.308   3.627  12.447 -0.6384  0.1646 -0.2300
  577TMC3    C1 8552   4.414   3.394  12.427 -0.4743  0.4207 -0.4978
  577TMC3    C2 8553   4.462   3.266  12.455  0.0172 -0.3662 -0.4224
  577TMC3    C3 8554   4.521   3.202  12.350  0.6139  0.2029 -0.6991
  577TMC3    C4 8555   4.414   3.456  12.308 -0.6526 -0.0671  0.0013
  577TMC3    C5 8556   4.466   3.380  12.208 -0.0596 -0.3519  0.4708
  577TMC3    C6 8557   4.523   3.254  12.221  0.0677  1.1615  0.2197
  577TMC3     C 8558   4.320   3.438  12.531 -0.8798  0.1979 -0.1358
  577TMC3     O 8559   4.309   3.370  12.631 -0.1312 -1.0255 -0.2642
  577TMC3     H 8560   4.473   3.228  12.556  4.7393  0.2352 -0.6958
  577TMC3    H1 8561   4.381   3.557  12.289  0.7617  0.4415  0.2303
  577TMC3    H2 8562   4.547   3.199  12.130 -1.7569  1.4218 -0.4350
  577TMC3    C7 8563   4.511   3.458  12.093 -0.5399 -0.7887  0.2576
  577TMC3    C8 8564   4.562   3.063  12.361  0.2229  0.0323 -0.3891
  577TMC3    O1 8565   4.477   3.577  12.101 -0.2554  0.4258 -0.7011
  577TMC3    O2 8566   4.525   3.004  12.462  0.2204  0.2157 -0.6072
  578MPD2     C 8567   2.265   2.789   1.575  0.6264 -0.0972  0.7583
  578MPD2    C1 8568   2.360   2.822   1.483 -0.5990  0.1193  0.7017
  578MPD2    C2 8569   2.483   2.757   1.490  0.0798  0.0849 -0.3943
  578MPD2    C3 8570   2.511   2.669   1.587 -0.0404 -0.1767 -0.6452
  578MPD2    C4 8571   2.419   2.631   1.684  0.0097 -0.1781 -0.5410
  578MPD2    C5 8572   2.293   2.694   1.676  0.4630 -0.7495  0.2163
  578MPD2     H 8573   2.553   2.783   1.411 -0.8034 -0.2134 -1.2802
  578MPD2    H1 8574   2.436   2.571   1.773  1.4956  1.5596  0.3476
  578MPD2    H2 8575   2.168   2.836   1.587  1.0648  1.1321 -0.5988
  578MPD2    H3 8576   2.217   2.688   1.753  0.2116  0.8556  0.0969
  578MPD2     N 8577   2.645   2.627   1.593 -1.1716  0.2404 -0.7747
  578MPD2    H5 8578   2.707   2.652   1.517  0.9733  0.8312  1.1650
  578MPD2    N1 8579   2.325   2.906   1.379  0.2402 -0.1137 -0.0415
  578MPD2    H7 8580   2.232   2.946   1.372 -0.4691 -1.5385  1.3726
  579TMC3    C1 8581   2.823   2.503   1.646  0.3284 -0.6901  0.0464
  579TMC3    C2 8582   2.918   2.486   1.738  0.1009  0.0066 -0.3054
  579TMC3    C3 8583   3.031   2.432   1.691 -0.8840  0.4107 -0.4183
  579TMC3    C4 8584   2.837   2.445   1.519 -0.1033  0.3923  0.0626
  579TMC3    C5 8585   2.944   2.372   1.485  0.1580  0.0331  0.0799
  579TMC3    C6 8586   3.051   2.374   1.567 -1.0459 -0.2954 -1.0085
  579TMC3     C 8587   2.701   2.560   1.694 -0.0090 -0.0043  0.3083
  579TMC3     O 8588   2.664   2.543   1.808 -0.0312  0.3057 -0.4177
  579TMC3     H 8589   2.915   2.541   1.832 -2.4202 -0.3790 -0.1424
  579TMC3    H1 8590   2.747   2.447   1.458  0.4324  2.0100 -0.6599
  579TMC3    H2 8591   3.143   2.322   1.543  0.0655  0.5447  1.4594
  579TMC3    C7 8592   2.977   2.340   1.340 -0.2676  0.6568  0.1835
  579TMC3    C8 8593   3.135   2.428   1.789  0.2926 -0.2599 -0.2975
  579TMC3    O1 8594   3.096   2.352   1.307 -0.0185  0.7530 -0.2361
  579TMC3    O2 8595   3.110   2.435   1.907  0.2881  0.1734  0.3601
  580TMC3    C1 8596   2.509   1.535  11.897 -0.4445 -0.0810  0.3797
  580TMC3    C2 8597   2.527   1.464  11.774 -0.0688  0.1834  0.3925
  580TMC3    C3 8598   2.525   1.326  11.781  0.1311  0.5048 -0.0522
  580TMC3    C4 8599   2.500   1.470  12.019 -0.6857 -0.1047  0.0575
  580TMC3    C5 8600   2.494   1.335  12.014 -0.4087 -0.2379 -0.2187
  580TMC3    C6 8601   2.522   1.262  11.899  0.4982  0.0169 -1.0139
  580TMC3     C 8602   2.563   1.672  11.895  0.3918 -0.0884 -0.7759
  580TMC3     O 8603   2.570   1.729  11.789 -0.4007 -0.3745  0.3113
  580TMC3     H 8604   2.538   1.505  11.675 -2.4413 -1.5858 -0.6124
  580TMC3    H1 8605   2.446   1.516  12.101  1.7165  1.8103  0.5739
  580TMC3    H2 8606   2.552   1.158  11.905 -0.7261 -0.1716  1.9292
  580TMC3    C7 8607   2.542   1.281  12.139  0.4392 -0.8049  0.2443
  580TMC3    C8 8608   2.587   1.255  11.669 -0.0914  0.2648 -0.3776
  580TMC3    O1 8609   2.585   1.364  12.213 -0.1494  0.8415  0.2554
  580TMC3    O2 8610   2.539   1.150  11.639 -0.0950  0.4354 -0.2556
  581MPD2     C 8611   0.011   1.323  15.215  0.2153  0.6555 -0.5496
  581MPD2    C1 8612   0.067   1.440  15.252 -0.0322 -0.9295  0.4496
  581MPD2    C2 8613   4.717   1.561  15.237 -0.0601 -0.6371 -0.2948
  581MPD2    C3 8614   4.582   1.567  15.202  0.8845  0.3127 -0.3248
  581MPD2    C4 8615   4.526   1.446  15.187 -0.2029  0.2045  0.2515
  581MPD2    C5 8616   4.599   1.333  15.190  0.8692  0.5276  0.3695
  581MPD2     H 8617   0.046   1.651  15.268 -0.2359 -0.1826 -1.3419
  581MPD2    H1 8618   4.423   1.437  15.152 -0.3632 -1.4874  1.1955
  581MPD2    H2 8619   0.053   1.223  15.213 -1.1300  0.1028 -0.9080
  581MPD2    H3 8620   4.545   1.240  15.172 -1.3436  2.1772 -1.5739
  581MPD2     N 8621   4.520   1.692  15.177  0.1978 -0.0489 -0.0161
  581MPD2    H5 8622   4.567   1.782  15.177 -2.1180  1.1597 -1.8350
  581MPD2    N1 8623   0.201   1.427  15.304  0.2606  0.2628  0.1081
  581MPD2    H7 8624   0.241   1.335  15.292 -1.3200 -0.2297 -1.4186
  582TMC3    C1 8625   0.387   1.461  15.445  0.4965 -0.3846  0.3766
  582TMC3    C2 8626   0.451   1.542  15.531 -0.8021 -0.6045  0.5382
  582TMC3    C3 8627   0.531   1.489  15.624  0.2215 -0.0953  0.4588
  582TMC3    C4 8628   0.412   1.321  15.442 -0.4536  0.0547  0.7278
  582TMC3    C5 8629   0.497   1.273  15.537  0.0909  0.8669  0.7215
  582TMC3    C6 8630   0.572   1.357  15.617  0.0488 -0.0644 -0.7059
  582TMC3     C 8631   0.267   1.515  15.386  0.4512 -0.0329 -0.0502
  582TMC3     O 8632   0.229   1.617  15.438 -0.2321  0.6447 -0.0291
  582TMC3     H 8633   0.422   1.646  15.537  1.0756 -0.0379 -0.0321
  582TMC3    H1 8634   0.356   1.251  15.381  0.1422  0.4469 -0.2700
  582TMC3    H2 8635   0.605   1.305  15.706  0.1799  1.0290 -0.1145
  582TMC3    C7 8636   0.477   1.136  15.581 -0.0742 -0.2898 -0.4045
  582TMC3    C8 8637   0.518   1.550  15.756 -0.4213  0.2557  0.1816
  582TMC3    O1 8638   0.571   1.073  15.635  0.1577 -0.0373  0.0489
  582TMC3    O2 8639   0.426   1.626  15.781 -0.0852 -0.1516  0.4200
  583MPD2     C 8640   0.396   3.334  17.180 -0.3466  0.4333 -0.6705
  583MPD2    C1 8641   0.413   3.431  17.086 -0.6318 -0.1973 -0.4582
  583MPD2    C2 8642   0.417   3.561  17.125  0.2699  0.1331 -0.4631
  583MPD2    C3 8643   0.392   3.605  17.254 -0.0262  0.1352 -0.2290
  583MPD2    C4 8644   0.370   3.504  17.343  0.1865 -0.0498 -0.0568
  583MPD2    C5 8645   0.374   3.371  17.308  0.3552 -0.5620 -0.0700
  583MPD2     H 8646   0.433   3.637  17.049 -0.3540 -0.6476 -1.3665
  583MPD2    H1 8647   0.349   3.523  17.447  3.0112  1.7047  0.1727
  583MPD2    H2 8648   0.397   3.228  17.155 -0.5290  0.2558  0.0912
  583MPD2    H3 8649   0.363   3.291  17.380  2.4360 -2.1230 -1.4669
  583MPD2     N 8650   0.393   3.742  17.299  0.8005  0.6229  0.4561
  583MPD2    H5 8651   0.402   3.812  17.226 -1.3852 -1.9362 -2.2515
  583MPD2    N1 8652   0.431   3.404  16.945  0.2040  0.1392  0.1758
  583MPD2    H7 8653   0.433   3.485  16.884  2.7599  1.1156  1.5782
  584TMC3    C1 8654   0.335   3.924  17.437 -0.4863  0.0815 -0.2016
  584TMC3    C2 8655   0.435   3.998  17.382 -0.5562  0.0628 -0.1961
  584TMC3    C3 8656   0.464   4.119  17.436  0.1581 -0.5327  0.1738
  584TMC3    C4 8657   0.252   3.980  17.533  0.3152 -0.3756 -0.1269
  584TMC3    C5 8658   0.277   4.104  17.579  0.8521 -0.0073 -0.4939
  584TMC3    C6 8659   0.378   4.176  17.527  0.6667 -0.1325  0.2008
  584TMC3     C 8660   0.334   3.786  17.420  0.2280  0.5304 -0.0042
  584TMC3     O 8661   0.277   3.718  17.501  0.2727  0.3839 -0.0871
  584TMC3     H 8662   0.511   3.952  17.319  1.5701 -1.7772  3.7186
  584TMC3    H1 8663   0.172   3.912  17.559  0.1512 -0.0291  0.2781
  584TMC3    H2 8664   0.410   4.269  17.573 -0.7641  0.3329  0.2443
  584TMC3    C7 8665   0.185   4.157  17.677 -0.3862  0.2921  0.2249
  584TMC3    C8 8666   0.532   4.205  17.347  0.2713  0.5734  0.3642
  584TMC3    O1 8667   0.136   4.073   0.060 -0.2168 -0.0785  0.2592
  584TMC3    O2 8668   0.564   4.169  17.234  0.5259  0.2110  0.1716
  585MPD2     C 8669   3.957   2.653  17.597 -0.0411 -0.5550  1.0648
  585MPD2    C1 8670   4.018   2.554  17.667 -1.0850  0.0484 -0.1003
  585MPD2    C2 8671   4.029   2.430  17.610  0.8040 -0.0327  0.1727
  585MPD2    C3 8672   3.987   2.405  17.491  0.3380 -0.6810 -0.2205
  585MPD2    C4 8673   3.919   2.503  17.417  0.3634 -0.1559 -0.0729
  585MPD2    C5 8674   3.902   2.627  17.473 -0.0898  0.0116  0.2245
  585MPD2     H 8675   4.073   2.347  17.665 -2.1487 -1.1814  0.7976
  585MPD2    H1 8676   3.871   2.487  17.321 -0.0208  0.4122  0.0250
  585MPD2    H2 8677   3.965   2.757  17.627 -0.6873  0.0577 -0.8647
  585MPD2    H3 8678   3.857   2.709  17.419  1.5009  2.0724  2.0010
  585MPD2     N 8679   3.980   2.278  17.438 -0.3911 -0.4508 -0.0957
  585MPD2    H5 8680   3.968   2.273  17.338  0.6925  0.6448 -0.2730
  585MPD2    N1 8681   4.071   2.594   0.101  0.8408 -0.4319 -0.0958
  585MPD2    H7 8682   4.054   2.686   0.140  0.5042 -0.4546 -0.1919
  586TMC3    C1 8683   3.991   2.047  17.431 -0.0263  0.0736 -0.2627
  586TMC3    C2 8684   4.068   2.048  17.312  0.0433 -0.0597 -0.6389
  586TMC3    C3 8685   4.114   1.926  17.275  0.2762  0.1803 -0.2056
  586TMC3    C4 8686   3.961   1.930  17.497 -0.3568 -0.4008  0.6249
  586TMC3    C5 8687   4.002   1.805  17.444  0.2998 -0.6670  0.5264
  586TMC3    C6 8688   4.076   1.804  17.328 -0.9427 -0.1071  0.3169
  586TMC3     C 8689   3.967   2.162  17.509  0.6038 -0.4475 -0.3344
  586TMC3     O 8690   3.951   2.150  17.630 -0.1407  0.0873 -0.0536
  586TMC3     H 8691   4.108   2.142  17.276 -0.0089  0.5616  0.9384
  586TMC3    H1 8692   3.895   1.928  17.584  1.4972  0.2847  2.0429
  586TMC3    H2 8693   4.099   1.709  17.280 -1.3013 -0.1001  0.1258
  586TMC3    C7 8694   3.971   1.688  17.530 -0.0271  0.4499  0.3015
  586TMC3    C8 8695   4.223   1.902  17.177 -0.0943 -0.3878 -0.5640
  586TMC3    O1 8696   3.902   1.711  17.632 -0.3737  0.7903  0.2235
  586TMC3    O2 8697   4.228   1.957  17.071 -0.0745 -0.0677 -0.3028
  587TMC3    C1 8698   2.141   0.725  16.615  0.2100  0.0565 -0.1418
  587TMC3    C2 8699   2.093   0.840  16.676  0.0414  1.1393  0.7915
  587TMC3    C3 8700   2.170   0.902  16.776  0.1428  0.1271  0.1134
  587TMC3    C4 8701   2.266   0.681  16.636 -0.2436  0.0287  0.7767
  587TMC3    C5 8702   2.342   0.746  16.726  0.0009  0.8642 -0.0150
  587TMC3    C6 8703   2.297   0.856  16.799  0.2500  0.3835  0.4355
  587TMC3     C 8704   2.059   0.632  16.544 -0.3686  0.2576 -0.2547
  587TMC3     O 8705   2.096   0.514  16.526  0.1413 -0.5050  0.2237
  587TMC3     H 8706   1.994   0.872  16.645  0.3859 -0.3715 -1.8735
  587TMC3    H1 8707   2.293   0.578  16.612  1.4565  1.2086 -2.3406
  587TMC3    H2 8708   2.359   0.921  16.861  0.3443  0.3946  0.3297
  587TMC3    C7 8709   2.480   0.709  16.722  0.1296  0.0017  0.2067
  587TMC3    C8 8710   2.120   0.992  16.876  0.1005 -0.6913 -0.4042
  587TMC3    O1 8711   2.529   0.660  16.619 -0.5791 -0.0300 -0.1238
  587TMC3    O2 8712   2.185   1.012  16.981 -0.8555  0.7482  0.3206
  588TMC3    C1 8713   4.302   3.096   9.804  0.2837  0.0282  0.9599
  588TMC3    C2 8714   4.244   2.969   9.784  0.2496 -0.1015  0.1012
  588TMC3    C3 8715   4.337   2.866   9.781  0.4414  0.1974  0.0718
  588TMC3    C4 8716   4.435   3.108   9.831  0.4338  0.0062 -0.4688
  588TMC3    C5 8717   4.520   3.001   9.817  0.0478 -0.6080  0.0016
  588TMC3    C6 8718   4.471   2.875   9.795  0.4960  0.2875 -0.7672
  588TMC3     C 8719   4.218   3.217   9.811 -0.2039 -0.6988 -0.8201
  588TMC3     O 8720   4.103   3.196   9.849  1.0813  0.6144 -0.2163
  588TMC3     H 8721   4.138   2.960   9.764  0.5483  0.9775 -1.9340
  588TMC3    H1 8722   4.462   3.190   9.896 -1.0929  1.2366 -1.4033
  588TMC3    H2 8723   4.530   2.787   9.771  1.0242 -0.1616  2.1965
  588TMC3    C7 8724   4.662   3.026   9.835  0.3246 -0.4668 -0.0853
  588TMC3    C8 8725   4.279   2.737   9.770  0.6460 -0.5357  0.5336
  588TMC3    O1 8726   4.723   2.927   9.872  0.1022  0.1847 -0.5395
  588TMC3    O2 8727   4.157   2.741   9.774 -0.8544 -0.3404  0.0235
  589TMC3    C1 8728   3.063   1.526   1.806  0.4762 -0.0289 -0.1226
  589TMC3    C2 8729   3.145   1.585   1.895 -0.6334 -0.0579 -0.1649
  589TMC3    C3 8730   3.234   1.501   1.950  0.0752  0.2909 -0.0830
  589TMC3    C4 8731   3.068   1.394   1.775 -0.3975 -0.6352 -0.2925
  589TMC3    C5 8732   3.167   1.312   1.831 -0.3801  0.2008 -1.0653
  589TMC3    C6 8733   3.247   1.366   1.931  1.0558 -0.2505  0.1535
  589TMC3     C 8734   2.971   1.606   1.732  0.1455 -0.1781  0.0839
  589TMC3     O 8735   2.952   1.569   1.617 -0.1364  0.1817 -0.2959
  589TMC3     H 8736   3.143   1.693   1.904  0.0188 -0.0716  0.1359
  589TMC3    H1 8737   3.006   1.356   1.694  1.5677  0.7666 -2.4573
  589TMC3    H2 8738   3.317   1.318   1.998  1.4355  1.9108  1.3082
  589TMC3    C7 8739   3.123   1.177   1.848  0.6072 -0.6103  0.3324
  589TMC3    C8 8740   3.360   1.566   1.984 -0.3347  0.0490  0.0238
  589TMC3    O1 8741   3.031   1.141   1.775 -0.3078 -0.1900  0.1956
  589TMC3    O2 8742   3.361   1.688   2.011 -0.5068  0.1496 -0.1461
  590MPD2     C 8743   2.751   4.680  16.366  0.0902  0.2196  1.4127
  590MPD2    C1 8744   2.799   4.564  16.420  0.2734 -0.2856  0.1384
  590MPD2    C2 8745   2.937   4.555  16.448 -0.3240  0.1952 -0.5937
  590MPD2    C3 8746   3.028   4.656  16.422 -0.8545 -0.4946  0.0887
  590MPD2    C4 8747   2.967   0.056  16.395  0.6948 -0.4044  0.5469
  590MPD2    C5 8748   2.832   0.067  16.363 -0.4387 -0.5967  0.1310
  590MPD2     H 8749   2.971   4.468  16.503  1.5599  1.7864  0.7426
  590MPD2    H1 8750   3.030   0.144  16.383  0.3374 -0.0943  0.9353
  590MPD2    H2 8751   2.648   4.709  16.351  1.0585  2.5161 -0.8177
  590MPD2    H3 8752   2.784   0.161  16.338  0.5951 -0.8710 -2.8264
  590MPD2     N 8753   3.169   4.643  16.445  0.6778  0.6211 -0.2501
  590MPD2    H5 8754   3.216   0.009  16.454 -0.7143  1.3334 -0.1003
  590MPD2    N1 8755   2.717   4.454  16.440 -0.3017  0.2938  0.4673
  590MPD2    H7 8756   2.765   4.368  16.467 -1.1153 -0.7638 -1.4482
  591TMC3    C1 8757   3.380   4.550  16.448 -0.3487 -0.0973 -0.0696
  591TMC3    C2 8758   3.452   4.465  16.368 -0.1937 -0.1031 -0.9401
  591TMC3    C3 8759   3.555   4.513  16.294  0.4011  0.4161  0.5995
  591TMC3    C4 8760   3.420   4.680  16.460 -0.4836 -0.4337  0.4508
  591TMC3    C5 8761   3.529   0.003  16.393  0.6771  0.4967 -0.1915
  591TMC3    C6 8762   3.597   4.644  16.305 -0.2659 -0.2431  0.4748
  591TMC3     C 8763   3.239   4.525  16.460 -0.5356 -0.0974 -0.9658
  591TMC3     O 8764   3.204   4.407  16.455 -0.3836 -0.3929 -0.0433
  591TMC3     H 8765   3.398   4.372  16.350  1.7818 -1.4318  0.0297
  591TMC3    H1 8766   3.357   0.018  16.523  1.3881 -0.1462  2.0490
  591TMC3    H2 8767   3.656   4.697  16.232 -1.0818 -1.0886 -0.7868
  591TMC3    C7 8768   3.534   0.145  16.359 -0.6498  0.0350 -0.1409
  591TMC3    C8 8769   3.593   4.435  16.175  0.1069 -0.3537  0.4170
  591TMC3    O1 8770   3.644   0.199  16.358 -0.2053  0.5593 -0.1445
  591TMC3    O2 8771   3.540   4.327  16.160 -0.1003 -0.7470  0.1086
  592MPD2     C 8772   3.829   1.236  11.270  0.2053 -0.6509  0.3536
  592MPD2    C1 8773   3.873   1.303  11.381  0.5118 -0.4636  0.4230
  592MPD2    C2 8774   3.807   1.284  11.498 -0.3441 -0.1389 -0.7224
  592MPD2    C3 8775   3.715   1.179  11.512 -0.0066 -0.0196 -0.2245
  592MPD2    C4 8776   3.679   1.109  11.397  0.2644  0.0515 -0.2529
  592MPD2    C5 8777   3.734   1.141  11.280  0.0806 -0.1089  0.4273
  592MPD2     H 8778   3.831   1.342  11.587 -0.7437 -0.0982 -0.6397
  592MPD2    H1 8779   3.604   1.030  11.398  0.9677 -0.6416 -1.7207
  592MPD2    H2 8780   3.871   1.249  11.171 -0.7312  1.7575  0.2690
  592MPD2    H3 8781   3.689   1.097  11.193 -0.9032 -0.2361  1.0027
  592MPD2     N 8782   3.660   1.160  11.641  0.7788 -0.0499 -0.8869
  592MPD2    H5 8783   3.700   1.232  11.699 -1.3664 -0.3620  0.9891
  592MPD2    N1 8784   3.977   1.402  11.357 -0.2472  0.2398  0.1435
  592MPD2    H7 8785   4.005   1.410  11.260 -1.0005  2.0777  0.0576
  593TMC3    C1 8786   4.156   1.552  11.418  0.3350 -0.1264  0.0955
  593TMC3    C2 8787   4.200   1.642  11.502 -0.0111 -0.1942  0.1984
  593TMC3    C3 8788   4.290   1.742  11.462  0.5736 -0.1022 -0.4150
  593TMC3    C4 8789   4.196   1.548  11.285 -0.0895  0.1832 -0.3333
  593TMC3    C5 8790   4.262   1.660  11.246 -0.3383 -0.2044  0.8267
  593TMC3    C6 8791   4.312   1.756  11.329 -0.0673 -0.0452  0.1878
  593TMC3     C 8792   4.042   1.479  11.457 -0.2182  0.4332  0.1908
  593TMC3     O 8793   4.013   1.490  11.578 -0.1637 -0.4561  0.5560
  593TMC3     H 8794   4.162   1.637  11.603 -0.8153  1.6434 -0.0203
  593TMC3    H1 8795   4.182   1.454  11.234  0.5471  0.2090 -0.5599
  593TMC3    H2 8796   4.360   1.845  11.290 -0.5354  0.3745  0.5667
  593TMC3    C7 8797   4.303   1.684  11.108 -0.0964  0.1322  0.9080
  593TMC3    C8 8798   4.320   1.846  11.553  0.3562  0.2937 -0.5457
  593TMC3    O1 8799   4.382   1.772  11.089 -0.0776 -0.4934  0.1308
  593TMC3    O2 8800   4.331   1.961  11.508 -0.0940 -0.0379 -0.6740
  594MPD2     C 8801   1.692   0.193  14.051 -0.8589  0.5240 -0.2356
  594MPD2    C1 8802   1.653   0.228  14.181 -0.6525 -0.3050 -0.3622
  594MPD2    C2 8803   1.756   0.263  14.272 -0.2743  0.4142  0.1605
  594MPD2    C3 8804   1.891   0.236  14.245 -0.0854 -0.0152  0.6462
  594MPD2    C4 8805   1.927   0.202  14.111 -0.2219  0.3098  0.0605
  594MPD2    C5 8806   1.827   0.165  14.023 -0.4151  0.8460 -0.0959
  594MPD2     H 8807   1.722   0.297  14.370  0.5637  1.4052  0.0964
  594MPD2    H1 8808   2.023   0.173  14.070  0.2079 -1.8238  2.5539
  594MPD2    H2 8809   1.625   0.152  13.976 -1.1448  0.7560 -0.1073
  594MPD2    H3 8810   1.847   0.106  13.934 -0.4524  0.3062  0.2520
  594MPD2     N 8811   1.990   0.264  14.348  0.6465 -0.4785  0.1624
  594MPD2    H5 8812   1.953   0.284  14.441  0.1695 -1.3240  0.1547
  594MPD2    N1 8813   1.515   0.230  14.217 -0.0960 -0.3977 -0.4587
  594MPD2    H7 8814   1.453   0.218  14.137 -1.1765 -0.2668  0.3546
  595TMC3    C1 8815   2.395   0.393  14.546  0.1336 -0.0276 -0.4920
  595TMC3    C2 8816   2.332   0.315  14.452 -0.5157  0.0234 -1.1642
  595TMC3    C3 8817   2.194   0.319  14.457  0.1192 -0.4777  0.0572
  595TMC3    C4 8818   2.332   0.473  14.635 -0.3507 -0.0340 -0.5692
  595TMC3    C5 8819   2.193   0.492  14.619  0.1484 -0.3244 -0.0272
  595TMC3    C6 8820   2.124   0.409  14.537  1.4189  0.0701  0.2641
  595TMC3     C 8821   2.534   0.437  14.514  0.3033  0.8258 -0.4525
  595TMC3     O 8822   2.617   0.379  14.584 -0.0687  0.4384 -0.0698
  595TMC3     H 8823   2.388   0.262  14.377 -0.2045 -0.4862 -0.5748
  595TMC3    H1 8824   2.390   0.534  14.703  1.4252 -1.9463 -0.3546
  595TMC3    H2 8825   2.023   0.435  14.510  1.1256  0.7313  2.0155
  595TMC3    C7 8826   2.143   0.630  14.626  0.1528 -0.1887 -0.2261
  595TMC3    C8 8827   2.127   0.261  14.342 -0.3297  0.4370 -0.3147
  595TMC3    O1 8828   2.023   0.650  14.611  0.1223  0.4343 -0.4307
  595TMC3    O2 8829   2.197   0.231  14.247  0.3515  0.1845 -0.4951
  596MPD2     C 8830   1.112   2.980  17.007 -0.5869  0.1729  0.4054
  596MPD2    C1 8831   1.128   3.100  16.948  0.0481 -0.1265  0.6273
  596MPD2    C2 8832   1.122   3.109  16.815 -0.4813  0.2665 -0.2629
  596MPD2    C3 8833   1.105   3.003  16.730 -0.0877  0.3202  0.7144
  596MPD2    C4 8834   1.089   2.878  16.791 -0.5362 -0.6889 -0.1250
  596MPD2    C5 8835   1.088   2.875  16.930 -0.0057 -0.3098 -0.2938
  596MPD2     H 8836   1.145   3.202  16.766  0.1595  1.3125  2.0205
  596MPD2    H1 8837   1.066   2.789  16.733 -2.3967 -0.1218 -0.2465
  596MPD2    H2 8838   1.123   2.965  17.114 -1.5946 -0.1327  0.4688
  596MPD2    H3 8839   1.071   2.780  16.980 -0.0757 -1.0437 -1.6981
  596MPD2     N 8840   1.112   3.007  16.584  0.0052 -0.2882  0.0467
  596MPD2    H5 8841   1.121   2.921  16.531  3.8673 -0.2002  0.6002
  596MPD2    N1 8842   1.163   3.215  17.025 -0.1741  0.2880  0.0627
  596MPD2    H7 8843   1.211   3.294  16.983  0.3970 -0.2875 -0.3707
  597TMC3    C1 8844   1.206   3.345  17.221 -0.1020  0.0220  0.6238
  597TMC3    C2 8845   1.297   3.421  17.148  0.0838  0.1162 -0.4166
  597TMC3    C3 8846   1.306   3.558  17.162  0.7243  0.1054  0.1799
  597TMC3    C4 8847   1.135   3.408  17.315  0.2593  0.1674 -0.0376
  597TMC3    C5 8848   1.133   3.543  17.329  0.4667  0.5609 -0.4518
  597TMC3    C6 8849   1.212   3.617  17.249  0.4678 -0.0355  0.5778
  597TMC3     C 8850   1.144   3.227  17.165  0.2837 -0.1873 -0.0709
  597TMC3     O 8851   1.072   3.158  17.231  0.2607 -0.3598  0.0958
  597TMC3     H 8852   1.356   3.364  17.077  1.5457  2.3113 -0.9653
  597TMC3    H1 8853   1.057   3.350  17.363  1.2564 -0.4763  0.7916
  597TMC3    H2 8854   1.215   3.725  17.256  0.3065  0.0846 -1.2692
  597TMC3    C7 8855   1.009   3.603  17.372  0.2465  0.0961  0.4810
  597TMC3    C8 8856   1.339   3.631  17.044  0.3058  0.2547  0.0078
  597TMC3    O1 8857   0.913   3.535  17.369 -0.1616 -0.3322  0.2134
  597TMC3    O2 8858   1.297   3.744  17.037  0.0325  0.5350 -0.0192
  598TMC3    C1 8859   4.198   0.164  15.576  0.6746 -0.7363  0.2719
  598TMC3    C2 8860   4.183   0.030  15.573  0.0519 -0.9459 -0.0691
  598TMC3    C3 8861   4.237   4.677  15.472  0.0520 -0.5917  0.4478
  598TMC3    C4 8862   4.262   0.229  15.478  0.3980  0.3710  0.1516
  598TMC3    C5 8863   4.304   0.156  15.368 -0.2682 -0.1385 -0.6317
  598TMC3    C6 8864   4.308   0.013  15.369 -0.1238 -0.2017 -0.5138
  598TMC3     C 8865   4.133   0.241  15.679 -0.8155  0.0764 -0.0404
  598TMC3     O 8866   4.196   0.339  15.709 -0.3051 -0.1622 -0.2644
  598TMC3     H 8867   4.123   4.701  15.646 -0.0963  0.0556  0.5294
  598TMC3    H1 8868   4.256   0.337  15.468  0.5952  0.1037 -2.9902
  598TMC3    H2 8869   4.338   4.677  15.284  1.5273 -0.9565  0.5971
  598TMC3    C7 8870   4.264   0.196  15.235 -0.1643 -0.2535  0.8982
  598TMC3    C8 8871   4.148   4.569  15.426 -0.3205  0.2959 -0.2154
  598TMC3    O1 8872   4.211   0.108  15.163 -0.2987  0.5947  0.4227
  598TMC3    O2 8873   4.089   4.498  15.511  0.0264  0.0068 -1.0932
  599MPD2     C 8874   3.969   2.273  16.006 -0.4122  0.4586 -0.2375
  599MPD2    C1 8875   4.005   2.298  16.137 -0.0781  0.4244 -0.8151
  599MPD2    C2 8876   3.917   2.318  16.242 -0.5483  0.3745 -0.0412
  599MPD2    C3 8877   3.782   2.312  16.209  0.1406  0.7129 -0.2925
  599MPD2    C4 8878   3.736   2.293  16.082  0.3625  0.1499 -0.7687
  599MPD2    C5 8879   3.833   2.260  15.984  0.0820 -0.4846  0.8901
  599MPD2     H 8880   3.944   2.347  16.343  2.6194  1.8857 -1.3216
  599MPD2    H1 8881   3.630   2.281  16.061  0.1839 -0.9151  0.6889
  599MPD2    H2 8882   4.040   2.258  15.926  0.1066 -4.1896  1.1118
  599MPD2    H3 8883   3.798   2.244  15.882 -3.1097  3.2370  1.3792
  599MPD2     N 8884   3.675   2.338  16.294 -0.0323  0.2678  0.2365
  599MPD2    H5 8885   3.584   2.353  16.252 -0.0225 -0.7925 -0.1494
  599MPD2    N1 8886   4.145   2.296  16.150 -1.0451  0.2281 -0.2384
  599MPD2    H7 8887   4.205   2.272  16.072 -0.0234 -2.9187  1.5229
  600TMC3    C1 8888   3.556   2.420  16.481 -0.8686  0.0768  0.5083
  600TMC3    C2 8889   3.463   2.315  16.480  0.4423  0.3354  0.7669
  600TMC3    C3 8890   3.328   2.352  16.488 -0.1814  0.3491  0.7462
  600TMC3    C4 8891   3.520   2.548  16.482 -0.1949 -0.2935  0.0303
  600TMC3    C5 8892   3.383   2.579  16.497 -0.1797  0.1895  0.1048
  600TMC3    C6 8893   3.291   2.485  16.488  0.5939 -0.1087  0.1424
  600TMC3     C 8894   3.686   2.398  16.426  0.5040  0.2855  0.1759
  600TMC3     O 8895   3.773   2.469  16.475 -0.3998  0.1622 -0.2082
  600TMC3     H 8896   3.490   2.210  16.482 -2.6300 -0.4763  1.1036
  600TMC3    H1 8897   3.591   2.630  16.486 -0.1823 -0.3346  0.6553
  600TMC3    H2 8898   3.186   2.509  16.478  1.1315  2.0232 -0.3491
  600TMC3    C7 8899   3.335   2.712  16.490 -0.1742 -0.5912 -0.1697
  600TMC3    C8 8900   3.227   2.249  16.467  0.0481  0.0730 -0.1746
  600TMC3    O1 8901   3.220   2.727  16.529 -0.4425 -0.2550  0.4335
  600TMC3    O2 8902   3.119   2.276  16.419  0.6390 -0.0213  0.3011
  601MPD2     C 8903   1.556   0.727   0.415  0.0953  0.2166  0.1189
  601MPD2    C1 8904   1.478   0.696   0.305  0.1313 -0.4992  0.2285
  601MPD2    C2 8905   1.502   0.579   0.227 -0.5938  0.2101  0.0705
  601MPD2    C3 8906   1.611   0.501   0.257 -0.6907  0.0959  0.3808
  601MPD2    C4 8907   1.700   0.541   0.352  0.1497 -0.2200 -0.3295
  601MPD2    C5 8908   1.671   0.644   0.440  0.0053 -0.0326 -0.0857
  601MPD2     H 8909   1.439   0.568   0.139 -1.2092  0.3805  0.4938
  601MPD2    H1 8910   1.778   0.472   0.379  0.2487  0.0804  0.1534
  601MPD2    H2 8911   1.524   0.812   0.475  0.8771  0.0276  0.8049
  601MPD2    H3 8912   1.732   0.663   0.528 -1.6266  0.1259  1.0088
  601MPD2     N 8913   1.642   0.374   0.190 -0.2788  0.3074  0.5051
  601MPD2    H5 8914   1.714   0.318   0.235 -0.4639  1.7202  2.5885
  601MPD2    N1 8915   1.369   0.776   0.274 -0.1555  0.1461  0.0471
  601MPD2    H7 8916   1.307   0.735   0.204  0.9169 -0.8585 -0.3137
  602TMC3    C1 8917   1.206   0.947   0.274 -0.0406 -0.5748  0.4529
  602TMC3    C2 8918   1.171   1.079   0.297 -0.4121  0.4118  0.4625
  602TMC3    C3 8919   1.038   1.104   0.274 -0.1813  0.2938 -0.2805
  602TMC3    C4 8920   1.116   0.842   0.249 -0.7783 -0.4389  0.5788
  602TMC3    C5 8921   0.987   0.880   0.233  0.5093 -0.1201 -0.6713
  602TMC3    C6 8922   0.949   1.012   0.238 -0.1414  0.5212  0.8412
  602TMC3     C 8923   1.332   0.893   0.334  0.1730 -0.1904 -0.1162
  602TMC3     O 8924   1.401   0.974   0.392 -0.4008 -0.4362 -0.3778
  602TMC3     H 8925   1.246   1.151   0.329 -1.9717  2.4987 -0.5548
  602TMC3    H1 8926   1.141   0.737   0.251  2.0511  0.1974 -0.7172
  602TMC3    H2 8927   0.842   1.029   0.244 -0.2530  0.3833 -0.7377
  602TMC3    C7 8928   0.896   0.782   0.178 -1.2380  0.2405  0.5464
  602TMC3    C8 8929   1.001   1.241   0.251 -0.1992 -0.6978  0.7380
  602TMC3    O1 8930   0.909   0.661   0.200  0.0205 -0.4653  0.0386
  602TMC3    O2 8931   1.065   1.332   0.307 -0.2673  0.0229  0.1348
  603TMC3    C1 8932   4.649   0.586  10.902 -0.1133 -0.3386 -0.3934
  603TMC3    C2 8933   4.698   0.611  11.029 -0.5932  0.4170 -0.3635
  603TMC3    C3 8934   0.007   0.741  11.060  0.3328  0.0438 -0.5473
  603TMC3    C4 8935   4.619   0.685  10.809 -0.2311 -0.2288 -1.1743
  603TMC3    C5 8936   4.657   0.812  10.839 -1.0618 -0.2213 -0.0172
  603TMC3    C6 8937   4.705   0.838  10.971  0.6457  0.0611  0.3180
  603TMC3     C 8938   4.640   0.448  10.859 -0.5424 -0.0753 -0.1611
  603TMC3     O 8939   4.629   0.431  10.736 -0.1406 -0.0760  0.1470
  603TMC3     H 8940   4.710   0.528  11.098  1.8125  1.8295  0.9351
  603TMC3    H1 8941   4.582   0.661  10.710 -3.3288 -2.8542  0.5950
  603TMC3    H2 8942   0.026   0.936  10.990  1.2055 -0.0174 -0.5965
  603TMC3    C7 8943   4.670   0.915  10.741 -0.5353  0.2501 -0.2270
  603TMC3    C8 8944   0.043   0.773  11.197 -0.6839  0.0821 -0.4507
  603TMC3    O1 8945   0.009   1.013  10.776  0.4541 -0.1340  0.2223
  603TMC3    O2 8946   0.091   0.678  11.255 -0.2426  0.5055 -0.1778
  604MPD2     C 8947   4.678   3.860  16.572  0.5912 -0.8108 -0.3218
  604MPD2    C1 8948   4.707   3.995  16.571  0.1013  0.3561 -0.3335
  604MPD2    C2 8949   0.044   4.046  16.460  0.4106  0.1964  0.7408
  604MPD2    C3 8950   0.074   3.965  16.346 -0.3975  0.2550 -0.2050
  604MPD2    C4 8951   0.042   3.826  16.352 -0.1861  0.2314 -0.1735
  604MPD2    C5 8952   4.714   3.779  16.467 -0.3124 -0.2309 -0.1127
  604MPD2     H 8953   0.058   4.153  16.458  1.1210  0.0727 -1.6578
  604MPD2    H1 8954   0.064   3.753  16.275 -1.9367 -0.9018  0.3978
  604MPD2    H2 8955   4.636   3.814  16.660  0.0411  0.7441  0.2353
  604MPD2    H3 8956   4.698   3.673  16.480  1.1201 -0.7145 -2.4362
  604MPD2     N 8957   0.136   4.027  16.236 -0.7476  0.4996  0.1344
  604MPD2    H5 8958   0.171   4.123  16.239  0.3253  0.1271 -0.3939
  604MPD2    N1 8959   4.659   4.078  16.675  0.6460 -0.3133 -0.2519
  604MPD2    H7 8960   4.596   4.042  16.746 -1.2270 -0.9817 -2.2153
  605TMC3    C1 8961   4.647   4.276  16.810  0.4589 -0.3193  0.2432
  605TMC3    C2 8962   4.711   4.386  16.859  0.0696  0.0363 -0.4633
  605TMC3    C3 8963   4.639   4.502  16.879 -0.1657  0.0197 -0.3769
  605TMC3    C4 8964   4.507   4.279  16.801 -0.0428  0.0117 -0.6235
  605TMC3    C5 8965   4.443   4.398  16.824  0.3455 -0.0814  0.2576
  605TMC3    C6 8966   4.508   4.512  16.858  0.0154  0.3752 -0.4135
  605TMC3     C 8967   4.708   4.199  16.704 -0.8405  0.0748  0.1736
  605TMC3     O 8968   0.090   4.248  16.662  0.2797 -0.8155 -0.0627
  605TMC3     H 8969   0.094   4.377  16.882  0.2272  1.5296 -0.5517
  605TMC3    H1 8970   4.451   4.199  16.755 -1.0182  1.8390 -2.6773
  605TMC3    H2 8971   4.461   4.609  16.870 -1.6954 -0.5694  0.5196
  605TMC3    C7 8972   4.310   4.406  16.765 -0.4951  0.0262 -0.5309
  605TMC3    C8 8973   4.717   4.619  16.912 -0.0783 -0.1132 -0.4849
  605TMC3    O1 8974   4.266   4.315  16.700  0.4543  0.0995 -0.2283
  605TMC3    O2 8975   4.656   4.700  16.980 -0.0874 -0.3935  0.4241
  606TMC3    C1 8976   1.605   3.214  17.260  0.2629  0.2424 -0.0852
  606TMC3    C2 8977   1.621   3.211  17.393 -0.1514  0.2177  0.9899
  606TMC3    C3 8978   1.579   3.101  17.461 -0.5503  0.5399 -0.2467
  606TMC3    C4 8979   1.539   3.113  17.202 -0.0455  0.6982  0.3160
  606TMC3    C5 8980   1.505   3.002  17.269  0.1603  0.1478  0.2713
  606TMC3    C6 8981   1.517   2.996  17.401 -0.4817  0.6484  0.7763
  606TMC3     C 8982   1.655   3.323  17.176 -0.1690 -0.1103 -0.0571
  606TMC3     O 8983   1.605   3.346  17.067 -0.1852  0.5012 -0.6505
  606TMC3     H 8984   1.673   3.294  17.442  0.1187 -1.3534  3.3784
  606TMC3    H1 8985   1.526   3.123  17.094  0.4274  2.3307  0.4083
  606TMC3    H2 8986   1.506   2.906  17.460 -0.2098 -0.1000 -0.3132
  606TMC3    C7 8987   1.430   2.902  17.198 -0.6397 -0.9534  0.5090
  606TMC3    C8 8988   1.606   3.106  17.599 -0.2017 -0.3076  0.0322
  606TMC3    O1 8989   1.452   2.884  17.079 -0.6672 -0.3058  0.5151
  606TMC3    O2 8990   1.654   3.213  17.638  0.1157 -0.2959  0.4249
  607MPD2     C 8991   3.865   0.834  11.686 -0.4315 -0.0927 -0.1740
  607MPD2    C1 8992   3.921   0.940  11.751  0.3525  0.6445 -0.0191
  607MPD2    C2 8993   3.904   0.962  11.882  0.4765  0.5513  0.4438
  607MPD2    C3 8994   3.829   0.869  11.954  0.5324 -0.2308  0.0848
  607MPD2    C4 8995   3.772   0.759  11.891 -0.3715  0.0834 -0.3167
  607MPD2    C5 8996   3.792   0.746  11.760 -0.1145  0.6215 -0.1910
  607MPD2     H 8997   3.954   1.049  11.925  0.9417  0.0200  0.9749
  607MPD2    H1 8998   3.722   0.680  11.946  2.2686 -1.5440 -0.2665
  607MPD2    H2 8999   3.873   0.839  11.578 -0.6371 -0.2805 -0.1971
  607MPD2    H3 9000   3.740   0.663  11.714 -0.2021  1.2167 -1.1723
  607MPD2     N 9001   3.816   0.894  12.095  0.0151 -0.0216 -0.1300
  607MPD2    H5 9002   3.871   0.974  12.126 -1.3498  0.7599  0.2806
  607MPD2    N1 9003   4.012   1.031  11.698  1.0424  0.1382  0.8124
  607MPD2    H7 9004   4.047   1.103  11.761 -1.7851  2.3626 -0.1364
  608TMC3    C1 9005   4.151   1.151  11.571 -0.3367  0.5514  0.8534
  608TMC3    C2 9006   4.168   1.238  11.674  0.2747 -1.0139 -0.2127
  608TMC3    C3 9007   4.274   1.328  11.682 -0.7383  0.2686 -0.2652
  608TMC3    C4 9008   4.240   1.149  11.475 -0.6690  0.0966 -0.0272
  608TMC3    C5 9009   4.345   1.241  11.479 -0.8749 -0.5626 -0.8311
  608TMC3    C6 9010   4.367   1.324  11.584  0.2713  0.1251 -0.6499
  608TMC3     C 9011   4.058   1.042  11.566 -0.5720 -0.6307 -0.5433
  608TMC3     O 9012   4.044   0.970  11.471 -0.2938 -0.1944 -0.2933
  608TMC3     H 9013   4.082   1.270  11.732 -0.6459 -0.2175 -2.0481
  608TMC3    H1 9014   4.232   1.072  11.399  0.5927 -0.5682  0.5261
  608TMC3    H2 9015   4.429   1.411  11.566  0.2274  0.6441  1.6109
  608TMC3    C7 9016   4.394   1.278  11.349  0.8637 -0.3439 -0.6105
  608TMC3    C8 9017   4.268   1.414  11.792  0.1834  0.5560  0.0690
  608TMC3    O1 9018   4.326   1.248  11.254 -0.2032  0.7279 -0.4004
  608TMC3    O2 9019   4.318   1.530  11.788  0.3951 -0.0098 -0.1327
  609TMC3    C1 9020   2.311   0.149   9.078 -0.0292  0.2833  0.4105
  609TMC3    C2 9021   2.322   0.264   9.154  0.2902  0.1926 -0.7111
  609TMC3    C3 9022   2.443   0.319   9.179 -0.4514  0.2729  0.5315
  609TMC3    C4 9023   2.422   0.080   9.053 -0.0031 -0.1264 -0.8170
  609TMC3    C5 9024   2.544   0.143   9.080  0.4579 -0.0078 -0.0763
  609TMC3    C6 9025   2.555   0.261   9.133  0.3806  0.8311 -0.3646
  609TMC3     C 9026   2.181   0.086   9.059 -0.1472  0.3901  0.5059
  609TMC3     O 9027   2.092   0.119   9.136 -0.6630  0.0977  0.7766
  609TMC3     H 9028   2.232   0.306   9.198  0.6954  1.8880 -1.4901
  609TMC3    H1 9029   2.414   4.699   9.026 -0.9334  0.2281 -1.9061
  609TMC3    H2 9030   2.652   0.310   9.126 -0.2948  2.1963 -0.1213
  609TMC3    C7 9031   2.669   0.062   9.078  0.3989  0.3833  0.3222
  609TMC3    C8 9032   2.462   0.462   9.215 -1.1123 -1.1375 -0.0089
  609TMC3    O1 9033   2.760   0.118   9.136 -0.0454  0.1158 -0.3311
  609TMC3    O2 9034   2.572   0.512   9.205  0.4972 -0.5363  0.0861
  610TMC3    C1 9035   4.411   1.082  12.600 -0.0777  0.5369  0.6564
  610TMC3    C2 9036   4.419   1.144  12.480  0.3217 -0.3479 -0.1869
  610TMC3    C3 9037   4.531   1.108  12.404 -0.1642 -0.0587  0.7468
  610TMC3    C4 9038   4.509   0.997  12.642  0.7281  0.2063  0.0498
  610TMC3    C5 9039   4.609   0.961  12.556  0.2031 -0.1407  0.1052
  610TMC3    C6 9040   4.628   1.019  12.439  0.1096 -0.1680 -0.3815
  610TMC3     C 9041   4.293   1.106  12.676  0.2494  0.1332 -0.2663
  610TMC3     O 9042   4.223   1.204  12.648 -0.1541 -0.4418 -0.1120
  610TMC3     H 9043   4.339   1.209  12.447 -0.5157 -1.8041 -1.0141
  610TMC3    H1 9044   4.510   0.957  12.743 -1.1544  1.8535  0.7084
  610TMC3    H2 9045   4.698   0.986  12.364  0.3228 -0.4880 -0.0407
  610TMC3    C7 9046   4.656   0.832  12.578 -0.6094  0.3150 -0.1750
  610TMC3    C8 9047   4.514   1.119  12.263  0.1824 -1.1828  0.0117
  610TMC3    O1 9048   4.632   0.778  12.684  0.4471 -1.0105 -0.1421
  610TMC3    O2 9049   4.617   1.137  12.195  0.2966  0.7018 -0.0254
  611MPD2     C 9050   3.800   0.404  10.486  0.0028 -0.0071 -0.7943
  611MPD2    C1 9051   3.718   0.515  10.463  0.8644  0.3387  0.0131
  611MPD2    C2 9052   3.768   0.622  10.383  0.2333 -0.0258 -0.0401
  611MPD2    C3 9053   3.894   0.616  10.331 -0.4441 -0.0188 -0.1484
  611MPD2    C4 9054   3.982   0.522  10.375 -0.1781 -0.4721  0.2337
  611MPD2    C5 9055   3.934   0.417  10.445 -0.4124 -0.0317 -0.6421
  611MPD2     H 9056   3.704   0.709  10.371 -1.2386 -0.9242  1.3990
  611MPD2    H1 9057   4.086   0.511  10.345  0.0990  0.6379  0.7639
  611MPD2    H2 9058   3.766   0.324  10.550  1.5613 -0.8762 -1.0556
  611MPD2    H3 9059   4.008   0.342  10.474  0.6082  1.4075  0.5044
  611MPD2     N 9060   3.941   0.717  10.246  0.2929 -0.4323 -0.5142
  611MPD2    H5 9061   4.041   0.719  10.233  0.0805 -0.8750 -2.2205
  611MPD2    N1 9062   3.591   0.516  10.520 -0.0161  0.1566 -0.4607
  611MPD2    H7 9063   3.562   0.437  10.578  1.5252 -0.7654 -0.9353
  612TMC3    C1 9064   3.947   0.930  10.128 -0.0692  0.3464  1.1983
  612TMC3    C2 9065   4.078   0.944  10.162 -0.5600 -0.0572 -0.7416
  612TMC3    C3 9066   4.145   1.050  10.105 -0.4286 -0.0533 -0.0894
  612TMC3    C4 9067   3.873   1.011  10.047 -0.2968  0.5098 -0.2866
  612TMC3    C5 9068   3.948   1.110   9.991  0.1459 -0.0118  0.5848
  612TMC3    C6 9069   4.081   1.135  10.022 -0.0084 -0.1430 -0.2508
  612TMC3     C 9070   3.869   0.821  10.187  0.2047 -0.0261 -0.0388
  612TMC3     O 9071   3.747   0.829  10.188  0.3199  0.1781 -0.0303
  612TMC3     H 9072   4.118   0.881  10.240  1.9823  0.0789 -1.9286
  612TMC3    H1 9073   3.773   0.977  10.021 -0.5425  0.4223  0.7802
  612TMC3    H2 9074   4.148   1.209   9.978 -1.7427  1.4130 -0.2725
  612TMC3    C7 9075   3.877   1.209   9.913  0.4886  0.4682  0.2257
  612TMC3    C8 9076   4.279   1.085  10.148  0.2087 -0.3941 -0.3516
  612TMC3    O1 9077   3.757   1.194   9.901 -0.9481 -0.3483  0.6448
  612TMC3    O2 9078   4.342   1.157  10.078  0.0963  0.2123 -0.3000
  613MPD2     C 9079   1.928   3.562  16.534 -0.6742 -0.2375  0.0582
  613MPD2    C1 9080   1.878   3.572  16.409  0.4486  0.2167  0.0851
  613MPD2    C2 9081   1.808   3.464  16.347 -0.9050  0.4703  1.1948
  613MPD2    C3 9082   1.815   3.337  16.407 -0.0514  0.1542 -0.6018
  613MPD2    C4 9083   1.866   3.326  16.536  0.5008  0.2002 -0.1211
  613MPD2    C5 9084   1.914   3.441  16.599 -0.0736 -0.0278  0.1226
  613MPD2     H 9085   1.760   3.467  16.250  0.5375 -1.9030  0.3990
  613MPD2    H1 9086   1.857   3.226  16.577  0.6018  0.1405 -0.2456
  613MPD2    H2 9087   1.986   3.638  16.585 -2.6204  0.0544  1.8601
  613MPD2    H3 9088   1.949   3.445  16.701 -0.7081  1.2434  0.2871
  613MPD2     N 9089   1.778   3.217  16.340  0.3898  0.3759 -0.3662
  613MPD2    H5 9090   1.800   3.132  16.391  1.2732  1.1251  0.4918
  613MPD2    N1 9091   1.906   3.688  16.337  0.2783 -0.1411  0.8513
  613MPD2    H7 9092   1.987   3.735  16.377  1.7184 -1.3702 -0.6186
  614TMC3    C1 9093   1.969   3.781  16.123 -0.5888  0.2011  0.8017
  614TMC3    C2 9094   2.095   3.724  16.129  0.7706  0.5699 -0.3402
  614TMC3    C3 9095   2.160   3.690  16.014 -0.0299  0.7261 -0.1385
  614TMC3    C4 9096   1.917   3.828  16.006  0.2631 -0.5139  0.2772
  614TMC3    C5 9097   1.987   3.793  15.891 -0.1343 -0.7099 -0.1963
  614TMC3    C6 9098   2.105   3.727  15.888 -0.3785 -0.9602  0.7848
  614TMC3     C 9099   1.871   3.711  16.204  0.2274  0.7047 -0.3006
  614TMC3     O 9100   1.770   3.669  16.140  0.5910 -0.3781 -0.0719
  614TMC3     H 9101   2.136   3.689  16.223  2.1130 -0.3490 -1.2789
  614TMC3    H1 9102   1.821   3.878  16.005  1.4962  1.8321 -0.3198
  614TMC3    H2 9103   2.156   3.706  15.796 -1.0919  0.1345  0.1332
  614TMC3    C7 9104   1.919   3.826  15.767 -0.2547  0.2660 -0.4144
  614TMC3    C8 9105   2.217   3.559  16.019  0.1184  0.0835  0.1381
  614TMC3    O1 9106   1.834   3.909  15.781 -0.0590 -0.0516  0.2407
  614TMC3    O2 9107   2.209   3.500  16.123  0.2131  0.7129 -0.4454
  615MPD2     C 9108   2.195   4.538  16.179 -0.6592 -0.4366  0.9417
  615MPD2    C1 9109   2.063   4.493  16.198 -0.3029  0.2969 -0.0365
  615MPD2    C2 9110   1.977   4.503  16.092  0.9327  0.2470  0.4804
  615MPD2    C3 9111   2.012   4.548  15.966  0.3625  0.8939 -0.8111
  615MPD2    C4 9112   2.137   4.596  15.958  0.8516 -0.1689  0.5925
  615MPD2    C5 9113   2.225   4.595  16.066  0.5241  0.0348 -0.4344
  615MPD2     H 9114   1.878   4.465  16.112  1.3686 -1.6784 -1.0332
  615MPD2    H1 9115   2.180   4.623  15.862  1.3638  0.7783  1.0932
  615MPD2    H2 9116   2.271   4.535  16.256  0.9567 -3.3055 -0.7344
  615MPD2    H3 9117   2.325   4.637  16.061  0.5819  0.0520  0.8815
  615MPD2     N 9118   1.928   4.548  15.856 -0.6012  0.4613  0.0962
  615MPD2    H5 9119   1.953   4.603  15.775 -3.4898 -0.6222 -1.5470
  615MPD2    N1 9120   2.009   4.467  16.328 -0.1947 -0.5652  0.0304
  615MPD2    H7 9121   1.913   4.436  16.336  0.0286 -1.4827 -0.7606
  616TMC3    C1 9122   2.019   4.412  16.559  0.7321 -0.4668 -0.6885
  616TMC3    C2 9123   2.108   4.361  16.651 -0.2032  0.2002  0.0668
  616TMC3    C3 9124   2.060   4.338  16.776  0.5172  0.3822 -0.1217
  616TMC3    C4 9125   1.895   4.447  16.584 -0.5247 -0.0913  0.5374
  616TMC3    C5 9126   1.853   4.425  16.712 -0.1082 -1.1590  1.0843
  616TMC3    C6 9127   1.928   4.375  16.809  0.2849  0.3673  0.3747
  616TMC3     C 9128   2.088   4.440  16.434  0.5442 -0.4255 -0.5783
  616TMC3     O 9129   2.207   4.456  16.445  0.3116 -0.4101 -0.0214
  616TMC3     H 9130   2.204   4.325  16.618  0.4781  2.2189 -0.1490
  616TMC3    H1 9131   1.834   4.510  16.520  0.9074 -2.0812 -2.7855
  616TMC3    H2 9132   1.887   4.352  16.907 -0.5967 -0.0102 -0.0795
  616TMC3    C7 9133   1.747   4.504  16.760 -0.7296 -0.8265 -0.4978
  616TMC3    C8 9134   2.143   4.375  16.884  0.3667  0.4542 -0.0452
  616TMC3    O1 9135   1.765   4.564  16.868 -0.5591  0.2499  0.5417
  616TMC3    O2 9136   2.102   4.369  16.998 -0.2139  0.0918  0.1383
  617MPD2     C 9137   0.059   3.015  14.048  0.3533 -0.2963 -0.1203
  617MPD2    C1 9138   0.079   3.005  14.184  0.3033 -0.4651  0.2734
  617MPD2    C2 9139   4.698   3.004  14.278  0.3836  0.6708  0.0248
  617MPD2    C3 9140   4.572   2.996  14.228 -0.4212 -0.3506 -0.2307
  617MPD2    C4 9141   4.554   2.997  14.090 -0.3364  0.4643  0.3683
  617MPD2    C5 9142   4.657   3.018  14.005  0.4198 -0.2662  0.7362
  617MPD2     H 9143   0.000   3.006  14.383  0.3548  1.5249  0.0134
  617MPD2    H1 9144   4.463   2.962  14.043  0.1948  1.4167 -1.3610
  617MPD2    H2 9145   0.138   3.028  13.976 -0.4835  0.2985 -0.9236
  617MPD2    H3 9146   4.635   3.020  13.899  2.3302 -2.0291  0.2949
  617MPD2     N 9147   4.460   2.965  14.308  0.4625  1.0299 -0.3722
  617MPD2    H5 9148   4.371   2.965  14.260  1.1082 -0.5518 -1.5528
  617MPD2    N1 9149   0.214   2.992  14.226 -0.1552  0.0974  0.3002
  617MPD2    H7 9150   0.284   2.985  14.153 -1.8400  2.2362 -1.5394
  618TMC3    C1 9151   0.396   2.944  14.364  0.4065  0.2865  0.5347
  618TMC3    C2 9152   0.451   2.834  14.314 -0.7171  0.0805 -0.0949
  618TMC3    C3 9153   0.577   2.829  14.267 -1.1179 -0.4680  0.2627
  618TMC3    C4 9154   0.464   3.058  14.384  0.3832  0.3232 -0.0874
  618TMC3    C5 9155   0.588   3.057  14.328 -0.3109 -0.8402 -0.4243
  618TMC3    C6 9156   0.648   2.945  14.278  0.5667 -0.0105  0.4041
  618TMC3     C 9157   0.253   2.961  14.357 -0.0640 -0.9407  0.1168
  618TMC3     O 9158   0.208   3.012  14.460  0.2138 -0.6613  0.3193
  618TMC3     H 9159   0.379   2.753  14.302 -2.5616  1.6534  0.2048
  618TMC3    H1 9160   0.419   3.150  14.418  0.4494  0.7208 -1.0765
  618TMC3    H2 9161   0.751   2.954  14.248  0.5821  1.9591  1.0505
  618TMC3    C7 9162   0.664   3.180  14.350 -0.3017  0.1524  0.0480
  618TMC3    C8 9163   0.597   2.742  14.152 -0.1973 -0.1205 -0.6877
  618TMC3    O1 9164   0.647   3.225  14.460 -0.0949  0.1513  0.2498
  618TMC3    O2 9165   0.514   2.655  14.132 -0.4144 -0.6720 -0.4326
  619MPD2     C 9166   1.454   4.080  13.281  0.0571 -0.1431 -0.5403
  619MPD2    C1 9167   1.388   4.153  13.186 -0.3972  0.3883  0.1180
  619MPD2    C2 9168   1.260   4.114  13.153  0.6190  0.0189 -0.1227
  619MPD2    C3 9169   1.200   3.990  13.195  0.3720 -0.8940 -0.1303
  619MPD2    C4 9170   1.275   3.916  13.279 -0.0529 -0.5241  0.2347
  619MPD2    C5 9171   1.392   3.968  13.323  0.2529 -0.3297 -0.8544
  619MPD2     H 9172   1.211   4.180  13.083  1.3726 -0.2121 -0.8709
  619MPD2    H1 9173   1.235   3.825  13.322  3.4655 -2.0622  0.1851
  619MPD2    H2 9174   1.543   4.115  13.332  0.5675 -2.3771  0.1106
  619MPD2    H3 9175   1.445   3.902  13.390 -0.8837 -0.7201 -0.3333
  619MPD2     N 9176   1.065   3.960  13.166  0.0755  0.5989 -0.0009
  619MPD2    H5 9177   1.038   3.876  13.215 -0.6883  0.0364 -1.3639
  619MPD2    N1 9178   1.431   4.280  13.139 -0.5996  0.1700  0.2619
  619MPD2    H7 9179   1.369   4.343  13.088 -0.2518 -0.0884 -0.4723
  620TMC3    C1 9180   1.588   4.450  13.089 -0.5889  0.7454 -0.4524
  620TMC3    C2 9181   1.499   4.484  12.987  0.0128  0.4599 -0.6527
  620TMC3    C3 9182   1.466   4.618  12.962 -1.0962 -0.5285 -0.6523
  620TMC3    C4 9183   1.640   4.541  13.174  0.4022  0.3477  0.5709
  620TMC3    C5 9184   1.603   4.667  13.156 -1.0567 -0.4254 -0.3256
  620TMC3    C6 9185   1.530   4.705  13.047  0.3038  0.2285  0.2687
  620TMC3     C 9186   1.563   4.322  13.152 -0.3817 -0.2994  0.3202
  620TMC3     O 9187   1.662   4.267  13.202 -0.6762  0.1226  0.3683
  620TMC3     H 9188   1.462   4.399  12.931  3.0837 -1.5069  0.3064
  620TMC3    H1 9189   1.697   4.505  13.259  0.3326  1.4413  1.0850
  620TMC3    H2 9190   1.507   0.085  13.024 -1.4841 -0.3279 -0.4364
  620TMC3    C7 9191   1.586   0.022  13.275  0.5882  0.3888 -0.0701
  620TMC3    C8 9192   1.328   4.639  12.962 -0.0889  1.2870 -0.0011
  620TMC3    O1 9193   1.674   0.052  13.356 -0.6446  0.4741  0.3352
  620TMC3    O2 9194   1.287   0.011  13.027 -0.1905  0.0089 -0.0326
  621MPD2     C 9195   1.926   3.824   9.631  0.2230  0.6402 -0.1018
  621MPD2    C1 9196   1.975   3.841   9.759 -0.9537  0.6411 -0.1757
  621MPD2    C2 9197   2.066   3.942   9.782  0.4044 -0.1031  0.7576
  621MPD2    C3 9198   2.119   4.018   9.678  0.1635 -0.4642  0.5086
  621MPD2    C4 9199   2.082   3.982   9.552  0.0058 -0.0521  0.2943
  621MPD2    C5 9200   1.982   3.890   9.533 -0.0288 -0.4531 -0.2973
  621MPD2     H 9201   2.096   3.956   9.885  1.9476  0.2504  0.2571
  621MPD2    H1 9202   2.110   4.047   9.469  0.3176  0.7316  1.0160
  621MPD2    H2 9203   1.845   3.759   9.599  0.5188 -1.1816  2.8534
  621MPD2    H3 9204   1.932   3.872   9.438 -0.4942  2.9925 -0.7085
  621MPD2     N 9205   2.212   4.116   9.710  0.4015 -0.1390  0.2724
  621MPD2    H5 9206   2.222   4.138   9.809  1.6224  1.4359 -0.2078
  621MPD2    N1 9207   1.940   3.765   9.876  0.4330 -0.3430  0.1545
  621MPD2    H7 9208   1.999   3.779   9.957  0.6048  0.7780 -0.1564
  622TMC3    C1 9209   1.837   3.614  10.012 -0.2366 -1.1658 -0.0705
  622TMC3    C2 9210   1.861   3.693  10.125  0.7173  0.2553  0.0910
  622TMC3    C3 9211   1.784   3.663  10.236  0.4933 -0.1665 -0.3474
  622TMC3    C4 9212   1.765   3.501  10.010  0.1858  1.3895 -0.1541
  622TMC3    C5 9213   1.700   3.473  10.126 -0.4195  0.2304 -0.1144
  622TMC3    C6 9214   1.704   3.555  10.239  0.6281  0.5483 -0.5387
  622TMC3     C 9215   1.839   3.682   9.883  0.5640  0.2058  0.1158
  622TMC3     O 9216   1.772   3.633   9.791 -0.7465 -0.2622 -0.1176
  622TMC3     H 9217   1.924   3.781  10.119  1.5767 -0.3856 -0.2373
  622TMC3    H1 9218   1.760   3.444   9.918 -0.5060  0.5138  0.4274
  622TMC3    H2 9219   1.648   3.521  10.326  0.0839 -3.2498 -2.3490
  622TMC3    C7 9220   1.615   3.353  10.127 -0.7613 -0.1790  0.6412
  622TMC3    C8 9221   1.756   3.775  10.315 -0.1906  0.4346  0.5653
  622TMC3    O1 9222   1.585   3.305  10.236  0.1269 -0.1649 -0.2471
  622TMC3    O2 9223   1.848   3.833  10.364  0.0278  0.1035 -0.3545
  623MPD2     C 9224   0.730   0.011  15.956  0.8798  0.1353 -0.7652
  623MPD2    C1 9225   0.626   0.036  16.043 -0.1365  0.2114  0.1547
  623MPD2    C2 9226   0.656   0.013  16.179  0.7266  0.3343  0.3122
  623MPD2    C3 9227   0.775   4.684  16.220  0.7013  0.2648  1.2413
  623MPD2    C4 9228   0.866   4.646  16.126 -0.7134 -0.2319  0.6806
  623MPD2    C5 9229   0.850   4.680  15.995  0.0101 -0.3037  0.2374
  623MPD2     H 9230   0.578   0.026  16.253 -2.8250 -1.5227 -3.1096
  623MPD2    H1 9231   0.953   4.592  16.160 -0.4701 -0.7248 -0.7117
  623MPD2    H2 9232   0.725   0.030  15.850  1.2005  3.0380 -0.2843
  623MPD2    H3 9233   0.922   4.655  15.918 -2.4841 -2.9778 -1.2202
  623MPD2     N 9234   0.797   4.675  16.362 -0.0155 -0.1169 -0.0418
  623MPD2    H5 9235   0.712   4.677  16.417  1.0299  0.8508  1.5405
  623MPD2    N1 9236   0.504   0.078  15.989  0.6136 -0.1643  0.3793
  623MPD2    H7 9237   0.495   0.074  15.888  0.8211  0.5965  0.3305
  624TMC3    C1 9238   1.015   4.606  16.767  0.0255  0.6314  0.5291
  624TMC3    C2 9239   0.920   4.685  16.822 -0.0678 -0.0629 -0.5224
  624TMC3    C3 9240   0.793   4.703  16.764  0.2641  0.1508  0.1441
  624TMC3    C4 9241   0.994   4.569  16.633 -0.6914 -0.2963 -0.6986
  624TMC3    C5 9242   0.882   4.606  16.567  0.7618  0.4348  0.2752
  624TMC3    C6 9243   0.782   4.673  16.631 -0.2028  0.0045  1.2977
  624TMC3     C 9244   1.087   4.517  16.852 -0.5179  0.0321  0.1762
  624TMC3     O 9245   1.124   4.560  16.959 -0.0951 -0.3406 -0.2273
  624TMC3     H 9246   0.940   4.702  16.927  0.7352 -0.3978 -0.6234
  624TMC3    H1 9247   1.075   4.523  16.577  0.1086  0.6842 -0.3651
  624TMC3    H2 9248   0.696   4.717  16.581 -0.6281  1.3984  3.2578
  624TMC3    C7 9249   0.907   4.629  16.423  0.6598  0.0612  0.1074
  624TMC3    C8 9250   0.694   0.069  16.822 -1.1561  0.3164 -0.6830
  624TMC3    O1 9251   1.022   4.632  16.383  0.0214 -0.5392 -0.5399
  624TMC3    O2 9252   0.736   0.163  16.892  0.4430  0.4646  0.4515
  625MPD2     C 9253   0.524   1.035   0.872 -0.2372 -0.5947  0.1501
  625MPD2    C1 9254   0.528   1.147   0.951  0.7366 -0.7182  0.0242
  625MPD2    C2 9255   0.529   1.131   1.093 -0.0056  0.2399 -0.1669
  625MPD2    C3 9256   0.524   1.007   1.152  0.3419  0.5641  0.3369
  625MPD2    C4 9257   0.520   0.899   1.069  0.3418 -0.2581  0.2056
  625MPD2    C5 9258   0.522   0.913   0.934 -0.2063 -0.2033  0.1460
  625MPD2     H 9259   0.536   1.220   1.155 -1.3447 -1.8117  2.9439
  625MPD2    H1 9260   0.517   0.797   1.107 -0.4062 -1.0477 -1.9377
  625MPD2    H2 9261   0.499   1.036   0.767  1.1995  2.4181 -0.1724
  625MPD2    H3 9262   0.505   0.827   0.870  0.4612  0.4741 -0.9458
  625MPD2     N 9263   0.538   1.006   1.293  0.2140  0.1998  0.1488
  625MPD2    H5 9264   0.553   1.093   1.343  1.2722  1.0037 -1.5980
  625MPD2    N1 9265   0.508   1.282   0.904 -0.1164 -0.5974  1.3316
  625MPD2    H7 9266   0.509   1.355   0.973  2.5809 -0.0134  0.6793
  626TMC3    C1 9267   0.456   1.462   0.763  0.3769 -0.6409  0.1613
  626TMC3    C2 9268   0.476   1.512   0.641 -0.0314  0.6816  0.4469
  626TMC3    C3 9269   0.391   1.610   0.594 -0.4241 -0.1711 -0.3630
  626TMC3    C4 9270   0.362   1.512   0.846 -0.2618  0.9944  0.3247
  626TMC3    C5 9271   0.274   1.597   0.792  0.8577 -1.1500 -0.1121
  626TMC3    C6 9272   0.288   1.649   0.671  0.7760  0.5577  0.9257
  626TMC3     C 9273   0.480   1.319   0.772  0.3248  0.2804 -0.0410
  626TMC3     O 9274   0.460   1.253   0.669  0.3299  0.6948 -0.2848
  626TMC3     H 9275   0.561   1.477   0.583 -0.8911 -3.2515  1.5815
  626TMC3    H1 9276   0.347   1.482   0.949  1.0918 -1.3714 -0.1579
  626TMC3    H2 9277   0.211   1.716   0.635  0.5920 -0.9782 -1.5143
  626TMC3    C7 9278   0.167   1.645   0.876 -0.4883  0.5284 -0.6775
  626TMC3    C8 9279   0.419   1.683   0.475 -0.1503 -0.0789 -0.2701
  626TMC3    O1 9280   0.115   1.556   0.946 -0.3007 -0.0307  0.2556
  626TMC3    O2 9281   0.323   1.705   0.399  0.0770 -0.1638  0.0250
  627MPD2     C 9282   3.797   1.811  14.793 -0.7156  0.7298  0.4440
  627MPD2    C1 9283   3.849   1.748  14.904  0.1292  0.1529  0.4860
  627MPD2    C2 9284   3.814   1.621  14.930  0.1386  0.6648 -0.3115
  627MPD2    C3 9285   3.712   1.557  14.861  0.0058 -0.8818 -0.1424
  627MPD2    C4 9286   3.655   1.618  14.747 -0.8539  0.7418  0.1910
  627MPD2    C5 9287   3.702   1.743  14.720  0.3537 -0.4756  0.6316
  627MPD2     H 9288   3.863   1.566  15.009  2.0937  2.2148 -0.4512
  627MPD2    H1 9289   3.579   1.576  14.681 -0.2471 -0.5663  0.3244
  627MPD2    H2 9290   3.829   1.908  14.757  1.0382  0.5354  1.4590
  627MPD2    H3 9291   3.653   1.795  14.639  2.3078  1.3548  0.6174
  627MPD2     N 9292   3.676   1.433  14.913  0.3977 -0.3001 -0.2319
  627MPD2    H5 9293   3.721   1.401  14.998  0.7727 -2.3716 -1.1922
  627MPD2    N1 9294   3.961   1.799  14.970 -0.2574 -0.9502 -0.5776
  627MPD2    H7 9295   3.995   1.752  15.053  0.1774  0.2490 -0.0697
  628TMC3    C1 9296   4.151   1.928  15.013  0.2380  0.0586  0.8607
  628TMC3    C2 9297   4.219   1.812  15.036  0.4436 -0.1946 -0.3621
  628TMC3    C3 9298   4.340   1.823  15.098 -0.4953 -0.0807 -0.3204
  628TMC3    C4 9299   4.194   2.050  15.050  0.4945 -0.2729 -0.1186
  628TMC3    C5 9300   4.323   2.053  15.103 -0.3729  0.4040  0.4259
  628TMC3    C6 9301   4.389   1.942  15.136 -0.5095  0.6343 -0.2187
  628TMC3     C 9302   4.023   1.920  14.951  0.4605 -0.9118  0.0675
  628TMC3     O 9303   3.977   2.023  14.895  0.0963 -0.0320  0.9732
  628TMC3     H 9304   4.185   1.715  15.004  0.6898 -0.3046 -0.2859
  628TMC3    H1 9305   4.121   2.129  15.038  0.9719  0.1654 -0.1315
  628TMC3    H2 9306   4.496   1.941  15.154 -0.7520  2.1413  1.2794
  628TMC3    C7 9307   4.398   2.177  15.119 -0.4369  0.9720 -1.0479
  628TMC3    C8 9308   4.383   1.701  15.160  0.3385  0.9481 -0.1836
  628TMC3    O1 9309   4.505   2.168  15.182 -1.2436 -0.0821  0.3433
  628TMC3    O2 9310   4.297   1.617  15.187 -0.0805 -0.5184 -0.2196
  629MPD2     C 9311   2.630   4.506  17.050 -0.7144  0.0208 -0.1830
  629MPD2    C1 9312   2.597   4.588  16.942  0.6659 -0.1389 -0.2676
  629MPD2    C2 9313   2.470   4.566  16.872  0.1016 -0.1205 -0.2321
  629MPD2    C3 9314   2.378   4.466  16.910  0.7429  0.3362 -0.7629
  629MPD2    C4 9315   2.402   4.397  17.023 -0.4048  1.0206 -0.7475
  629MPD2    C5 9316   2.527   4.421  17.088  0.0280  0.9028 -0.6612
  629MPD2     H 9317   2.449   4.613  16.777  0.9909  0.9513  0.1007
  629MPD2    H1 9318   2.331   4.330  17.072  1.5655  0.1295  0.9240
  629MPD2    H2 9319   2.717   4.493  17.113 -0.1088 -1.6965 -1.4016
  629MPD2    H3 9320   2.536   4.366  17.181  0.2000  2.6365  0.3314
  629MPD2     N 9321   2.257   4.445  16.840  0.3001  0.2710  0.4070
  629MPD2    H5 9322   2.249   4.483  16.746  1.9936 -1.7460 -0.5570
  629MPD2    N1 9323   2.679   4.694  16.916 -0.4080  0.4196 -0.1077
  629MPD2    H7 9324   2.763   4.698  16.973 -0.9948  0.5242  0.7469
  630TMC3    C1 9325   2.759   0.156  16.840  0.4233  0.5274 -0.4482
  630TMC3    C2 9326   2.810   0.208  16.723  0.9040 -0.3532  0.5096
  630TMC3    C3 9327   2.923   0.282  16.727 -0.7077  0.1096 -0.3013
  630TMC3    C4 9328   2.818   0.175  16.965  0.4969 -1.5524 -0.2218
  630TMC3    C5 9329   2.928   0.261  16.964 -0.4665  0.3428 -0.2515
  630TMC3    C6 9330   2.987   0.305  16.848  0.5410  0.2056  0.1908
  630TMC3     C 9331   2.657   0.067  16.817 -0.5042  0.0705  0.0488
  630TMC3     O 9332   2.588   0.075  16.713 -1.0570 -0.8821  0.1083
  630TMC3     H 9333   2.760   0.196  16.628 -3.4211  3.1370  2.3743
  630TMC3    H1 9334   2.760   0.158  17.055  0.2747  0.5555  0.0355
  630TMC3    H2 9335   3.087   0.345  16.858  1.7345 -2.7489 -0.0885
  630TMC3    C7 9336   2.960   0.320  17.093 -0.4865  0.1390 -0.3086
  630TMC3    C8 9337   2.957   0.376  16.628  0.2698 -0.1009  0.5525
  630TMC3    O1 9338   2.906   0.268  17.190  0.3339  0.0949 -0.3284
  630TMC3    O2 9339   3.064   0.435  16.639 -0.0785 -0.1252  0.2896
  631MPD2     C 9340   1.000   0.176  15.701  0.3190 -0.4152 -0.2214
  631MPD2    C1 9341   1.047   0.174  15.572 -0.3966 -0.1784 -0.4618
  631MPD2    C2 9342   1.159   0.095  15.545  0.3451  0.2646  0.2632
  631MPD2    C3 9343   1.222   0.026  15.650  0.1073  0.3427 -0.0636
  631MPD2    C4 9344   1.173   0.035  15.779  0.1581 -0.3799  0.0857
  631MPD2    C5 9345   1.069   0.118  15.809  0.3528 -0.9415  0.3095
  631MPD2     H 9346   1.188   0.073  15.443 -1.7997  0.6621 -0.4368
  631MPD2    H1 9347   1.222   4.716  15.866  2.0829  0.4816 -0.5770
  631MPD2    H2 9348   0.910   0.231  15.726  1.2071  1.9451 -2.2734
  631MPD2    H3 9349   1.035   0.145  15.909 -1.5894  1.7928 -1.0889
  631MPD2     N 9350   1.338   4.666  15.631  0.3961 -0.6142  0.6855
  631MPD2    H5 9351   1.370   4.660  15.535  2.4023  3.0551  1.1319
  631MPD2    N1 9352   0.978   0.250  15.471 -0.2907 -0.2914 -0.4522
  631MPD2    H7 9353   0.908   0.312  15.511  0.6775  0.2952  0.3492
  632TMC3    C1 9354   0.910   0.353  15.276  1.0626  0.6199 -0.1221
  632TMC3    C2 9355   0.776   0.365  15.315  0.0471 -0.2601  0.8160
  632TMC3    C3 9356   0.693   0.454  15.258 -1.0705 -0.5857 -0.3302
  632TMC3    C4 9357   0.954   0.433  15.174 -0.8127 -0.4340  0.2492
  632TMC3    C5 9358   0.862   0.519  15.114 -0.6195  0.4127 -0.6065
  632TMC3    C6 9359   0.732   0.542  15.158 -1.3599  0.0000  0.9241
  632TMC3     C 9360   1.005   0.265  15.339  0.7993  0.6201 -0.8369
  632TMC3     O 9361   1.079   0.207  15.262  0.1577  0.2992  0.0786
  632TMC3     H 9362   0.733   0.296  15.388  0.6580  0.4800  1.8843
  632TMC3    H1 9363   1.055   0.416  15.139 -1.0759  0.5062 -0.9747
  632TMC3    H2 9364   0.669   0.618  15.114  0.3806  0.1079 -1.3468
  632TMC3    C7 9365   0.906   0.595  15.003 -0.8280  0.5295 -0.5972
  632TMC3    C8 9366   0.582   0.509  15.332 -0.3067  0.2372  0.3357
  632TMC3    O1 9367   0.822   0.631  14.923 -0.9827 -0.7827  0.4651
  632TMC3    O2 9368   0.559   0.626  15.326 -0.3135  0.2372 -0.5964
  633MPD2     C 9369   0.677   3.081  17.680 -0.1590 -0.0833  0.1025
  633MPD2    C1 9370   0.675   3.009  17.565 -0.0954  0.5157  0.3286
  633MPD2    C2 9371   0.689   2.876  17.574  0.5061  0.2805 -0.2410
  633MPD2    C3 9372   0.711   2.810  17.693 -0.0889 -0.4993 -0.7721
  633MPD2    C4 9373   0.703   2.885   0.113 -0.7434 -0.6939 -0.7853
  633MPD2    C5 9374   0.679   3.020   0.110 -0.0119  0.2850  0.3641
  633MPD2     H 9375   0.691   2.820  17.481  1.4723  0.9462 -0.6255
  633MPD2    H1 9376   0.711   2.825   0.202 -1.3902  2.1721  1.2326
  633MPD2    H2 9377   0.669   3.189  17.672  0.2006 -0.3381 -4.0681
  633MPD2    H3 9378   0.659   3.078   0.199 -1.0985  0.3338  0.0853
  633MPD2     N 9379   0.742   2.677   0.014  0.0097  0.1487  0.1209
  633MPD2    H5 9380   0.768   2.644   0.107  1.1750  0.8436  0.0377
  633MPD2    N1 9381   0.669   3.060  17.436  0.3388 -0.0446 -0.0241
  633MPD2    H7 9382   0.667   2.993  17.359  0.7637 -0.1301  0.0421
  634TMC3    C1 9383   0.702   3.194  17.251 -0.6815  0.1307 -0.4482
  634TMC3    C2 9384   0.693   3.087  17.166 -0.4258  0.1525 -0.3064
  634TMC3    C3 9385   0.730   3.109  17.033 -0.2966 -0.0900  0.1431
  634TMC3    C4 9386   0.739   3.321  17.212 -0.0764  0.6162  0.0763
  634TMC3    C5 9387   0.778   3.332  17.082 -0.0500 -0.0936 -0.0313
  634TMC3    C6 9388   0.781   3.228  16.994  0.0244 -0.5692 -0.4214
  634TMC3     C 9389   0.671   3.191  17.391  0.1068 -0.2757  0.1525
  634TMC3     O 9390   0.675   3.293  17.455 -0.6123  0.1321 -0.7024
  634TMC3     H 9391   0.653   2.990  17.192 -0.3668  0.7223  1.8812
  634TMC3    H1 9392   0.735   3.406  17.279  1.0612 -0.9698  2.1750
  634TMC3    H2 9393   0.827   3.241  16.897  2.5387 -1.7174  0.6371
  634TMC3    C7 9394   0.759   3.462  17.014  0.2983 -0.0138 -0.3754
  634TMC3    C8 9395   0.736   3.002  16.936  0.2065 -0.0579  0.0691
  634TMC3    O1 9396   0.728   3.443  16.897 -0.1913 -0.2008 -0.4225
  634TMC3    O2 9397   0.751   2.885  16.972  0.4318  0.7915  0.0041
  635TMC3    C1 9398   2.341   4.499   0.632 -0.1477 -0.1023 -0.1550
  635TMC3    C2 9399   2.342   4.568   0.752 -0.1960  0.2335 -0.0231
  635TMC3    C3 9400   2.453   4.571   0.827  0.5640  0.0020  0.4722
  635TMC3    C4 9401   2.443   4.417   0.605 -0.4773 -0.1069  0.1721
  635TMC3    C5 9402   2.550   4.407   0.690 -0.3535  0.5738  0.8112
  635TMC3    C6 9403   2.554   4.484   0.800  0.7640  0.3980 -0.0369
  635TMC3     C 9404   2.220   4.507   0.560 -0.0683  0.1690  0.4595
  635TMC3     O 9405   2.145   4.598   0.588  0.3089  0.4198 -0.4230
  635TMC3     H 9406   2.258   4.629   0.781 -0.3847 -0.6492  1.2908
  635TMC3    H1 9407   2.448   4.350   0.520  1.1081  0.2745 -0.0382
  635TMC3    H2 9408   2.628   4.464   0.876  0.7158 -0.6779 -0.2732
  635TMC3    C7 9409   2.618   4.276   0.698  0.1368 -0.5642  0.9233
  635TMC3    C8 9410   2.453   4.630   0.959 -0.2984 -0.0258  0.5492
  635TMC3    O1 9411   2.696   4.254   0.794 -0.0100  0.5786 -0.5049
  635TMC3    O2 9412   2.356   4.608   1.035  0.4187 -0.1028  0.1504
  636MPD2     C 9413   1.482   3.580  15.617  0.1605  1.0546 -0.4374
  636MPD2    C1 9414   1.506   3.597  15.753 -0.5452  0.3534 -0.0656
  636MPD2    C2 9415   1.551   3.493  15.828  0.2054 -0.0171  0.5024
  636MPD2    C3 9416   1.600   3.379  15.763 -0.2838 -0.4976  0.3792
  636MPD2    C4 9417   1.591   3.367  15.627 -0.7416 -0.3116 -0.6612
  636MPD2    C5 9418   1.528   3.462  15.555  1.2471 -0.4109  0.2281
  636MPD2     H 9419   1.541   3.499  15.935 -0.1581  1.8589  0.3592
  636MPD2    H1 9420   1.633   3.288  15.566 -1.7257 -1.8621  0.6649
  636MPD2    H2 9421   1.446   3.659  15.553  0.6232 -0.4505 -2.5416
  636MPD2    H3 9422   1.530   3.449  15.447 -1.3879  1.5122 -0.0746
  636MPD2     N 9423   1.637   3.269  15.845 -0.3215 -0.5283  0.0666
  636MPD2    H5 9424   1.634   3.294  15.944 -0.3978  1.1712 -0.3589
  636MPD2    N1 9425   1.470   3.712  15.823  0.5359  0.5006  0.0913
  636MPD2    H7 9426   1.487   3.694  15.922 -0.3231  0.0466  0.1606
  637TMC3    C1 9427   1.739   3.078  15.922  0.1133 -0.0135  0.2306
  637TMC3    C2 9428   1.670   3.102  16.033  0.6525 -0.5389  0.1582
  637TMC3    C3 9429   1.735   3.082  16.152  0.1087 -0.2234 -0.0558
  637TMC3    C4 9430   1.870   3.037  15.920 -0.1019  0.6087  0.3971
  637TMC3    C5 9431   1.936   3.010  16.040 -1.0860 -0.3248 -0.2523
  637TMC3    C6 9432   1.865   3.036  16.156 -0.4774 -0.2415  0.0689
  637TMC3     C 9433   1.707   3.163  15.807 -0.5036 -0.0867  0.7897
  637TMC3     O 9434   1.737   3.125  15.693  0.2172  0.0193 -0.3781
  637TMC3     H 9435   1.562   3.108  16.026  0.7153 -0.8564 -0.9607
  637TMC3    H1 9436   1.922   3.027  15.825 -0.8207 -0.1755  0.0849
  637TMC3    H2 9437   1.920   3.037  16.250 -1.9006 -2.6881  0.9335
  637TMC3    C7 9438   2.077   3.056  16.045 -0.1731  0.4644 -0.1904
  637TMC3    C8 9439   1.728   3.215  16.213 -0.4108 -0.2706  0.6346
  637TMC3    O1 9440   2.121   3.094  16.153  0.2025  0.1856 -0.1843
  637TMC3    O2 9441   1.675   3.299  16.143  0.4912 -0.8132  0.3111
  638MPD2     C 9442   1.811   2.315  15.038  0.4014 -0.2614  0.0240
  638MPD2    C1 9443   1.778   2.222  14.938  0.4606 -1.0100  0.0441
  638MPD2    C2 9444   1.712   2.105  14.979  0.2837  0.2090 -0.2151
  638MPD2    C3 9445   1.691   2.083  15.113  0.2034  0.3111 -0.3491
  638MPD2    C4 9446   1.727   2.182  15.208 -0.7980  0.4095 -0.1094
  638MPD2    C5 9447   1.786   2.300  15.176  0.0879 -0.5628  0.0809
  638MPD2     H 9448   1.679   2.029  14.909 -1.2169  1.5088 -0.9091
  638MPD2    H1 9449   1.706   2.170  15.313  2.9835 -0.1787  0.5823
  638MPD2    H2 9450   1.872   2.402  15.017  2.7330 -1.5121  1.7512
  638MPD2    H3 9451   1.831   2.370  15.246  0.2664 -0.8690  0.2684
  638MPD2     N 9452   1.618   1.967  15.151 -0.2442 -0.8731  0.2252
  638MPD2    H5 9453   1.588   1.905  15.078  0.2007  0.2493 -0.9123
  638MPD2    N1 9454   1.798   2.248  14.801  0.0123  0.1877 -0.5948
  638MPD2    H7 9455   1.852   2.332  14.786 -0.6229  0.9368  1.3248
  639TMC3    C1 9456   1.570   1.780  15.280  0.7397 -0.0910 -0.5486
  639TMC3    C2 9457   1.483   1.733  15.188  0.3977 -0.8336 -0.1526
  639TMC3    C3 9458   1.447   1.606  15.190 -0.3931  0.8338 -0.3104
  639TMC3    C4 9459   1.627   1.697  15.372  0.1467 -0.4259  0.2830
  639TMC3    C5 9460   1.599   1.562  15.355 -0.1767 -0.0557  0.4974
  639TMC3    C6 9461   1.498   1.515  15.274 -0.3590 -0.1018  0.0813
  639TMC3     C 9462   1.619   1.915  15.279  1.0598 -0.1621  0.1490
  639TMC3     O 9463   1.663   1.964  15.378  0.4123 -0.4615  0.4861
  639TMC3     H 9464   1.446   1.798  15.109  1.4345 -0.9935 -0.7638
  639TMC3    H1 9465   1.702   1.745  15.433  3.5030 -2.1802 -2.4885
  639TMC3    H2 9466   1.492   1.410  15.249 -0.1352 -0.1263  0.1253
  639TMC3    C7 9467   1.684   1.452  15.404 -0.6427 -0.3804  0.6582
  639TMC3    C8 9468   1.375   1.561  15.073  0.5396 -0.0088 -0.2323
  639TMC3    O1 9469   1.638   1.338  15.403  0.0456  0.3307 -0.0128
  639TMC3    O2 9470   1.423   1.581  14.962 -0.0529  0.3307 -0.1614
  640MPD2     C 9471   2.566   0.507   9.548 -0.4687  0.6244 -0.4676
  640MPD2    C1 9472   2.606   0.638   9.541  0.3856  0.5509 -0.1734
  640MPD2    C2 9473   2.528   0.735   9.603  0.0866 -0.1290 -0.2513
  640MPD2    C3 9474   2.405   0.699   9.659 -0.0510 -0.0653  0.1830
  640MPD2    C4 9475   2.367   0.563   9.664 -0.0009  0.5529  0.0134
  640MPD2    C5 9476   2.453   0.470   9.609 -0.6225 -0.0270 -0.2532
  640MPD2     H 9477   2.557   0.840   9.598  1.3122 -0.4694 -0.2979
  640MPD2    H1 9478   2.276   0.520   9.704 -0.1788 -1.1372 -2.2677
  640MPD2    H2 9479   2.627   0.425   9.511 -1.0241 -0.9399  2.0903
  640MPD2    H3 9480   2.421   0.366   9.614  0.0010 -0.2183 -0.2579
  640MPD2     N 9481   2.304   0.790   9.704 -0.6297  0.2291  0.1104
  640MPD2    H5 9482   2.219   0.747   9.739 -1.5635  1.3761 -0.7136
  640MPD2    N1 9483   2.732   0.659   9.483  0.1950 -0.4534 -0.2851
  640MPD2    H7 9484   2.777   0.575   9.449  0.1057 -0.8433  0.5769
  641TMC3    C1 9485   2.915   0.793   9.418  0.3549 -0.3077  0.5283
  641TMC3    C2 9486   2.998   0.687   9.449  0.8535 -0.4591 -0.0477
  641TMC3    C3 9487   3.129   0.700   9.419 -0.3546  0.6968 -0.4336
  641TMC3    C4 9488   2.964   0.908   9.362 -0.1550 -0.5651 -0.2443
  641TMC3    C5 9489   3.100   0.915   9.325 -0.2486 -0.1402  0.3783
  641TMC3    C6 9490   3.180   0.808   9.354 -0.8475  0.2235 -0.1440
  641TMC3     C 9491   2.786   0.790   9.470 -0.2029  0.2501 -0.7320
  641TMC3     O 9492   2.743   0.905   9.490  0.0818  0.5022 -0.0413
  641TMC3     H 9493   2.963   0.589   9.480  1.0366 -0.7882 -0.8709
  641TMC3    H1 9494   2.898   0.986   9.325 -0.5382 -0.0057  1.6121
  641TMC3    H2 9495   3.286   0.823   9.336 -0.9605 -0.1099 -1.0874
  641TMC3    C7 9496   3.161   1.022   9.256  0.0152  0.1439  0.3256
  641TMC3    C8 9497   3.218   0.589   9.424 -0.7094 -0.0754 -0.4942
  641TMC3    O1 9498   3.260   0.989   9.187 -0.0058 -0.3523  0.0191
  641TMC3    O2 9499   3.161   0.486   9.458 -0.0739 -0.1990 -0.7081
  642TMC3    C1 9500   3.825   2.211  11.930  0.1416  0.1779  0.5733
  642TMC3    C2 9501   3.857   2.243  11.797  0.7157 -0.2973  0.3974
  642TMC3    C3 9502   3.892   2.134  11.716 -0.2723 -0.0678  0.2992
  642TMC3    C4 9503   3.809   2.082  11.972 -0.1874 -0.0089 -0.4879
  642TMC3    C5 9504   3.861   1.987  11.894  0.8826 -0.0729  0.1279
  642TMC3    C6 9505   3.902   2.007  11.765  0.0045  0.8625 -1.3384
  642TMC3     C 9506   3.780   2.321  12.010  0.0407 -0.6407  0.2850
  642TMC3     O 9507   3.817   2.437  11.982  0.1785 -0.1883  0.6901
  642TMC3     H 9508   3.854   2.342  11.754 -1.2453  0.1135  1.4738
  642TMC3    H1 9509   3.776   2.051  12.070  0.9039  3.3474  0.9403
  642TMC3    H2 9510   3.919   1.928  11.693  3.0434 -1.5458  1.9989
  642TMC3    C7 9511   3.833   1.847  11.915 -0.0930  0.2678 -0.3003
  642TMC3    C8 9512   3.878   2.145  11.571  0.0192 -0.4216 -0.5105
  642TMC3    O1 9513   3.801   1.769  11.826  0.4219 -0.1009 -0.6993
  642TMC3    O2 9514   3.874   2.037  11.512 -0.7890  0.0310 -0.6421
  643TMC3    C1 9515   2.202   1.441   1.051  0.0476 -0.1304 -0.0383
  643TMC3    C2 9516   2.080   1.492   1.066 -0.0934  0.1026  0.4630
  643TMC3    C3 9517   1.981   1.463   0.982  0.2613 -0.6469 -0.6156
  643TMC3    C4 9518   2.240   1.362   0.945 -0.0985 -0.7749  0.2486
  643TMC3    C5 9519   2.144   1.341   0.854  0.1091  0.0734  0.4197
  643TMC3    C6 9520   2.014   1.382   0.875  0.2252 -0.2553  0.7973
  643TMC3     C 9521   2.302   1.484   1.143 -0.3787 -0.3614  0.9424
  643TMC3     O 9522   2.279   1.583   1.210  0.5863 -0.2910 -0.1760
  643TMC3     H 9523   2.060   1.560   1.149  2.5359  0.4562  0.8152
  643TMC3    H1 9524   2.343   1.350   0.911  0.1007 -2.3354  1.3880
  643TMC3    H2 9525   1.924   1.372   0.816  2.2635 -2.8475 -1.8558
  643TMC3    C7 9526   2.201   1.374   0.725  0.3056  0.2408  0.1350
  643TMC3    C8 9527   1.906   1.576   0.934 -0.1517  0.1973  0.8884
  643TMC3    O1 9528   2.294   1.453   0.725  0.6959 -0.3242  0.5215
  643TMC3    O2 9529   1.792   1.557   0.891  0.2354  0.5315  0.3418
  644MPD2     C 9530   2.998   2.143   9.800 -0.0566 -0.3007  0.5613
  644MPD2    C1 9531   2.932   2.030   9.749  0.4962 -0.7375 -0.6131
  644MPD2    C2 9532   2.794   2.045   9.710  0.7650  0.0622 -1.2767
  644MPD2    C3 9533   2.727   2.168   9.715 -0.4392  0.7559  0.1301
  644MPD2    C4 9534   2.799   2.280   9.761 -0.3883  0.7825  0.4315
  644MPD2    C5 9535   2.928   2.259   9.805 -0.4693 -0.0337  0.0373
  644MPD2     H 9536   2.749   1.959   9.662  0.6641 -0.3421 -0.4609
  644MPD2    H1 9537   2.743   2.372   9.776 -1.4351  0.3311 -0.6891
  644MPD2    H2 9538   3.097   2.139   9.844 -0.7830  1.1348  2.3017
  644MPD2    H3 9539   2.972   2.350   9.843 -2.2277  0.4156  0.9934
  644MPD2     N 9540   2.592   2.166   9.676  0.3589  0.1804 -0.4866
  644MPD2    H5 9541   2.552   2.082   9.637 -0.5777  0.1580  0.5122
  644MPD2    N1 9542   2.994   1.908   9.741  0.1992  0.2830  0.5267
  644MPD2    H7 9543   3.091   1.901   9.772  0.8990  2.4874 -1.1610
  645TMC3    C1 9544   2.388   2.274   9.594 -0.6767  0.3198 -0.1431
  645TMC3    C2 9545   2.358   2.370   9.500 -0.7522 -0.2853 -0.4649
  645TMC3    C3 9546   2.257   2.334   9.411  0.0851 -0.3464 -0.5198
  645TMC3    C4 9547   2.320   2.159   9.612 -0.0816  0.0646 -0.4671
  645TMC3    C5 9548   2.210   2.141   9.530  0.2000  0.1676 -0.4083
  645TMC3    C6 9549   2.186   2.217   9.425 -0.0017 -0.2093  0.0352
  645TMC3     C 9550   2.511   2.278   9.668 -0.4058 -0.1131  0.1248
  645TMC3     O 9551   2.540   2.389   9.708 -0.0405  0.4231  0.3410
  645TMC3     H 9552   2.419   2.460   9.508  0.7052 -1.3053 -0.1035
  645TMC3    H1 9553   2.332   2.093   9.697  1.3398 -0.1947 -0.8694
  645TMC3    H2 9554   2.106   2.200   9.354  0.4464  1.1093 -0.7883
  645TMC3    C7 9555   2.134   2.021   9.558 -0.0958 -0.6436  0.4024
  645TMC3    C8 9556   2.228   2.427   9.296  0.5802 -0.7223 -0.6102
  645TMC3    O1 9557   2.178   1.932   9.633  0.1463  0.4196  0.2556
  645TMC3    O2 9558   2.304   2.518   9.282 -0.3430  0.0527 -0.3538
  646MPD2     C 9559   1.809   0.924  14.398  0.3214  0.2830  0.5034
  646MPD2    C1 9560   1.706   0.909  14.492 -0.2758 -0.9314  0.1333
  646MPD2    C2 9561   1.599   0.985  14.475 -0.1519  0.3348 -0.3323
  646MPD2    C3 9562   1.585   1.077  14.371  0.0039  0.6175  0.1291
  646MPD2    C4 9563   1.690   1.087  14.281  0.0665  0.0650  0.2101
  646MPD2    C5 9564   1.805   1.013  14.296  0.2527 -0.3158  0.4637
  646MPD2     H 9565   1.524   0.975  14.553  1.5861  0.6921  1.3847
  646MPD2    H1 9566   1.680   1.153  14.196  1.2778 -0.9306 -0.7092
  646MPD2    H2 9567   1.902   0.868  14.401 -0.1155 -0.6337 -2.6081
  646MPD2    H3 9568   1.883   1.024  14.222  0.7929  0.7055  1.1865
  646MPD2     N 9569   1.466   1.152  14.359 -0.4690 -0.1673  0.3705
  646MPD2    H5 9570   1.391   1.123  14.422 -0.3177 -2.6739 -0.5797
  646MPD2    N1 9571   1.726   0.803  14.586 -0.6026  0.2286  0.5992
  646MPD2    H7 9572   1.803   0.740  14.562 -0.8965  0.0237  0.1892
  647TMC3    C1 9573   1.694   0.655  14.766 -0.2983  0.3318 -0.1870
  647TMC3    C2 9574   1.672   0.653  14.903  0.1104 -0.0252  0.0062
  647TMC3    C3 9575   1.694   0.531  14.967 -0.8547 -0.0637  0.7067
  647TMC3    C4 9576   1.762   0.553  14.701 -0.4094  0.9427 -0.0201
  647TMC3    C5 9577   1.784   0.443  14.779  0.3476 -0.1900 -0.1120
  647TMC3    C6 9578   1.755   0.422  14.907  0.4586 -0.3067 -0.0732
  647TMC3     C 9579   1.656   0.779  14.697 -0.3530 -0.3276 -1.5421
  647TMC3     O 9580   1.585   0.857  14.758  0.3301 -0.3419 -0.5909
  647TMC3     H 9581   1.617   0.728  14.958  0.2386 -2.8127  3.9510
  647TMC3    H1 9582   1.785   0.553  14.595 -2.0807 -1.8657 -0.3728
  647TMC3    H2 9583   1.755   0.321  14.947 -1.1139  0.2161  1.2727
  647TMC3    C7 9584   1.853   0.335  14.712  0.4491  0.3813 -0.0251
  647TMC3    C8 9585   1.707   0.538  15.112 -0.3592  0.1142  0.9927
  647TMC3    O1 9586   1.846   0.320  14.587 -0.2176 -0.2004  0.2657
  647TMC3    O2 9587   1.681   0.646  15.167  0.0459  0.2569 -0.2050
  648TMC3    C1 9588   1.076   3.089  16.363 -0.7365 -0.3824  0.2069
  648TMC3    C2 9589   1.138   2.985  16.308  0.4518 -0.2737  0.5030
  648TMC3    C3 9590   1.115   2.960  16.174 -0.4714 -0.7107 -0.8963
  648TMC3    C4 9591   0.994   3.175  16.286  0.1469 -0.2835  0.0056
  648TMC3    C5 9592   0.969   3.145  16.155  0.2839 -0.2325  0.0266
  648TMC3    C6 9593   1.041   3.049  16.098 -0.5005  0.0982 -1.0873
  648TMC3     C 9594   1.084   3.116  16.506  0.1935 -0.5739  0.3767
  648TMC3     O 9595   1.036   3.221  16.550 -0.4643  0.6614 -0.2237
  648TMC3     H 9596   1.199   2.919  16.368 -1.6574 -2.9396 -0.2714
  648TMC3    H1 9597   0.953   3.261  16.339 -0.7671 -1.0064  0.4691
  648TMC3    H2 9598   1.040   3.044  15.990  5.9850  1.1311 -1.2063
  648TMC3    C7 9599   0.902   3.231  16.066 -0.0725 -0.4259  0.6989
  648TMC3    C8 9600   1.200   2.866  16.104 -0.9732  0.2309  0.1475
  648TMC3    O1 9601   0.894   3.209  15.945  0.3078 -0.6485  0.6077
  648TMC3    O2 9602   1.309   2.844  16.153  0.2622 -0.2397 -0.2310
  649TMC3    C1 9603   4.294   4.154  12.735 -0.1193  0.6407 -0.6577
  649TMC3    C2 9604   4.422   4.174  12.687 -0.3057  0.0389 -0.0200
  649TMC3    C3 9605   4.524   4.114  12.748 -0.4807 -0.7523 -0.2669
  649TMC3    C4 9606   4.272   4.094  12.853 -0.0438  0.2636 -0.1063
  649TMC3    C5 9607   4.378   4.045  12.920 -0.3459 -0.6521 -0.3179
  649TMC3    C6 9608   4.507   4.047  12.871  0.2498  0.4489 -0.2081
  649TMC3     C 9609   4.186   4.248  12.700  0.0289  0.2914  1.4795
  649TMC3     O 9610   4.121   4.292  12.797 -0.3822 -0.5383 -0.4497
  649TMC3     H 9611   4.431   4.209  12.584  0.8110 -1.7909 -0.5443
  649TMC3    H1 9612   4.175   4.075  12.897  0.2049 -0.2553  0.2186
  649TMC3    H2 9613   4.573   3.997  12.942  0.4674  0.6227 -0.2881
  649TMC3    C7 9614   4.356   3.952  13.031 -0.3233 -0.3034 -0.6781
  649TMC3    C8 9615   4.647   4.085  12.676  0.6311 -0.4738  0.4869
  649TMC3    O1 9616   4.299   3.994  13.131  0.6987 -0.4880  0.9560
  649TMC3    O2 9617   4.686   4.143  12.578 -0.2407 -0.5336  0.1863
  650TMC3    C1 9618   2.981   1.003  12.958 -0.2957 -0.5203 -0.2194
  650TMC3    C2 9619   2.997   1.134  12.981 -0.3048  0.2294 -0.1068
  650TMC3    C3 9620   2.959   1.218  12.883  0.4186  0.1664  0.5458
  650TMC3    C4 9621   2.925   0.950  12.849  0.1475 -0.0419 -0.3700
  650TMC3    C5 9622   2.891   1.039  12.748 -0.3674 -0.3252 -0.3663
  650TMC3    C6 9623   2.902   1.176  12.767  0.1516  0.2840  0.7197
  650TMC3     C 9624   3.015   0.916  13.072  0.3911 -1.4586  0.9709
  650TMC3     O 9625   3.030   0.974  13.177 -0.5112 -0.4320 -0.1043
  650TMC3     H 9626   3.039   1.177  13.071  0.8332 -0.1401 -0.4609
  650TMC3    H1 9627   2.924   0.842  12.838  2.0782  0.0696 -1.6577
  650TMC3    H2 9628   2.876   1.241  12.685  2.0403 -0.0203 -0.1280
  650TMC3    C7 9629   2.776   0.986  12.677  1.2455  0.5171 -0.3438
  650TMC3    C8 9630   3.007   1.356  12.885 -0.1675 -0.2287 -0.3250
  650TMC3    O1 9631   2.716   0.890  12.725 -0.5791  0.1141  0.1034
  650TMC3    O2 9632   3.003   1.412  12.778  0.2470 -0.3866  0.1326
  651MPD2     C 9633   1.777   2.809  11.279  0.2027 -0.3998  0.0406
  651MPD2    C1 9634   1.735   2.805  11.147 -0.7815  0.1674 -0.1587
  651MPD2    C2 9635   1.833   2.808  11.052 -0.1010 -0.4579  0.4333
  651MPD2    C3 9636   1.969   2.809  11.071 -0.0286  0.5238 -0.1609
  651MPD2    C4 9637   2.010   2.805  11.201  0.5324 -0.0880  0.0669
  651MPD2    C5 9638   1.914   2.800  11.296  0.3594 -0.2589 -0.7701
  651MPD2     H 9639   1.800   2.822  10.949 -1.7237 -1.3122  0.8282
  651MPD2    H1 9640   2.114   2.790  11.224  0.2669 -1.1666  0.5533
  651MPD2    H2 9641   1.714   2.813  11.367 -1.9052  0.2163 -1.4842
  651MPD2    H3 9642   1.946   2.797  11.400 -1.9805  1.5549  0.0256
  651MPD2     N 9643   2.058   2.802  10.960  0.3589 -0.1281 -0.0176
  651MPD2    H5 9644   2.025   2.782  10.867 -0.6778 -1.1018  0.5588
  651MPD2    N1 9645   1.602   2.809  11.108  0.2941  0.3688 -0.4610
  651MPD2    H7 9646   1.576   2.807  11.010  0.0153 -1.6012 -0.3440
  652TMC3    C1 9647   2.456   2.898  10.754 -0.0132  0.0647  0.4581
  652TMC3    C2 9648   2.386   2.830  10.847  0.3601 -0.4313  0.5324
  652TMC3    C3 9649   2.249   2.831  10.838  0.0688  0.1311 -0.3422
  652TMC3    C4 9650   2.390   2.975  10.662  0.5285 -0.3536  0.7592
  652TMC3    C5 9651   2.258   2.973  10.653  0.1545 -0.5322 -0.2144
  652TMC3    C6 9652   2.181   2.909  10.747 -0.3273  0.4466  0.0555
  652TMC3     C 9653   2.603   2.892  10.750 -0.2894 -0.1940 -0.0568
  652TMC3     O 9654   2.668   2.862  10.848 -0.0805 -0.0784 -0.2518
  652TMC3     H 9655   2.439   2.769  10.919 -0.0123  0.4293  1.5249
  652TMC3    H1 9656   2.447   3.027  10.586  1.3906 -0.5449  1.2731
  652TMC3    H2 9657   2.073   2.914  10.734 -0.3190 -2.6535 -1.1417
  652TMC3    C7 9658   2.187   3.094  10.621  0.3422 -0.4077 -0.3193
  652TMC3    C8 9659   2.193   2.814  10.973  0.2675 -0.4306 -0.2351
  652TMC3    O1 9660   2.083   3.091  10.554  0.0784  0.4366 -0.4293
  652TMC3    O2 9661   2.270   2.834  11.067 -0.6306  0.3763 -0.2547
  653MPD2     C 9662   0.390   3.100   0.291  0.1202  0.0403  0.4875
  653MPD2    C1 9663   0.282   3.171   0.236  0.5042  0.1423  0.5637
  653MPD2    C2 9664   0.169   3.099   0.192 -0.1665  0.2346  0.3775
  653MPD2    C3 9665   0.166   2.963   0.201  0.0394 -0.5102  0.2125
  653MPD2    C4 9666   0.269   2.894   0.260 -0.0863 -0.3381 -0.3362
  653MPD2    C5 9667   0.383   2.961   0.299  0.2468  0.9518  0.4399
  653MPD2     H 9668   0.080   3.149   0.155 -2.0135 -1.9963  1.8263
  653MPD2    H1 9669   0.272   2.787   0.281 -1.0255 -0.5128 -1.0480
  653MPD2    H2 9670   0.483   3.147   0.320 -0.1802  0.1717  1.2363
  653MPD2    H3 9671   0.458   2.900   0.348 -0.3771 -0.1557  0.0250
  653MPD2     N 9672   0.055   2.904   0.145 -0.5088  0.4964  0.3357
  653MPD2    H5 9673   4.720   2.964   0.087 -0.2750  1.2225  0.8566
  653MPD2    N1 9674   0.287   3.308   0.218  0.6361  0.4950 -0.3678
  653MPD2    H7 9675   0.199   3.356   0.198 -1.0715 -2.1926  0.6613
  654TMC3    C1 9676   4.632   2.727   0.062  0.0478 -0.5204 -0.4354
  654TMC3    C2 9677   4.534   2.814   0.026  0.1324 -0.0015  0.0730
  654TMC3    C3 9678   4.419   2.760  17.671 -0.5731  0.0674  0.0016
  654TMC3    C4 9679   4.623   2.592   0.031 -0.7262  0.9196  0.1843
  654TMC3    C5 9680   4.511   2.543  17.664  0.0275  0.0938 -0.2929
  654TMC3    C6 9681   4.402   2.624  17.652 -0.4788  0.9608 -0.1140
  654TMC3     C 9682   0.036   2.770   0.132 -0.3857 -0.8168  0.3282
  654TMC3     O 9683   0.109   2.683   0.172  0.4857  0.2423  0.3031
  654TMC3     H 9684   4.541   2.921   0.039 -0.5615 -0.2716  2.6335
  654TMC3    H1 9685   4.713   2.532   0.030 -1.1682  0.2691  0.0114
  654TMC3    H2 9686   4.312   2.571  17.622  0.2100  0.0582 -0.5800
  654TMC3    C7 9687   4.502   2.413  17.591 -0.0715  0.6483  0.8764
  654TMC3    C8 9688   4.327   2.853  17.610  0.0377 -0.0425  0.0987
  654TMC3    O1 9689   4.390   2.358  17.570 -0.9985  0.5029  0.4576
  654TMC3    O2 9690   4.294   2.952  17.675 -1.1489 -0.7026  0.3824
  655MPD2     C 9691   1.344   3.022  15.821  0.1171 -0.1106  0.3610
  655MPD2    C1 9692   1.242   3.098  15.767  0.7984 -0.0708 -0.0056
  655MPD2    C2 9693   1.192   3.062  15.641 -0.0627 -0.0330 -0.3223
  655MPD2    C3 9694   1.245   2.957  15.559 -0.4310  0.8795 -0.0600
  655MPD2    C4 9695   1.341   2.880  15.618 -0.6941  0.3293 -0.1668
  655MPD2    C5 9696   1.393   2.918  15.745 -0.6571  0.5677  0.1407
  655MPD2     H 9697   1.113   3.130  15.611 -0.6931 -0.6855 -0.1571
  655MPD2    H1 9698   1.374   2.790  15.567 -0.8815  0.3155 -0.2645
  655MPD2    H2 9699   1.388   3.029  15.920 -0.3616  0.7927  0.5160
  655MPD2    H3 9700   1.480   2.862  15.777 -0.9968  0.1340  0.2984
  655MPD2     N 9701   1.192   2.916  15.433 -1.1632  0.4312 -0.1869
  655MPD2    H5 9702   1.241   2.839  15.389  1.3822  2.5523 -1.0214
  655MPD2    N1 9703   1.188   3.209  15.840 -0.0344 -0.2658  0.3159
  655MPD2    H7 9704   1.109   3.257  15.800 -0.6790 -0.5303  1.2892
  656TMC3    C1 9705   1.202   3.401  15.968  0.4493 -0.4475 -0.4603
  656TMC3    C2 9706   1.212   3.449  16.091 -1.2401  0.2990  0.1084
  656TMC3    C3 9707   1.168   3.581  16.111 -0.0987  0.8732  0.3188
  656TMC3    C4 9708   1.167   3.477  15.865 -0.1824 -0.1212  0.3447
  656TMC3    C5 9709   1.114   3.604  15.890  0.1964  0.6690 -0.1496
  656TMC3    C6 9710   1.108   3.657  16.020  0.5542 -0.2055 -0.1556
  656TMC3     C 9711   1.249   3.267  15.946 -0.1788 -0.0282 -0.0426
  656TMC3     O 9712   1.321   3.223  16.035  0.4789 -0.0605 -0.3928
  656TMC3     H 9713   1.248   3.382  16.168 -0.4941  0.1883 -0.3390
  656TMC3    H1 9714   1.167   3.445  15.762 -0.0801  0.5994  0.1169
  656TMC3    H2 9715   1.064   3.753  16.044  0.9044 -0.1073  0.0911
  656TMC3    C7 9716   1.059   3.676  15.776  0.5767  0.1180 -0.6221
  656TMC3    C8 9717   1.102   3.590  16.240 -0.1557  0.0762  0.3159
  656TMC3    O1 9718   1.074   3.637  15.663  0.1373 -0.2572  0.3802
  656TMC3    O2 9719   1.010   3.673  16.240  0.6649  0.5003  0.5004
  657TMC3    C1 9720   0.301   2.233  15.407  0.0161  0.6577 -0.8719
  657TMC3    C2 9721   0.413   2.278  15.478 -0.8532  0.4230  0.1833
  657TMC3    C3 9722   0.402   2.307  15.607 -0.6950  0.6776 -0.1862
  657TMC3    C4 9723   0.178   2.211  15.469  0.2937 -0.0034 -0.1083
  657TMC3    C5 9724   0.173   2.244  15.601 -0.4081  1.1813  0.1487
  657TMC3    C6 9725   0.282   2.284  15.667 -0.1604 -0.1686  0.2117
  657TMC3     C 9726   0.315   2.188  15.268  0.7164  0.5470 -0.2628
  657TMC3     O 9727   0.233   2.107  15.231  0.6763 -0.2470  0.2351
  657TMC3     H 9728   0.513   2.268  15.439 -0.0244  0.1947  2.3835
  657TMC3    H1 9729   0.095   2.185  15.404 -0.7643  3.6934 -0.2379
  657TMC3    H2 9730   0.286   2.271  15.775  0.4359 -1.2244  0.0702
  657TMC3    C7 9731   0.052   2.254  15.675  0.1718  0.4311  1.1491
  657TMC3    C8 9732   0.520   2.311  15.691 -0.1435  0.0421  0.4761
  657TMC3    O1 9733   4.683   2.183  15.637 -0.0726 -0.2602 -0.0423
  657TMC3    O2 9734   0.616   2.242  15.652 -0.8684  0.0868  0.2387
  658MPD2     C 9735   1.551   2.657  15.060 -0.5718 -1.2766  0.2508
  658MPD2    C1 9736   1.471   2.738  14.989 -0.4409  0.1299  0.0988
  658MPD2    C2 9737   1.517   2.798  14.876 -0.6365 -0.8757  0.0674
  658MPD2    C3 9738   1.650   2.796  14.844 -0.0711 -0.3822  0.4669
  658MPD2    C4 9739   1.739   2.735  14.926 -0.0248  0.2943  0.9122
  658MPD2    C5 9740   1.684   2.667  15.030 -0.7609 -0.3801  0.2304
  658MPD2     H 9741   1.448   2.859  14.819  1.7800 -1.0675 -3.1029
  658MPD2    H1 9742   1.847   2.741  14.915 -0.1474  0.5011 -0.2142
  658MPD2    H2 9743   1.519   2.601  15.147 -0.1616  0.2422  1.3711
  658MPD2    H3 9744   1.746   2.594  15.081  0.2593 -0.1542 -0.7024
  658MPD2     N 9745   1.694   2.856  14.724 -0.4530 -0.2742  0.0795
  658MPD2    H5 9746   1.622   2.874  14.655 -0.7456 -0.4937  0.3305
  658MPD2    N1 9747   1.337   2.745  15.037 -0.9281  0.7578  0.1156
  658MPD2    H7 9748   1.318   2.715  15.132  0.5076 -1.1325 -0.1943
  659TMC3    C1 9749   1.124   2.821  15.054  0.4947  0.2690 -0.5200
  659TMC3    C2 9750   1.156   2.882  15.173  0.3382 -0.7578 -0.9787
  659TMC3    C3 9751   1.046   2.908  15.252  0.1289 -0.3792  0.2371
  659TMC3    C4 9752   0.995   2.792  15.020  0.3957  0.1512 -0.3372
  659TMC3    C5 9753   0.892   2.813  15.111  0.0097 -0.3052  0.8334
  659TMC3    C6 9754   0.914   2.881  15.229  0.2197 -0.0133 -0.0919
  659TMC3     C 9755   1.230   2.790  14.962  0.4634  0.2962 -0.1219
  659TMC3     O 9756   1.216   2.789  14.841  0.0460  0.4548  0.2943
  659TMC3     H 9757   1.255   2.919  15.194 -0.7878  0.9651  1.2246
  659TMC3    H1 9758   0.975   2.741  14.927 -0.2777 -1.5964  0.7698
  659TMC3    H2 9759   0.832   2.898  15.298 -0.7287  2.5599 -1.8589
  659TMC3    C7 9760   0.752   2.798  15.080 -0.7988  0.0388  0.7198
  659TMC3    C8 9761   1.078   2.971  15.374 -0.0038 -0.0449  0.5018
  659TMC3    O1 9762   0.670   2.868  15.131 -0.4583 -0.3810  0.1180
  659TMC3    O2 9763   0.986   3.019  15.435 -0.1936  0.6258  0.8539
  660MPD2     C 9764   0.181   1.684  12.934 -0.4395 -1.0032  0.4603
  660MPD2    C1 9765   0.062   1.728  12.881 -0.1411 -0.8021 -0.6552
  660MPD2    C2 9766   4.670   1.701  12.949 -0.1868 -0.0581  0.0446
  660MPD2    C3 9767   4.672   1.646  13.079 -0.2821  0.5120 -0.1389
  660MPD2    C4 9768   0.073   1.615  13.141  0.5194  0.4444 -0.6352
  660MPD2    C5 9769   0.182   1.628  13.058 -1.0638 -0.2395 -0.4547
  660MPD2     H 9770   4.575   1.720  12.901  0.3809 -0.7959 -1.3571
  660MPD2    H1 9771   0.087   1.577  13.241  0.3393 -1.7011 -1.4299
  660MPD2    H2 9772   0.268   1.729  12.888 -1.6021  1.2188  0.4316
  660MPD2    H3 9773   0.279   1.602  13.099 -0.2830  0.2718 -1.9978
  660MPD2     N 9774   4.554   1.618  13.152  0.1193  0.2577 -0.5534
  660MPD2    H5 9775   4.556   1.561  13.236  1.3507 -1.1025 -1.5112
  660MPD2    N1 9776   0.065   1.791  12.757 -0.1477 -0.0115  0.3008
  660MPD2    H7 9777   0.150   1.800  12.702  1.4321 -1.4600  2.5190
  661TMC3    C1 9778   4.694   1.846  12.542 -0.9137 -0.3413 -0.3103
  661TMC3    C2 9779   0.083   1.787  12.486  0.0518  0.1460  0.7474
  661TMC3    C3 9780   0.087   1.777  12.352 -0.5250  0.2364 -0.2282
  661TMC3    C4 9781   4.580   1.871  12.472 -0.2421 -0.0986  0.6189
  661TMC3    C5 9782   4.579   1.849  12.340 -0.2076 -1.0901 -0.2068
  661TMC3    C6 9783   4.697   1.804  12.277 -0.0703  0.2235 -0.2120
  661TMC3     C 9784   4.681   1.836  12.688  0.0520 -0.5293  0.6114
  661TMC3     O 9785   4.571   1.868  12.730  0.5138 -0.0524  0.0239
  661TMC3     H 9786   0.169   1.750  12.541  0.0589 -0.1891  0.5083
  661TMC3    H1 9787   4.494   1.914  12.522  0.6615  0.3701  1.7672
  661TMC3    H2 9788   4.698   1.787  12.170  2.0513 -1.5205  0.0635
  661TMC3    C7 9789   4.476   1.911  12.262 -0.7532 -0.2108  0.1326
  661TMC3    C8 9790   0.197   1.711  12.283  0.7969  0.6348  0.1716
  661TMC3    O1 9791   4.414   1.998  12.316  0.2790 -0.1305 -0.8666
  661TMC3    O2 9792   0.177   1.658  12.176 -0.1233  0.0290 -0.4421
  662MPD2     C 9793   4.717   1.729  17.126  0.0956 -0.0735 -0.2401
  662MPD2    C1 9794   4.661   1.680  17.243 -0.4372  0.7854  0.5346
  662MPD2    C2 9795   4.530   1.711  17.276  0.5688 -0.1177  0.1389
  662MPD2    C3 9796   4.446   1.790  17.193  0.1550 -0.8623  0.1747
  662MPD2    C4 9797   4.506   1.832  17.078 -0.6506  0.0370  0.0519
  662MPD2    C5 9798   4.635   1.798  17.047 -0.3406  0.6823 -0.1049
  662MPD2     H 9799   4.494   1.683  17.375 -1.1322  2.8868  0.3916
  662MPD2    H1 9800   4.446   1.885  17.005  1.5084  0.9024 -1.0788
  662MPD2    H2 9801   0.095   1.706  17.094 -0.3947 -0.6774 -1.3511
  662MPD2    H3 9802   4.667   1.828  16.948  0.3486  0.0506 -0.0752
  662MPD2     N 9803   4.316   1.827  17.239 -0.1809 -0.1179 -0.2550
  662MPD2    H5 9804   4.305   1.803  17.337 -0.7244 -0.4921 -0.4111
  662MPD2    N1 9805   0.017   1.611  17.340 -0.2005  0.4963  0.1799
  662MPD2    H7 9806   0.117   1.621  17.330  0.1954 -3.9696 -0.3260
  663TMC3    C1 9807   0.076   1.505  17.537  1.1042  0.6728 -0.1969
  663TMC3    C2 9808   0.171   1.602  17.576  0.9608  0.3811  0.4450
  663TMC3    C3 9809   0.211   1.610   0.009 -0.7500 -0.1157  0.0614
  663TMC3    C4 9810   0.031   1.417  17.635  0.4373  0.2502  0.1871
  663TMC3    C5 9811   0.063   1.439   0.071  1.2041 -0.1514  0.5366
  663TMC3    C6 9812   0.148   1.540   0.110  0.4513  0.2951 -0.2248
  663TMC3     C 9813   4.691   1.534  17.441  0.6238  0.4691 -0.3910
  663TMC3     O 9814   4.575   1.491  17.462  0.1661 -0.3788 -0.0643
  663TMC3     H 9815   0.205   1.684  17.513 -1.5992  0.3774 -0.9377
  663TMC3    H1 9816   4.676   1.349  17.604  0.9226  0.4438 -1.5011
  663TMC3    H2 9817   0.205   1.528   0.201 -1.4843  2.6856  1.3069
  663TMC3    C7 9818   4.720   1.374   0.184 -0.1143 -0.0628  0.3755
  663TMC3    C8 9819   0.239   1.748   0.044 -0.3419 -0.2401 -0.5686
  663TMC3    O1 9820   0.034   1.401   0.298  0.0086 -0.0078 -0.0904
  663TMC3    O2 9821   0.315   1.812  17.673 -0.5059 -0.0083 -0.7957
  664MPD2     C 9822   2.513   0.209   0.496 -0.2374 -0.0062  0.1740
  664MPD2    C1 9823   2.579   0.326   0.538  0.1833  0.8073 -0.3688
  664MPD2    C2 9824   2.558   0.373   0.669 -0.1823 -0.4748  0.0636
  664MPD2    C3 9825   2.471   0.311   0.759 -0.6715  0.3314 -0.8023
  664MPD2    C4 9826   2.404   0.201   0.713 -0.5931 -0.1904  0.5695
  664MPD2    C5 9827   2.429   0.146   0.586  0.8693 -0.6222 -0.1751
  664MPD2     H 9828   2.597   0.464   0.714 -1.2817  0.3861 -0.7039
  664MPD2    H1 9829   2.335   0.144   0.774 -1.7705 -1.2617 -1.7421
  664MPD2    H2 9830   2.531   0.172   0.396 -2.0355  0.3039 -0.2630
  664MPD2    H3 9831   2.382   0.051   0.564 -0.6856  0.5611 -1.9108
  664MPD2     N 9832   2.473   0.355   0.893 -0.5636 -0.0699  0.2256
  664MPD2    H5 9833   2.533   0.435   0.909 -0.5353 -0.4084  1.7868
  664MPD2    N1 9834   2.663   0.399   0.444  0.0437 -0.0418 -0.3838
  664MPD2    H7 9835   2.707   0.481   0.485 -0.7677  0.2049 -0.0051
  665TMC3    C1 9836   2.384   0.378   1.110  0.0027  0.2447  0.0873
  665TMC3    C2 9837   2.263   0.406   1.162 -0.3595 -0.6494 -0.0127
  665TMC3    C3 9838   2.268   0.484   1.279  0.0458  0.1300  0.1407
  665TMC3    C4 9839   2.502   0.428   1.162  0.0408 -0.6035 -0.3226
  665TMC3    C5 9840   2.499   0.512   1.272 -0.3813  0.0895 -0.1886
  665TMC3    C6 9841   2.381   0.533   1.339 -0.2648  0.5933 -0.5113
  665TMC3     C 9842   2.384   0.306   0.988  0.3263 -0.4806  0.4274
  665TMC3     O 9843   2.281   0.248   0.963 -0.1089  0.1952  0.0123
  665TMC3     H 9844   2.173   0.367   1.116 -0.5967 -0.9697  0.7304
  665TMC3    H1 9845   2.595   0.421   1.108  0.8639  2.6992  0.6800
  665TMC3    H2 9846   2.371   0.571   1.440  1.2594 -0.2365 -0.0422
  665TMC3    C7 9847   2.630   0.561   1.317  0.5128  0.1283 -0.0985
  665TMC3    C8 9848   2.150   0.535   1.329  0.0570 -0.9941 -0.1292
  665TMC3    O1 9849   2.736   0.522   1.274  0.3607  0.6147 -0.2693
  665TMC3    O2 9850   2.055   0.459   1.323  0.1177 -0.3120 -0.3574
  666TMC3    C1 9851   2.374   4.293   9.701  0.2069 -1.0142  0.3433
  666TMC3    C2 9852   2.431   4.238   9.809  0.0942  0.1359  0.5769
  666TMC3    C3 9853   2.523   4.323   9.875 -0.0623  0.5039  0.3370
  666TMC3    C4 9854   2.402   4.418   9.653  0.3618 -0.1856 -0.7426
  666TMC3    C5 9855   2.499   4.495   9.718 -0.3266  0.6162 -0.0109
  666TMC3    C6 9856   2.564   4.445   9.823 -0.0070 -0.7324  0.5006
  666TMC3     C 9857   2.282   4.203   9.625  0.7178 -0.0393 -0.0614
  666TMC3     O 9858   2.280   4.206   9.500  0.4483  0.7728 -0.7241
  666TMC3     H 9859   2.425   4.134   9.839 -1.2190  0.3096  0.9317
  666TMC3    H1 9860   2.346   4.456   9.569 -0.2028  3.0993  1.1383
  666TMC3    H2 9861   2.633   4.511   9.874  0.1447  0.5634 -1.3934
  666TMC3    C7 9862   2.479   4.636   9.696 -0.2765 -0.2511  0.5187
  666TMC3    C8 9863   2.574   4.266   9.999  0.8659 -0.0130  0.0639
  666TMC3    O1 9864   2.366   4.665   9.667 -0.0696  0.1037  0.3062
  666TMC3    O2 9865   2.516   4.164  10.034 -0.0997 -0.2800  0.0288
  667MPD2     C 9866   3.782   4.668  14.706  0.0076  0.5552 -0.5261
  667MPD2    C1 9867   3.708   4.645  14.825 -0.4848  0.3574  0.9257
  667MPD2    C2 9868   3.599   4.559  14.825  0.1630 -0.0920 -0.0887
  667MPD2    C3 9869   3.577   4.477  14.716  0.0010  0.2654  0.6083
  667MPD2    C4 9870   3.654   4.502  14.602  0.6071  0.2511 -0.7741
  667MPD2    C5 9871   3.756   4.589  14.601  0.2028 -0.0489  0.4005
  667MPD2     H 9872   3.546   4.540  14.917 -0.4228 -0.5135 -0.5101
  667MPD2    H1 9873   3.635   4.455  14.506 -0.7022 -1.8767  0.5294
  667MPD2    H2 9874   3.866   0.013  14.696  1.1724 -0.7448  0.5050
  667MPD2    H3 9875   3.815   4.599  14.511 -0.7035 -1.8584 -0.4103
  667MPD2     N 9876   3.476   4.380  14.715  0.0462 -0.1462 -0.3079
  667MPD2    H5 9877   3.479   4.316  14.636  1.1851 -0.0203 -0.3678
  667MPD2    N1 9878   3.725   4.716  14.947  0.2797  0.2861 -0.1855
  667MPD2    H7 9879   3.672   4.681  15.027 -0.1438 -0.3454 -0.7464
  668TMC3    C1 9880   3.833   0.126  15.111  0.2105 -0.0331  0.2111
  668TMC3    C2 9881   3.871   0.251  15.131 -0.0996  0.2853 -0.1046
  668TMC3    C3 9882   3.905   0.287  15.259 -0.2434  0.6977  0.1052
  668TMC3    C4 9883   3.803   0.034  15.204  0.1492  0.3869 -0.0859
  668TMC3    C5 9884   3.837   0.071  15.331  0.2240  0.7041 -0.2750
  668TMC3    C6 9885   3.881   0.197  15.355 -0.4293 -0.1743  0.2369
  668TMC3     C 9886   3.818   0.090  14.973 -0.3439 -0.2054  0.8619
  668TMC3     O 9887   3.894   0.143  14.892 -0.1277 -0.0567  0.3464
  668TMC3     H 9888   3.902   0.321  15.054  0.6010  0.5223  0.3872
  668TMC3    H1 9889   3.823   4.654  15.177  2.2020  0.6737  0.3556
  668TMC3    H2 9890   3.892   0.220  15.460  1.2015  0.0509  0.0157
  668TMC3    C7 9891   3.782   4.718  15.440  0.7531 -0.5498  0.0563
  668TMC3    C8 9892   3.920   0.422  15.306  0.6236 -0.6706  0.1435
  668TMC3    O1 9893   3.820   0.029  15.554  0.0776  0.2055 -0.1732
  668TMC3    O2 9894   3.959   0.439  15.423  0.0034  0.2639 -0.3452
  669TMC3    C1 9895   1.139   0.202  14.483  0.0829  0.2989  0.0265
  669TMC3    C2 9896   1.055   0.228  14.387 -0.8317 -0.5010 -0.1873
  669TMC3    C3 9897   1.101   0.270  14.266 -0.1361  0.1064 -0.3293
  669TMC3    C4 9898   1.272   0.204  14.461  0.4714 -0.2216 -0.2574
  669TMC3    C5 9899   1.323   0.247  14.344 -0.4069 -0.3786 -0.3385
  669TMC3    C6 9900   1.236   0.286  14.243  0.9864  0.0046 -0.3666
  669TMC3     C 9901   1.083   0.127  14.597  0.6553  0.0543  0.2391
  669TMC3     O 9902   0.969   0.158  14.642  0.5093 -0.4156 -0.0424
  669TMC3     H 9903   0.949   0.217  14.409 -0.8995 -0.8507 -0.7106
  669TMC3    H1 9904   1.345   0.162  14.530  0.4020  1.8990  1.0874
  669TMC3    H2 9905   1.275   0.304  14.143  1.3318 -0.5825 -0.3327
  669TMC3    C7 9906   1.468   0.252  14.343 -0.5469 -0.1762 -0.7126
  669TMC3    C8 9907   1.008   0.287  14.160 -0.8465  0.3985 -0.0426
  669TMC3    O1 9908   1.523   0.261  14.451 -0.2650  0.6381  0.1109
  669TMC3    O2 9909   0.909   0.216  14.154  0.0511  0.6010  0.1983
  670MPD2     C 9910   4.527   2.643  13.904  0.1861 -0.1678 -0.2467
  670MPD2    C1 9911   4.634   2.655  13.983  0.6780 -0.1671 -0.4537
  670MPD2    C2 9912   4.626   2.632  14.120 -0.3632  0.4266  0.2194
  670MPD2    C3 9913   4.505   2.600  14.180  0.1802  0.5293  0.1919
  670MPD2    C4 9914   4.394   2.574  14.095  0.1852 -0.0624  0.3311
  670MPD2    C5 9915   4.406   2.600  13.961  0.3820 -0.5498 -0.9254
  670MPD2     H 9916   4.719   2.638  14.177  0.0457 -0.4174 -0.3558
  670MPD2    H1 9917   4.295   2.544  14.127 -0.0026 -1.5567 -1.6476
  670MPD2    H2 9918   4.519   2.677  13.801 -1.3612 -0.2731 -0.1595
  670MPD2    H3 9919   4.319   2.592  13.898  1.3017 -0.0958 -2.2715
  670MPD2     N 9920   4.509   2.576  14.316 -0.2455 -0.0169  0.5406
  670MPD2    H5 9921   4.592   2.607  14.367  1.8009 -0.1985 -2.7034
  670MPD2    N1 9922   0.038   2.687  13.936  0.7801  0.6611 -0.2578
  670MPD2    H7 9923   0.113   2.701  14.004  0.5186  1.1698 -0.0713
  671TMC3    C1 9924   4.431   2.487  14.524  0.5703  0.2613  0.3385
  671TMC3    C2 9925   4.550   2.424  14.537  0.4722  0.3546 -0.0696
  671TMC3    C3 9926   4.559   2.331  14.641  0.1135 -0.3199 -0.2568
  671TMC3    C4 9927   4.314   2.436  14.579  0.1110  0.4635 -0.3360
  671TMC3    C5 9928   4.320   2.327  14.661  0.0726 -0.3184 -0.3527
  671TMC3    C6 9929   4.443   2.278  14.696 -0.2386  0.1584 -0.4170
  671TMC3     C 9930   4.402   2.521  14.388  0.3047  0.1945 -0.1268
  671TMC3     O 9931   4.294   2.482  14.349 -0.1125  0.3577 -0.0990
  671TMC3     H 9932   4.640   2.462  14.489 -0.0432  0.5450 -0.8885
  671TMC3    H1 9933   4.221   2.491  14.570 -0.5045 -0.6255 -0.5496
  671TMC3    H2 9934   4.439   2.202  14.773  1.5124  1.2467  0.7684
  671TMC3    C7 9935   4.218   2.236  14.626 -0.8911 -0.2646 -0.5429
  671TMC3    C8 9936   4.664   2.230  14.620  0.8119  0.0508  0.5578
  671TMC3    O1 9937   4.105   2.282  14.609  0.5897  0.2264  0.0726
  671TMC3    O2 9938   4.719   2.226  14.509  0.1465 -0.0634 -0.3807
  672MPD2     C 9939   4.320   2.727   1.140 -0.3501  0.0383  0.4566
  672MPD2    C1 9940   4.312   2.867   1.128 -0.5936  0.3755  0.5467
  672MPD2    C2 9941   4.268   2.947   1.226  0.1986  0.6443  0.3734
  672MPD2    C3 9942   4.226   2.897   1.347  0.0507  0.3629 -0.2513
  672MPD2    C4 9943   4.239   2.762   1.366 -0.6242  0.6008 -0.1581
  672MPD2    C5 9944   4.284   2.677   1.266  0.3161  0.6402  0.0501
  672MPD2     H 9945   4.246   3.051   1.205  1.1093  0.4756 -1.4929
  672MPD2    H1 9946   4.200   2.718   1.457  1.2431 -0.9289 -0.0895
  672MPD2    H2 9947   4.344   2.662   1.057  0.7811  0.6309  0.3195
  672MPD2    H3 9948   4.287   2.569   1.281  2.1396  0.5892 -0.7062
  672MPD2     N 9949   4.198   2.970   1.460 -0.1921  0.2699 -1.1068
  672MPD2    H5 9950   4.204   2.917   1.546  0.6730  1.1648 -0.6112
  672MPD2    N1 9951   4.355   2.934   1.016  0.2958 -0.3887  0.1276
  672MPD2    H7 9952   4.349   3.036   1.017  0.2287 -0.4036  1.0960
  673TMC3    C1 9953   4.432   2.996   0.818  0.2702 -0.6648  0.4696
  673TMC3    C2 9954   4.547   3.046   0.853 -0.0055  0.5971  0.0885
  673TMC3    C3 9955   4.580   3.169   0.802  0.0603  0.2375  0.2800
  673TMC3    C4 9956   4.346   3.058   0.738  0.1917  0.0043  0.3078
  673TMC3    C5 9957   4.381   3.176   0.678  0.1772 -0.2063 -1.0047
  673TMC3    C6 9958   4.498   3.238   0.716 -0.0805  0.2624  0.5518
  673TMC3     C 9959   4.384   2.878   0.893 -0.1274  0.0271  0.4432
  673TMC3     O 9960   4.419   2.765   0.862 -0.1939 -0.1294  0.2081
  673TMC3     H 9961   4.599   2.996   0.934 -1.4703 -1.7471 -0.4237
  673TMC3    H1 9962   4.249   3.011   0.723  0.1598  0.4500 -0.8948
  673TMC3    H2 9963   4.519   3.341   0.692 -1.8700  0.1114 -1.6603
  673TMC3    C7 9964   4.307   3.228   0.570  0.3864 -0.1452  0.2708
  673TMC3    C8 9965   4.713   3.225   0.838 -0.1481 -0.4747 -0.1625
  673TMC3    O1 9966   4.229   3.149   0.513 -0.3722 -0.4545  0.1119
  673TMC3    O2 9967   0.017   3.328   0.782  0.2948 -0.2910 -0.1384
  674MPD2     C 9968   4.714   3.181   0.448 -0.1610  0.5845 -0.2173
  674MPD2    C1 9969   0.058   3.076   0.505 -0.0213 -0.5255 -0.1120
  674MPD2    C2 9970   0.002   2.945   0.510  0.6059 -0.5737 -0.0660
  674MPD2    C3 9971   4.607   2.922   0.438  0.0103 -0.1218 -0.2674
  674MPD2    C4 9972   4.544   3.030   0.374 -0.3831  0.2555  0.0700
  674MPD2    C5 9973   4.598   3.156   0.375 -0.1383  0.4018  0.1508
  674MPD2     H 9974   0.039   2.855   0.558 -0.7700 -0.5764  0.9912
  674MPD2    H1 9975   4.446   3.024   0.327 -0.6187 -2.0571  0.8197
  674MPD2    H2 9976   0.043   3.277   0.446  0.4676  0.2173 -1.3722
  674MPD2    H3 9977   4.544   3.236   0.324 -3.1130 -1.0347  1.0695
  674MPD2     N 9978   4.545   2.797   0.455 -0.4915  0.2035 -0.2356
  674MPD2    H5 9979   4.579   2.737   0.530  1.2341 -0.2550 -1.3708
  674MPD2    N1 9980   0.178   3.098   0.570 -0.4228 -0.3930  0.1840
  674MPD2    H7 9981   0.218   3.191   0.574 -0.6961 -0.2520 -0.2983
  675TMC3    C1 9982   0.389   3.050   0.662 -0.1649  0.5047 -0.8358
  675TMC3    C2 9983   0.456   2.994   0.770  0.0693  0.0465 -0.4510
  675TMC3    C3 9984   0.585   3.038   0.789  0.1021  0.2933  0.0172
  675TMC3    C4 9985   0.424   3.166   0.603 -0.2493 -0.4070  0.1686
  675TMC3    C5 9986   0.551   3.211   0.641  0.1721  0.2032  0.7072
  675TMC3    C6 9987   0.633   3.143   0.722  0.0754  0.5920 -0.4983
  675TMC3     C 9988   0.259   2.999   0.625 -0.3354  0.6657 -0.2004
  675TMC3     O 9989   0.236   2.877   0.641 -0.2897  0.0413  0.1300
  675TMC3     H 9990   0.405   2.913   0.821  0.4167 -0.5149 -0.9843
  675TMC3    H1 9991   0.381   3.205   0.511 -2.0703 -1.5860  0.5204
  675TMC3    H2 9992   0.728   3.182   0.754  0.2257  0.8079 -1.2031
  675TMC3    C7 9993   0.619   3.318   0.572  0.5437 -0.2876 -0.0469
  675TMC3    C8 9994   0.654   2.995   0.907  0.2030  0.1924 -0.1205
  675TMC3    O1 9995   0.743   3.311   0.568 -0.2322  0.2068 -0.2492
  675TMC3    O2 9996   0.766   3.043   0.931 -0.7033  0.4153  0.2047
  676MPD2     C 9997   2.795   0.821  11.343  0.2592 -0.1963  0.3827
  676MPD2    C1 9998   2.744   0.745  11.447 -0.4660 -0.2231  0.7127
  676MPD2    C2 9999   2.671   0.630  11.417  0.0288 -0.0046 -0.5253
  676MPD2    C310000   2.673   0.584  11.286  0.0508  0.3527  0.1030
  676MPD2    C410001   2.736   0.652  11.182 -0.5953 -0.2139  0.2824
  676MPD2    C510002   2.789   0.776  11.214  0.2917  0.2151 -0.4670
  676MPD2     H10003   2.636   0.572  11.502  1.0366  1.6361  1.0184
  676MPD2    H110004   2.723   0.629  11.077 -0.4815  0.6264  0.0830
  676MPD2    H210005   2.847   0.914  11.358  1.0082 -0.8789  2.0500
  676MPD2    H310006   2.827   0.838  11.134 -0.3435 -0.0311 -0.9590
  676MPD2     N10007   2.614   0.463  11.251 -0.3609 -0.8228  0.7277
  676MPD2    H510008   2.638   0.434  11.156  0.2574  1.1940  0.2583
  676MPD2    N110009   2.749   0.790  11.583  0.0350  0.0148  0.0729
  676MPD2    H710010   2.690   0.737  11.646 -0.0722 -0.4293 -0.3970
  677TMC3    C110011   2.826   0.911  11.777 -0.2147  0.5464  0.1616
  677TMC3    C210012   2.784   0.810  11.853 -0.2175  0.1710  0.3987
  677TMC3    C310013   2.781   0.834  11.990 -0.9236 -0.3492 -0.4640
  677TMC3    C410014   2.870   1.035  11.813  0.3344 -0.0648 -0.1580
  677TMC3    C510015   2.851   1.057  11.953 -0.2032 -0.3520  0.2048
  677TMC3    C610016   2.805   0.957  12.039 -0.0090 -0.3017 -0.4419
  677TMC3     C10017   2.834   0.895  11.635 -0.1360  0.1371 -0.3709
  677TMC3     O10018   2.934   0.946  11.589 -0.3434 -0.2851 -0.2794
  677TMC3     H10019   2.780   0.706  11.823  0.7219 -0.1101  1.2629
  677TMC3    H110020   2.900   1.118  11.750  0.4567 -0.1413 -0.2016
  677TMC3    H210021   2.801   0.976  12.145 -0.5254  0.6315 -0.6351
  677TMC3    C710022   2.928   1.165  12.008 -0.0124  0.4792  1.0632
  677TMC3    C810023   2.759   0.719  12.069  0.7215  0.1750  0.2193
  677TMC3    O110024   2.910   1.204  12.122  0.0927  0.2044  0.0007
  677TMC3    O210025   2.697   0.630  12.019 -1.0380 -0.7270 -0.0733
  678MPD2     C10026   3.859   1.620   1.987  0.2128  0.4001  0.1861
  678MPD2    C110027   3.829   1.516   1.904  0.7488  0.7402  0.1113
  678MPD2    C210028   3.703   1.464   1.914 -0.7521 -0.1687 -0.0465
  678MPD2    C310029   3.601   1.524   1.984 -0.0682 -0.1770 -0.1900
  678MPD2    C410030   3.637   1.627   2.072  0.2341  0.0116  0.7590
  678MPD2    C510031   3.761   1.670   2.071 -0.0119  0.5290 -0.1698
  678MPD2     H10032   3.675   1.391   1.840  0.2912  0.8126 -1.4251
  678MPD2    H110033   3.563   1.689   2.121 -2.8040 -3.3469  0.4206
  678MPD2    H210034   3.959   1.662   1.989  0.5756 -0.3329 -3.3096
  678MPD2    H310035   3.798   1.749   2.136 -0.3245  0.5087  0.0347
  678MPD2     N10036   3.472   1.485   1.956  0.1045  0.1536  0.2263
  678MPD2    H510037   3.459   1.402   1.899 -2.3217 -0.6713  1.9611
  678MPD2    N110038   3.925   1.454   1.818  0.1899  0.3671  0.0830
  678MPD2    H710039   3.900   1.366   1.775  4.7844  0.6003 -3.0673
  679TMC3    C110040   4.207   1.237   1.612  0.3006  0.1739 -0.1777
  679TMC3    C210041   4.129   1.311   1.700 -0.2000 -0.6973  0.1526
  679TMC3    C310042   4.117   1.443   1.674 -0.8825  0.1167 -0.5130
  679TMC3    C410043   4.281   1.293   1.512 -0.0528 -0.1712 -0.5775
  679TMC3    C510044   4.268   1.426   1.487  0.1758 -0.0756  0.4578
  679TMC3    C610045   4.185   1.500   1.571 -0.2076  0.1865  0.0561
  679TMC3     C10046   4.244   1.102   1.641  0.3629  1.1078  0.3223
  679TMC3     O10047   4.251   1.024   1.547 -0.1075 -0.4107 -0.1921
  679TMC3     H10048   4.071   1.258   1.774  0.3918  0.4019  1.4174
  679TMC3    H110049   4.345   1.230   1.452  2.8310  1.0756  1.2237
  679TMC3    H210050   4.170   1.605   1.548 -0.4650  0.9898  3.9541
  679TMC3    C710051   4.329   1.489   1.375 -0.1889  0.6106  0.2904
  679TMC3    C810052   4.045   1.517   1.775 -0.5046  0.1875 -0.3128
  679TMC3    O110053   4.301   1.607   1.361 -0.4396  0.8455  0.1554
  679TMC3    O210054   4.091   1.630   1.792 -0.1755  0.5077  0.2224
  680MPD2     C10055   3.986   4.034  13.797  0.3463  0.1893 -0.3119
  680MPD2    C110056   4.119   4.032  13.824 -0.4999 -0.4383 -0.0973
  680MPD2    C210057   4.177   4.155  13.827  0.7818 -0.0606 -1.1956
  680MPD2    C310058   4.124   4.274  13.797  0.6978 -0.1556 -0.1772
  680MPD2    C410059   3.991   4.275  13.756 -0.0333 -0.3420  0.7065
  680MPD2    C510060   3.928   4.154  13.762  0.2263  0.6116 -0.1022
  680MPD2     H10061   4.283   4.156  13.852  0.4655  0.8250  0.1041
  680MPD2    H110062   3.935   4.366  13.738  0.6141 -0.1008 -0.0814
  680MPD2    H210063   3.923   3.946  13.804 -1.6900  1.7246  0.9129
  680MPD2    H310064   3.823   4.147  13.735  0.4104  0.4414 -0.7686
  680MPD2     N10065   4.192   4.398  13.796  0.6664 -0.1756 -0.2203
  680MPD2    H510066   4.136   4.476  13.766  0.0204  0.8493  3.6667
  680MPD2    N110067   4.196   3.917  13.856 -0.4423  0.3273  0.4832
  680MPD2    H710068   4.285   3.932  13.901 -0.7902  0.8526  0.9989
  681TMC3    C110069   4.265   3.705  13.823  0.3140  1.2304 -0.3931
  681TMC3    C210070   4.336   3.703  13.935 -0.3406  0.7384  0.5998
  681TMC3    C310071   4.454   3.638  13.929  0.2565 -0.5965  0.0851
  681TMC3    C410072   4.297   3.648  13.701  0.4906 -0.3457 -0.7246
  681TMC3    C510073   4.418   3.583  13.698  0.1498 -0.5885 -0.0068
  681TMC3    C610074   4.496   3.582  13.809  0.2868 -0.4737 -0.6761
  681TMC3     C10075   4.151   3.789  13.820 -0.0295  0.9283  0.2730
  681TMC3     O10076   4.052   3.750  13.758 -0.8842 -0.2966  0.1784
  681TMC3     H10077   4.289   3.751  14.020  0.0033  0.5067  0.9211
  681TMC3    H110078   4.219   3.652  13.626 -1.0788  1.3412  1.0047
  681TMC3    H210079   4.590   3.529  13.819  0.4830 -0.1010 -0.5537
  681TMC3    C710080   4.485   3.567  13.571  0.1446  0.7875 -1.2882
  681TMC3    C810081   4.543   3.603  14.041  0.3828  0.0313 -0.1014
  681TMC3    O110082   4.580   3.494  13.561 -0.0142 -0.0874 -0.4157
  681TMC3    O210083   4.597   3.495  14.037  0.0413  0.5518 -0.0506
  682MPD2     C10084   2.095   0.790  10.697  0.1296 -0.7000  0.0858
  682MPD2    C110085   2.087   0.654  10.705 -0.9313 -0.1158 -0.3409
  682MPD2    C210086   2.029   0.594  10.809  0.0410 -0.5814 -0.8327
  682MPD2    C310087   1.982   0.668  10.916  0.7675  0.6852 -0.1039
  682MPD2    C410088   1.992   0.804  10.914  0.0341 -0.2681 -0.0910
  682MPD2    C510089   2.046   0.862  10.803 -0.9471 -0.3608  0.1834
  682MPD2     H10090   2.007   0.488  10.796  1.8925 -0.9026 -1.3797
  682MPD2    H110091   1.946   0.872  10.985  0.2382  1.2128 -1.3763
  682MPD2    H210092   2.125   0.846  10.610  0.9680  1.7695  1.9646
  682MPD2    H310093   2.052   0.969  10.792  2.3980 -0.4399  0.9564
  682MPD2     N10094   1.917   0.608  11.028  0.1008 -0.0872  0.4487
  682MPD2    H510095   1.891   0.668  11.105 -0.0246  0.0526  0.2966
  682MPD2    N110096   2.120   0.575  10.593 -0.1396  0.3665 -0.2996
  682MPD2    H710097   2.114   0.474  10.601  0.8094  0.3801  0.6063
  683TMC3    C110098   1.705   0.453  11.359 -0.6283  0.6406 -0.2983
  683TMC3    C210099   1.601   0.365  11.322  0.2402  0.6711  0.0323
  683TMC3    C310100   1.585   0.332  11.191  0.3355  0.6037 -0.0711
  683TMC3    C410101   1.801   0.489  11.266 -0.6249  0.5504  0.3143
  683TMC3    C510102   1.778   0.453  11.134  0.3609  0.7422  0.0047
  683TMC3    C610103   1.665   0.386  11.094  0.4597  1.2714 -0.2475
  683TMC3     C10104   1.725   0.514  11.493 -0.1827 -0.3278 -0.8330
  683TMC3     O10105   1.765   0.630  11.489 -0.4651  0.3568  0.3759
  683TMC3     H10106   1.520   0.335  11.387  0.1589 -0.8965 -0.8078
  683TMC3    H110107   1.889   0.546  11.294  1.0662 -1.4491 -0.9597
  683TMC3    H210108   1.661   0.338  10.997 -0.0369  0.6478  0.0827
  683TMC3    C710109   1.882   0.475  11.035  0.1586 -0.4235 -0.1697
  683TMC3    C810110   1.503   0.218  11.147  0.4488 -0.7370 -0.0062
  683TMC3    O110111   1.903   0.379  10.965 -0.1434 -0.7147  0.2188
  683TMC3    O210112   1.478   0.203  11.031  0.1943  0.2643  0.1037
  684MPD2     C10113   4.520   0.515  16.162 -0.2583  0.0669  0.1898
  684MPD2    C110114   4.649   0.549  16.120  0.2082 -0.5580  0.4206
  684MPD2    C210115   4.697   0.671  16.166  0.0590  0.0914  0.1389
  684MPD2    C310116   4.624   0.767  16.231 -0.5109 -0.7164  0.4215
  684MPD2    C410117   4.495   0.731  16.259 -0.4486 -0.6014  0.0500
  684MPD2    C510118   4.439   0.611  16.226  0.8352 -0.7453 -0.1247
  684MPD2     H10119   0.075   0.684  16.130 -0.9631  2.1646 -1.9795
  684MPD2    H110120   4.439   0.808  16.311 -0.8400 -0.8034 -0.0735
  684MPD2    H210121   4.473   0.422  16.132 -1.0500 -0.3233  2.6600
  684MPD2    H310122   4.339   0.579  16.256  0.5920  1.8708  1.8618
  684MPD2     N10123   4.672   0.888  16.286  0.1538 -0.1423 -0.4444
  684MPD2    H510124   4.613   0.954  16.334 -1.9197  0.4039 -3.7486
  684MPD2    N110125   0.010   0.454  16.061  0.1200  0.4790  0.2556
  684MPD2    H710126   0.109   0.474  16.047 -0.1726  1.7929  0.0691
  685TMC3    C110127   0.073   0.257  15.968  0.8014  0.1333 -0.6822
  685TMC3    C210128   0.044   0.165  15.873  0.4249 -0.1643  0.3439
  685TMC3    C310129   0.139   0.080  15.825 -0.9708  0.3717  0.5871
  685TMC3    C410130   0.198   0.260  16.019 -0.2220 -0.0851  0.9035
  685TMC3    C510131   0.295   0.174  15.970  0.1843 -0.0913 -0.0550
  685TMC3    C610132   0.263   0.078  15.876  0.3508 -0.2527 -0.3959
  685TMC3     C10133   4.685   0.338  16.012  0.4059  0.6692  0.2025
  685TMC3     O10134   4.572   0.312  15.974 -0.3088  0.1840 -0.1630
  685TMC3     H10135   4.671   0.177  15.825  0.3431 -0.0147  0.5443
  685TMC3    H110136   0.215   0.315  16.111 -0.1923  2.5873 -0.6739
  685TMC3    H210137   0.317   4.710  15.854  3.2335  1.3457  0.0889
  685TMC3    C710138   0.406   0.143  16.063  0.6357 -0.1128 -0.1603
  685TMC3    C810139   0.090   4.686  15.753  0.6710 -0.1284 -0.5421
  685TMC3    O110140   0.412   0.175  16.180 -0.1451  0.1174 -0.6161
  685TMC3    O210141   0.166   4.618  15.689 -0.5246  0.2730  0.2051
  686MPD2     C10142   1.420   0.328  15.589 -0.3704  0.4826  0.3184
  686MPD2    C110143   1.494   0.238  15.666  0.3391  0.4151 -0.1003
  686MPD2    C210144   1.576   0.150  15.597 -0.3764  0.2543  0.3322
  686MPD2    C310145   1.591   0.158  15.458 -0.2466  0.4040 -0.2230
  686MPD2    C410146   1.505   0.237  15.379  0.2637  0.1883  0.4096
  686MPD2    C510147   1.424   0.321  15.449 -0.7214 -0.2107 -0.0252
  686MPD2     H10148   1.634   0.079  15.653 -1.4330 -1.1351 -0.3454
  686MPD2    H110149   1.508   0.236  15.271  0.6285  0.1076  0.4186
  686MPD2    H210150   1.361   0.395  15.650 -1.0795  1.9461 -1.9714
  686MPD2    H310151   1.348   0.377  15.395 -0.2171 -0.1704 -0.6870
  686MPD2     N10152   1.669   0.067  15.379 -0.3492  1.0845 -0.5341
  686MPD2    H510153   1.663   0.086  15.279 -2.0126  0.4260 -0.5470
  686MPD2    N110154   1.476   0.227  15.809 -0.0919 -0.2362 -0.6040
  686MPD2    H710155   1.394   0.280  15.839  0.9145  0.9176  0.0875
  687TMC3    C110156   1.682   4.612  15.531  0.0563 -0.2847  0.2467
  687TMC3    C210157   1.553   4.573  15.536  0.1351  0.4671  0.2985
  687TMC3    C310158   1.511   4.511  15.653  0.0683 -0.0379 -0.1502
  687TMC3    C410159   1.771   4.560  15.619 -0.0866 -0.6684 -0.1742
  687TMC3    C510160   1.732   4.488  15.729  0.9978  0.1022  0.6370
  687TMC3    C610161   1.598   4.466  15.748 -0.2970  0.5160  0.1691
  687TMC3     C10162   1.739   4.679  15.419  0.4229  0.4711 -0.0080
  687TMC3     O10163   1.809   4.604  15.353  0.3146  0.4991  0.1002
  687TMC3     H10164   1.485   4.596  15.455  2.0409  3.7959 -0.3477
  687TMC3    H110165   1.873   4.580  15.591  0.2212 -0.3251  1.2133
  687TMC3    H210166   1.546   4.421  15.832 -2.3650  3.6020  0.5397
  687TMC3    C710167   1.812   4.480  15.851  0.4081  0.1390  0.6438
  687TMC3    C810168   1.389   4.565  15.710 -0.6638 -0.7016  0.7343
  687TMC3    O110169   1.766   4.409  15.934 -0.4641 -0.3710 -0.1685
  687TMC3    O210170   1.344   4.513  15.814  0.3265  0.0576  0.0345
  688MPD2     C10171   0.756   3.972  17.608 -0.0198  0.3331 -0.1411
  688MPD2    C110172   0.721   3.835  17.608  0.3073  0.6416 -0.1853
  688MPD2    C210173   0.798   3.755  17.523 -0.5082  0.6714 -0.1214
  688MPD2    C310174   0.917   3.810  17.467 -0.0737 -0.0260 -0.1838
  688MPD2    C410175   0.946   3.945  17.472 -1.1578 -1.0507  0.4988
  688MPD2    C510176   0.863   4.029  17.538 -0.0157  0.3252 -0.1590
  688MPD2     H10177   0.781   3.648  17.530 -1.5113  0.7296 -1.7469
  688MPD2    H110178   1.039   3.987  17.437 -0.9594 -0.1226  2.1425
  688MPD2    H210179   0.716   4.037  17.684 -1.4976  0.8174 -1.3318
  688MPD2    H310180   0.884   4.135  17.554 -1.9226  0.7353 -0.3703
  688MPD2     N10181   1.019   3.729  17.412 -0.1283  0.3568 -0.9360
  688MPD2    H510182   1.113   3.766  17.410 -0.6577  1.6658 -1.6919
  688MPD2    N110183   0.614   3.774  17.683 -0.1252  0.2179  0.5925
  688MPD2    H710184   0.611   3.673  17.675  0.1812  0.2564  0.0191
  689TMC3    C110185   0.444   3.739   0.142 -0.6750 -0.1609 -0.6119
  689TMC3    C210186   0.324   3.800   0.181 -0.0985 -0.5029  0.5542
  689TMC3    C310187   0.234   3.724   0.243  0.2872  1.2951  0.4058
  689TMC3    C410188   0.474   3.608   0.156 -0.5330  0.0371  1.0948
  689TMC3    C510189   0.374   3.530   0.209 -0.0949 -0.7311  0.7759
  689TMC3    C610190   0.254   3.584   0.246 -0.1607 -0.4111 -0.0811
  689TMC3     C10191   0.533   3.833   0.075  0.4149 -0.3906  0.0035
  689TMC3     O10192   0.515   3.950   0.092  0.2606 -0.3754  0.0602
  689TMC3     H10193   0.314   3.908   0.171  1.2877 -0.6246 -1.9802
  689TMC3    H110194   0.578   3.575   0.148  0.4283  3.2003  0.5930
  689TMC3    H210195   0.184   3.513   0.288 -0.1167 -0.8128 -0.6841
  689TMC3    C710196   0.397   3.382   0.221  0.1074  0.5567 -0.4797
  689TMC3    C810197   0.134   3.794   0.320  0.9511 -0.1812  0.2982
  689TMC3    O110198   0.508   3.332   0.195 -0.2228  0.2856 -0.3971
  689TMC3    O210199   0.061   3.719   0.376  0.6336  0.4380  0.2779
  690MPD2     C10200   2.421   1.111  16.166  0.1180  0.3091  0.3784
  690MPD2    C110201   2.459   0.985  16.127  0.0382 -0.7868 -0.1822
  690MPD2    C210202   2.584   0.965  16.066 -0.1011  0.1605  0.0616
  690MPD2    C310203   2.672   1.074  16.046  0.1215  0.2432 -0.3654
  690MPD2    C410204   2.629   1.201  16.084 -0.3542  0.2160 -0.3589
  690MPD2    C510205   2.507   1.212  16.132  0.0119 -0.0190 -0.8856
  690MPD2     H10206   2.605   0.865  16.031  1.6121  0.7823 -0.7226
  690MPD2    H110207   2.689   1.291  16.088 -0.8415  0.5337 -0.1456
  690MPD2    H210208   2.320   1.134  16.198 -0.4186 -2.8653  0.9786
  690MPD2    H310209   2.478   1.306  16.178 -0.0714 -0.1426 -0.6839
  690MPD2     N10210   2.795   1.046  15.980  0.2862 -0.1625  0.0355
  690MPD2    H510211   2.819   0.951  15.952  0.4632  0.2162 -1.0619
  690MPD2    N110212   2.389   0.860  16.155  0.1605  0.0569 -0.2452
  690MPD2    H710213   2.425   0.773  16.119  0.5910  0.7931 -1.5766
  691TMC3    C110214   2.204   0.728  16.214 -0.4566 -0.5696 -0.4368
  691TMC3    C210215   2.075   0.719  16.177 -0.0549  0.4363 -0.5777
  691TMC3    C310216   2.024   0.594  16.144 -0.8016  0.4930 -0.2643
  691TMC3    C410217   2.288   0.625  16.222 -0.3084 -0.1135 -0.9152
  691TMC3    C510218   2.236   0.500  16.210  0.4767 -0.1038  0.1668
  691TMC3    C610219   2.108   0.482  16.160  0.3228 -0.8963  0.2932
  691TMC3     C10220   2.259   0.861  16.211  0.0709  0.4004 -0.3933
  691TMC3     O10221   2.182   0.953  16.229  0.3768  0.0469  0.8507
  691TMC3     H10222   2.011   0.806  16.166 -0.8528  0.0433  0.9887
  691TMC3    H110223   2.385   0.632  16.270 -1.5441 -1.4142  1.7899
  691TMC3    H210224   2.071   0.381  16.155  2.2658 -1.6038  0.4516
  691TMC3    C710225   2.349   0.404  16.202  0.1170 -0.1395  1.0926
  691TMC3    C810226   1.906   0.581  16.056  0.1715  0.2524  0.2794
  691TMC3    O110227   2.429   0.392  16.294  0.3093  0.2216  0.0938
  691TMC3    O210228   1.888   0.471  16.004 -0.5397 -0.2444 -0.3463
  692TMC3    C110229   4.345   2.243  16.253 -0.1901 -0.1300 -0.8523
  692TMC3    C210230   4.428   2.267  16.352 -0.4931 -0.3294  0.1121
  692TMC3    C310231   4.547   2.200  16.358  0.5278  0.7037  0.0537
  692TMC3    C410232   4.364   2.148  16.168 -0.4606  0.4768 -0.1797
  692TMC3    C510233   4.473   2.070  16.175 -0.1803  0.9277 -0.1647
  692TMC3    C610234   4.559   2.091  16.271  0.9845  0.0998 -0.3437
  692TMC3     C10235   4.214   2.305  16.267  0.8766  0.7371 -1.0023
  692TMC3     O10236   4.179   2.356  16.374  0.0153  0.1428 -0.0781
  692TMC3     H10237   4.408   2.362  16.401 -0.1885  1.4381 -3.1640
  692TMC3    H110238   4.294   2.125  16.089 -1.1872  0.6759  0.4095
  692TMC3    H210239   4.648   2.029  16.272 -0.1866 -1.6218 -0.9483
  692TMC3    C710240   4.485   1.971  16.067 -0.1411 -0.9354  0.9064
  692TMC3    C810241   4.590   2.165  16.496  0.4989  0.6925  0.2817
  692TMC3    O110242   4.431   2.002  15.960 -0.4807 -0.2298  0.3787
  692TMC3    O210243   4.629   2.051  16.518  0.2540 -0.4357  0.1762
  693MPD2     C10244   4.150   0.077  10.670  0.3811 -0.2524  0.6425
  693MPD2    C110245   4.099   4.704  10.756 -0.0047 -0.3110 -0.1598
  693MPD2    C210246   4.182   4.609  10.809  0.1641  0.0823 -0.7402
  693MPD2    C310247   4.310   4.585  10.754 -0.2492  0.3681  0.1058
  693MPD2    C410248   4.356   4.684  10.663  0.1062  0.2818 -0.5261
  693MPD2    C510249   4.279   0.070  10.630 -0.1258  0.2011  0.2332
  693MPD2     H10250   4.142   4.537  10.880  1.3312 -0.2411 -0.4148
  693MPD2    H110251   4.453   4.670  10.617 -0.2016 -2.0120 -0.4336
  693MPD2    H210252   4.085   0.145  10.616 -0.8574 -1.1006  1.0456
  693MPD2    H310253   4.317   0.141  10.557  0.0469 -0.5589 -0.4140
  693MPD2     N10254   4.398   4.485  10.788  0.2521 -0.7414  0.2361
  693MPD2    H510255   4.486   4.486  10.738 -0.1373  3.3603 -0.3437
  693MPD2    N110256   3.967   4.704  10.796  0.2527 -0.5533 -0.0291
  693MPD2    H710257   3.943   4.667  10.888 -2.3439  3.6870  1.0252
  694TMC3    C110258   3.739   4.722  10.774  0.3030  0.5712 -0.6914
  694TMC3    C210259   3.663   4.661  10.680 -0.7509  0.4585 -0.3629
  694TMC3    C310260   3.568   4.570  10.720  0.5793 -0.7060  0.0812
  694TMC3    C410261   3.736   4.683  10.909 -0.6576  0.9856 -0.5698
  694TMC3    C510262   3.629   4.598  10.944  0.1434 -0.1120 -0.2911
  694TMC3    C610263   3.545   4.537  10.854 -0.0793  0.7618  0.5158
  694TMC3     C10264   3.868   0.031  10.723 -0.3029 -0.1634 -0.1649
  694TMC3     O10265   3.875   0.086  10.614 -0.1114  0.0141 -0.6583
  694TMC3     H10266   3.694   4.678  10.577  1.2878 -0.9461  0.0098
  694TMC3    H110267   3.801   0.011  10.979 -1.4128  1.3266 -0.1213
  694TMC3    H210268   3.489   4.449  10.883  0.0697  0.1901 -0.9621
  694TMC3    C710269   3.594   4.595  11.088  0.3762  0.6517  0.8360
  694TMC3    C810270   3.478   4.508  10.623 -0.1127 -0.2053 -0.2820
  694TMC3    O110271   3.627   4.693  11.155 -0.8079  0.3382 -0.0855
  694TMC3    O210272   3.393   4.425  10.654 -0.0364 -0.0096 -0.3027
  695MPD2     C10273   4.462   1.667  13.792 -1.1399 -0.3224  0.5414
  695MPD2    C110274   4.464   1.731  13.915 -1.1578  0.0188  0.2017
  695MPD2    C210275   4.350   1.792  13.963  0.2398  0.3858 -0.0830
  695MPD2    C310276   4.242   1.807  13.880 -1.0558  0.3657  0.2271
  695MPD2    C410277   4.245   1.756  13.746  0.0261  0.0555  0.8007
  695MPD2    C510278   4.361   1.684  13.701  0.3344  0.4767 -0.0564
  695MPD2     H10279   4.337   1.831  14.063 -1.2320 -0.3949  0.0312
  695MPD2    H110280   4.162   1.764  13.676  1.5123  1.0425 -0.8464
  695MPD2    H210281   4.550   1.616  13.755 -0.2252  0.4117  1.7026
  695MPD2    H310282   4.364   1.635  13.604 -1.3732 -1.0453  0.6714
  695MPD2     N10283   4.125   1.861  13.938 -0.4541 -0.0875 -0.0256
  695MPD2    H510284   4.132   1.884  14.037 -0.9372 -1.1515  0.2570
  695MPD2    N110285   4.569   1.712  14.007  0.0168  0.0900 -0.2548
  695MPD2    H710286   4.550   1.753  14.099  0.7173 -0.1233 -0.0119
  696TMC3    C110287   3.903   1.943  13.954  0.3376 -0.1556  0.4308
  696TMC3    C210288   3.898   1.924  14.087 -0.4287 -0.4047 -0.2485
  696TMC3    C310289   3.822   2.018  14.159 -0.3443  0.4441 -0.0243
  696TMC3    C410290   3.836   2.047  13.896 -0.4151  0.2687 -0.1880
  696TMC3    C510291   3.770   2.134  13.968 -0.1014  0.6096 -0.2097
  696TMC3    C610292   3.756   2.117  14.103 -0.1409  0.1964 -0.5938
  696TMC3     C10293   4.004   1.883  13.870 -0.3592  0.5602 -0.3696
  696TMC3     O10294   3.989   1.867  13.748 -0.1674 -0.4192 -0.2019
  696TMC3     H10295   3.964   1.858  14.141 -0.0749  1.5392  1.7289
  696TMC3    H110296   3.847   2.068  13.790  0.5758 -3.6233 -0.8535
  696TMC3    H210297   3.697   2.186  14.161 -0.2878 -2.0938  1.9636
  696TMC3    C710298   3.780   2.268  13.924 -0.0359  0.0349  0.3908
  696TMC3    C810299   3.841   2.044  14.299 -0.0608 -0.3611 -0.1252
  696TMC3    O110300   3.765   2.288  13.803 -0.2345  0.0477  0.1462
  696TMC3    O210301   3.841   2.161  14.338  0.3983  0.3706  0.1483
  697MPD2     C10302   4.068   3.699  15.762  0.0637  0.4539 -0.0765
  697MPD2    C110303   4.041   3.641  15.639 -0.1138  0.7400  0.1334
  697MPD2    C210304   4.038   3.718  15.524 -0.2174  0.7019 -0.2286
  697MPD2    C310305   4.070   3.853  15.535  0.3839  0.4663 -0.0480
  697MPD2    C410306   4.111   3.900  15.660  0.9805  0.1031  0.2406
  697MPD2    C510307   4.092   3.831  15.774 -0.0940 -0.1769  0.1724
  697MPD2     H10308   3.993   3.672  15.437 -2.3995  1.7724  0.3367
  697MPD2    H110309   4.148   4.002  15.665 -2.0104  1.1923 -0.0128
  697MPD2    H210310   4.052   3.644  15.854 -0.8918  2.3361  0.8823
  697MPD2    H310311   4.108   3.870  15.874 -0.6078 -0.9239  0.5445
  697MPD2     N10312   4.088   3.934  15.427 -0.4169 -0.5106  0.4308
  697MPD2    H510313   4.130   4.024  15.449  2.0522 -1.1879 -1.4883
  697MPD2    N110314   3.988   3.513  15.606  0.5379 -0.4835 -0.4888
  697MPD2    H710315   3.963   3.491  15.511  1.5149  0.0740 -0.8785
  698TMC3    C110316   4.072   4.015  15.206 -0.9152 -0.0211 -0.6071
  698TMC3    C210317   4.175   4.098  15.246  0.7014  0.3153  0.1299
  698TMC3    C310318   4.232   4.173  15.154 -0.4627 -0.8096  0.2009
  698TMC3    C410319   4.040   3.996  15.075 -0.4799  0.3242 -0.5994
  698TMC3    C510320   4.108   4.079  14.989  0.1908 -0.1790  0.0581
  698TMC3    C610321   4.195   4.170  15.027 -0.1239 -0.0823 -0.2665
  698TMC3     C10322   4.040   3.909  15.298 -0.0132 -0.1215  0.7186
  698TMC3     O10323   3.987   3.806  15.253  1.2791  0.7927  0.1701
  698TMC3     H10324   4.189   4.123  15.350 -3.1273 -0.6810  0.8827
  698TMC3    H110325   3.960   3.926  15.054 -0.4633  0.2983 -0.5769
  698TMC3    H210326   4.236   4.236  14.951 -0.9427 -0.7298 -1.2646
  698TMC3    C710327   4.092   4.036  14.856  0.5773  0.0482  0.1133
  698TMC3    C810328   4.339   4.265  15.209  0.7603 -0.2818  0.0076
  698TMC3    O110329   4.008   4.093  14.788  0.0001  0.6884 -0.2642
  698TMC3    O210330   4.383   4.232  15.317  0.4365 -0.3538  0.2972
  699TMC3    C110331   4.331   1.604  13.214 -0.3173  0.5428 -0.1204
  699TMC3    C210332   4.340   1.479  13.276  0.3592  0.8473 -0.4076
  699TMC3    C310333   4.239   1.442  13.362  0.1134  0.5298  0.1514
  699TMC3    C410334   4.223   1.684  13.235  0.4269 -0.4655 -0.3372
  699TMC3    C510335   4.124   1.644  13.321 -0.4347  1.1398 -0.2005
  699TMC3    C610336   4.133   1.525  13.386 -0.4456 -0.1211  0.3811
  699TMC3     C10337   4.426   1.655  13.125  0.1517  0.2523  0.7197
  699TMC3     O10338   4.391   1.743  13.043  0.4964 -0.5762  0.4152
  699TMC3     H10339   4.411   1.404  13.244  0.4668 -0.8198  3.7768
  699TMC3    H110340   4.220   1.778  13.181 -1.1780 -0.2765  0.0776
  699TMC3    H210341   4.065   1.511  13.469  0.8486 -2.7654  0.9983
  699TMC3    C710342   4.016   1.729  13.353  0.0365  0.1427 -0.5649
  699TMC3    C810343   4.279   1.370  13.485 -0.2186 -0.1337  0.0380
  699TMC3    O110344   3.936   1.693  13.439 -0.2398  0.2598  0.6571
  699TMC3    O210345   4.185   1.314  13.544  0.1529 -0.2482  0.1760
  700TMC3    C110346   2.909   4.274  17.231 -0.2171 -0.4462  0.0082
  700TMC3    C210347   2.948   4.137  17.225  0.4390  0.6514  0.0827
  700TMC3    C310348   2.988   4.083  17.348  0.5350 -0.4866  0.4032
  700TMC3    C410349   2.891   4.340  17.350  0.6768  0.1255  0.1196
  700TMC3    C510350   2.917   4.272  17.470  0.2105 -0.3429 -0.6544
  700TMC3    C610351   2.970   4.150  17.469  0.0580  0.2587  0.1188
  700TMC3     C10352   2.937   4.345  17.104 -0.1337  0.3906  0.4599
  700TMC3     O10353   2.904   4.293  17.000 -0.0541  0.3444  0.7205
  700TMC3     H10354   2.977   4.095  17.129 -1.8993 -1.0499  0.1015
  700TMC3    H110355   2.875   4.447  17.356 -1.2952 -0.0762 -1.5925
  700TMC3    H210356   3.011   4.101  17.557  2.6278  0.4270 -0.9753
  700TMC3    C710357   2.939   4.359  17.578  0.1560 -0.0470 -0.1315
  700TMC3    C810358   3.067   3.965  17.356 -0.2400  0.1775 -0.1637
  700TMC3    O110359   3.053   4.359  17.623 -0.3516  0.1064  0.0311
  700TMC3    O210360   3.151   3.948  17.438 -0.0015 -0.4614  0.1785
  701TMC3    C110361   3.166   2.810  15.644  0.4748  0.9539  0.4704
  701TMC3    C210362   3.198   2.770  15.521 -1.3121  0.3687  0.5087
  701TMC3    C310363   3.267   2.850  15.433 -0.1311  0.2523 -0.2265
  701TMC3    C410364   3.192   2.941  15.684 -0.6296 -0.1918  0.3344
  701TMC3    C510365   3.245   3.026  15.589 -0.3283  0.8418  0.0107
  701TMC3    C610366   3.285   2.984  15.470  0.0933  0.3366 -0.2002
  701TMC3     C10367   3.058   2.744  15.712  0.1710 -0.1836 -0.9159
  701TMC3     O10368   3.027   2.794  15.824 -0.6518 -0.1844 -0.1830
  701TMC3     H10369   3.181   2.667  15.492  0.2206 -0.6379  3.2051
  701TMC3    H110370   3.142   2.979  15.773 -2.0637  0.9938 -0.9763
  701TMC3    H210371   3.334   3.053  15.402 -1.1555  2.5021  1.1244
  701TMC3    C710372   3.309   3.151  15.638  0.5137 -0.3893  0.0425
  701TMC3    C810373   3.303   2.824  15.296  0.5577  0.2306  0.1068
  701TMC3    O110374   3.319   3.238  15.549 -0.0633 -0.1717 -0.0151
  701TMC3    O210375   3.368   2.906  15.233 -0.6560 -0.1529  0.1850
  702MPD2     C10376   2.916   4.638  10.933 -0.0126 -0.5593  0.1122
  702MPD2    C110377   2.889   0.038  10.979  0.1675 -0.0913  0.1324
  702MPD2    C210378   2.944   0.147  10.924  0.2026  0.1710 -0.3247
  702MPD2    C310379   3.044   0.140  10.826  0.7779  0.2220 -0.7565
  702MPD2    C410380   3.087   0.011  10.785  0.5057  0.1427 -0.0967
  702MPD2    C510381   3.013   4.629  10.839  0.7372 -0.3707  0.4328
  702MPD2     H10382   2.917   0.246  10.960  0.6345  0.2614 -0.2417
  702MPD2    H110383   3.163   4.715  10.710  1.2661 -0.5834  0.8630
  702MPD2    H210384   2.863   4.547  10.962  1.7092 -2.0687 -1.4732
  702MPD2    H310385   3.017   4.530  10.794  1.6535 -1.4289  2.8210
  702MPD2     N10386   3.104   0.266  10.793  0.2113  0.5209 -0.1375
  702MPD2    H510387   3.075   0.355  10.833 -3.2023  0.5034 -2.6410
  702MPD2    N110388   2.784   0.067  11.070  0.3136 -0.1797  0.2286
  702MPD2    H710389   2.774   0.167  11.087  2.6345  0.2011 -0.6336
  703TMC3    C110390   3.230   0.418  10.671 -0.4357  0.2485 -0.0220
  703TMC3    C210391   3.132   0.515  10.692 -0.3266  0.2955 -0.1108
  703TMC3    C310392   3.166   0.641  10.648 -0.9478  0.3486 -0.4964
  703TMC3    C410393   3.340   0.448  10.601 -0.0459 -0.2131  0.0443
  703TMC3    C510394   3.372   0.573  10.559 -0.1088 -0.3878  0.2881
  703TMC3    C610395   3.284   0.671  10.586  0.4236  0.4163  0.7597
  703TMC3     C10396   3.203   0.280  10.701  0.0384 -0.2328 -0.2715
  703TMC3     O10397   3.249   0.193  10.626 -0.2450  0.0881  0.5093
  703TMC3     H10398   3.047   0.495  10.756 -0.0828 -1.1683 -0.2367
  703TMC3    H110399   3.400   0.365  10.565 -0.2553 -1.3905  2.4003
  703TMC3    H210400   3.307   0.772  10.555 -0.0436  0.4652  0.5718
  703TMC3    C710401   3.493   0.613  10.503 -0.0748  0.1824  0.0878
  703TMC3    C810402   3.075   0.750  10.686  0.0052  0.1273 -0.0034
  703TMC3    O110403   3.496   0.713  10.438  0.9334  0.7631 -0.5543
  703TMC3    O210404   3.137   0.856  10.686  0.0975  0.0001 -0.0382
  704TMC3    C110405   0.841   3.478  11.990 -0.0838  0.5013 -0.4589
  704TMC3    C210406   0.974   3.499  12.027  0.3379  0.1424  0.1713
  704TMC3    C310407   1.010   3.472  12.154 -0.3175 -0.3500  0.4016
  704TMC3    C410408   0.756   3.444  12.092 -0.6556 -0.6841  0.3858
  704TMC3    C510409   0.797   3.419  12.225  0.0873 -0.2686  0.5674
  704TMC3    C610410   0.927   3.432  12.254 -0.2579  0.4163  0.4691
  704TMC3     C10411   0.805   3.480  11.852 -0.2045 -0.5129 -0.6200
  704TMC3     O10412   0.688   3.503  11.818 -0.3284 -0.0693 -0.2408
  704TMC3     H10413   1.052   3.537  11.962 -0.7152  0.7218 -0.7559
  704TMC3    H110414   0.651   3.435  12.064 -0.1107 -0.3782 -1.7569
  704TMC3    H210415   0.965   3.398  12.350 -0.2881  1.4150  0.8333
  704TMC3    C710416   0.748   3.297  12.272 -0.6320  0.5651 -0.4142
  704TMC3    C810417   1.151   3.426  12.160  1.0392  0.1236  0.3012
  704TMC3    O110418   0.827   3.216  12.310  0.4499  0.5216 -0.2739
  704TMC3    O210419   1.206   3.405  12.051  0.7356  0.2584 -0.4113
  705MPD2     C10420   4.643   1.519  16.539 -0.3158  0.2789 -1.0720
  705MPD2    C110421   4.627   1.650  16.575  0.4543 -0.0197  0.8711
  705MPD2    C210422   4.496   1.686  16.615 -0.0812  0.1393 -0.1180
  705MPD2    C310423   4.385   1.602  16.596  0.1004  0.8524 -0.2400
  705MPD2    C410424   4.408   1.467  16.557  0.7581 -0.1276 -0.1146
  705MPD2    C510425   4.544   1.423  16.544  0.1917 -0.5450  0.3456
  705MPD2     H10426   4.471   1.782  16.659  0.4718 -0.0759  0.6538
  705MPD2    H110427   4.329   1.397  16.532 -0.0314  0.9844 -0.6845
  705MPD2    H210428   0.020   1.496  16.507 -0.4051  0.5985 -1.5724
  705MPD2    H310429   4.566   1.323  16.507 -0.3678 -1.2994  2.0624
  705MPD2     N10430   4.254   1.642  16.622  0.1367 -0.2136 -0.4464
  705MPD2    H510431   4.185   1.591  16.567  0.0439  0.1917 -0.6989
  705MPD2    N110432   0.008   1.749  16.564 -0.4363  0.0791 -0.0488
  705MPD2    H710433   4.697   1.842  16.544  2.0368  0.7165 -1.2418
  706TMC3    C110434   0.415   1.881  16.399  0.2003 -0.1354 -0.1541
  706TMC3    C210435   0.397   2.004  16.442  0.6095  0.2379 -0.2900
  706TMC3    C310436   0.286   2.041  16.516 -0.4491  0.9031 -0.6524
  706TMC3    C410437   0.324   1.785  16.421 -0.4082 -0.0217 -0.4630
  706TMC3    C510438   0.217   1.823  16.504  0.3691 -0.0951 -0.3206
  706TMC3    C610439   0.199   1.946  16.563  1.1524 -0.5653 -0.0803
  706TMC3     C10440   0.534   1.849  16.328 -0.4437 -0.4912  0.4790
  706TMC3     O10441   0.634   1.906  16.369  0.1467 -0.1327  0.9980
  706TMC3     H10442   0.469   2.081  16.414  1.6972 -0.3070  1.0017
  706TMC3    H110443   0.334   1.682  16.386 -2.5700 -0.9778  1.6946
  706TMC3    H210444   0.120   1.969  16.633  0.1233  1.4935 -1.8937
  706TMC3    C710445   0.142   1.721  16.567  0.0242  0.1892 -0.0469
  706TMC3    C810446   0.264   2.182  16.529 -0.3188 -0.1871  0.4778
  706TMC3    O110447   0.200   1.614  16.599  0.8560  0.0127 -0.5141
  706TMC3    O210448   0.296   2.257  16.437 -0.4296  0.7736  0.5108
  707TMC3    C110449   1.144   1.609   1.604  0.1915  0.5820  0.1290
  707TMC3    C210450   1.161   1.509   1.696  0.8089  0.3613 -0.1978
  707TMC3    C310451   1.055   1.494   1.787  0.2553  0.3940 -0.2049
  707TMC3    C410452   1.024   1.671   1.593 -0.6455 -0.9900  0.7620
  707TMC3    C510453   0.929   1.659   1.691  0.0230  0.2805 -0.1362
  707TMC3    C610454   0.943   1.576   1.794 -0.1516  0.2153  0.0848
  707TMC3     C10455   1.230   1.622   1.486  0.8931 -0.2691  0.1632
  707TMC3     O10456   1.177   1.655   1.382  0.1227 -0.2440 -0.0806
  707TMC3     H10457   1.255   1.455   1.699 -0.3894 -1.7059 -0.2199
  707TMC3    H110458   1.004   1.738   1.509 -2.3936 -1.0236  1.1444
  707TMC3    H210459   0.862   1.543   1.857 -0.3704  1.0990  0.2714
  707TMC3    C710460   0.798   1.723   1.668 -0.2194 -0.1621 -0.6053
  707TMC3    C810461   1.016   1.368   1.847  0.0595 -1.0512  0.4162
  707TMC3    O110462   0.769   1.745   1.550  0.3845  0.9842  0.7174
  707TMC3    O210463   0.942   1.366   1.945  0.5998  0.1511 -0.4942
  708MPD2     C10464   2.840   4.089  14.392  0.2983  0.1210 -0.2992
  708MPD2    C110465   2.878   4.222  14.375  0.8779 -0.6400  0.1362
  708MPD2    C210466   2.829   4.319  14.458  0.2945  0.1114  0.2426
  708MPD2    C310467   2.745   4.288  14.565  0.7993 -0.0068 -0.0249
  708MPD2    C410468   2.702   4.161  14.574 -0.7486 -0.7681 -0.1980
  708MPD2    C510469   2.749   4.064  14.493  0.2494  0.3486  0.3306
  708MPD2     H10470   2.851   4.425  14.448  1.6475 -0.2318 -0.4581
  708MPD2    H110471   2.629   4.141  14.652 -1.4137 -0.5548 -0.7646
  708MPD2    H210472   2.860   4.013  14.317  0.0626 -0.6694  0.4324
  708MPD2    H310473   2.705   3.966  14.502  0.2668  0.2436 -0.7696
  708MPD2     N10474   2.710   4.389  14.659  0.2206  0.5210  0.5696
  708MPD2    H510475   2.737   4.483  14.634  2.4186 -0.3007 -0.1543
  708MPD2    N110476   2.945   4.275  14.261  0.0144 -0.4697 -0.1343
  708MPD2    H710477   2.936   4.376  14.258  0.4059 -0.3259  3.4752
  709TMC3    C110478   3.047   4.278  14.053 -0.1764  1.0547 -0.2811
  709TMC3    C210479   2.982   4.237  13.940  0.4390  0.2268  0.4434
  709TMC3    C310480   2.913   4.326  13.857 -0.2279 -0.1678 -0.0313
  709TMC3    C410481   3.046   4.415  14.077 -0.2455 -0.0949  0.6670
  709TMC3    C510482   2.968   4.499  14.002  0.0283  0.2011  0.6695
  709TMC3    C610483   2.908   4.461  13.890  0.3579  0.5175  0.0439
  709TMC3     C10484   3.013   4.200  14.165 -0.7883 -0.0195 -1.7051
  709TMC3     O10485   3.022   4.076  14.162 -0.1371 -0.0283 -0.1744
  709TMC3     H10486   2.974   4.130  13.924  2.8387  0.2123 -0.6383
  709TMC3    H110487   3.110   4.448  14.157  0.7335  0.8005 -0.4776
  709TMC3    H210488   2.847   4.533  13.837  1.2035  0.9995 -0.2675
  709TMC3    C710489   2.880   4.558  14.099  0.0700 -0.1081  0.3465
  709TMC3    C810490   2.859   4.283  13.730 -0.0698 -0.3393 -0.1930
  709TMC3    O110491   2.923   4.546  14.212  0.4069  0.1261  0.1457
  709TMC3    O210492   2.789   4.183  13.733 -0.0212  0.2818  0.3617
  710TMC3    C110493   4.551   2.146   0.835  0.1236  0.2618 -0.2681
  710TMC3    C210494   4.569   2.125   0.703  0.6925 -1.1314 -1.1876
  710TMC3    C310495   4.511   2.019   0.641  0.5702  0.2246  0.3651
  710TMC3    C410496   4.498   2.048   0.917 -0.1879 -0.8659 -0.2195
  710TMC3    C510497   4.451   1.933   0.854 -0.3022 -0.3646  0.5807
  710TMC3    C610498   4.447   1.921   0.718 -0.4892 -0.1494  1.0039
  710TMC3     C10499   4.600   2.269   0.903  0.0163 -0.1373  0.4205
  710TMC3     O10500   4.655   2.355   0.836  0.3361 -0.8250  0.1301
  710TMC3     H10501   4.623   2.202   0.649 -0.3434 -0.8610 -1.8615
  710TMC3    H110502   4.497   2.049   1.025 -1.7897  2.6389 -0.2582
  710TMC3    H210503   4.389   1.844   0.667  1.1590  0.3018 -1.5821
  710TMC3    C710504   4.409   1.829   0.940  0.3620 -0.1641 -0.1744
  710TMC3    C810505   4.576   1.971   0.524 -0.0680  0.6478 -0.1600
  710TMC3    O110506   4.364   1.860   1.051 -0.1139 -0.1615  0.1607
  710TMC3    O210507   4.575   1.847   0.510  0.4434 -0.2501 -0.3594
  711TMC3    C110508   3.944   2.610  15.304 -0.3004  0.3805 -0.1616
  711TMC3    C210509   3.999   2.716  15.379 -0.4297  0.3092 -0.0884
  711TMC3    C310510   4.111   2.693  15.454 -0.0635  0.0903  0.3726
  711TMC3    C410511   4.014   2.491  15.292 -0.0532  0.5173 -0.1849
  711TMC3    C510512   4.123   2.468  15.362  0.0540  0.3429 -0.3678
  711TMC3    C610513   4.176   2.571  15.441  0.3536 -0.6502 -0.3146
  711TMC3     C10514   3.806   2.634  15.268 -0.2273  0.5475  0.1406
  711TMC3     O10515   3.759   2.739  15.304  0.3510 -0.3718 -0.6591
  711TMC3     H10516   3.945   2.809  15.390  1.8160  1.9672 -2.9458
  711TMC3    H110517   3.968   2.417  15.227  2.6449  0.6212 -2.2185
  711TMC3    H210518   4.273   2.559  15.488 -0.1540 -0.6004  0.7519
  711TMC3    C710519   4.168   2.329  15.392  0.4749  0.1852  0.5209
  711TMC3    C810520   4.076   2.724  15.592  0.1845  0.6777 -0.5206
  711TMC3    O110521   4.274   2.308  15.456  0.2571  0.4419  0.5950
  711TMC3    O210522   3.959   2.716  15.618 -1.0027  0.7799 -0.0197
  712MPD2     C10523   0.888   3.166  13.251 -0.2632 -0.2713  0.4852
  712MPD2    C110524   0.796   3.204  13.152  0.0722  0.1515  0.3723
  712MPD2    C210525   0.762   3.339  13.131  0.2021  0.0453 -0.0318
  712MPD2    C310526   0.815   3.445  13.195  0.8049  0.4631 -0.2556
  712MPD2    C410527   0.915   3.405  13.293  0.6585  0.1485 -0.0857
  712MPD2    C510528   0.936   3.272  13.326 -0.0615 -0.0810 -0.4717
  712MPD2     H10529   0.682   3.363  13.062  0.8416 -0.1650 -0.8464
  712MPD2    H110530   0.960   3.483  13.354 -1.7478  1.8864 -0.4871
  712MPD2    H210531   0.908   3.061  13.272 -1.5151 -1.0161 -1.9614
  712MPD2    H310532   0.994   3.257  13.416 -1.6972 -0.9550  0.4304
  712MPD2     N10533   0.785   3.578  13.182 -0.9750 -0.4674  0.5724
  712MPD2    H510534   0.837   3.645  13.238 -3.3305  1.1545  0.8288
  712MPD2    N110535   0.713   3.107  13.095  0.3386 -0.2557  0.0367
  712MPD2    H710536   0.647   3.151  13.031  1.4814  0.6041 -0.5476
  713TMC3    C110537   0.702   3.774  13.096 -0.2177  0.0927  0.6200
  713TMC3    C210538   0.826   3.828  13.115 -0.0818  0.5924  0.3748
  713TMC3    C310539   0.841   3.960  13.081 -0.7905 -0.2407 -0.2979
  713TMC3    C410540   0.595   3.855  13.094 -0.8157  0.1683  0.9513
  713TMC3    C510541   0.610   3.987  13.059 -0.2760  0.2994  0.1260
  713TMC3    C610542   0.737   4.042  13.046 -0.1434  0.0771  1.0390
  713TMC3     C10543   0.687   3.631  13.099  0.4832 -0.4760  0.1675
  713TMC3     O10544   0.597   3.568  13.045 -0.8531  0.0267 -0.2288
  713TMC3     H10545   0.919   3.772  13.112 -1.1591 -1.1709 -0.1337
  713TMC3    H110546   0.496   3.811  13.094  0.0535 -1.7943 -2.0733
  713TMC3    H210547   0.762   4.143  13.016  1.0610 -0.4159  0.4034
  713TMC3    C710548   0.494   4.071  13.007 -0.3496  0.2473  0.0026
  713TMC3    C810549   0.973   4.022  13.086 -0.3213 -1.0778 -0.4650
  713TMC3    O110550   0.518   4.178  12.951 -0.2553  0.5802 -0.0345
  713TMC3    O210551   0.978   4.132  13.039 -0.0005  0.0874 -0.6665
  714MPD2     C10552   2.647   2.208   1.967  0.8988 -0.5823  0.3669
  714MPD2    C110553   2.701   2.173   1.845  0.1395 -0.4902  0.4359
  714MPD2    C210554   2.626   2.189   1.727  0.1726 -0.2093 -0.8684
  714MPD2    C310555   2.497   2.235   1.725  0.0636  0.6661 -0.1926
  714MPD2    C410556   2.451   2.274   1.843 -1.1090 -0.0998  0.2020
  714MPD2    C510557   2.519   2.262   1.958  0.2735 -0.0642 -0.2983
  714MPD2     H10558   2.662   2.153   1.631  0.1692 -0.6706 -0.6956
  714MPD2    H110559   2.350   2.313   1.848 -1.0993 -0.0554  0.0490
  714MPD2    H210560   2.706   2.200   2.057  4.1173  0.3656 -1.6558
  714MPD2    H310561   2.474   2.298   2.049  0.1240 -0.1818 -0.3267
  714MPD2     N10562   2.441   2.258   1.600  0.0420 -0.0356  0.7505
  714MPD2    H510563   2.496   2.233   1.518 -0.4916 -0.7753  0.6185
  714MPD2    N110564   2.843   2.126   1.842  0.6178  0.1875 -0.1123
  714MPD2    H710565   2.877   2.104   1.935 -0.4700  1.4781  0.5966
  715TMC3    C110566   3.049   2.048   1.761 -0.0904  0.0309 -0.0267
  715TMC3    C210567   3.106   1.962   1.670 -0.0859  0.3656 -0.1921
  715TMC3    C310568   3.220   1.901   1.711  0.1720  0.3382 -0.1350
  715TMC3    C410569   3.108   2.093   1.874 -0.2494 -0.7556  0.1854
  715TMC3    C510570   3.227   2.039   1.904 -0.1295 -0.3230  0.1832
  715TMC3    C610571   3.275   1.931   1.835 -0.5714  0.0946  0.2217
  715TMC3     C10572   2.913   2.086   1.734  0.0963  0.3221  0.2905
  715TMC3     O10573   2.886   2.089   1.614  0.4450 -0.6122 -0.0735
  715TMC3     H10574   3.051   1.920   1.587  0.4391  1.6777 -1.2036
  715TMC3    H110575   3.068   2.163   1.947  0.8921 -0.5614  0.6299
  715TMC3    H210576   3.356   1.869   1.874 -0.1521 -0.6606 -1.8674
  715TMC3    C710577   3.284   2.092   2.029 -0.2379  0.5564 -0.6854
  715TMC3    C810578   3.269   1.790   1.636 -0.4878  0.4024 -0.4606
  715TMC3    O110579   3.226   2.171   2.105 -0.3878  0.7023 -0.5483
  715TMC3    O210580   3.194   1.746   1.550 -0.2004  0.5587 -0.2525
  716MPD2     C10581   3.593   0.547   9.413 -0.4014 -0.6053 -0.7875
  716MPD2    C110582   3.456   0.513   9.416  0.2776 -0.5441  0.0268
  716MPD2    C210583   3.428   0.381   9.379 -0.4131 -0.0648 -0.0187
  716MPD2    C310584   3.524   0.281   9.363  0.9867  0.0252 -0.3188
  716MPD2    C410585   3.656   0.315   9.378  0.3986  0.0479  0.2649
  716MPD2    C510586   3.688   0.447   9.394  1.0692 -0.7657  0.2167
  716MPD2     H10587   3.323   0.361   9.358 -0.4757  1.4626 -1.2028
  716MPD2    H110588   3.742   0.250   9.388  0.6284  0.5356  1.4315
  716MPD2    H210589   3.632   0.645   9.435  1.9034 -1.9490  1.1519
  716MPD2    H310590   3.793   0.476   9.391  1.1730 -1.4091 -2.2804
  716MPD2     N10591   3.481   0.151   9.331 -0.0725 -0.7656 -0.5367
  716MPD2    H510592   3.381   0.138   9.340 -0.0440 -1.5542 -1.3456
  716MPD2    N110593   3.354   0.615   9.421 -0.6213 -0.5435 -0.2969
  716MPD2    H710594   3.387   0.710   9.430  0.8933 -1.1838  1.0409
  717TMC3    C110595   3.484   4.643   9.282 -0.1109  0.6177  0.1194
  717TMC3    C210596   3.359   4.666   9.244  0.4260 -0.0748  0.0271
  717TMC3    C310597   3.282   4.560   9.229  0.3895 -0.1797  0.1564
  717TMC3    C410598   3.519   4.514   9.325  0.4986  0.5546 -0.4986
  717TMC3    C510599   3.427   4.415   9.323 -0.0843  0.5179 -0.0478
  717TMC3    C610600   3.304   4.433   9.268  0.7654 -0.4284  0.2378
  717TMC3     C10601   3.563   0.042   9.312  0.6849  0.6091 -0.5509
  717TMC3     O10602   3.685   0.029   9.319  0.2460  0.4278 -0.1981
  717TMC3     H10603   3.322   0.033   9.197  1.9342  0.4372 -0.1732
  717TMC3    H110604   3.618   4.494   9.366 -0.0720 -1.4626 -0.0701
  717TMC3    H210605   3.229   4.357   9.283  0.2762  0.3341  1.7539
  717TMC3    C710606   3.451   4.291   9.390  0.3989 -0.5521  0.4737
  717TMC3    C810607   3.149   4.589   9.182  0.0993  0.1428 -0.1958
  717TMC3    O110608   3.523   4.299   9.487 -0.3270 -0.1849 -0.3078
  717TMC3    O210609   3.113   4.705   9.177  0.0197  0.0711  0.1479
  718MPD2     C10610   2.498   4.335  12.786 -0.7931 -0.5668  0.1181
  718MPD2    C110611   2.367   4.318  12.735  0.3670 -0.7019  0.3673
  718MPD2    C210612   2.303   4.206  12.775  0.1717  0.8594  0.0472
  718MPD2    C310613   2.354   4.125  12.869 -0.1376 -0.2488 -0.2679
  718MPD2    C410614   2.479   4.147  12.920  0.3070 -0.1775 -0.1113
  718MPD2    C510615   2.548   4.261  12.885 -0.0003  0.3575 -0.2252
  718MPD2     H10616   2.212   4.176  12.724  1.6731  0.6370 -2.4781
  718MPD2    H110617   2.506   4.090  13.008  0.0516  1.0204  0.7427
  718MPD2    H210618   2.561   4.411  12.741  1.7084 -1.7661  1.5660
  718MPD2    H310619   2.641   4.293  12.929 -1.8810  2.1191  2.5103
  718MPD2     N10620   2.286   4.003  12.892 -0.9905  0.3574  0.0576
  718MPD2    H510621   2.343   3.933  12.939 -2.8453 -1.8033 -0.9039
  718MPD2    N110622   2.322   4.409  12.632  0.2844 -0.1160  0.1581
  718MPD2    H710623   2.377   4.492  12.619  0.5960 -0.7295 -2.3872
  719TMC3    C110624   2.193   4.467  12.437  0.2468  0.5524  0.2964
  719TMC3    C210625   2.086   4.420  12.353 -0.1540 -0.0572 -0.2860
  719TMC3    C310626   2.112   4.413  12.216  0.0157  0.3505  0.3942
  719TMC3    C410627   2.306   4.512  12.377 -0.7582  0.1111 -0.3144
  719TMC3    C510628   2.312   4.531  12.239 -0.0317 -0.7537  0.3696
  719TMC3    C610629   2.220   4.472  12.156 -0.1288  0.2242 -0.0076
  719TMC3     C10630   2.217   4.377  12.551 -0.4658 -0.1923  0.0212
  719TMC3     O10631   2.144   4.276  12.538 -0.4572 -0.3848  0.4700
  719TMC3     H10632   2.006   4.367  12.404  0.0611 -0.3383 -0.2374
  719TMC3    H110633   2.394   4.529  12.438 -2.3094  0.9942  1.6596
  719TMC3    H210634   2.240   4.452  12.052  2.5750  1.3991  0.2769
  719TMC3    C710635   2.450   4.542  12.188 -0.5832 -0.5242  0.7145
  719TMC3    C810636   2.099   4.280  12.166 -0.2924 -0.6953  0.5945
  719TMC3    O110637   2.485   4.457  12.103 -0.0932  0.8870  0.3902
  719TMC3    O210638   2.102   4.267  12.045  0.2312  0.1334  0.6651
  720MPD2     C10639   0.263   0.952  14.091 -0.5042  0.1744 -0.5322
  720MPD2    C110640   0.370   0.961  13.994  0.4417 -0.0480  0.6435
  720MPD2    C210641   0.499   0.931  14.031 -0.2439 -0.4189 -0.3878
  720MPD2    C310642   0.529   0.906  14.165 -0.3671  0.8685 -0.3195
  720MPD2    C410643   0.425   0.913  14.258 -0.2084  0.0560  0.0765
  720MPD2    C510644   0.290   0.934  14.221  0.3403  0.0733  0.8361
  720MPD2     H10645   0.581   0.926  13.960  0.5899  0.7477  0.4975
  720MPD2    H110646   0.438   0.892  14.364 -1.5708 -0.7189  0.0912
  720MPD2    H210647   0.160   0.977  14.067 -0.8147  0.0615  0.7085
  720MPD2    H310648   0.211   0.932  14.295  1.3030 -2.0547  1.7975
  720MPD2     N10649   0.667   0.887  14.196 -0.4843  1.1338 -0.1931
  720MPD2    H510650   0.724   0.874  14.113 -1.3897 -0.6331 -0.5323
  720MPD2    N110651   0.356   1.015  13.859  0.0746  0.0121 -0.3991
  720MPD2    H710652   0.442   1.036  13.810  0.0339 -1.1087 -0.9650
  721TMC3    C110653   0.869   0.901  14.317 -0.8888  0.0569  0.8502
  721TMC3    C210654   0.936   0.958  14.424 -0.3590 -0.4594  0.0827
  721TMC3    C310655   1.067   0.980  14.416 -0.3109 -0.1259 -0.6274
  721TMC3    C410656   0.935   0.851  14.209 -0.5569  0.1948  0.2969
  721TMC3    C510657   1.068   0.869  14.208  0.5357  0.3014  0.6854
  721TMC3    C610658   1.131   0.942  14.309 -0.0250  0.2913 -0.5317
  721TMC3     C10659   0.724   0.890  14.324 -0.1926  0.7806  0.0171
  721TMC3     O10660   0.665   0.922  14.427  0.1161 -0.3038 -0.1707
  721TMC3     H10661   0.870   0.996  14.501  0.4207 -0.6323  0.8379
  721TMC3    H110662   0.886   0.774  14.151  0.3816  0.1936 -0.4982
  721TMC3    H210663   1.238   0.958  14.315 -0.2154  1.2884  0.2282
  721TMC3    C710664   1.140   0.747  14.192  0.0174 -0.5808 -0.2057
  721TMC3    C810665   1.147   0.979  14.539 -0.7948  0.2724  0.2781
  721TMC3    O110666   1.096   0.642  14.232 -0.0225 -0.2867  0.1150
  721TMC3    O210667   1.256   1.032  14.531  0.1580 -0.2608  0.2962
  722MPD2     C10668   4.073   3.820  13.423 -0.1228 -0.7272 -0.1030
  722MPD2    C110669   4.036   3.952  13.420 -0.2803  0.4106 -0.0408
  722MPD2    C210670   3.908   3.980  13.376  0.0757 -0.2835 -0.5185
  722MPD2    C310671   3.821   3.891  13.325 -0.0450 -0.4542 -0.9754
  722MPD2    C410672   3.870   3.762  13.310  0.4997  0.3445 -0.1234
  722MPD2    C510673   3.989   3.726  13.359  0.9492 -0.5935 -0.6163
  722MPD2     H10674   3.879   4.085  13.373  2.0598  0.3189  1.1812
  722MPD2    H110675   3.810   3.693  13.252  0.2019 -0.0593  0.6714
  722MPD2    H210676   4.166   3.782  13.464  0.9136  1.3779 -0.5627
  722MPD2    H310677   4.028   3.626  13.345  0.6025 -1.1333  2.4160
  722MPD2     N10678   3.702   3.937  13.283 -0.5588 -0.8141  0.4668
  722MPD2    H510679   3.688   4.036  13.302 -0.7210 -0.5122 -1.1690
  722MPD2    N110680   4.128   4.055  13.465  0.5379 -0.4988 -0.0245
  722MPD2    H710681   4.088   4.148  13.456 -0.5394 -0.7276  2.4076
  723TMC3    C110682   3.520   3.959  13.136  1.2271 -0.0660 -0.4629
  723TMC3    C210683   3.461   3.902  13.030 -0.0138  0.3012  0.0127
  723TMC3    C310684   3.408   3.975  12.926  0.3123 -0.2348 -0.1797
  723TMC3    C410685   3.538   4.097  13.145  1.0592 -0.2833 -0.5516
  723TMC3    C510686   3.495   4.171  13.035  0.2437 -1.0049  0.2232
  723TMC3    C610687   3.427   4.114  12.932 -0.2467  0.4651  0.0896
  723TMC3     C10688   3.609   3.871  13.212 -0.5598 -0.3635  0.2876
  723TMC3     O10689   3.593   3.751  13.200 -0.3455  0.5294  0.3687
  723TMC3     H10690   3.459   3.794  13.025 -0.3768  0.2454  1.4814
  723TMC3    H110691   3.577   4.142  13.236  0.7903 -1.2064  0.0219
  723TMC3    H210692   3.377   4.171  12.854 -1.8323 -1.7657 -0.5243
  723TMC3    C710693   3.502   4.318  13.045  0.8259  0.0675 -0.4449
  723TMC3    C810694   3.440   3.931  12.791  0.8271  0.6982  0.0918
  723TMC3    O110695   3.534   4.364  13.153  0.1982  0.0640  0.7343
  723TMC3    O210696   3.362   3.957  12.702  0.5939 -0.2401 -0.2853
  724TMC3    C110697   4.026   2.136   9.281 -0.0022  0.2158 -0.4415
  724TMC3    C210698   3.981   2.242   9.353 -0.3931  0.3095  0.5540
  724TMC3    C310699   4.066   2.335   9.405 -0.0114  0.1826 -0.0716
  724TMC3    C410700   4.164   2.118   9.278 -0.4858  0.2262 -0.3038
  724TMC3    C510701   4.245   2.208   9.334  0.3456  0.4077 -0.0354
  724TMC3    C610702   4.198   2.322   9.399 -0.1524 -0.0081  0.5207
  724TMC3     C10703   3.945   2.033   9.233 -0.2207  0.3474  0.3777
  724TMC3     O10704   4.005   1.943   9.171  0.4401  0.1905 -0.0924
  724TMC3     H10705   3.878   2.276   9.355  0.0162  1.7389 -1.6688
  724TMC3    H110706   4.209   2.036   9.222  0.6879 -0.5649  1.7988
  724TMC3    H210707   4.267   2.389   9.449  1.0750 -0.6383 -0.3225
  724TMC3    C710708   4.389   2.174   9.350  0.2893  0.1614  0.1354
  724TMC3    C810709   4.015   2.463   9.449 -0.0094  0.2961  0.8501
  724TMC3    O110710   4.466   2.269   9.363 -0.3747 -0.1860 -0.1522
  724TMC3    O210711   3.906   2.467   9.511  0.0848  0.0749 -0.2488
  725TMC3    C110712   1.204   1.047  13.028 -0.1741  0.6542 -0.2448
  725TMC3    C210713   1.129   1.061  12.921 -0.0952 -0.7880  0.2365
  725TMC3    C310714   1.080   0.945  12.860  0.2757 -0.5262  0.6371
  725TMC3    C410715   1.233   0.917  13.075  0.0665  0.0753  0.5979
  725TMC3    C510716   1.198   0.807  12.996  0.0887  0.7721 -0.5072
  725TMC3    C610717   1.108   0.818  12.903 -1.2092  0.5308 -0.4869
  725TMC3     C10718   1.277   1.171  13.067 -0.6002 -0.1153  0.3468
  725TMC3     O10719   1.310   1.247  12.974 -0.6325 -0.6885 -0.3839
  725TMC3     H10720   1.094   1.154  12.878  1.1257  0.7942  2.7298
  725TMC3    H110721   1.315   0.914  13.146  1.4445 -1.6256 -1.0895
  725TMC3    H210722   1.072   0.732  12.848 -0.2614 -0.4601  0.4195
  725TMC3    C710723   1.291   0.698  12.963 -0.0509  0.2959  0.0783
  725TMC3    C810724   1.042   0.949  12.724  0.2154 -0.4200 -0.5507
  725TMC3    O110725   1.279   0.664  12.843  0.3587 -0.3676 -0.1635
  725TMC3    O210726   0.960   0.865  12.688 -0.2106  0.2944 -0.0898
  726MPD2     C10727   3.849   2.481  10.092 -0.4613  0.1258 -0.2175
  726MPD2    C110728   3.961   2.441  10.156 -0.7647  0.1121 -0.3423
  726MPD2    C210729   3.957   2.322  10.225 -0.5131  0.2660 -0.4044
  726MPD2    C310730   3.836   2.253  10.246 -0.5886 -0.1788 -0.1521
  726MPD2    C410731   3.722   2.292  10.186 -0.2670  0.8306 -0.3509
  726MPD2    C510732   3.731   2.410  10.108  0.2071  0.2448 -0.0251
  726MPD2     H10733   4.039   2.292  10.288 -0.3674  1.9910  0.2213
  726MPD2    H110734   3.622   2.251  10.193  0.4135 -0.5233  1.3875
  726MPD2    H210735   3.844   2.570  10.030 -0.3724 -0.2936 -0.8211
  726MPD2    H310736   3.643   2.449  10.059  0.0462  0.8886  0.7717
  726MPD2     N10737   3.809   2.144  10.335  0.3593  0.0843 -0.4735
  726MPD2    H510738   3.713   2.111  10.333 -0.1267  1.4192  2.1607
  726MPD2    N110739   4.083   2.512  10.141  0.9268 -0.3829 -0.3294
  726MPD2    H710740   4.164   2.462  10.175 -0.7931 -1.3963  2.2256
  727TMC3    C110741   4.245   2.673  10.107 -0.3470 -0.5392  0.3487
  727TMC3    C210742   4.342   2.582  10.083  0.1424  0.6136  0.2013
  727TMC3    C310743   4.467   2.631  10.077 -0.9312  0.6375 -0.3591
  727TMC3    C410744   4.276   2.795  10.139 -0.5346  0.2079 -0.1970
  727TMC3    C510745   4.407   2.834  10.146 -0.4738 -0.3458 -0.0934
  727TMC3    C610746   4.504   2.755  10.110  0.0817  0.5751  0.0580
  727TMC3     C10747   4.100   2.643  10.100  0.0338 -0.4424  0.6423
  727TMC3     O10748   4.015   2.729  10.081 -0.0778 -0.2810 -0.3439
  727TMC3     H10749   4.315   2.484  10.047  3.3634 -0.1497 -0.1170
  727TMC3    H110750   4.189   2.857  10.161 -0.3704  0.3758 -0.0220
  727TMC3    H210751   4.609   2.781  10.100  0.2418 -0.2186 -0.3562
  727TMC3    C710752   4.424   2.978  10.145  0.1735  0.4846 -0.1966
  727TMC3    C810753   4.571   2.529  10.066 -0.9284  0.3228 -0.3307
  727TMC3    O110754   4.327   3.047  10.120 -0.0025 -0.2149 -0.4736
  727TMC3    O210755   4.681   2.563  10.023 -0.0798  0.5372 -0.5944
  728TMC3    C110756   2.992   1.103  15.858 -0.6526 -0.4089 -0.4320
  728TMC3    C210757   3.023   0.970  15.853 -0.5168  0.0524 -0.0512
  728TMC3    C310758   3.115   0.926  15.767  0.0957  0.1170  0.0119
  728TMC3    C410759   3.043   1.190  15.770 -0.5795  0.2972  1.1010
  728TMC3    C510760   3.115   1.139  15.663  0.4785  0.1981  0.1142
  728TMC3    C610761   3.152   1.003  15.660 -0.1911 -0.0452 -0.7685
  728TMC3     C10762   2.876   1.151  15.944  0.1762 -0.2394  0.4224
  728TMC3     O10763   2.870   1.271  15.938 -0.1162 -0.3425 -0.4336
  728TMC3     H10764   2.986   0.899  15.927 -0.8572  0.8452  0.5385
  728TMC3    H110765   3.002   1.291  15.770 -0.5613  0.3031  1.6921
  728TMC3    H210766   3.205   0.968  15.573  0.5609  0.4655 -0.5103
  728TMC3    C710767   3.144   1.237  15.554 -0.2807 -0.7062  0.2123
  728TMC3    C810768   3.151   0.784  15.784  0.2736  0.7491 -0.1545
  728TMC3    O110769   3.132   1.352  15.589  0.2731  0.1877 -0.4803
  728TMC3    O210770   3.104   0.724  15.885 -0.2179  0.0732 -0.4665
  729MPD2     C10771   0.449   2.264  16.963 -0.1099  0.0555 -0.0376
  729MPD2    C110772   0.587   2.267  16.961 -0.3402  0.8693  0.1570
  729MPD2    C210773   0.659   2.245  17.076 -0.1769  0.0241 -0.1498
  729MPD2    C310774   0.591   2.248  17.194  0.1780  0.5999 -0.2414
  729MPD2    C410775   0.452   2.247  17.192 -0.0689  0.6805 -0.0850
  729MPD2    C510776   0.378   2.254  17.078  0.5739 -0.2438 -0.3694
  729MPD2     H10777   0.767   2.242  17.076 -0.2035 -1.3498  2.1886
  729MPD2    H110778   0.390   2.243  17.281  0.7585 -2.4734  0.3672
  729MPD2    H210779   0.396   2.267  16.869  0.1746  1.0144 -0.1716
  729MPD2    H310780   0.271   2.242  17.072  0.8250 -2.4992 -0.4117
  729MPD2     N10781   0.651   2.253  17.322  0.2495 -0.9221  0.1261
  729MPD2    H510782   0.591   2.267  17.403 -0.6951 -0.0236 -0.7140
  729MPD2    N110783   0.652   2.283  16.832  0.3110  0.0876  0.2373
  729MPD2    H710784   0.599   2.325  16.757 -0.4712  0.0165  0.7448
  730TMC3    C110785   0.818   2.271  17.495  0.1067 -0.5437 -0.1254
  730TMC3    C210786   0.946   2.281  17.512 -0.6729 -0.6142 -0.0078
  730TMC3    C310787   0.990   2.367  17.606 -0.2495  0.2566  0.6131
  730TMC3    C410788   0.720   2.354  17.557  0.3731  0.8434 -0.6006
  730TMC3    C510789   0.771   2.451  17.645 -0.2922  0.1599 -0.0670
  730TMC3    C610790   0.903   2.451  17.672 -0.2678  0.4078  0.9782
  730TMC3     C10791   0.789   2.246  17.355 -0.6203  0.1582  0.2028
  730TMC3     O10792   0.885   2.255  17.279 -0.5635  0.2563 -0.3544
  730TMC3     H10793   1.010   2.206  17.468 -0.6613  0.0303 -1.1023
  730TMC3    H110794   0.613   2.355  17.540  0.1352 -1.8247  0.7189
  730TMC3    H210795   0.949   2.521   0.046 -1.3927  0.9600  1.1619
  730TMC3    C710796   0.728   2.585  17.608 -1.1549  0.5619 -0.9827
  730TMC3    C810797   1.100   2.443  17.546  0.0844 -0.0067 -0.0108
  730TMC3    O110798   0.670   2.590  17.500  0.1330 -0.1225 -1.2436
  730TMC3    O210799   1.151   2.529  17.616  0.2136 -0.3232 -0.5158
  731MPD2     C10800   0.816   4.521  11.674  0.0116  0.0613 -0.5244
  731MPD2    C110801   0.934   4.553  11.737 -0.4304 -0.3901 -0.0276
  731MPD2    C210802   0.940   4.538  11.875 -0.0027 -0.2670 -0.6480
  731MPD2    C310803   0.833   4.521  11.961  0.4295 -0.0842 -0.6684
  731MPD2    C410804   0.712   4.498  11.894 -0.4849 -0.5659 -0.4256
  731MPD2    C510805   0.707   4.491  11.755  0.2158 -0.4588 -0.1834
  731MPD2     H10806   1.033   4.554  11.928 -0.7634  2.1363 -0.0393
  731MPD2    H110807   0.629   4.461  11.953 -0.0712  2.7069  2.2053
  731MPD2    H210808   0.796   4.521  11.567 -1.8724  0.1364 -0.1668
  731MPD2    H310809   0.621   4.459  11.698  0.2383  1.3928 -1.2613
  731MPD2     N10810   0.859   4.525  12.098 -0.0741 -0.4750  0.3474
  731MPD2    H510811   0.957   4.532  12.126  0.7173  1.0616 -2.8547
  731MPD2    N110812   1.044   4.586  11.655  0.0148 -0.7953 -0.0132
  731MPD2    H710813   1.017   4.598  11.558  0.2239 -0.1521  0.0107
  732TMC3    C110814   1.244   4.687  11.591 -0.2662  0.3990  0.9611
  732TMC3    C210815   1.181   4.704  11.469  0.2095  0.3396  0.3118
  732TMC3    C310816   1.179   0.103  11.411 -0.7544 -0.1166  0.2000
  732TMC3    C410817   1.318   0.068  11.645  0.1116 -0.4628  0.5038
  732TMC3    C510818   1.327   0.188  11.583  0.1505  0.2573  0.1642
  732TMC3    C610819   1.246   0.207  11.465 -0.4209 -0.8202 -0.7966
  732TMC3     C10820   1.173   4.620  11.699  0.1733 -0.0086 -0.0078
  732TMC3     O10821   1.223   4.620  11.809  0.4643 -0.2045 -0.4879
  732TMC3     H10822   1.119   4.627  11.426  1.3353 -0.3134 -0.1575
  732TMC3    H110823   1.389   0.041  11.722  3.1890  2.1895 -1.3840
  732TMC3    H210824   1.228   0.307  11.427  1.5006 -0.0399  0.3694
  732TMC3    C710825   1.360   0.305  11.666  0.3208  0.5112 -0.1970
  732TMC3    C810826   1.054   0.128  11.342 -0.5918 -0.2585  0.0109
  732TMC3    O110827   1.373   0.410  11.606 -0.6870 -0.3789  0.1963
  732TMC3    O210828   1.045   0.094  11.225 -0.2252 -0.5735  0.6513
  733TMC3    C110829   1.963   3.669  12.835  0.0874  0.1699 -0.3562
  733TMC3    C210830   2.010   3.781  12.891 -0.2355 -0.2854 -0.8236
  733TMC3    C310831   2.139   3.826  12.858  0.5954  0.2215  0.1441
  733TMC3    C410832   2.033   3.597  12.742  1.1150  0.4389 -0.0769
  733TMC3    C510833   2.144   3.660  12.690 -0.2005 -0.5380 -0.2008
  733TMC3    C610834   2.198   3.770  12.747  0.5195 -0.2883 -0.3023
  733TMC3     C10835   1.816   3.638  12.852  0.0515  0.0211  1.0402
  733TMC3     O10836   1.756   3.723  12.916 -0.2342 -0.3857  0.6220
  733TMC3     H10837   1.956   3.839  12.965 -1.1788 -2.0640 -0.1208
  733TMC3    H110838   1.993   3.512  12.688 -2.7480  2.9388 -1.1990
  733TMC3    H210839   2.295   3.804  12.714  0.8109  0.7715  1.6289
  733TMC3    C710840   2.150   3.664  12.542  0.4239  0.1034  0.1686
  733TMC3    C810841   2.158   3.970  12.857  0.1568 -0.4372  0.2271
  733TMC3    O110842   2.104   3.571  12.476  0.1344 -0.0269 -0.7940
  733TMC3    O210843   2.067   4.033  12.808 -0.2650 -0.3358 -0.2290
  734MPD2     C10844   4.133   1.489  12.271 -0.3090  0.6928 -0.3557
  734MPD2    C110845   4.116   1.358  12.235 -0.2436  0.1297 -0.1297
  734MPD2    C210846   4.165   1.315  12.115  1.0389 -0.3412 -0.0522
  734MPD2    C310847   4.226   1.397  12.026 -0.3099  0.4016  0.0772
  734MPD2    C410848   4.231   1.532  12.053 -0.2212 -0.0716  0.0752
  734MPD2    C510849   4.196   1.578  12.179  0.5708  0.9263 -0.2221
  734MPD2     H10850   4.140   1.216  12.080  0.1141 -0.4106  0.7793
  734MPD2    H110851   4.264   1.613  11.990 -0.7197 -1.7629 -2.3468
  734MPD2    H210852   4.086   1.524  12.362 -0.2936 -0.3206  0.0345
  734MPD2    H310853   4.201   1.683  12.207 -3.1014  1.4805 -1.6614
  734MPD2     N10854   4.256   1.343  11.901  0.2708  0.0124  0.3139
  734MPD2    H510855   4.246   1.242  11.891 -1.3734  0.2413 -0.3611
  734MPD2    N110856   4.035   1.279  12.316 -0.5522 -0.5295  0.8173
  734MPD2    H710857   4.005   1.309  12.408  0.2073 -0.0796  0.9110
  735TMC3    C110858   3.894   1.093  12.369  0.1206  0.5132 -0.4369
  735TMC3    C210859   3.806   1.019  12.294 -0.0458  0.2789 -0.2121
  735TMC3    C310860   3.793   0.882  12.310  0.0067 -0.4768  0.1128
  735TMC3    C410861   3.969   1.025  12.460  0.1679 -0.0583  0.7376
  735TMC3    C510862   3.971   0.887  12.465  0.6522  0.2239 -0.0504
  735TMC3    C610863   3.884   0.814  12.388  0.1894  0.1499 -0.3522
  735TMC3     C10864   3.963   1.172  12.271 -0.6153  0.3307  0.8415
  735TMC3     O10865   3.944   1.128  12.160  0.0820  0.0819 -0.8768
  735TMC3     H10866   3.730   1.076  12.244 -0.1773 -0.5840 -0.9967
  735TMC3    H110867   4.049   1.079  12.509  0.0426  1.2011 -0.4526
  735TMC3    H210868   3.893   0.707  12.375 -1.2484  0.1987 -1.7443
  735TMC3    C710869   4.109   0.841  12.459 -0.6729 -0.3210  0.5218
  735TMC3    C810870   3.762   0.813  12.193  0.0319  0.8579  0.2252
  735TMC3    O110871   4.196   0.915  12.408  0.3641  0.2069  0.3833
  735TMC3    O210872   3.724   0.697  12.188 -0.5209  0.7297  0.3197
  736MPD2     C10873   4.214   0.502  12.540  0.1947  0.4108  0.0616
  736MPD2    C110874   4.217   0.622  12.475  0.1097  0.4644 -0.3720
  736MPD2    C210875   4.317   0.645  12.378  0.4673  0.5643 -0.1115
  736MPD2    C310876   4.410   0.541  12.350 -0.5249 -0.7078 -0.0038
  736MPD2    C410877   4.405   0.426  12.424  0.5615 -0.2206 -0.7766
  736MPD2    C510878   4.309   0.411  12.517 -0.2919  0.0850  0.7456
  736MPD2     H10879   4.307   0.727  12.309 -0.3141  2.4286  2.2059
  736MPD2    H110880   4.478   0.345  12.418 -2.2057 -2.6844 -1.0144
  736MPD2    H210881   4.151   0.466  12.621  0.4243  0.4579  0.2593
  736MPD2    H310882   4.303   0.315  12.566 -2.4788 -1.6341 -2.9812
  736MPD2     N10883   4.505   0.550  12.246  1.1092  0.7505  0.0290
  736MPD2    H510884   4.553   0.465  12.217  1.8414  0.9984  0.5109
  736MPD2    N110885   4.106   0.714  12.505  0.2547 -0.0979  0.3236
  736MPD2    H710886   4.032   0.685  12.568 -1.6200  1.5676 -1.1449
  737TMC3    C110887   4.641   0.654  12.079 -0.4307  0.5672 -0.1975
  737TMC3    C210888   4.685   0.771  12.026  0.1161 -0.4509 -0.4152
  737TMC3    C310889   0.059   0.761  11.932 -0.2148 -0.6198 -0.0904
  737TMC3    C410890   4.681   0.530  12.031 -0.4045 -0.1236 -0.4567
  737TMC3    C510891   0.053   0.529  11.925 -0.2417 -0.1636  0.1108
  737TMC3    C610892   0.110   0.644  11.886 -0.5027  0.2099  0.1656
  737TMC3     C10893   4.545   0.665  12.187  0.7959 -0.1937  0.5356
  737TMC3     O10894   4.528   0.781  12.226  0.2447 -0.4557 -0.0242
  737TMC3     H10895   4.638   0.865  12.053 -2.8590 -1.8624 -0.6738
  737TMC3    H110896   4.624   0.439  12.048 -0.6272  0.3596  1.4456
  737TMC3    H210897   0.184   0.638  11.807 -0.3409  0.1740  0.3207
  737TMC3    C710898   0.048   0.402  11.836  0.2236  0.3795 -0.7698
  737TMC3    C810899   0.060   0.878  11.841  0.4272 -0.1225  0.0088
  737TMC3    O110900   4.705   0.306  11.872  0.3494  0.1679 -0.3457
  737TMC3    O210901   0.027   0.990  11.882 -0.1407  0.6456  0.4697
  738MPD2     C10902   4.574   4.449  15.218 -0.0586 -0.0924 -0.0212
  738MPD2    C110903   4.469   4.471  15.137  0.1908  0.3394  0.3323
  738MPD2    C210904   4.450   4.594  15.070  0.1890  0.5358  0.8221
  738MPD2    C310905   4.540   4.699  15.093 -0.0802 -0.1145  0.4263
  738MPD2    C410906   4.638   4.682  15.187 -0.6107  0.2581 -0.2168
  738MPD2    C510907   4.659   4.558  15.245  0.5046  0.4487 -0.0192
  738MPD2     H10908   4.362   4.614  15.010 -0.3067  0.3757  1.5080
  738MPD2    H110909   4.700   0.040  15.222 -0.0597 -0.2447 -0.0283
  738MPD2    H210910   4.588   4.361  15.281  1.8739  0.1138 -0.1429
  738MPD2    H310911   0.017   4.541  15.314  0.4096 -0.0734 -0.0365
  738MPD2     N10912   4.545   0.098  15.027 -0.0566  0.2173  0.6891
  738MPD2    H510913   4.617   0.165  15.050  1.0744 -0.5185 -0.7230
  738MPD2    N110914   4.368   4.371  15.122  0.7751 -0.2527  0.6143
  738MPD2    H710915   4.299   4.382  15.049  1.8640 -0.9417 -0.5225
  739TMC3    C110916   4.521   0.241  14.837  0.3441 -0.6077  0.2785
  739TMC3    C210917   4.554   0.209  14.706 -0.2037 -0.7241 -0.0982
  739TMC3    C310918   4.639   0.286  14.637 -0.2869 -0.7155  0.5207
  739TMC3    C410919   4.598   0.340  14.900  0.1656  1.0466  0.3745
  739TMC3    C510920   4.685   0.414  14.825  0.0857 -0.2299 -0.5177
  739TMC3    C610921   4.706   0.395  14.696 -0.7229 -0.6391  0.4050
  739TMC3     C10922   4.471   0.128  14.914 -0.2504  0.7170 -0.0798
  739TMC3     O10923   4.396   0.052  14.857  0.1372 -0.4261 -0.2088
  739TMC3     H10924   4.498   0.128  14.661 -2.2957  1.0203 -0.6218
  739TMC3    H110925   4.598   0.361  15.006 -0.0412  1.9317  0.2041
  739TMC3    H210926   0.037   0.472  14.643  1.4815 -3.1363 -0.9597
  739TMC3    C710927   0.013   0.535  14.881 -0.2192  0.6907  0.3645
  739TMC3    C810928   4.638   0.263  14.486 -0.2138 -0.2468 -0.6313
  739TMC3    O110929   4.670   0.571  14.975  0.0728  0.2827 -0.0437
  739TMC3    O210930   4.558   0.178  14.441 -0.0630 -0.0162  0.4131
  740TMC3    C110931   0.305   1.292  14.328  0.2170  0.2003 -0.2976
  740TMC3    C210932   0.339   1.266  14.456  0.8482 -0.2339  0.6203
  740TMC3    C310933   0.467   1.243  14.492  0.1669  0.6159  0.0333
  740TMC3    C410934   0.406   1.286  14.233 -0.0116 -0.4422  0.4156
  740TMC3    C510935   0.536   1.265  14.279  0.0323 -0.7368 -0.1058
  740TMC3    C610936   0.565   1.240  14.410  0.0972  0.2299 -0.7653
  740TMC3     C10937   0.171   1.327  14.285 -0.2054  0.3347 -0.6275
  740TMC3     O10938   0.158   1.321  14.165 -0.0353 -0.1545 -0.6197
  740TMC3     H10939   0.266   1.244  14.533  1.3617  1.9444  1.7294
  740TMC3    H110940   0.375   1.287  14.129  0.3468  1.5603  0.3239
  740TMC3    H210941   0.665   1.213  14.442 -0.3082 -0.3252  0.0096
  740TMC3    C710942   0.644   1.237  14.186  0.2771 -0.3104 -0.0806
  740TMC3    C810943   0.498   1.233  14.635  0.5602 -1.0387  0.6169
  740TMC3    O110944   0.749   1.227  14.246  0.2942  0.2151  0.0973
  740TMC3    O210945   0.435   1.305  14.712 -0.5378  0.5195  0.5205
  741TMC3    C110946   4.602   0.630  14.240 -0.5533  0.7293  0.1207
  741TMC3    C210947   4.511   0.533  14.256 -0.0538 -1.1867  0.3815
  741TMC3    C310948   4.420   0.541  14.368  0.0109 -0.2109 -0.0949
  741TMC3    C410949   4.610   0.735  14.329  0.7625  0.0026 -0.3766
  741TMC3    C510950   4.530   0.731  14.439 -0.2175 -0.1747 -0.2002
  741TMC3    C610951   4.438   0.636  14.466 -0.7313  0.2336  0.4052
  741TMC3     C10952   4.708   0.636  14.149 -0.6210 -1.1392  0.4038
  741TMC3     O10953   0.082   0.694  14.187 -0.5694 -0.6626 -0.2661
  741TMC3     H10954   4.493   0.463  14.176  0.5633  0.6735 -1.3883
  741TMC3    H110955   4.662   0.824  14.295 -0.5909 -0.3633 -3.3918
  741TMC3    H210956   4.366   0.656  14.544 -1.0278  2.0009 -0.3277
  741TMC3    C710957   4.564   0.819  14.546 -0.6482 -0.3418 -0.8972
  741TMC3    C810958   4.294   0.464  14.363 -0.1814 -0.1389 -0.2259
  741TMC3    O110959   4.485   0.840  14.640  0.3394 -0.1462  0.2236
  741TMC3    O210960   4.204   0.496  14.440  0.3555 -0.0323 -0.7789
  742TMC3    C110961   4.366   3.641  15.376 -0.7071 -0.1505 -0.2048
  742TMC3    C210962   4.252   3.630  15.301 -0.4225 -0.3289  0.3261
  742TMC3    C310963   4.209   3.494  15.269 -0.3696 -0.2130  0.0767
  742TMC3    C410964   4.445   3.537  15.425  0.1693  0.7567 -0.2107
  742TMC3    C510965   4.389   3.413  15.405 -0.0947 -0.5357  0.4145
  742TMC3    C610966   4.282   3.386  15.322  0.2407 -0.2004 -0.3873
  742TMC3     C10967   4.425   3.774  15.375  0.0895  0.5999 -0.4958
  742TMC3     O10968   4.386   3.861  15.302 -0.1286  0.3541 -0.6467
  742TMC3     H10969   4.219   3.715  15.243 -1.5095 -0.3161  0.9508
  742TMC3    H110970   4.533   3.552  15.487 -0.3710 -1.0630  0.9853
  742TMC3    H210971   4.260   3.283  15.296 -0.7332 -0.4663  1.4500
  742TMC3    C710972   4.469   3.299  15.433  0.0904  0.7744 -0.4792
  742TMC3    C810973   4.174   3.482  15.131  0.5165 -0.0595 -0.8096
  742TMC3    O110974   4.473   3.217  15.345  0.1850 -0.0128 -0.3049
  742TMC3    O210975   4.249   3.410  15.069  0.0263  0.0549  0.3888
  743MPD2     C10976   1.377   0.146   2.207 -0.3104 -0.0462  0.0136
  743MPD2    C110977   1.472   0.143   2.109 -0.5672 -1.0292 -0.5159
  743MPD2    C210978   1.580   0.047   2.109 -0.2728 -0.3992  0.2730
  743MPD2    C310979   1.588   4.691   2.222 -0.1969  1.4446  0.3308
  743MPD2    C410980   1.490   4.688   2.321 -0.6275  0.0800  0.3127
  743MPD2    C510981   1.386   0.057   2.311 -0.1530 -0.1008  0.9965
  743MPD2     H10982   1.656   0.042   2.032 -0.7856  1.8115 -0.3817
  743MPD2    H110983   1.488   4.643   2.419 -0.7602  2.2383  1.2967
  743MPD2    H210984   1.296   0.218   2.207  1.9227  2.4574 -1.0677
  743MPD2    H310985   1.322   0.055   2.397 -0.1588  1.0161  1.0184
  743MPD2     N10986   1.707   4.625   2.250 -0.6965 -0.4587  0.0478
  743MPD2    H510987   1.792   4.648   2.200 -1.0294  0.2233 -0.1985
  743MPD2    N110988   1.462   0.244   2.010  0.0126 -0.3442 -0.3367
  743MPD2    H710989   1.383   0.307   2.001 -2.5401 -3.2260  1.8680
  744TMC3    C110990   1.536   0.404   1.852 -0.2996 -0.6735 -0.5548
  744TMC3    C210991   1.448   0.498   1.900 -0.5544 -0.7306  0.1680
  744TMC3    C310992   1.431   0.616   1.829  0.1432 -0.9235 -0.5502
  744TMC3    C410993   1.591   0.419   1.732 -0.4492  0.2578 -1.4381
  744TMC3    C510994   1.576   0.543   1.670 -0.4149 -0.1497 -0.0409
  744TMC3    C610995   1.492   0.643   1.711 -0.7356 -0.1104  0.8411
  744TMC3     C10996   1.546   0.267   1.907 -0.4668 -0.2717 -0.4216
  744TMC3     O10997   1.649   0.209   1.876 -0.2065 -0.3680 -0.2186
  744TMC3     H10998   1.420   0.487   2.004 -0.2994  2.6817  0.5830
  744TMC3    H110999   1.664   0.348   1.694 -1.0839  0.0000 -2.1799
  744TMC3    H211000   1.466   0.728   1.649 -0.4900  0.9804  2.2226
  744TMC3    C711001   1.693   0.568   1.585 -0.3781  0.3570 -0.2067
  744TMC3    C811002   1.316   0.688   1.878  0.2020 -1.2808  0.1280
  744TMC3    O111003   1.742   0.471   1.528 -0.2343  0.3710  0.1849
  744TMC3    O211004   1.243   0.628   1.957 -0.5103  0.3452  0.0071
  745TMC3    C111005   0.592   2.936  13.039 -0.1216  0.8864  0.5867
  745TMC3    C211006   0.485   2.880  13.110  0.1306  0.2006  0.0974
  745TMC3    C311007   0.363   2.885  13.051  0.0039 -0.1886 -0.1424
  745TMC3    C411008   0.578   3.004  12.924 -0.2854  0.2437  0.3629
  745TMC3    C511009   0.452   3.000  12.863 -0.0022 -0.7080  0.1518
  745TMC3    C611010   0.345   2.937  12.923  0.0950 -0.4614 -0.1142
  745TMC3     C11011   0.706   2.972  13.118  0.0430  0.1429 -0.6444
  745TMC3     O11012   0.735   2.918  13.222 -0.0160 -0.8394  0.3147
  745TMC3     H11013   0.500   2.854  13.214 -1.5011  0.9467  0.5295
  745TMC3    H111014   0.661   3.034  12.861 -0.0352  0.2900  0.7210
  745TMC3    H211015   0.246   2.925  12.880  0.9285 -1.7984 -1.6510
  745TMC3    C711016   0.419   3.094  12.761 -0.5917  0.6447  0.4520
  745TMC3    C811017   0.251   2.866  13.145  0.4751 -0.2311 -0.3711
  745TMC3    O111018   0.305   3.095  12.714  0.4924  0.2007  0.2165
  745TMC3    O211019   0.144   2.832  13.103  0.4867  0.2433  0.4267
  746TMC3    C111020   2.508   0.253  11.265  0.0432 -1.2267 -0.7463
  746TMC3    C211021   2.620   0.184  11.227  1.0266  0.8030  0.7795
  746TMC3    C311022   2.606   0.049  11.215  0.0806 -0.2663 -0.1242
  746TMC3    C411023   2.392   0.192  11.302 -0.2940 -0.1580  0.3900
  746TMC3    C511024   2.384   0.057  11.270  0.3767 -0.5145 -0.3054
  746TMC3    C611025   2.490   4.705  11.236  0.5075  0.1250  0.1207
  746TMC3     C11026   2.523   0.386  11.318 -0.2901  0.1514 -0.8677
  746TMC3     O11027   2.466   0.408  11.423  0.3617 -0.0382  0.0231
  746TMC3     H11028   2.722   0.219  11.223  0.9317  0.5686 -3.5575
  746TMC3    H111029   2.306   0.252  11.328 -0.5447 -0.9521  1.3953
  746TMC3    H211030   2.489   4.597  11.226  2.2149  0.3350 -2.3231
  746TMC3    C711031   2.257   4.716  11.256  0.4508 -0.1724 -0.1762
  746TMC3    C811032   2.705   4.704  11.138  0.1039  0.4672 -0.0599
  746TMC3    O111033   2.269   4.592  11.252 -0.1862  0.5490  0.5442
  746TMC3    O211034   2.686   4.582  11.119 -0.1155  0.5032  0.4596
  747TMC3    C111035   0.560   0.477  10.903 -0.2937  0.6383  0.0699
  747TMC3    C211036   0.462   0.400  10.951  0.0498  0.1034  0.1082
  747TMC3    C311037   0.446   0.389  11.087 -0.4451  0.4620 -0.5948
  747TMC3    C411038   0.660   0.528  10.979  0.1189 -0.4536 -0.9907
  747TMC3    C511039   0.651   0.495  11.114 -0.2178  1.1339  0.5089
  747TMC3    C611040   0.544   0.437  11.174 -0.4910  0.1219  0.6436
  747TMC3     C11041   0.576   0.494  10.759  0.5999  0.3838  0.8839
  747TMC3     O11042   0.636   0.589  10.713 -0.4031 -0.1236  0.6423
  747TMC3     H11043   0.379   0.376  10.886  0.8117 -0.4018 -0.6721
  747TMC3    H111044   0.739   0.589  10.938 -1.3007  1.8148 -0.3765
  747TMC3    H211045   0.529   0.430  11.281  0.2969 -0.1601  0.7363
  747TMC3    C711046   0.769   0.509  11.192  0.4736 -0.1058  0.3669
  747TMC3    C811047   0.319   0.331  11.138  0.2048  0.8608 -0.0033
  747TMC3    O111048   0.761   0.543  11.311 -0.1265 -0.1738 -0.2890
  747TMC3    O211049   0.254   0.253  11.069  0.0670  0.4180 -0.4850
  748MPD2     C11050   0.900   2.044   1.544 -0.0976  0.8132  0.5166
  748MPD2    C111051   0.965   2.013   1.429 -0.5474  0.1024  0.0414
  748MPD2    C211052   1.098   2.006   1.415  0.6739 -0.4237 -0.2713
  748MPD2    C311053   1.176   2.024   1.525  0.2766 -0.8566  1.1340
  748MPD2    C411054   1.117   2.054   1.648  0.4605  0.9288 -0.0236
  748MPD2    C511055   0.984   2.060   1.651  0.2064  0.2984  0.3073
  748MPD2     H11056   1.151   1.964   1.330 -0.2869 -0.6874 -0.7334
  748MPD2    H111057   1.167   2.069   1.744 -0.4594 -2.7323  1.0236
  748MPD2    H211058   0.793   2.041   1.562 -0.1800 -0.8146 -0.3343
  748MPD2    H311059   0.939   2.069   1.749 -0.6868 -0.9245  0.0039
  748MPD2     N11060   1.318   1.993   1.511 -0.3540 -0.0809  0.1745
  748MPD2    H511061   1.361   1.983   1.420 -2.0476 -2.7244 -0.3253
  748MPD2    N111062   0.882   1.971   1.325  0.6310 -0.6512 -0.1517
  748MPD2    H711063   0.784   1.953   1.348  1.2256  0.1491  2.9605
  749TMC3    C111064   1.541   1.932   1.588  0.1821 -0.4471 -0.1217
  749TMC3    C211065   1.608   1.870   1.685  0.4606 -0.1754 -0.7876
  749TMC3    C311066   1.744   1.848   1.665  0.2609 -0.2752 -0.5151
  749TMC3    C411067   1.593   1.973   1.470 -0.5134  0.3874  0.2518
  749TMC3    C511068   1.717   1.934   1.450 -0.1878 -0.0973 -0.7886
  749TMC3    C611069   1.802   1.875   1.541  0.6766  0.7000 -0.0495
  749TMC3     C11070   1.399   1.969   1.618 -0.6680 -0.3526 -0.2709
  749TMC3     O11071   1.368   1.963   1.732 -0.6396  0.3648  0.2532
  749TMC3     H11072   1.563   1.833   1.777  0.2327 -1.5273 -1.4533
  749TMC3    H111073   1.551   2.053   1.411  3.3188  1.0811 -1.5587
  749TMC3    H211074   1.905   1.853   1.513 -0.1546 -0.6102 -2.0218
  749TMC3    C711075   1.784   1.995   1.337  0.3832 -0.4296  0.4192
  749TMC3    C811076   1.826   1.796   1.780 -0.1590  0.0741 -0.1014
  749TMC3    O111077   1.904   2.018   1.335  0.2092  0.0286 -0.1768
  749TMC3    O211078   1.762   1.777   1.881  0.0023  0.1552 -0.7197
  750MPD2     C11079   3.431   1.918  11.253 -0.0510  0.4837  0.2197
  750MPD2    C111080   3.309   1.918  11.321  0.6582 -0.6168  0.0905
  750MPD2    C211081   3.219   1.822  11.277  0.4938 -0.2237 -0.1031
  750MPD2    C311082   3.229   1.758  11.155 -0.5309 -0.0809  0.0744
  750MPD2    C411083   3.345   1.769  11.084  0.3232 -0.1408  0.0139
  750MPD2    C511084   3.447   1.845  11.138  0.5355 -1.2130  0.5573
  750MPD2     H11085   3.135   1.804  11.343  0.8086 -1.2746  0.0103
  750MPD2    H111086   3.359   1.713  10.993  1.0827  0.0287  0.0237
  750MPD2    H211087   3.513   1.985  11.278 -1.3538  1.3907  2.0275
  750MPD2    H311088   3.534   1.855  11.074 -0.1953 -2.0984 -0.5827
  750MPD2     N11089   3.129   1.679  11.101 -0.0575  0.1809  0.2897
  750MPD2    H511090   3.161   1.629  11.019  1.5446  5.2628 -2.2022
  750MPD2    N111091   3.276   2.018  11.420 -0.6407  0.5579 -0.3066
  750MPD2    H711092   3.344   2.094  11.425  1.2886 -1.2176  0.6547
  751TMC3    C111093   2.906   1.606  11.059 -0.2446  0.0884 -0.1428
  751TMC3    C211094   2.790   1.569  11.119  0.1459 -0.6811 -0.4486
  751TMC3    C311095   2.709   1.482  11.049  0.3859 -0.5686 -0.6316
  751TMC3    C411096   2.946   1.545  10.945 -0.6695  0.5704  0.1434
  751TMC3    C511097   2.866   1.454  10.879 -0.1899  0.8640  0.3396
  751TMC3    C611098   2.743   1.425  10.931 -0.9801 -0.0210  0.1967
  751TMC3     C11099   2.997   1.677  11.145  0.6364 -0.4900  0.2476
  751TMC3     O11100   2.948   1.717  11.253 -0.2824 -0.0414  0.4257
  751TMC3     H11101   2.754   1.622  11.207  1.6417  0.6918 -0.6773
  751TMC3    H111102   3.042   1.564  10.899 -1.1794  1.5090 -0.5188
  751TMC3    H211103   2.669   1.356  10.891  0.1008  0.4111 -2.4805
  751TMC3    C711104   2.918   1.386  10.765 -0.1725 -0.9122  0.4911
  751TMC3    C811105   2.609   1.399  11.119  0.2827 -1.1850  0.6562
  751TMC3    O111106   3.031   1.413  10.723 -0.4371 -0.5476  0.7155
  751TMC3    O211107   2.563   1.302  11.060 -0.4470 -0.2210 -0.7234
  752TMC3    C111108   1.468   2.071  17.250  0.1560  0.0754  0.1486
  752TMC3    C211109   1.513   1.960  17.318 -0.4554  0.1000 -0.3264
  752TMC3    C311110   1.469   1.944  17.448 -0.2971  0.3263  0.1182
  752TMC3    C411111   1.394   2.167  17.311  0.3932 -0.6083 -0.3623
  752TMC3    C511112   1.366   2.153  17.447  0.0656 -1.1593 -0.1973
  752TMC3    C611113   1.397   2.035  17.515 -0.2780 -0.0433  0.2866
  752TMC3     C11114   1.502   2.080  17.111 -0.0631  0.4378  0.2794
  752TMC3     O11115   1.609   2.038  17.079 -0.4876  0.2316  0.6167
  752TMC3     H11116   1.575   1.894  17.259 -0.2897 -0.1432  0.1253
  752TMC3    H111117   1.346   2.245  17.254  0.0595 -0.0018  0.7405
  752TMC3    H211118   1.377   2.030  17.622 -0.6312 -2.4783  0.1085
  752TMC3    C711119   1.429   2.253  17.529  0.1014  0.1668 -0.2133
  752TMC3    C811120   1.507   1.835  17.522 -0.1311 -0.9039  0.5731
  752TMC3    O111121   1.419   2.240  17.653 -0.4530 -0.0391  0.5360
  752TMC3    O211122   1.428   1.801  17.616  0.2228 -0.0337 -0.3431
  753TMC3    C111123   3.342   3.422  13.245  0.0212 -0.2768  0.3180
  753TMC3    C211124   3.394   3.405  13.375  0.5431 -0.3326 -0.1608
  753TMC3    C311125   3.446   3.275  13.401  0.8589 -1.0001  0.5883
  753TMC3    C411126   3.324   3.317  13.157  0.0833 -0.3971  0.2706
  753TMC3    C511127   3.375   3.194  13.196 -0.0140  0.5610  0.0731
  753TMC3    C611128   3.445   3.172  13.311 -0.0088 -0.4515 -0.7549
  753TMC3     C11129   3.278   3.545  13.215 -0.7439 -0.7645  0.3098
  753TMC3     O11130   3.195   3.546  13.125  0.1239  0.0847 -0.6939
  753TMC3     H11131   3.401   3.483  13.450 -3.5230  1.5499 -1.7782
  753TMC3    H111132   3.276   3.333  13.061  0.9770 -0.0451 -0.1198
  753TMC3    H211133   3.484   3.076  13.342 -2.1982 -0.7590  1.0503
  753TMC3    C711134   3.356   3.082  13.106  0.2580 -0.4850 -0.1865
  753TMC3    C811135   3.501   3.241  13.529 -0.2557 -0.1186 -0.1699
  753TMC3    O111136   3.350   3.094  12.986 -0.1491  0.7739  0.1281
  753TMC3    O211137   3.499   3.121  13.561  0.1186 -0.1060 -0.7183
  754MPD2     C11138   2.479   1.795  13.084  0.5689  0.1483 -0.2821
  754MPD2    C111139   2.385   1.689  13.072 -0.6225  0.2862 -0.3913
  754MPD2    C211140   2.252   1.711  13.035 -0.4664  0.0789 -0.2074
  754MPD2    C311141   2.220   1.830  12.986  0.0306 -0.3490 -0.6913
  754MPD2    C411142   2.308   1.938  12.994  0.0465 -0.0360  0.0013
  754MPD2    C511143   2.433   1.922  13.048 -0.6878  0.6500 -0.5969
  754MPD2     H11144   2.189   1.623  13.040 -0.1268 -0.1803 -0.4806
  754MPD2    H111145   2.281   2.039  12.965 -2.5773 -0.0102  2.5938
  754MPD2    H211146   2.578   1.778  13.123  0.4503 -0.9592 -0.4643
  754MPD2    H311147   2.500   2.007  13.054  1.0698 -0.8430  0.9816
  754MPD2     N11148   2.089   1.860  12.941  0.3704 -0.2164  0.2592
  754MPD2    H511149   2.064   1.956  12.918  2.1731  0.5612  1.5086
  754MPD2    N111150   2.416   1.564  13.136 -0.3949 -0.2988  1.0662
  754MPD2    H711151   2.505   1.575  13.184 -0.5499 -0.9673  1.5067
  755MPD2     C11152   1.441   2.495  13.154 -0.3344 -0.4347 -0.2392
  755MPD2    C111153   1.498   2.422  13.258 -0.2109 -0.0759 -0.3166
  755MPD2    C211154   1.575   2.313  13.224  0.5171  0.3392  0.1220
  755MPD2    C311155   1.584   2.265  13.094 -0.0324 -0.1890 -0.1889
  755MPD2    C411156   1.516   2.326  12.995 -0.1501  0.7165 -0.2347
  755MPD2    C511157   1.443   2.437  13.029 -0.5160  0.0300  0.8815
  755MPD2     H11158   1.634   2.265  13.301  1.1039 -1.9426 -1.7314
  755MPD2    H111159   1.517   2.290  12.893 -1.4311 -1.5592  0.5385
  755MPD2    H211160   1.371   2.577  13.163  0.4097  0.0893  0.7816
  755MPD2    H311161   1.389   2.486  12.949 -0.3167 -0.9942  0.1220
  755MPD2     N11162   1.653   2.144  13.062  0.2823  0.2477  0.3764
  755MPD2    H511163   1.675   2.125  12.965  1.7411  0.4552  0.6672
  755MPD2    N111164   1.481   2.455  13.394  0.5480 -0.2067 -0.3021
  755MPD2    H711165   1.511   2.395  13.470 -1.1568  1.0483  1.3664
  756MPD2     C11166   2.706   2.827   9.661 -0.3287 -0.1372 -0.4064
  756MPD2    C111167   2.605   2.778   9.738  0.1439 -0.2606 -0.3779
  756MPD2    C211168   2.477   2.782   9.688  0.0237 -0.4208 -0.2869
  756MPD2    C311169   2.447   2.835   9.566  0.0855  0.0343 -0.3296
  756MPD2    C411170   2.550   2.889   9.488  0.7025  0.2302  0.5920
  756MPD2    C511171   2.679   2.883   9.541  0.8774 -0.2818  0.7073
  756MPD2     H11172   2.411   2.724   9.751 -1.7090  0.0096 -1.7380
  756MPD2    H111173   2.543   2.935   9.390  1.2390 -0.3261  0.2943
  756MPD2    H211174   2.807   2.837   9.698 -0.6937  1.0578  0.2729
  756MPD2    H311175   2.755   2.932   9.482 -0.0519 -0.7706 -0.8888
  756MPD2     N11176   2.317   2.811   9.526  0.0389 -0.9087  0.2305
  756MPD2    H511177   2.261   2.749   9.584 -2.6411  0.0281 -1.3644
  756MPD2    N111178   2.630   2.712   9.863 -1.1353  0.2117  0.2424
  756MPD2    H711179   2.551   2.666   9.906 -0.7202  0.4525  1.2456
  757MPD2     C11180   1.881   2.165   9.871 -0.7844 -0.7425  0.0538
  757MPD2    C111181   2.008   2.203   9.858  0.5198  0.1544 -0.0305
  757MPD2    C211182   2.037   2.315   9.783  0.0278 -0.0966  0.5512
  757MPD2    C311183   1.942   2.379   9.706 -0.0983  0.5763 -0.8813
  757MPD2    C411184   1.812   2.333   9.714 -0.1676 -0.4868 -0.3093
  757MPD2    C511185   1.789   2.241   9.810  0.3750 -0.1469  0.1974
  757MPD2     H11186   2.139   2.350   9.775 -0.1182 -0.0679 -1.1896
  757MPD2    H111187   1.734   2.377   9.653  0.3880  1.6168  0.4930
  757MPD2    H211188   1.852   2.083   9.936 -0.0332 -2.1941 -1.4617
  757MPD2    H311189   1.686   2.221   9.837  0.4280 -0.6363  0.0273
  757MPD2     N11190   1.975   2.493   9.627  0.3813  0.2156  0.0710
  757MPD2    H511191   2.062   2.540   9.646  0.1797  0.1919  1.0529
  757MPD2    N111192   2.104   2.126   9.934  0.5517 -0.1384 -0.4417
  757MPD2    H711193   2.065   2.036   9.962  0.5830 -0.1288 -0.3678
  758MPD2     C11194   2.181   1.134  16.479  0.7308  0.0644 -0.3031
  758MPD2    C111195   2.241   1.198  16.583 -0.3303  0.1515 -0.3618
  758MPD2    C211196   2.176   1.307  16.631 -0.4140 -0.2015  0.1914
  758MPD2    C311197   2.057   1.353  16.574 -0.1766 -0.0315  0.1390
  758MPD2    C411198   2.009   1.297  16.462 -0.5260 -0.6703  0.5617
  758MPD2    C511199   2.078   1.188  16.409  0.5376  0.0141 -0.4392
  758MPD2     H11200   2.219   1.350  16.721 -1.0278 -0.9523  0.8419
  758MPD2    H111201   1.914   1.328  16.421  0.3943  1.2282 -0.1155
  758MPD2    H211202   2.233   1.044  16.448  0.1596 -0.1707 -0.5824
  758MPD2    H311203   2.041   1.140  16.318  0.2860  0.6124 -0.6548
  758MPD2     N11204   1.984   1.459  16.632 -0.0333  0.0688  0.6379
  758MPD2    H511205   1.887   1.468  16.604 -0.1020 -1.4202  0.4192
  758MPD2    N111206   2.361   1.152  16.631  0.4999 -0.1458 -0.4697
  758MPD2    H711207   2.412   1.087  16.573  1.2928  0.3865 -0.3580
  759MPD2     C11208   1.337   4.648   9.907 -0.2704 -0.9071  0.3374
  759MPD2    C111209   1.270   4.542   9.844 -0.8591  0.3153  0.3076
  759MPD2    C211210   1.277   4.526   9.711  0.0136 -0.3310 -0.0316
  759MPD2    C311211   1.348   4.612   9.631  0.0864 -0.9224 -0.0216
  759MPD2    C411212   1.420   4.714   9.686  0.1853  0.2118 -0.3836
  759MPD2    C511213   1.420   0.005   9.823  0.4150  0.3355 -0.5072
  759MPD2     H11214   1.220   4.451   9.659  0.2531 -0.4425 -0.1337
  759MPD2    H111215   1.478   0.054   9.620  1.8834 -1.1846 -0.2130
  759MPD2    H211216   1.352   4.658  10.014 -1.4453 -1.9198  0.5947
  759MPD2    H311217   1.488   0.080   9.861 -1.0763  0.8886  1.0208
  759MPD2     N11218   1.347   4.582   9.493  0.7584  0.1939 -0.1117
  759MPD2    H511219   1.287   4.510   9.454 -0.2911  0.7677  0.4393
  759MPD2    N111220   1.177   4.457   9.916  0.2783 -0.2047  0.8112
  759MPD2    H711221   1.110   4.406   9.859 -1.4777  2.3841  0.5764
  760MPD2     C11222   1.089   2.052  12.153  0.3376 -0.1680 -0.3066
  760MPD2    C111223   1.213   2.049  12.085 -0.3656 -0.2687  0.0130
  760MPD2    C211224   1.266   1.925  12.048  0.2451  0.0662  0.1159
  760MPD2    C311225   1.206   1.805  12.089  0.5665  0.5389  0.3180
  760MPD2    C411226   1.097   1.817  12.167  0.2213  0.1673 -0.0174
  760MPD2    C511227   1.035   1.938  12.195 -0.3130  0.0852 -0.2007
  760MPD2     H11228   1.359   1.928  11.992  0.1275  1.8987  0.0019
  760MPD2    H111229   1.058   1.719  12.195  1.3107 -0.0339  0.8037
  760MPD2    H211230   1.037   2.143  12.182  0.4110 -0.3093  0.2625
  760MPD2    H311231   0.939   1.949  12.243  0.1291 -1.8523  1.1272
  760MPD2     N11232   1.262   1.677  12.062  0.9948 -0.2309 -0.7312
  760MPD2    H511233   1.220   1.591  12.097  0.6815  0.0467 -0.4185
  760MPD2    N111234   1.283   2.165  12.036 -0.2473  0.3745 -0.2170
  760MPD2    H711235   1.375   2.151  11.995  0.1738  0.8723  0.5508
  761MPD2     C11236   2.248   1.265  11.445  0.4318 -0.7200 -0.1050
  761MPD2    C111237   2.314   1.195  11.349  0.4894 -0.1454  0.3915
  761MPD2    C211238   2.430   1.253  11.297 -0.6467  0.3614  0.4264
  761MPD2    C311239   2.462   1.386  11.321  0.4130 -0.3460  0.3359
  761MPD2    C411240   2.391   1.460  11.410  0.1478 -0.1940  0.7831
  761MPD2    C511241   2.288   1.394  11.475  0.1557  0.1295 -0.4214
  761MPD2     H11242   2.495   1.185  11.243 -0.8413  1.7091 -1.4778
  761MPD2    H111243   2.418   1.561  11.438  0.0913  0.1059 -0.2307
  761MPD2    H211244   2.162   1.220  11.493 -0.5781 -0.6588 -1.8548
  761MPD2    H311245   2.239   1.452  11.553  0.9262 -1.3332  1.1464
  761MPD2     N11246   2.558   1.454  11.241 -0.0543 -0.6788  0.4306
  761MPD2    H511247   2.566   1.553  11.260  0.9310 -1.2573  3.0342
  761MPD2    N111248   2.275   1.063  11.325  0.3874 -0.1997  0.2616
  761MPD2    H711249   2.200   1.020  11.378  0.3166 -0.6508 -0.2022
  762MPD2     C11250   2.696   0.988  10.962 -0.2092 -0.0790  0.2463
  762MPD2    C111251   2.639   0.871  10.907  0.9727 -0.1515  0.2368
  762MPD2    C211252   2.726   0.789  10.839 -0.5152  0.5439  0.2583
  762MPD2    C311253   2.865   0.813  10.817 -0.8581  0.3927  0.3569
  762MPD2    C411254   2.913   0.932  10.866 -0.7622 -0.2888 -0.6438
  762MPD2    C511255   2.826   1.024  10.921 -0.0989  0.2521 -0.3753
  762MPD2     H11256   2.687   0.694  10.803  0.5092  0.3274 -0.2893
  762MPD2    H111257   3.012   0.964  10.835 -0.2974  0.5402  1.6906
  762MPD2    H211258   2.641   1.056  11.025 -0.4942  0.3127 -0.4219
  762MPD2    H311259   2.864   1.122  10.948 -1.7354  0.4960  1.0393
  762MPD2     N11260   2.947   0.722  10.729  0.3138 -0.5317  0.4231
  762MPD2    H511261   2.896   0.636  10.709 -0.0232 -0.3096  0.3181
  762MPD2    N111262   2.501   0.843  10.948 -0.0657 -0.6340 -0.0370
  762MPD2    H711263   2.460   0.916  11.005  2.1705 -2.0649  3.4133
  763MPD2     C11264   4.248   1.835  16.292  0.7347 -0.2297 -0.7014
  763MPD2    C111265   4.120   1.880  16.274 -0.1631  0.2153 -0.1091
  763MPD2    C211266   4.065   1.975  16.361  0.2701  0.1803 -0.1178
  763MPD2    C311267   4.141   2.012  16.471  0.4629  0.5111 -0.2841
  763MPD2    C411268   4.277   1.975  16.474  0.4490 -0.1727  0.0228
  763MPD2    C511269   4.324   1.877  16.392  0.7260 -0.3385  0.1654
  763MPD2     H11270   3.963   2.007  16.339 -0.5454 -2.2720  0.0877
  763MPD2    H111271   4.344   2.022  16.545 -0.8974  2.6792 -0.5496
  763MPD2    H211272   4.299   1.780  16.213  0.2394  1.1625 -2.0097
  763MPD2    H311273   4.427   1.843  16.383  0.5543 -0.5961 -0.8010
  763MPD2     N11274   4.094   2.105  16.574  0.5238 -0.3178 -0.2365
  763MPD2    H511275   4.161   2.142  16.641  1.4109 -0.2059 -1.1810
  763MPD2    N111276   4.048   1.824  16.163 -0.0139  0.7306  0.2973
  763MPD2    H711277   3.957   1.860  16.135 -0.2811  0.6931  1.0987
  764MPD2     C11278   2.457   3.584  17.664 -0.0883  0.6857  0.1999
  764MPD2    C111279   2.389   3.481  17.603  0.2845 -0.6871  0.0196
  764MPD2    C211280   2.349   3.379  17.683  0.0970 -0.0130  0.0863
  764MPD2    C311281   2.381   3.374   0.122  0.8894 -0.0648 -0.1747
  764MPD2    C411282   2.435   3.491   0.184 -0.1825  0.0710 -0.0316
  764MPD2    C511283   2.472   3.589   0.103  0.3274  0.3920  0.1023
  764MPD2     H11284   2.285   3.300  17.646  2.1096 -0.2855 -2.7979
  764MPD2    H111285   2.449   3.489   0.292 -1.1856 -1.5811  0.0744
  764MPD2    H211286   2.489   3.667  17.601  0.0306 -1.6768 -2.8520
  764MPD2    H311287   2.536   3.669   0.140  0.7549  0.4971 -0.8625
  764MPD2     N11288   2.338   3.263   0.197  0.3195  0.0935 -0.9227
  764MPD2    H511289   2.282   3.193   0.150  0.0873  0.8302 -1.7307
  764MPD2    N111290   2.353   3.481  17.467 -0.6241 -0.1648 -0.8665
  764MPD2    H711291   2.298   3.401  17.436 -2.0217  0.4802 -0.0837
  765MPD2     C11292   1.611   0.776  15.681 -0.7062 -0.2129  0.4969
  765MPD2    C111293   1.642   0.875  15.771  0.0519  0.2737 -0.3902
  765MPD2    C211294   1.720   0.843  15.879  0.2380  0.5429 -0.0086
  765MPD2    C311295   1.758   0.713  15.909  0.6463 -0.1145  0.2678
  765MPD2    C411296   1.712   0.614  15.821 -0.0765 -0.8546  0.5942
  765MPD2    C511297   1.647   0.651  15.713 -0.3673 -0.7561 -0.2080
  765MPD2     H11298   1.755   0.923  15.942  1.1456 -1.3974  1.9526
  765MPD2    H111299   1.738   0.509  15.831  0.7183 -0.6675  0.5395
  765MPD2    H211300   1.546   0.789  15.596  0.3526 -0.9836 -0.4300
  765MPD2    H311301   1.605   0.589  15.635  0.4341 -2.5027  0.7635
  765MPD2     N11302   1.842   0.701  16.019  0.1505 -0.2132 -0.5811
  765MPD2    H511303   1.863   0.788  16.067  0.8891 -0.6460 -0.1053
  765MPD2    N111304   1.588   1.000  15.745 -0.2727 -0.1900  0.2805
  765MPD2    H711305   1.553   1.014  15.651 -1.4887 -0.7755  0.6531
  766MPD2     C11306   1.125   1.201  15.320 -0.5338  0.4304  0.0143
  766MPD2    C111307   1.263   1.205  15.334 -0.2010  0.5497 -0.3803
  766MPD2    C211308   1.341   1.188  15.219  0.7312  0.6729 -0.5367
  766MPD2    C311309   1.285   1.161  15.093 -0.5316  0.6563  0.2723
  766MPD2    C411310   1.153   1.138  15.093  0.5089  0.2782  0.2488
  766MPD2    C511311   1.071   1.155  15.204 -0.7934  0.1330  0.3763
  766MPD2     H11312   1.447   1.199  15.234  0.7973 -2.7640  1.4913
  766MPD2    H111313   1.102   1.105  15.003  1.4919 -0.0296 -0.1978
  766MPD2    H211314   1.065   1.225  15.407  0.6489 -0.2716  1.0447
  766MPD2    H311315   0.964   1.142  15.189 -0.2771 -3.0513 -0.5695
  766MPD2     N11316   1.363   1.155  14.973 -0.1615  0.6522  0.5878
  766MPD2    H511317   1.309   1.136  14.889  0.6550  2.3500 -0.3186
  766MPD2    N111318   1.328   1.251  15.448 -0.5480 -0.3582  0.7059
  766MPD2    H711319   1.428   1.237  15.459 -0.2957  2.4645  1.8211
  767MPD2     C11320   1.035   1.438  15.047 -0.2895  0.4249 -0.0678
  767MPD2    C111321   1.160   1.459  15.000 -0.3698  0.8152  0.6554
  767MPD2    C211322   1.186   1.434  14.867 -1.0772 -0.8975 -0.7463
  767MPD2    C311323   1.088   1.389  14.782  0.3287  0.2306 -0.2595
  767MPD2    C411324   0.970   1.352  14.840 -0.2186  0.3486  0.3769
  767MPD2    C511325   0.941   1.382  14.971  0.0503  0.3402  0.3200
  767MPD2     H11326   1.282   1.466  14.828 -0.3465 -1.6622  0.4366
  767MPD2    H111327   0.886   1.315  14.782 -0.5888  2.3417 -0.3533
  767MPD2    H211328   1.015   1.451  15.153 -2.6595  1.8871 -0.7103
  767MPD2    H311329   0.849   1.353  15.022 -1.6568  1.4038 -2.1658
  767MPD2     N11330   1.122   1.367  14.646  0.4325  0.1868  0.4139
  767MPD2    H511331   1.215   1.402  14.624 -0.2021  2.2620  1.0112
  767MPD2    N111332   1.251   1.505  15.096  0.1581 -0.1950  0.5062
  767MPD2    H711333   1.210   1.506  15.189  0.4304 -1.0534  0.6358
  768MPD2     C11334   2.245   3.848  10.961 -0.0742  0.2624 -0.1238
  768MPD2    C111335   2.245   3.989  10.976  0.6978  0.0216 -0.8784
  768MPD2    C211336   2.348   4.050  11.047  0.0137 -0.7147 -1.1167
  768MPD2    C311337   2.438   3.976  11.114  0.5975 -0.2901 -0.0273
  768MPD2    C411338   2.442   3.842  11.101  0.0072 -0.9411  0.6755
  768MPD2    C511339   2.344   3.778  11.027  0.3279 -0.6340  0.2134
  768MPD2     H11340   2.348   4.158  11.046 -1.3641 -0.7038  0.9867
  768MPD2    H111341   2.521   3.788  11.151 -2.0275 -1.6581  3.1421
  768MPD2    H211342   2.168   3.793  10.907 -0.3945 -0.3523  0.9680
  768MPD2    H311343   2.334   3.672  11.008 -1.0300 -0.5171  0.3179
  768MPD2     N11344   2.533   4.033  11.202 -0.0595  0.0310 -0.5734
  768MPD2    H511345   2.587   3.972  11.262  1.1342  1.5475 -0.0934
  768MPD2    N111346   2.149   4.069  10.908 -0.3838  0.5305  0.4580
  768MPD2    H711347   2.149   4.167  10.931 -0.7282 -0.1486  3.3546
  769MPD2     C11348   3.320   2.568  14.847 -0.4341  0.2038 -0.0892
  769MPD2    C111349   3.220   2.520  14.925 -0.0897 -0.2195 -0.2746
  769MPD2    C211350   3.201   2.559  15.062 -0.5450 -0.2155  0.1539
  769MPD2    C311351   3.276   2.659  15.122 -0.4898  0.1792 -0.3424
  769MPD2    C411352   3.392   2.700  15.048 -0.0976 -0.6581  0.9887
  769MPD2    C511353   3.409   2.653  14.918 -0.1474 -0.2218 -0.2179
  769MPD2     H11354   3.129   2.501  15.120 -0.8743  1.8514  1.8225
  769MPD2    H111355   3.461   2.766  15.100  0.0974  0.4499 -0.6594
  769MPD2    H211356   3.351   2.529  14.751  0.2890 -0.2475  0.3297
  769MPD2    H311357   3.496   2.691  14.866  0.2870 -1.1462 -0.1793
  769MPD2     N11358   3.243   2.707  15.249 -0.3104 -0.1956  0.1341
  769MPD2    H511359   3.170   2.663  15.304 -1.7223  2.0632  0.0322
  769MPD2    N111360   3.134   2.429  14.860  0.4713 -0.3861 -0.3425
  769MPD2    H711361   3.146   2.424  14.760  0.4630  2.1368 -0.4789
  770MPD2     C11362   2.813   1.538  15.150  0.5906 -0.2451  0.6298
  770MPD2    C111363   2.761   1.647  15.206 -0.5024 -0.2347 -0.0162
  770MPD2    C211364   2.750   1.764  15.132 -0.4426  0.3158  0.5296
  770MPD2    C311365   2.813   1.774  15.015 -0.9822 -0.3430 -0.0200
  770MPD2    C411366   2.873   1.664  14.962  0.1727 -0.1382 -0.9719
  770MPD2    C511367   2.875   1.546  15.030 -0.0564  0.2780 -0.0995
  770MPD2     H11368   2.702   1.853  15.172 -1.1798 -0.3890  1.2149
  770MPD2    H111369   2.925   1.679  14.867  1.4763  0.5037 -0.1556
  770MPD2    H211370   2.815   1.442  15.201 -1.3296 -0.2820  0.6326
  770MPD2    H311371   2.930   1.462  14.991 -1.8082 -1.3140  0.8295
  770MPD2     N11372   2.814   1.898  14.955 -0.4104  0.0645  0.6790
  770MPD2    H511373   2.776   1.973  15.012  0.0128  0.2205  0.7523
  770MPD2    N111374   2.708   1.631  15.334 -0.0151  0.1499  0.6385
  770MPD2    H711375   2.732   1.546  15.384  1.1024  0.9439  1.4523
  771MPD2     C11376   3.988   0.334  13.932 -0.6028 -1.5685  0.4693
  771MPD2    C111377   3.949   0.459  13.890  0.6944 -0.8112 -0.1838
  771MPD2    C211378   3.844   0.473  13.796  0.4671 -0.1426 -0.1327
  771MPD2    C311379   3.786   0.365  13.736  0.3154  0.2955  0.3867
  771MPD2    C411380   3.836   0.240  13.771 -0.0345  0.0826  0.4402
  771MPD2    C511381   3.922   0.227  13.875  0.4324 -0.7334  0.0465
  771MPD2     H11382   3.825   0.576  13.768  0.4296 -0.3255 -0.7868
  771MPD2    H111383   3.806   0.146  13.728 -1.3120  0.4742  0.4902
  771MPD2    H211384   4.057   0.323  14.015 -0.0454  1.2163  0.3784
  771MPD2    H311385   3.946   0.124  13.897  0.7107 -0.4520  1.0768
  771MPD2     N11386   3.688   0.391  13.636 -0.4713 -0.2202 -1.3280
  771MPD2    H511387   3.672   0.489  13.614  0.0925 -0.2503 -1.8761
  771MPD2    N111388   4.001   0.577  13.942  0.2365 -0.4739 -0.4127
  771MPD2    H711389   3.951   0.665  13.934 -3.1055 -2.3727 -0.4348
  772MPD2     C11390   3.729   1.230  14.110 -0.0268  0.2185  0.3190
  772MPD2    C111391   3.717   1.090  14.107  0.0426 -0.1809  0.3443
  772MPD2    C211392   3.598   1.031  14.077 -0.6420 -0.1662 -0.2224
  772MPD2    C311393   3.490   1.115  14.064  0.6589 -0.3956 -0.4082
  772MPD2    C411394   3.495   1.253  14.061  0.0192 -0.2764  0.6422
  772MPD2    C511395   3.620   1.307  14.083  0.3233 -0.3264 -0.2413
  772MPD2     H11396   3.591   0.923  14.063  0.2007 -0.1368 -0.9158
  772MPD2    H111397   3.404   1.312  14.062 -0.2823 -0.7373  0.8675
  772MPD2    H211398   3.826   1.277  14.119 -0.0876  0.4426 -0.1746
  772MPD2    H311399   3.630   1.415  14.079  1.8235 -0.5087 -1.3936
  772MPD2     N11400   3.356   1.061  14.066 -0.3221 -0.1629 -0.1449
  772MPD2    H511401   3.276   1.123  14.072 -0.8443 -0.9283  0.7970
  772MPD2    N111402   3.826   1.002  14.104  0.0699 -0.4439 -0.0711
  772MPD2    H711403   3.815   0.909  14.064 -1.7032 -0.8533  1.3798
  773MPD2     C11404   2.879   1.956   0.792  0.4633  0.1608 -0.4328
  773MPD2    C111405   2.764   1.891   0.767 -0.5041  0.2307  0.3744
  773MPD2    C211406   2.741   1.770   0.822  0.7339 -0.5772 -0.0167
  773MPD2    C311407   2.837   1.698   0.888 -0.0908  0.5273 -0.8463
  773MPD2    C411408   2.961   1.761   0.915  0.3583 -0.0866 -0.0570
  773MPD2    C511409   2.976   1.894   0.875  0.2140 -0.3668  0.8701
  773MPD2     H11410   2.650   1.711   0.813  0.1030  0.5958 -1.2613
  773MPD2    H111411   3.040   1.721   0.978  0.2772  0.2655  0.2630
  773MPD2    H211412   2.908   2.055   0.759  1.4524 -0.6321 -1.9434
  773MPD2    H311413   3.076   1.934   0.888  0.3742 -1.0202  1.6708
  773MPD2     N11414   2.804   1.565   0.930  0.0773  0.1798 -0.2725
  773MPD2    H511415   2.716   1.528   0.896 -0.4508  1.6432 -0.5077
  773MPD2    N111416   2.670   1.953   0.681 -0.3703 -0.2264 -0.0074
  773MPD2    H711417   2.580   1.907   0.670 -0.5740  0.0394  0.5123
  774MPD2     C11418   2.282   0.561  13.513  0.0435  0.1555 -0.9531
  774MPD2    C111419   2.203   0.637  13.595  0.0780 -0.0994  0.5839
  774MPD2    C211420   2.194   0.770  13.572  1.0776 -0.4454 -0.4923
  774MPD2    C311421   2.267   0.825  13.469  0.9756 -0.3640  0.0426
  774MPD2    C411422   2.354   0.748  13.390  0.2548 -0.6380 -0.1367
  774MPD2    C511423   2.360   0.613  13.414 -0.8166  0.2433  0.8509
  774MPD2     H11424   2.142   0.830  13.647  1.7246 -0.6681  0.1360
  774MPD2    H111425   2.425   0.791  13.320  0.1567 -1.8444 -0.9620
  774MPD2    H211426   2.295   0.455  13.533 -1.0911  0.0288 -0.8954
  774MPD2    H311427   2.419   0.541  13.359  1.1933  1.0149  1.9933
  774MPD2     N11428   2.269   0.964  13.460 -0.3054 -0.2312 -0.2849
  774MPD2    H511429   2.226   1.010  13.539  2.0386  1.9764 -0.2814
  774MPD2    N111430   2.155   0.572  13.708 -0.0707  0.5409 -0.2550
  774MPD2    H711431   2.192   0.478  13.715 -0.2379  0.3365 -1.9686
  775MPD2     C11432   3.466   2.599  15.875 -0.4872  0.1864  0.1822
  775MPD2    C111433   3.438   2.734  15.909 -0.1107  0.0134 -0.5088
  775MPD2    C211434   3.524   2.821  15.848 -0.0881  0.2749 -0.1912
  775MPD2    C311435   3.623   2.784  15.759  0.3369 -0.4201 -0.4384
  775MPD2    C411436   3.629   2.655  15.708  0.4271  0.0153  0.1149
  775MPD2    C511437   3.548   2.569  15.775 -0.2393  0.5312  0.3627
  775MPD2     H11438   3.503   2.927  15.861  0.5012  0.0214  2.6785
  775MPD2    H111439   3.702   2.630  15.632 -1.3573  4.2099 -3.0007
  775MPD2    H211440   3.397   2.526  15.917  0.6081 -1.0451 -0.1542
  775MPD2    H311441   3.559   2.463  15.756 -0.3949  0.3428  1.3344
  775MPD2     N11442   3.720   2.868  15.704 -0.4457  0.2944 -0.4750
  775MPD2    H511443   3.785   2.830  15.636 -1.0447 -0.6633 -0.5160
  775MPD2    N111444   3.325   2.758  15.996  0.0395  0.8501  0.2002
  775MPD2    H711445   3.286   2.676  16.040  1.1550  0.5956  0.7045
  776MPD2     C11446   3.560   2.628  11.519  0.8442 -0.2213 -0.5561
  776MPD2    C111447   3.428   2.638  11.550 -1.0512  0.4584 -0.0910
  776MPD2    C211448   3.373   2.768  11.540  0.2392  0.0146  0.7128
  776MPD2    C311449   3.456   2.879  11.494 -0.2226  0.5073 -0.2743
  776MPD2    C411450   3.586   2.851  11.458  0.9672 -0.1287 -0.3361
  776MPD2    C511451   3.638   2.733  11.474  0.5193 -0.2456  0.3810
  776MPD2     H11452   3.270   2.796  11.558  0.6906  1.7077  0.6264
  776MPD2    H111453   3.658   2.926  11.428  1.0310 -0.0973 -0.1105
  776MPD2    H211454   3.613   2.534  11.533  2.3516  0.5791 -0.8815
  776MPD2    H311455   3.743   2.709  11.457 -0.6486 -2.5054 -3.5831
  776MPD2     N11456   3.411   3.012  11.485  0.1045  0.5916 -0.6099
  776MPD2    H511457   3.480   3.081  11.457  1.7282 -1.1572 -0.9396
  776MPD2    N111458   3.360   2.517  11.576  0.1221 -0.9295 -0.9545
  776MPD2    H711459   3.423   2.441  11.602  0.0249 -0.6191  0.1368
  777MPD2     C11460   2.926   0.867   1.591  0.1527  0.4781  0.1003
  777MPD2    C111461   2.800   0.930   1.584 -0.1546  0.7754  0.0685
  777MPD2    C211462   2.698   0.859   1.525  0.2134 -0.2770  0.5559
  777MPD2    C311463   2.728   0.739   1.458  0.5767 -0.2293 -0.0593
  777MPD2    C411464   2.851   0.680   1.470 -0.0656  0.3136  0.2304
  777MPD2    C511465   2.952   0.750   1.535  0.1695 -0.3940 -0.3419
  777MPD2     H11466   2.595   0.892   1.525 -0.2581 -1.7048 -0.4276
  777MPD2    H111467   2.878   0.583   1.431  3.0248  1.5512 -0.7146
  777MPD2    H211468   3.000   0.915   1.653 -1.5670  2.6700  0.4585
  777MPD2    H311469   3.046   0.702   1.555  1.5365  1.1504 -3.0595
  777MPD2     N11470   2.619   0.672   1.394 -0.7735 -0.0088 -0.6063
  777MPD2    H511471   2.527   0.714   1.398 -0.1558  1.4921 -1.9358
  777MPD2    N111472   2.780   1.054   1.642 -0.4076 -0.2945 -0.2634
  777MPD2    H711473   2.854   1.089   1.702  1.3102  0.1905 -2.6561
  778MPD2     C11474   3.922   0.722  15.334  0.3839  0.0109 -0.6556
  778MPD2    C111475   3.894   0.652  15.215  0.5480 -0.6653 -0.0474
  778MPD2    C211476   3.881   0.723  15.095  0.7794 -0.1450 -0.3711
  778MPD2    C311477   3.897   0.859  15.086 -0.5369 -0.3068 -0.2005
  778MPD2    C411478   3.932   0.927  15.204 -0.3502  0.6381 -0.3690
  778MPD2    C511479   3.927   0.860  15.327  0.5661 -0.0739 -0.5805
  778MPD2     H11480   3.855   0.671  15.004 -2.2057  2.5286 -1.0700
  778MPD2    H111481   3.958   1.032  15.205 -0.5190  0.6896 -1.4274
  778MPD2    H211482   3.934   0.679  15.432 -1.1672  1.7994  0.3255
  778MPD2    H311483   3.939   0.915  15.419  4.1695  0.1468 -1.1837
  778MPD2     N11484   3.871   0.921  14.959 -0.5664 -0.0342  0.0021
  778MPD2    H511485   3.838   0.855  14.888  2.0077 -0.6759 -0.5837
  778MPD2    N111486   3.890   0.510  15.206 -0.1434 -0.1863 -0.0643
  778MPD2    H711487   3.863   0.469  15.117  1.6744  3.0610 -2.1319
  779MPD2     C11488   3.402   4.182  14.278  1.0218  0.3484  0.4250
  779MPD2    C111489   3.521   4.224  14.217 -0.1777  0.0236  0.3604
  779MPD2    C211490   3.547   4.360  14.225  0.1116  0.4159 -0.7460
  779MPD2    C311491   3.461   4.440  14.289 -0.3888  0.2826 -0.5075
  779MPD2    C411492   3.348   4.405  14.349  0.0872  0.4270  0.2000
  779MPD2    C511493   3.322   4.272  14.342 -0.0271 -0.3550 -0.1655
  779MPD2     H11494   3.639   4.397  14.182  1.7524  0.3945  2.7379
  779MPD2    H111495   3.280   4.473  14.399 -0.5874  0.3864 -0.6557
  779MPD2    H211496   3.377   4.076  14.279  0.9055  0.3659 -0.6439
  779MPD2    H311497   3.234   4.240  14.397  0.4606 -0.0808  0.7838
  779MPD2     N11498   3.500   4.569  14.287  0.2246 -0.0112  0.0423
  779MPD2    H511499   3.570   4.598  14.219  1.1628 -0.9489  0.6002
  779MPD2    N111500   3.608   4.121  14.164  0.1208  0.6519 -0.3659
  779MPD2    H711501   3.576   4.025  14.164 -0.6403  0.9187  2.3014
  780MPD2     C11502   3.130   3.940   1.051  0.4018 -0.3223  0.1868
  780MPD2    C111503   3.013   4.016   1.069 -0.2914 -0.1737 -0.6475
  780MPD2    C211504   2.974   4.096   0.962  0.8864  0.0049 -0.3829
  780MPD2    C311505   3.053   4.108   0.848 -0.1374  1.0794 -0.5154
  780MPD2    C411506   3.162   4.025   0.836  0.2767 -0.2617  0.4639
  780MPD2    C511507   3.195   3.936   0.931 -0.5528 -0.1958 -0.2536
  780MPD2     H11508   2.881   4.150   0.972 -0.8346 -2.5212 -2.4793
  780MPD2    H111509   3.224   4.026   0.748 -0.2624  1.2874  0.0858
  780MPD2    H211510   3.170   3.873   1.127 -0.5375 -1.2511 -0.1233
  780MPD2    H311511   3.286   3.879   0.918 -0.6565 -0.5445  0.5489
  780MPD2     N11512   3.004   4.191   0.742 -0.1952 -0.5510  0.2140
  780MPD2    H511513   2.912   4.233   0.748 -0.8540 -2.0815  0.7958
  780MPD2    N111514   2.946   4.003   1.193  0.9560 -0.5999 -0.0461
  780MPD2    H711515   2.996   3.955   1.268  1.1080  0.0619  0.2780
  781MPD2     C11516   0.695   0.911  11.918  0.3291 -0.0001  0.1291
  781MPD2    C111517   0.791   0.863  12.007  0.0620 -0.1356  0.4843
  781MPD2    C211518   0.922   0.845  11.960 -0.9075  0.4264  0.4597
  781MPD2    C311519   0.956   0.882  11.828 -0.0791 -0.1097 -0.3662
  781MPD2    C411520   0.854   0.935  11.747  0.4050 -0.1747  0.1784
  781MPD2    C511521   0.727   0.953  11.796 -0.0819  0.2620  0.2102
  781MPD2     H11522   1.000   0.803  12.024 -0.9781  1.8312  1.4787
  781MPD2    H111523   0.880   0.977  11.651 -1.6932 -0.0931 -0.3641
  781MPD2    H211524   0.590   0.926  11.941  0.5466  1.9874 -0.1949
  781MPD2    H311525   0.647   0.987  11.730 -1.4432  1.0683  2.2795
  781MPD2     N11526   1.085   0.864  11.774 -0.7655  0.0547 -0.3820
  781MPD2    H511527   1.092   0.888  11.675  2.8999  2.3571  0.4292
  781MPD2    N111528   0.755   0.830  12.143 -0.4155 -0.3437 -0.4654
  781MPD2    H711529   0.831   0.786  12.195 -1.4488 -0.0542  1.2883
  782MPD2     C11530   3.417   1.518   9.925  0.4716 -1.0938  0.4655
  782MPD2    C111531   3.484   1.443  10.020  0.1154  0.5055  0.3854
  782MPD2    C211532   3.564   1.509  10.111  0.8504  0.3365 -0.7955
  782MPD2    C311533   3.563   1.647  10.125  0.0694 -0.1882  0.1779
  782MPD2    C411534   3.489   1.722  10.042  0.0082  0.3991  0.5121
  782MPD2    C511535   3.412   1.659   9.946 -0.5850  0.1144 -0.2052
  782MPD2     H11536   3.621   1.444  10.177 -0.0040  1.9346  1.5207
  782MPD2    H111537   3.486   1.829  10.054  2.2871  0.3143  1.7222
  782MPD2    H211538   3.351   1.474   9.851 -1.1283  1.5091  0.3122
  782MPD2    H311539   3.352   1.720   9.880 -0.5024 -1.7138 -1.9806
  782MPD2     N11540   3.650   1.714  10.221 -0.0598 -0.4417 -0.3083
  782MPD2    H511541   3.674   1.812  10.208  0.7361 -0.7084 -0.8247
  782MPD2    N111542   3.475   1.301  10.036  0.2736  0.1719  0.1262
  782MPD2    H711543   3.542   1.249  10.092 -3.2232 -2.5928  1.7132
  783MPD2     C11544   2.774   1.093  10.611 -0.1985  0.4278 -0.4050
  783MPD2    C111545   2.872   1.183  10.633  0.2762  0.2824 -0.4105
  783MPD2    C211546   2.991   1.171  10.557  0.0638  0.0565 -0.3127
  783MPD2    C311547   3.000   1.070  10.456 -0.3323  0.1148 -0.2395
  783MPD2    C411548   2.897   0.983  10.433 -0.6403 -0.6284  0.4896
  783MPD2    C511549   2.795   0.990  10.516 -0.3514 -0.8601  0.1477
  783MPD2     H11550   3.075   1.238  10.571  0.5672 -0.5441 -0.4775
  783MPD2    H111551   2.882   0.912  10.353 -1.8974 -0.5814  0.6711
  783MPD2    H211552   2.678   1.091  10.662 -0.9814 -0.8689 -1.9273
  783MPD2    H311553   2.716   0.917  10.505  0.5861 -1.8449 -0.0359
  783MPD2     N11554   3.127   1.056  10.382  0.0341  0.5363  0.0395
  783MPD2    H511555   3.191   1.127  10.415  1.0495 -1.0842  1.5905
  783MPD2    N111556   2.840   1.289  10.724  0.8118 -0.0428  0.3783
  783MPD2    H711557   2.759   1.277  10.784 -0.7498  0.8520 -1.5550
  784MPD2     C11558   0.439   3.203   1.084 -0.2272 -0.1846  0.0453
  784MPD2    C111559   0.357   3.098   1.129  0.3782  0.3110 -0.8243
  784MPD2    C211560   0.240   3.068   1.055  0.0941 -0.1880 -0.3639
  784MPD2    C311561   0.195   3.157   0.960  0.3381  0.6281 -1.0149
  784MPD2    C411562   0.271   3.264   0.925  0.6155  0.3394  0.4726
  784MPD2    C511563   0.392   3.281   0.983 -0.4972 -0.2646 -0.1970
  784MPD2     H11564   0.171   2.992   1.091  1.1818  0.0508  2.2411
  784MPD2    H111565   0.243   3.341   0.854 -0.5843 -0.9967 -0.5026
  784MPD2    H211566   0.534   3.212   1.135 -0.3196  1.1129 -0.0218
  784MPD2    H311567   0.457   3.359   0.945  2.6504 -2.5353  0.4970
  784MPD2     N11568   0.064   3.142   0.920 -0.1967  0.2542  0.3139
  784MPD2    H511569   0.019   3.055   0.947 -0.4468 -0.0253 -0.9961
  784MPD2    N111570   0.391   3.028   1.243  0.0784  0.1341 -0.0017
  784MPD2    H711571   0.317   2.972   1.283  0.6862  0.3254  1.4166
  785MPD2     C11572   1.522   0.327  10.247 -0.1659 -0.4722 -0.2366
  785MPD2    C111573   1.471   0.348  10.370 -0.0877  0.1776 -0.5490
  785MPD2    C211574   1.335   0.335  10.389 -0.1723  0.8606 -0.3906
  785MPD2    C311575   1.254   0.293  10.285  0.1136 -0.2960  0.3380
  785MPD2    C411576   1.309   0.266  10.163  0.3981 -0.2362 -0.1091
  785MPD2    C511577   1.439   0.290  10.141 -0.5681 -0.0101 -0.7451
  785MPD2     H11578   1.292   0.367  10.483 -0.1415  0.6079 -0.2919
  785MPD2    H111579   1.251   0.259  10.072 -0.6472 -0.0269  0.5483
  785MPD2    H211580   1.628   0.335  10.232  0.4434 -0.9578  3.7008
  785MPD2    H311581   1.472   0.298  10.038  2.8459  0.3197  0.3740
  785MPD2     N11582   1.115   0.288  10.314  0.1638 -0.5530 -0.3274
  785MPD2    H511583   1.092   0.334  10.402 -0.3535 -3.0952  0.8866
  785MPD2    N111584   1.541   0.397  10.487 -0.4648 -0.0386 -0.5414
  785MPD2    H711585   1.490   0.412  10.574  0.0947  1.0377 -0.4024
  786MPD2     C11586   3.955   3.629  14.691  0.0860  0.0913 -0.5037
  786MPD2    C111587   4.058   3.544  14.720  1.1517  0.3316  0.0020
  786MPD2    C211588   4.087   3.523  14.851  0.1231 -0.4569  0.4995
  786MPD2    C311589   4.024   3.579  14.955 -0.3902 -0.2159  0.2435
  786MPD2    C411590   3.923   3.668  14.929 -0.2908  0.2716  0.0095
  786MPD2    C511591   3.888   3.696  14.798  0.1521 -0.4247 -0.2106
  786MPD2     H11592   4.154   3.439  14.870 -2.6940 -2.3298  2.1254
  786MPD2    H111593   3.861   3.715  15.004 -3.6045  2.6084 -4.2106
  786MPD2    H211594   3.942   3.666  14.590 -1.3271 -2.2222 -1.1656
  786MPD2    H311595   3.803   3.762  14.781  0.0980 -0.8536 -1.6077
  786MPD2     N11596   4.064   3.558  15.090 -0.4696  0.3160  0.7689
  786MPD2    H511597   4.014   3.613  15.159 -2.2342  0.0343 -0.2828
  786MPD2    N111598   4.137   3.473  14.628 -0.3467 -0.5813  0.3543
  786MPD2    H711599   4.207   3.415  14.674  0.1902 -0.9774 -0.9655
  787MPD2     C11600   0.000   3.439  14.766 -0.2975 -0.3289 -0.4586
  787MPD2    C111601   4.697   3.346  14.663 -0.3647 -0.1841 -0.8290
  787MPD2    C211602   0.059   3.237  14.652 -0.4287  0.5277 -0.4630
  787MPD2    C311603   0.171   3.227  14.735  0.0618 -0.0926 -0.4250
  787MPD2    C411604   0.194   3.317  14.836 -0.1844 -0.4908 -0.2287
  787MPD2    C511605   0.107   3.425  14.854  0.1032 -0.0887 -0.2061
  787MPD2     H11606   0.039   3.159  14.579 -0.2169 -0.1048  0.1530
  787MPD2    H111607   0.273   3.305  14.909 -0.1304 -0.4721 -0.2840
  787MPD2    H211608   4.668   3.532  14.764  1.0681  0.4648 -1.1298
  787MPD2    H311609   0.127   3.499  14.930 -2.4346 -0.8678  1.2371
  787MPD2     N11610   0.261   3.118  14.718 -0.4038 -0.4581 -0.2371
  787MPD2    H511611   0.243   3.049  14.645  0.5064  0.7060 -1.5634
  787MPD2    N111612   4.581   3.361  14.585 -0.0853 -0.7801  0.3894
  787MPD2    H711613   4.519   3.428  14.628 -0.9350 -0.1740 -1.7879
  788MPD2     C11614   0.859   1.385   1.437 -0.1014 -0.4576 -0.2326
  788MPD2    C111615   0.854   1.249   1.408  0.2173  0.4150  0.4644
  788MPD2    C211616   0.876   1.207   1.281  0.0930  0.3136  0.3415
  788MPD2    C311617   0.909   1.291   1.177  0.1498 -0.5233 -0.2898
  788MPD2    C411618   0.902   1.425   1.198 -0.1194 -0.1109  0.4441
  788MPD2    C511619   0.885   1.471   1.332 -0.1283 -0.3410 -0.0695
  788MPD2     H11620   0.868   1.100   1.261 -2.3357  0.0938  2.5302
  788MPD2    H111621   0.914   1.495   1.117 -1.1585 -0.2975  0.1274
  788MPD2    H211622   0.847   1.420   1.539  0.2987  1.0535 -0.7014
  788MPD2    H311623   0.874   1.579   1.329  4.3484  0.0921 -0.6939
  788MPD2     N11624   0.919   1.239   1.047 -0.3406 -0.0809 -1.1378
  788MPD2    H511625   0.923   1.308   0.973 -1.5809 -0.1419 -1.2659
  788MPD2    N111626   0.822   1.157   1.505  0.2115 -0.1123  0.2585
  788MPD2    H711627   0.818   1.059   1.480  0.5002  0.3900 -1.7158
  789MPD2     C11628   1.927   1.153  17.038  0.8120 -0.4681 -0.3723
  789MPD2    C111629   1.909   1.129  16.906  0.6643 -1.4646 -0.3532
  789MPD2    C211630   1.799   1.180  16.838 -0.0024 -0.0346  0.2592
  789MPD2    C311631   1.703   1.252  16.907  0.6828 -0.1482 -0.2858
  789MPD2    C411632   1.716   1.266  17.041  1.0193 -0.0283 -0.3579
  789MPD2    C511633   1.830   1.221  17.107  0.4060  1.0582  0.2901
  789MPD2     H11634   1.781   1.152  16.735  0.3959  0.0696  0.1620
  789MPD2    H111635   1.639   1.316  17.100  0.4809 -3.4776  1.8933
  789MPD2    H211636   2.014   1.124  17.095  1.0028 -0.7227 -0.7973
  789MPD2    H311637   1.841   1.232  17.214  0.4946 -1.1969  0.5135
  789MPD2     N11638   1.595   1.316  16.846 -0.4275 -0.1483  0.1105
  789MPD2    H511639   1.533   1.366  16.909  1.8685  0.9190  1.5451
  789MPD2    N111640   2.005   1.050  16.833  0.1069 -0.3755 -0.0324
  789MPD2    H711641   1.982   1.013  16.741  0.6052 -0.6691 -0.0426
  790MPD2     C11642   3.205   3.035  13.615  0.2997 -0.3354  0.2567
  790MPD2    C111643   3.159   2.910  13.582  0.2082  0.0217  0.0299
  790MPD2    C211644   3.077   2.890  13.473  0.5523 -0.4129 -0.3210
  790MPD2    C311645   3.045   2.996  13.396 -0.5085  0.2481  0.1232
  790MPD2    C411646   3.094   3.120  13.428  0.1858  0.0260 -0.0024
  790MPD2    C511647   3.159   3.143  13.545  0.2990 -0.0945  0.0500
  790MPD2     H11648   3.032   2.794  13.452  1.5062 -0.8849 -0.1910
  790MPD2    H111649   3.081   3.203  13.360 -2.2614 -0.3590  0.0115
  790MPD2    H211650   3.275   3.053  13.696 -0.5044 -1.9213  1.3102
  790MPD2    H311651   3.197   3.240  13.573 -0.0141 -0.0890  0.4559
  790MPD2     N11652   2.975   2.969  13.276  0.0633 -0.8241  0.8135
  790MPD2    H511653   2.940   2.875  13.265 -1.5558 -0.2117  0.8380
  790MPD2    N111654   3.193   2.803  13.666 -0.5286 -0.3996  0.3214
  790MPD2    H711655   3.248   2.830  13.747 -1.1068  0.9966  0.2569
  791MPD2     C11656   2.333   3.099  13.187  0.3195  0.6380 -0.2141
  791MPD2    C111657   2.380   3.006  13.100  0.1674  0.3405  0.0568
  791MPD2    C211658   2.287   2.923  13.036  0.5872  0.6825  0.1112
  791MPD2    C311659   2.153   2.926  13.066  0.0127  0.7421  0.3011
  791MPD2    C411660   2.110   3.018  13.159 -0.0395 -0.5042  0.2657
  791MPD2    C511661   2.198   3.103  13.218 -0.2724 -0.7596  0.4742
  791MPD2     H11662   2.325   2.848  12.968  0.1953  0.5862 -0.0019
  791MPD2    H111663   2.008   3.023  13.197 -0.0669  0.4663  0.0854
  791MPD2    H211664   2.405   3.168  13.229  1.5648 -0.2923 -0.8111
  791MPD2    H311665   2.155   3.178  13.285  1.2774 -0.3137  0.9646
  791MPD2     N11666   2.072   2.830  12.999  0.0850  0.4539 -0.3267
  791MPD2    H511667   2.115   2.762  12.937 -0.2182  0.9083 -1.0279
  791MPD2    N111668   2.524   2.998  13.074  0.1708 -0.0668 -0.0315
  791MPD2    H711669   2.574   3.062  13.135 -1.8173  1.0422  0.4314
  792MPD2     C11670   3.364   2.537  11.189 -0.4337 -0.3302  0.4186
  792MPD2    C111671   3.269   2.638  11.201 -0.0508  0.1335 -0.0427
  792MPD2    C211672   3.139   2.607  11.230  0.6501 -0.2138  0.0194
  792MPD2    C311673   3.091   2.480  11.240  0.3898 -0.4733 -0.2263
  792MPD2    C411674   3.187   2.383  11.232 -0.0603 -0.5245 -0.6945
  792MPD2    C511675   3.328   2.411  11.210  0.1691  0.1646 -0.0490
  792MPD2     H11676   3.065   2.681  11.256 -1.3371 -1.3678 -2.3450
  792MPD2    H111677   3.163   2.279  11.253  1.0323 -0.7154 -0.4266
  792MPD2    H211678   3.464   2.561  11.154 -0.2361  0.5533  1.5928
  792MPD2    H311679   3.399   2.329  11.207  1.0318  0.9530 -1.2205
  792MPD2     N11680   2.960   2.443  11.276  0.1895 -0.3643  0.1728
  792MPD2    H511681   2.937   2.344  11.283 -0.1311 -0.0154  3.8485
  792MPD2    N111682   3.314   2.767  11.171 -0.5060 -0.0314 -0.8929
  792MPD2    H711683   3.407   2.775  11.130 -0.7788 -0.6211 -1.6323
  793MPD2     C11684   2.342   2.530  10.540 -0.9968  0.6640  0.4360
  793MPD2    C111685   2.479   2.538  10.557 -0.3307  0.7015 -0.3750
  793MPD2    C211686   2.531   2.531  10.683 -0.2338 -0.2301  0.4074
  793MPD2    C311687   2.446   2.493  10.789  0.7073 -0.2338 -0.2763
  793MPD2    C411688   2.313   2.474  10.775 -0.3293 -0.5639 -0.4703
  793MPD2    C511689   2.258   2.501  10.647 -0.2160 -0.6692  0.0479
  793MPD2     H11690   2.637   2.538  10.701 -0.4370 -0.1772  1.5977
  793MPD2    H111691   2.248   2.439  10.854 -1.3661 -0.8396 -1.4329
  793MPD2    H211692   2.296   2.524  10.443 -1.6217  0.2824  0.7549
  793MPD2    H311693   2.154   2.494  10.619 -0.0983  0.5539 -0.6743
  793MPD2     N11694   2.516   2.471  10.906 -0.0313 -0.0941  0.2886
  793MPD2    H511695   2.617   2.476  10.905  0.0164 -0.9837  1.9119
  793MPD2    N111696   2.576   2.549  10.451  0.1893  0.4273  0.7725
  793MPD2    H711697   2.674   2.538  10.474  0.9152  0.0933 -2.5371
  794MPD2     C11698   2.568   2.236  17.605  0.4184  0.6183 -0.4062
  794MPD2    C111699   2.460   2.287  17.673 -0.0123 -0.1532 -0.2446
  794MPD2    C211700   2.342   2.301  17.598 -0.1803 -0.7155 -0.0223
  794MPD2    C311701   2.340   2.280  17.461  0.1251  0.1080  0.4564
  794MPD2    C411702   2.453   2.248  17.394 -0.0703 -0.1989  0.5004
  794MPD2    C511703   2.562   2.225  17.471  0.3652 -1.0532  0.0023
  794MPD2     H11704   2.253   2.320  17.658 -0.4450  2.3153 -1.3864
  794MPD2    H111705   2.450   2.232  17.286 -1.2454 -0.0771  0.5162
  794MPD2    H211706   2.662   2.217  17.655 -0.5185  3.0798  2.3220
  794MPD2    H311707   2.649   2.187  17.419  0.3224  0.8079 -1.4671
  794MPD2     N11708   2.230   2.314  17.382 -0.4985  0.5115  0.3520
  794MPD2    H511709   2.235   2.298  17.282  0.6949 -2.2806  0.8459
  794MPD2    N111710   2.454   2.292   0.117 -0.2026 -0.3339  0.0319
  794MPD2    H711711   2.367   2.302   0.168  0.5246  0.8549  1.0437
  795MPD2     C11712   0.028   4.271  12.955  0.9524  0.4870  0.6800
  795MPD2    C111713   0.029   4.191  13.066  0.0779  0.1426  0.2517
  795MPD2    C211714   0.144   4.117  13.096  0.1715 -0.0427  0.6060
  795MPD2    C311715   0.256   4.130  13.022 -0.3848 -0.6804 -0.1902
  795MPD2    C411716   0.246   4.214  12.910 -0.2576 -0.3515 -0.7065
  795MPD2    C511717   0.136   4.285  12.874  0.5273  0.1269 -0.0024
  795MPD2     H11718   0.145   4.045  13.177 -1.3352 -1.2851 -0.4683
  795MPD2    H111719   0.329   4.222  12.841  1.5492  1.3170  1.6663
  795MPD2    H211720   4.669   4.338  12.931 -0.4055 -1.2981  0.3750
  795MPD2    H311721   0.128   4.349  12.787 -2.7363 -0.1037  0.1377
  795MPD2     N11722   0.368   4.048  13.046  0.2546  0.0720  0.6963
  795MPD2    H511723   0.355   3.973  13.114  1.5510  0.6333  1.5516
  795MPD2    N111724   4.645   4.197  13.164 -0.4541 -0.2608  0.2606
  795MPD2    H711725   4.660   4.130  13.238 -2.7220 -1.3563 -0.2428
  796MPD2     C11726   4.495   1.471  15.965  0.4221  0.4542 -0.5454
  796MPD2    C111727   4.581   1.493  16.076  0.1190 -0.0221 -0.6037
  796MPD2    C211728   4.584   1.625  16.125  0.1464  0.5494 -0.4475
  796MPD2    C311729   4.523   1.726  16.057 -0.8629  0.4092 -0.1325
  796MPD2    C411730   4.439   1.699  15.947  0.9112  0.4250 -0.0634
  796MPD2    C511731   4.420   1.572  15.911  0.5421  0.0840  0.0743
  796MPD2     H11732   4.650   1.663  16.202 -0.2260 -1.1479  0.7270
  796MPD2    H111733   4.380   1.770  15.890 -0.6058  0.3782  1.4693
  796MPD2    H211734   4.497   1.374  15.917  1.4993 -0.2131  0.8132
  796MPD2    H311735   4.359   1.551  15.824 -0.8975  0.9614  0.8692
  796MPD2     N11736   4.531   1.853  16.117  0.1182 -0.1173  0.4570
  796MPD2    H511737   4.577   1.856  16.208  1.4573  1.3891 -0.2536
  796MPD2    N111738   4.652   1.381  16.130 -0.2604  0.3671  0.3713
  796MPD2    H711739   4.640   1.286  16.099 -0.0706  0.3562  0.3372
  797MPD2     C11740   0.692   0.660  17.691 -0.4866  0.3271 -0.1448
  797MPD2    C111741   0.724   0.790  17.690  0.0716  1.2342  0.0481
  797MPD2    C211742   0.652   0.876  17.615  0.3969  0.7244  0.1238
  797MPD2    C311743   0.551   0.841  17.532  0.7926 -0.2644 -0.2721
  797MPD2    C411744   0.520   0.708  17.527  0.0864  0.4198  0.2254
  797MPD2    C511745   0.589   0.620  17.608  0.5612  0.6053  0.4156
  797MPD2     H11746   0.684   0.979  17.624  1.0895  0.5062  0.1221
  797MPD2    H111747   0.427   0.676  17.481  0.6734  2.1184 -2.1391
  797MPD2    H211748   0.743   0.590   0.062  0.0886  0.5826 -0.3252
  797MPD2    H311749   0.570   0.514  17.595  0.2379  1.0277 -2.7161
  797MPD2     N11750   0.473   0.936  17.462  0.2883  0.3827 -0.1047
  797MPD2    H511751   0.397   0.901  17.405  0.5487 -1.3397  0.6072
  797MPD2    N111752   0.821   0.846   0.085 -0.1862 -0.4262 -0.0124
  797MPD2    H711753   0.837   0.942   0.059 -0.7126 -0.0161  1.1752
  798MPD2     C11754   0.707   1.578  17.681  0.5170  0.0213  0.5830
  798MPD2    C111755   0.672   1.445  17.638  0.1811  1.0795 -0.2517
  798MPD2    C211756   0.747   1.345   0.002 -0.3586  0.8865  0.5995
  798MPD2    C311757   0.849   1.367   0.091 -0.2279  0.2804 -0.0261
  798MPD2    C411758   0.882   1.498   0.131 -0.3374  0.9989  1.0443
  798MPD2    C511759   0.803   1.601   0.085  0.1558  0.1882 -0.4056
  798MPD2     H11760   0.723   1.240  17.684 -0.6164  1.0640 -0.4308
  798MPD2    H111761   0.951   1.523   0.211 -0.1418 -1.2455  1.5774
  798MPD2    H211762   0.647   1.663  17.650  2.2039  1.3963  1.1006
  798MPD2    H311763   0.813   1.702   0.123  1.4513 -1.4177  3.4600
  798MPD2     N11764   0.911   1.250   0.143  0.8413 -0.3983 -0.2383
  798MPD2    H511765   0.883   1.164   0.096 -0.6012  0.3758 -0.7985
  798MPD2    N111766   0.565   1.404  17.552  0.0908 -0.8779  0.0003
  798MPD2    H711767   0.548   1.305  17.544 -0.9312 -0.5471 -1.8902
  799MPD2     C11768   4.492   2.469  15.141  0.2544 -0.5816  0.0013
  799MPD2    C111769   4.378   2.426  15.075  0.4862 -0.2036 -0.3297
  799MPD2    C211770   4.310   2.517  14.993  0.5677 -0.1063 -0.6106
  799MPD2    C311771   4.361   2.642  14.962  0.2968  0.3941  0.4624
  799MPD2    C411772   4.469   2.683  15.033 -0.7643 -0.5068 -0.3697
  799MPD2    C511773   4.529   2.601  15.123 -0.3050  0.4749 -0.1107
  799MPD2     H11774   4.224   2.481  14.937 -0.9112  0.9311  0.9919
  799MPD2    H111775   4.520   2.777  15.016 -0.5303 -0.2024  2.0285
  799MPD2    H211776   4.540   2.406  15.215  1.1732 -1.7647 -1.6160
  799MPD2    H311777   4.624   2.631  15.166 -0.6017  1.3692 -0.0935
  799MPD2     N11778   4.311   2.728  14.861 -0.5763 -0.7665  0.2401
  799MPD2    H511779   4.363   2.812  14.837  1.2349 -1.6989  0.8387
  799MPD2    N111780   4.335   2.292  15.072 -0.0321  0.4815 -0.1429
  799MPD2    H711781   4.249   2.274  15.022 -1.2317 -0.2072  2.2029
  800MPD2     C11782   4.721   3.033  13.568 -0.2781 -0.4795  0.0750
  800MPD2    C111783   0.110   3.102  13.563  0.0342  0.6106 -0.1300
  800MPD2    C211784   0.205   3.074  13.455  0.2667  0.4200  0.5395
  800MPD2    C311785   0.185   2.969  13.366 -0.8202 -0.2588 -0.1452
  800MPD2    C411786   0.078   2.884  13.390  0.4490  0.1289  0.8345
  800MPD2    C511787   4.709   2.917  13.492 -0.1854  0.3051 -0.3597
  800MPD2     H11788   0.293   3.134  13.436 -1.3234  2.3092 -0.8287
  800MPD2    H111789   0.064   2.794  13.333 -0.5788  1.1312 -0.5029
  800MPD2    H211790   4.644   3.056  13.641 -0.7731  2.4976 -1.3913
  800MPD2    H311791   4.617   2.860  13.491  0.1246 -0.2017 -0.7477
  800MPD2     N11792   0.280   2.944  13.260  0.1831  0.0209  0.0739
  800MPD2    H511793   0.360   3.007  13.259 -1.2366  1.8225 -0.4760
  800MPD2    N111794   0.137   3.190  13.665  0.8333  0.2946  0.4158
  800MPD2    H711795   0.070   3.212  13.737  0.4136  1.5098 -0.3418
  801MPD2     C11796   4.676   3.922  13.845  0.1457  0.2284 -0.2940
  801MPD2    C111797   0.057   3.881  13.931  0.1312 -0.3744 -1.0449
  801MPD2    C211798   0.082   3.959  14.044 -0.4026  0.1920 -0.4062
  801MPD2    C311799   0.025   4.083  14.062  0.0907 -0.1152 -0.4243
  801MPD2    C411800   4.650   4.117  13.972  0.1020  0.6686 -0.3528
  801MPD2    C511801   4.621   4.042  13.865  0.3395 -0.2544 -0.4269
  801MPD2     H11802   0.147   3.923  14.123  1.6397  1.2130 -1.6053
  801MPD2    H111803   4.581   4.198  13.993  0.5384  1.0972 -0.5873
  801MPD2    H211804   4.649   3.862  13.758  3.3704  0.0743 -1.1928
  801MPD2    H311805   4.538   4.075  13.803  0.7531  2.3635  0.4238
  801MPD2     N11806   0.049   4.158  14.173 -0.6734 -0.5421 -0.3995
  801MPD2    H511807   4.701   4.228  14.193 -0.6862 -0.2422 -1.5039
  801MPD2    N111808   0.137   3.765  13.922 -0.0997 -0.1395  0.2679
  801MPD2    H711809   0.199   3.736  13.997  1.1864  1.2185 -0.2607
  802MPD2     C11810   3.964   4.385   0.111 -0.0265 -0.0445  0.0793
  802MPD2    C111811   3.999   4.515   0.135 -0.2921  0.2234  0.2902
  802MPD2    C211812   4.121   4.551   0.079  0.7605 -0.6744  0.2821
  802MPD2    C311813   4.203   4.468   0.003  0.1468  0.0757  0.1590
  802MPD2    C411814   4.155   4.337  17.676  0.0778  0.8146  0.8008
  802MPD2    C511815   4.035   4.295   0.037  0.3998  0.9040  1.1767
  802MPD2     H11816   4.155   4.653   0.093 -1.0749 -0.0128 -0.0204
  802MPD2    H111817   4.206   4.262  17.617 -2.1832 -0.2599  0.2027
  802MPD2    H211818   3.868   4.353   0.148  1.5389 -0.0449  4.1777
  802MPD2    H311819   3.987   4.202   0.008  1.4782  0.2599  1.4646
  802MPD2     N11820   4.334   4.516  17.663 -0.0209  0.1537  0.1856
  802MPD2    H511821   4.363   4.609  17.693  0.7926  0.2815 -0.9684
  802MPD2    N111822   3.920   4.614   0.198 -0.7249 -0.3266  0.3123
  802MPD2    H711823   3.960   4.706   0.212 -0.0694 -0.8681  2.0014
  803MPD2     C11824   1.503   2.815  11.664  0.2577 -0.1563 -0.0427
  803MPD2    C111825   1.503   2.852  11.796 -0.4769 -0.1573  0.3714
  803MPD2    C211826   1.397   2.821  11.869  0.3288 -0.1459  0.0813
  803MPD2    C311827   1.289   2.756  11.825  0.7141  0.3535 -0.2913
  803MPD2    C411828   1.282   2.728  11.690  0.1388 -0.6958  0.9256
  803MPD2    C511829   1.388   2.767  11.610  0.1521 -0.0179 -0.4865
  803MPD2     H11830   1.408   2.843  11.974  2.3422  0.4618 -0.2657
  803MPD2    H111831   1.193   2.679  11.651  0.5360 -1.0019  0.4122
  803MPD2    H211832   1.588   2.831  11.599 -1.3731 -0.6089 -2.2840
  803MPD2    H311833   1.385   2.743  11.504 -0.7183  0.9051 -0.6776
  803MPD2     N11834   1.181   2.719  11.907 -0.1757 -0.0057  0.2314
  803MPD2    H511835   1.105   2.677  11.855  0.4130 -2.0499  1.0417
  803MPD2    N111836   1.601   2.918  11.866  0.2239 -0.2324  1.0060
  803MPD2    H711837   1.580   2.963  11.955 -0.6446  0.9487  0.2018
  804MPD2     C11838   0.543   4.462  17.201 -0.5992  0.4032 -0.0335
  804MPD2    C111839   0.586   4.440  17.329  0.0856  0.1118 -0.2518
  804MPD2    C211840   0.641   4.544  17.396  0.0425  0.2602 -0.1584
  804MPD2    C311841   0.663   4.660  17.340 -0.2732  0.4343 -0.2474
  804MPD2    C411842   0.621   4.685  17.210  0.5961  0.1417  0.4852
  804MPD2    C511843   0.573   4.581  17.138 -0.5611 -0.1116  0.5501
  804MPD2     H11844   0.672   4.538  17.500  0.9508  0.3602 -0.4260
  804MPD2    H111845   0.643   0.056  17.161 -1.1894 -0.3932 -1.3299
  804MPD2    H211846   0.502   4.382  17.140  1.4751 -1.0822  0.5137
  804MPD2    H311847   0.555   4.591  17.031 -0.6738 -0.9980  0.4917
  804MPD2     N11848   0.740   0.033  17.416  0.3537 -0.5343 -0.7971
  804MPD2    H511849   0.775   0.014  17.509  0.4538  0.0100 -0.7208
  804MPD2    N111850   0.568   4.323  17.399  0.3111  0.0700  0.0573
  804MPD2    H711851   0.576   4.324  17.500  0.4117  1.3964  0.0397
  805MPD2     C11852   4.071   2.685  15.888  0.1543 -0.0380  0.0456
  805MPD2    C111853   4.176   2.747  15.816  0.3656 -0.3742  0.5531
  805MPD2    C211854   4.285   2.788  15.883  0.2806 -0.1299  0.0617
  805MPD2    C311855   4.288   2.765  16.020 -0.4991 -0.1284  1.2181
  805MPD2    C411856   4.185   2.716  16.093  0.2553 -0.1373  0.7733
  805MPD2    C511857   4.078   2.666  16.020 -0.4998  0.6653  0.4533
  805MPD2     H11858   4.363   2.835  15.826  0.7516 -1.7093 -0.5998
  805MPD2    H111859   4.178   2.704  16.200  1.4766  1.3141  1.0020
  805MPD2    H211860   3.974   2.661  15.845  0.8381  0.2941 -1.6607
  805MPD2    H311861   3.995   2.610  16.063  0.1013  1.2932  2.4276
  805MPD2     N11862   4.403   2.814  16.086 -0.2917  0.4251 -0.1303
  805MPD2    H511863   4.467   2.859  16.022 -1.8842  1.2295 -1.1395
  805MPD2    N111864   4.183   2.746  15.677 -0.5575  0.4432  0.0380
  805MPD2    H711865   4.274   2.774  15.640 -0.9980 -0.7518 -1.9568
  806MPD2     C11866   0.733   2.649   1.283 -0.4394  0.0893  0.3564
  806MPD2    C111867   0.601   2.646   1.240  0.0246 -0.4750 -0.6504
  806MPD2    C211868   0.565   2.722   1.130  0.5071 -0.5575  0.2358
  806MPD2    C311869   0.649   2.814   1.078 -0.2697 -0.6124  0.1508
  806MPD2    C411870   0.780   2.822   1.125  0.1456  0.4311  0.1802
  806MPD2    C511871   0.819   2.738   1.228  0.0850 -0.4882 -0.5641
  806MPD2     H11872   0.468   2.721   1.081 -1.5802 -0.7312  4.3933
  806MPD2    H111873   0.855   2.889   1.084 -0.3372  0.0782 -1.2619
  806MPD2    H211874   0.775   2.590   1.364  0.9236 -0.1196 -0.4815
  806MPD2    H311875   0.924   2.733   1.256 -0.1412  2.3757  0.7845
  806MPD2     N11876   0.595   2.896   0.976 -0.2231  0.1576  0.4729
  806MPD2    H511877   0.497   2.886   0.953 -0.0011 -0.6650 -0.1142
  806MPD2    N111878   0.508   2.570   1.318  0.4083 -1.0590  0.0761
  806MPD2    H711879   0.533   2.544   1.413  0.0391  2.0600  1.0449
  807MPD2     C11880   0.032   2.627   1.937  0.3170  0.0472  0.1329
  807MPD2    C111881   0.043   2.485   1.916 -0.1145  0.0584 -0.6199
  807MPD2    C211882   4.710   2.401   2.014 -0.5218  0.4837  0.4940
  807MPD2    C311883   4.657   2.458   2.135  0.1108  0.1712  0.5856
  807MPD2    C411884   4.662   2.597   2.154  0.0335 -0.1752 -1.0007
  807MPD2    C511885   4.703   2.673   2.054 -0.1757  0.3129  0.0203
  807MPD2     H11886   4.721   2.295   1.994  0.8168  0.8804 -0.8579
  807MPD2    H111887   4.610   2.642   2.237 -3.0111 -1.2368 -2.3265
  807MPD2    H211888   0.060   2.700   1.861 -1.2808 -1.5323 -1.9722
  807MPD2    H311889   4.690   2.780   2.064  2.0496  0.7304 -1.7060
  807MPD2     N11890   4.611   2.363   2.232 -0.0856  0.4479 -0.0727
  807MPD2    H511891   4.614   2.263   2.213  0.6439  0.7965 -1.7975
  807MPD2    N111892   0.101   2.436   1.799 -0.5699 -0.5058 -0.4501
  807MPD2    H711893   0.108   2.337   1.778 -0.4434 -0.8126  1.0533
  808MPD2     C11894   0.180   3.353   8.902 -0.0525  0.4055  0.9738
  808MPD2    C111895   0.192   3.397   9.027 -0.3136 -0.2788 -1.3321
  808MPD2    C211896   0.292   3.491   9.065  0.7733  0.1459  0.3864
  808MPD2    C311897   0.385   3.527   8.972  0.3115 -1.3960 -0.8816
  808MPD2    C411898   0.379   3.469   8.847  0.3535  0.0281  0.6583
  808MPD2    C511899   0.278   3.378   8.816 -0.0317 -0.6938  0.3040
  808MPD2     H11900   0.282   3.529   9.167  0.2625 -2.4736  1.2992
  808MPD2    H111901   0.465   3.480   8.783  0.2062  1.0068  0.6201
  808MPD2    H211902   0.106   3.278   8.875 -0.4719  1.4007 -0.6508
  808MPD2    H311903   0.289   3.328   8.721 -3.1174  2.0719 -1.4952
  808MPD2     N11904   0.495   3.602   9.011  0.0767 -0.1472  0.4440
  808MPD2    H511905   0.558   3.632   8.937 -0.4904 -0.1980 -0.0545
  808MPD2    N111906   0.096   3.353   9.126 -0.8292 -0.1810 -0.3340
  808MPD2    H711907   0.122   3.388   9.218 -1.0554  1.3790 -0.8551
  809MPD2     C11908   1.219   3.207   8.879 -0.0862 -0.2035  0.1897
  809MPD2    C111909   1.203   3.235   9.017  0.3793  0.5451 -0.8969
  809MPD2    C211910   1.131   3.348   9.055 -0.7029 -0.0918  0.4571
  809MPD2    C311911   1.060   3.418   8.957 -0.7140  0.1893 -0.2513
  809MPD2    C411912   1.090   3.395   8.822  0.5868  0.3167  0.1748
  809MPD2    C511913   1.165   3.290   8.788 -0.2294  0.0491  0.7281
  809MPD2     H11914   1.124   3.371   9.160  1.1079 -1.8191  0.9719
  809MPD2    H111915   1.041   3.454   8.745  1.9524  0.7195 -0.3908
  809MPD2    H211916   1.289   3.135   8.839 -0.2151 -0.3012  0.1398
  809MPD2    H311917   1.192   3.267   8.685 -1.4128 -1.9493  0.8648
  809MPD2     N11918   0.980   3.526   9.002 -0.0289 -0.2694 -0.4819
  809MPD2    H511919   0.930   3.580   8.931 -0.7078 -2.2356 -1.5055
  809MPD2    N111920   1.262   3.162   9.121  0.4889  0.0216 -0.0756
  809MPD2    H711921   1.265   3.201   9.214  0.1056  0.0580 -0.0810
  810MPD2     C11922   0.522   2.355   9.639  0.1944  0.0583  0.2211
  810MPD2    C111923   0.505   2.225   9.685 -0.0227 -0.0750 -0.0512
  810MPD2    C211924   0.593   2.170   9.778  0.0813  0.1813 -0.7061
  810MPD2    C311925   0.700   2.242   9.835 -0.1593 -0.1788  0.0101
  810MPD2    C411926   0.709   2.375   9.799  0.7611 -0.1972  0.5034
  810MPD2    C511927   0.627   2.427   9.699  0.3909 -0.4125 -0.0190
  810MPD2     H11928   0.585   2.068   9.811 -1.4926  0.8858  1.0821
  810MPD2    H111929   0.790   2.432   9.845  1.7553 -0.8255 -0.4550
  810MPD2    H211930   0.451   2.408   9.576 -0.8255  0.6896  1.9228
  810MPD2    H311931   0.637   2.531   9.669  0.7912 -0.6074 -0.5751
  810MPD2     N11932   0.775   2.200   9.947 -0.4189 -0.3086  0.5106
  810MPD2    H511933   0.793   2.279  10.008  1.6816  0.9261 -1.6955
  810MPD2    N111934   0.398   2.147   9.636 -0.5450 -0.0480 -0.2807
  810MPD2    H711935   0.317   2.199   9.603 -1.1320 -0.0744  1.0893
  811MPD2     C11936   4.275   2.222   9.797 -0.5020 -0.0400  0.3863
  811MPD2    C111937   4.401   2.268   9.768 -0.1647 -0.3380  0.3041
  811MPD2    C211938   4.420   2.400   9.757 -0.0262  0.1948 -0.3725
  811MPD2    C311939   4.320   2.497   9.771 -0.5966 -0.5528  0.1526
  811MPD2    C411940   4.193   2.453   9.800  1.0430 -0.2047  0.1339
  811MPD2    C511941   4.171   2.311   9.805 -0.2506 -0.8150 -1.2829
  811MPD2     H11942   4.513   2.437   9.716  0.2984 -0.8176 -0.5500
  811MPD2    H111943   4.109   2.517   9.824  0.0359 -1.1565 -0.8314
  811MPD2    H211944   4.247   2.118   9.809  4.5356 -1.6814 -2.0550
  811MPD2    H311945   4.068   2.284   9.825 -0.2191  0.8639  1.0950
  811MPD2     N11946   4.361   2.629   9.760  0.6366 -0.0903 -0.3994
  811MPD2    H511947   4.461   2.645   9.754  0.7948 -0.9441  0.0460
  811MPD2    N111948   4.503   2.178   9.735  0.3109 -0.2044  0.9353
  811MPD2    H711949   4.468   2.084   9.717  3.0344 -0.6787 -1.8315
  812MPD2     C11950   3.975   2.946  11.964  0.2481  0.1653  0.0254
  812MPD2    C111951   3.893   2.999  12.059  0.6157  0.2338 -0.0798
  812MPD2    C211952   3.870   2.921  12.171 -0.0990 -0.2713  0.5593
  812MPD2    C311953   3.927   2.794  12.190 -1.1209 -0.0449  0.4761
  812MPD2    C411954   4.009   2.748  12.086 -0.0501 -0.0009 -0.4487
  812MPD2    C511955   4.036   2.825  11.974 -0.2458 -0.2846 -0.2202
  812MPD2     H11956   3.796   2.952  12.244 -2.1604 -1.4434 -1.0045
  812MPD2    H111957   4.064   2.654  12.092  0.5271  0.3075 -0.8996
  812MPD2    H211958   4.000   3.001  11.874  1.4133  1.1419  0.9277
  812MPD2    H311959   4.104   2.797  11.894  0.4136  1.2684 -0.2245
  812MPD2     N11960   3.897   2.713  12.301 -0.0283  0.7058  0.5994
  812MPD2    H511961   3.839   2.748  12.377 -0.4609 -2.1225  1.5808
  812MPD2    N111962   3.848   3.133  12.048  0.5174 -0.1876  0.0848
  812MPD2    H711963   3.851   3.184  11.961  0.2743  0.5812  0.5260
  813MPD2     C11964   2.534   0.077  12.933 -0.0094 -0.6857 -0.3979
  813MPD2    C111965   2.621   4.696  12.946 -0.3959 -0.0092  0.4042
  813MPD2    C211966   2.589   4.609  13.042  0.3452  0.1907  0.1646
  813MPD2    C311967   2.470   4.600  13.114  0.1253 -0.1837 -0.2634
  813MPD2    C411968   2.389   4.712  13.096  0.2722  0.3659  0.6691
  813MPD2    C511969   2.426   0.090  13.015 -0.2703  0.7154 -0.0888
  813MPD2     H11970   2.666   4.537  13.068 -0.7037 -1.1276 -0.4266
  813MPD2    H111971   2.290   0.001  13.139 -0.4263  0.4045 -0.9474
  813MPD2    H211972   2.543   0.159  12.862  0.4587 -1.8981 -1.7316
  813MPD2    H311973   2.360   0.175  13.003  1.8523  2.1127 -1.8637
  813MPD2     N11974   2.461   4.505  13.221  0.8641  0.5253 -0.1768
  813MPD2    H511975   2.527   4.427  13.225 -0.4507 -0.6401 -1.2028
  813MPD2    N111976   2.741   4.699  12.871  0.1877  0.2402  0.2327
  813MPD2    H711977   2.750   0.053  12.805 -0.0035  1.0692  1.1777
  814MPD2     C11978   3.730   1.474  12.252 -0.3531  0.9458  0.2856
  814MPD2    C111979   3.684   1.495  12.123 -0.1034  0.4935 -0.5644
  814MPD2    C211980   3.723   1.609  12.050 -0.3583 -0.6363  0.1100
  814MPD2    C311981   3.790   1.708  12.116  0.4656 -0.2899 -0.1881
  814MPD2    C411982   3.824   1.690  12.248 -0.5000 -0.2873  0.0513
  814MPD2    C511983   3.802   1.572  12.315  0.4619  0.1983  0.7206
  814MPD2     H11984   3.677   1.622  11.953  0.6679 -0.2799 -0.3285
  814MPD2    H111985   3.871   1.775  12.298  0.5996 -1.6243  1.2938
  814MPD2    H211986   3.715   1.380  12.304  1.5649  0.8778  0.7046
  814MPD2    H311987   3.840   1.571  12.416  0.3454 -3.1871  0.7216
  814MPD2     N11988   3.844   1.817  12.047 -0.2461  0.2221 -0.0162
  814MPD2    H511989   3.903   1.871  12.110  1.0584  0.3154 -1.3313
  814MPD2    N111990   3.614   1.396  12.056 -0.0846 -0.6755 -0.3994
  814MPD2    H711991   3.607   1.406  11.955 -0.1812 -0.4048 -0.3654
  815MPD2     C11992   3.798   4.611  11.412 -0.0552 -1.1348  0.6872
  815MPD2    C111993   3.794   4.486  11.465  0.0243  0.6695 -0.3721
  815MPD2    C211994   3.730   4.465  11.587 -1.0045 -0.2933  0.4803
  815MPD2    C311995   3.664   4.573  11.648 -0.6908  0.5888 -0.9406
  815MPD2    C411996   3.675   4.701  11.599 -1.1361 -0.0928  0.1408
  815MPD2    C511997   3.741   4.715  11.480 -0.3258  0.3430  0.1536
  815MPD2     H11998   3.732   4.371  11.641 -1.0440 -0.6645 -0.1669
  815MPD2    H111999   3.634   0.069  11.642 -2.2150 -1.2399  1.5265
  815MPD2    H212000   3.859   4.630  11.324  1.7520 -3.2768  1.4951
  815MPD2    H312001   3.753   0.088  11.432 -0.9075 -0.7643 -2.1732
  815MPD2     N12002   3.584   4.537  11.764  0.2146  0.0224  0.4311
  815MPD2    H512003   3.593   4.443  11.801  1.4050  0.5484  1.4755
  815MPD2    N112004   3.838   4.378  11.388 -0.0864  0.1643  0.3100
  815MPD2    H712005   3.853   4.391  11.289 -0.7787 -0.0333  0.1790
  816MPD2     C12006   3.014   3.663  17.150  0.0575  0.3406  0.7274
  816MPD2    C112007   3.075   3.742  17.244  0.2511 -0.3162 -0.3104
  816MPD2    C212008   3.190   3.694  17.305  0.6079 -0.5406  0.0296
  816MPD2    C312009   3.237   3.562  17.288 -0.1937 -0.7818 -0.3864
  816MPD2    C412010   3.174   3.486  17.186  0.8615  0.2016  0.0441
  816MPD2    C512011   3.063   3.539  17.117 -0.8963 -0.0389  0.5377
  816MPD2     H12012   3.240   3.758  17.376 -1.3027  1.3431 -0.3376
  816MPD2    H112013   3.198   3.385  17.155 -0.6065  0.3803 -1.6387
  816MPD2    H212014   2.938   3.714  17.092 -0.5211  0.2026  1.3642
  816MPD2    H312015   3.023   3.479  17.036 -1.8599  0.7043  0.4658
  816MPD2     N12016   3.338   3.517  17.364 -0.4678  0.2309  0.7051
  816MPD2    H512017   3.374   3.585  17.431 -1.2209  0.1136  1.2314
  816MPD2    N112018   3.019   3.869  17.266  0.3180 -0.3443  0.3821
  816MPD2    H712019   2.939   3.904  17.213  0.4808 -0.8047 -0.1622
  817MPD2     C12020   3.022   0.827   9.793 -0.6214 -0.0661  0.3895
  817MPD2    C112021   3.149   0.880   9.772  0.8386 -0.2726  0.1455
  817MPD2    C212022   3.168   1.004   9.716 -0.1763  0.0523  0.5677
  817MPD2    C312023   3.067   1.089   9.715 -0.4061 -0.4308  0.1297
  817MPD2    C412024   2.941   1.044   9.745 -0.3457 -0.1426 -0.1441
  817MPD2    C512025   2.920   0.911   9.780 -0.5885 -0.0628 -0.3169
  817MPD2     H12026   3.267   1.039   9.689  0.2776 -0.7601  1.1731
  817MPD2    H112027   2.853   1.107   9.742 -1.4276 -1.6967 -0.9707
  817MPD2    H212028   3.007   0.733   9.846 -0.2617 -0.0260  0.5614
  817MPD2    H312029   2.822   0.866   9.793 -0.9319  0.1057 -2.4775
  817MPD2     N12030   3.094   1.221   9.685  0.2214  0.4156  0.2462
  817MPD2    H512031   3.194   1.236   9.693  0.7163 -1.2842 -2.8108
  817MPD2    N112032   3.266   0.800   9.789 -0.2260  0.2770 -0.4554
  817MPD2    H712033   3.353   0.843   9.762 -0.7825  0.3429 -2.1073
  818MPD2     C12034   2.599   0.368   9.896 -0.1150 -0.4680  0.4515
  818MPD2    C112035   2.478   0.300   9.902 -0.4120  0.3815 -0.1849
  818MPD2    C212036   2.468   0.179   9.826  0.1132  0.0852  0.1148
  818MPD2    C312037   2.582   0.128   9.765  0.0337  0.1210 -0.2521
  818MPD2    C412038   2.699   0.192   9.765 -0.2517  0.0133 -0.6846
  818MPD2    C512039   2.701   0.316   9.819 -0.5762 -0.4274 -0.6380
  818MPD2     H12040   2.387   0.110   9.848 -0.2506  1.2354  2.4202
  818MPD2    H112041   2.789   0.145   9.727  0.8445  0.1939  1.6701
  818MPD2    H212042   2.616   0.467   9.937  0.4104  0.4261 -1.8986
  818MPD2    H312043   2.798   0.364   9.816 -1.5506  1.5856  0.3564
  818MPD2     N12044   2.589   4.716   9.720  0.1860  0.1408  0.1480
  818MPD2    H512045   2.683   4.677   9.720  0.0971 -0.0523 -1.8020
  818MPD2    N112046   2.374   0.341   9.987 -0.0352  0.0082 -0.2185
  818MPD2    H712047   2.285   0.294   9.975 -1.2143  1.9628  0.8025
  819MPD2     C12048   0.079   2.159  16.042  0.0411  0.8792  0.3489
  819MPD2    C112049   0.131   2.053  15.976  0.3420  0.4828  0.0390
  819MPD2    C212050   0.270   2.030  15.984  0.2861 -0.4767  0.0833
  819MPD2    C312051   0.360   2.104  16.062  0.4400 -0.4348 -0.3944
  819MPD2    C412052   0.298   2.206  16.130 -0.2493  0.2507 -0.4289
  819MPD2    C512053   0.161   2.229  16.126  1.3235  0.5240  0.4409
  819MPD2     H12054   0.315   1.947  15.930  1.1715  0.3839 -0.5068
  819MPD2    H112055   0.362   2.280  16.175  0.9797 -0.0296 -1.6999
  819MPD2    H212056   4.695   2.174  16.037 -0.3461 -2.3419 -1.1684
  819MPD2    H312057   0.123   2.302  16.196 -0.0970 -1.6918  1.9592
  819MPD2     N12058   0.499   2.091  16.052  0.0303  0.4601 -0.3116
  819MPD2    H512059   0.532   2.010  16.000 -1.4780 -0.1616 -0.2927
  819MPD2    N112060   0.051   1.982  15.894  0.1535  0.4597 -0.4276
  819MPD2    H712061   4.680   2.012  15.873  0.1474  1.0133  0.4085
  820MPD2     C12062   3.978   2.003  15.320  0.9056 -0.1610 -0.0957
  820MPD2    C112063   4.083   2.086  15.366  0.3677  0.4042 -0.0743
  820MPD2    C212064   4.187   2.023  15.437 -0.2465  0.0141  0.6146
  820MPD2    C312065   4.212   1.890  15.438 -0.0357  0.6781 -0.2198
  820MPD2    C412066   4.113   1.808  15.381 -0.5707 -0.5406 -0.5358
  820MPD2    C512067   3.996   1.865  15.334  0.1548 -0.1064 -0.2834
  820MPD2     H12068   4.266   2.080  15.486 -0.7940 -0.3254  1.8790
  820MPD2    H112069   4.124   1.701  15.369  0.5766 -0.4153 -0.5415
  820MPD2    H212070   3.887   2.040  15.274  1.9564  1.9340 -0.5134
  820MPD2    H312071   3.916   1.798  15.304 -0.2850 -0.7613  2.3802
  820MPD2     N12072   4.335   1.833  15.471 -0.1528  0.6523  0.7290
  820MPD2    H512073   4.340   1.736  15.442 -2.4999  0.8091 -0.2171
  820MPD2    N112074   4.073   2.230  15.363  0.0890 -0.2619 -0.3583
  820MPD2    H712075   3.986   2.259  15.318  0.0282  1.2904  0.7524
  821MPD2     C12076   0.424   3.341  12.587  0.2435 -0.1550 -0.4906
  821MPD2    C112077   0.518   3.310  12.678  0.2253 -0.4879  0.2142
  821MPD2    C212078   0.631   3.385  12.694  0.4805 -0.1698 -0.2025
  821MPD2    C312079   0.636   3.503  12.619 -0.0847 -0.3772  0.1744
  821MPD2    C412080   0.536   3.537  12.528 -0.7239  0.5273  0.2355
  821MPD2    C512081   0.431   3.452  12.512 -0.5098 -0.1091 -0.1984
  821MPD2     H12082   0.710   3.351  12.761  0.8810  1.2224  0.0291
  821MPD2    H112083   0.541   3.623  12.463  0.6236  2.8411  3.3899
  821MPD2    H212084   0.333   3.283  12.572 -1.6203  1.5011  4.4892
  821MPD2    H312085   0.357   3.478  12.438 -0.9312 -1.2402 -0.1753
  821MPD2     N12086   0.752   3.586  12.639  0.2471  0.6952 -0.3587
  821MPD2    H512087   0.761   3.660  12.571 -0.3077 -0.3877 -1.6080
  821MPD2    N112088   0.516   3.192  12.754  0.2502  0.4870 -0.4129
  821MPD2    H712089   0.593   3.196  12.819  0.2004 -0.4985 -0.2946
  822MPD2     C12090   0.733   3.450  15.933 -0.0254  0.1668 -0.2382
  822MPD2    C112091   0.773   3.449  16.064 -0.3835 -0.1417  0.5948
  822MPD2    C212092   0.734   3.544  16.150  0.4637 -0.6641  0.6470
  822MPD2    C312093   0.662   3.653  16.115 -0.1518  0.1219  0.2033
  822MPD2    C412094   0.630   3.663  15.986  0.0434 -0.6509  0.1899
  822MPD2    C512095   0.669   3.564  15.898  0.2220  0.0354  0.4075
  822MPD2     H12096   0.772   3.539  16.252  0.7149  1.4505  0.6479
  822MPD2    H112097   0.568   3.742  15.945  1.4713 -0.5545 -1.7737
  822MPD2    H212098   0.748   3.365  15.868  0.7026  1.3812 -1.6546
  822MPD2    H312099   0.618   3.566  15.802 -1.9057 -3.3451  1.4966
  822MPD2     N12100   0.632   3.753  16.207 -0.2506  0.2564 -0.3587
  822MPD2    H512101   0.664   3.733  16.301  0.6765 -0.8179 -0.9029
  822MPD2    N112102   0.844   3.341  16.126 -0.2029  0.1035 -0.3218
  822MPD2    H712103   0.860   3.344  16.226  0.0404 -1.2767 -0.3087
  823MPD2     C12104   0.697   3.967  16.987 -0.0945  0.0080  0.2806
  823MPD2    C112105   0.696   3.873  16.888 -0.3442  0.2083 -0.0392
  823MPD2    C212106   0.715   3.738  16.922 -0.2374 -0.0592  0.0139
  823MPD2    C312107   0.746   3.698  17.054 -0.1948  0.4128 -0.0571
  823MPD2    C412108   0.748   3.795  17.152 -0.0427 -0.1282  0.0592
  823MPD2    C512109   0.728   3.927  17.116  0.1994  0.1637  0.0172
  823MPD2     H12110   0.699   3.661  16.848  0.6583 -0.5318  0.3039
  823MPD2    H112111   0.768   3.776  17.257  0.7872  1.8191  0.2676
  823MPD2    H212112   0.675   4.072  16.976  1.0430  0.0609 -1.3401
  823MPD2    H312113   0.721   3.997  17.199  0.9600  0.1721  0.0747
  823MPD2     N12114   0.775   3.568  17.093  0.1453 -0.0846 -0.5210
  823MPD2    H512115   0.797   3.553  17.190 -1.5862 -0.3753 -0.1686
  823MPD2    N112116   0.675   3.920  16.757  0.3576 -0.0760 -0.5559
  823MPD2    H712117   0.675   4.021  16.751  1.6842 -0.0664 -0.4627
  824MPD2     C12118   1.091   2.595  15.887  0.2534  0.0091 -0.2974
  824MPD2    C112119   1.182   2.679  15.945 -0.5042  0.0299  0.6702
  824MPD2    C212120   1.318   2.653  15.933 -0.7219 -0.9102 -0.7289
  824MPD2    C312121   1.360   2.545  15.859 -0.0807 -0.8005 -0.2221
  824MPD2    C412122   1.270   2.468  15.795 -0.0621  0.4801  0.4948
  824MPD2    C512123   1.139   2.493  15.810 -0.2455 -0.1752  0.6974
  824MPD2     H12124   1.381   2.721  15.989 -1.0944  1.1485 -2.8359
  824MPD2    H112125   1.312   2.404  15.717 -1.1954  0.8228 -0.4015
  824MPD2    H212126   0.988   2.626  15.899  0.9686  2.7495 -1.1928
  824MPD2    H312127   1.072   2.417  15.772 -2.0842  1.3767  0.8890
  824MPD2     N12128   1.497   2.523  15.840  0.0583  0.1402  0.3277
  824MPD2    H512129   1.564   2.595  15.866 -1.5630  1.9691 -0.5340
  824MPD2    N112130   1.133   2.789  16.016  0.2215  0.1744 -0.2605
  824MPD2    H712131   1.036   2.815  16.002 -0.0401 -0.3231  0.6076
  825MPD2     C12132   2.117   2.531  15.274  0.2175 -0.0788  0.0653
  825MPD2    C112133   2.027   2.588  15.354  0.4728  0.9375  0.0267
  825MPD2    C212134   1.979   2.708  15.322 -1.1704  0.2791  0.0014
  825MPD2    C312135   2.014   2.765  15.201 -0.1407  0.0867 -0.3518
  825MPD2    C412136   2.104   2.703  15.114 -0.1643  0.2450  0.1378
  825MPD2    C512137   2.153   2.587  15.153  0.4929  0.0138 -1.3742
  825MPD2     H12138   1.920   2.771  15.388 -1.8355 -0.2246 -0.1144
  825MPD2    H112139   2.141   2.743  15.021 -0.0071  1.0274  0.5380
  825MPD2    H212140   2.174   2.446  15.309  0.4841  0.4515  0.9154
  825MPD2    H312141   2.233   2.537  15.099 -0.1272 -1.7090 -0.7156
  825MPD2     N12142   1.973   2.897  15.152 -0.0967 -0.2574 -0.0274
  825MPD2    H512143   2.016   2.918  15.063  0.8212  0.0447  0.4916
  825MPD2    N112144   1.990   2.521  15.473  0.0174  0.6944  0.2012
  825MPD2    H712145   2.021   2.424  15.474  1.5422  1.1493 -3.7069
  826MPD2     C12146   2.033   2.549  13.842  0.3871 -0.5996  0.3663
  826MPD2    C112147   1.943   2.552  13.738  0.4576 -0.7798 -0.6327
  826MPD2    C212148   1.853   2.661  13.720  0.3202 -0.1537 -0.7912
  826MPD2    C312149   1.851   2.757  13.828 -0.5197 -0.4017  0.3754
  826MPD2    C412150   1.943   2.752  13.927  0.6527 -0.6694  0.1100
  826MPD2    C512151   2.035   2.651  13.933  0.9702  0.4752  0.6755
  826MPD2     H12152   1.784   2.671  13.637  0.5926 -0.4387 -1.0533
  826MPD2    H112153   1.948   2.833  13.999 -1.1938 -0.4431 -0.0164
  826MPD2    H212154   2.110   2.473  13.845 -0.9656 -1.9583  0.6483
  826MPD2    H312155   2.118   2.655  14.004  1.1958  0.5810  0.4050
  826MPD2     N12156   1.759   2.863  13.834  0.0778  1.0588  0.5021
  826MPD2    H512157   1.782   2.940  13.896  0.1222  1.8877 -0.5361
  826MPD2    N112158   1.955   2.447  13.643 -0.0477  0.1721  0.5031
  826MPD2    H712159   2.032   2.381  13.651  0.7052  1.0442  0.4456
  827MPD2     C12160   2.835   4.157   9.740 -0.2175  0.3150  0.7484
  827MPD2    C112161   2.819   4.048   9.821  0.0481  0.6295 -0.4413
  827MPD2    C212162   2.703   3.966   9.796 -0.2259 -0.2996 -0.9097
  827MPD2    C312163   2.629   3.983   9.684 -0.2676 -0.8204 -0.2815
  827MPD2    C412164   2.646   4.102   9.609 -0.0181  0.1825  0.4224
  827MPD2    C512165   2.744   4.193   9.643  0.2532  0.6232  0.3875
  827MPD2     H12166   2.682   3.886   9.866  0.5504 -1.6117 -2.1732
  827MPD2    H112167   2.587   4.131   9.522 -0.1441  0.7899  0.7087
  827MPD2    H212168   2.910   4.231   9.764 -0.5073  0.6240  0.7041
  827MPD2    H312169   2.761   4.284   9.586  1.6644  1.1300  1.6095
  827MPD2     N12170   2.524   3.889   9.658 -0.0376  0.4277 -0.1560
  827MPD2    H512171   2.524   3.805   9.716 -0.6739  0.5334  0.0003
  827MPD2    N112172   2.902   4.034   9.936  0.4430 -0.5691  0.4429
  827MPD2    H712173   2.948   4.108   9.986  0.3836 -0.1000 -0.2018
  828MPD2     C12174   1.537   3.814  12.523  0.7723  0.3827 -0.4483
  828MPD2    C112175   1.527   3.786  12.390 -0.6277 -0.4514 -0.0188
  828MPD2    C212176   1.632   3.727  12.322  0.0784 -0.1005 -0.3049
  828MPD2    C312177   1.750   3.700  12.383 -0.1668  0.0863 -0.0827
  828MPD2    C412178   1.762   3.741  12.515  0.3910  0.2912 -0.0977
  828MPD2    C512179   1.657   3.793  12.590 -0.5830  0.4214 -0.5523
  828MPD2     H12180   1.608   3.699  12.221 -1.0657 -0.0956 -0.0418
  828MPD2    H112181   1.857   3.745  12.567  1.2601 -1.7717 -1.5057
  828MPD2    H212182   1.462   3.856  12.590  1.5575  0.5659  0.3130
  828MPD2    H312183   1.665   3.814  12.696  0.3206 -2.4282 -0.0755
  828MPD2     N12184   1.855   3.626  12.328  0.6089  0.1965  0.1861
  828MPD2    H512185   1.930   3.591  12.386  0.2987 -0.8348 -0.0290
  828MPD2    N112186   1.401   3.792  12.316  0.3821  0.0131 -0.1148
  828MPD2    H712187   1.404   3.762  12.219 -1.3362 -1.4994  0.2931
  829MPD2     C12188   1.291   3.623  11.495 -0.3090  0.5315 -0.0017
  829MPD2    C112189   1.191   3.720  11.513  0.2984 -0.1906  0.3935
  829MPD2    C212190   1.158   3.765  11.642  0.7822  0.2982 -0.3396
  829MPD2    C312191   1.221   3.701  11.749  0.1216  0.1042  0.1048
  829MPD2    C412192   1.319   3.604  11.737 -0.0496 -0.1269 -0.6218
  829MPD2    C512193   1.355   3.570  11.608  0.0192 -0.0048 -0.0128
  829MPD2     H12194   1.101   3.857  11.651 -0.9792 -0.8669  0.2837
  829MPD2    H112195   1.375   3.573  11.825  0.6059  1.7356 -0.3697
  829MPD2    H212196   1.315   3.593  11.394  2.7584 -0.0715  0.9021
  829MPD2    H312197   1.431   3.495  11.590 -0.0590  0.1292 -0.8928
  829MPD2     N12198   1.208   3.757  11.877 -1.0599  0.0121  0.1901
  829MPD2    H512199   1.288   3.725  11.930  1.1903 -0.1027 -3.3039
  829MPD2    N112200   1.108   3.760  11.399 -0.0233  0.0494  0.1031
  829MPD2    H712201   1.133   3.723  11.307 -1.3412  0.2064 -0.3245
  830MPD2     C12202   0.658   1.884  15.521 -0.5386 -0.4434  0.6936
  830MPD2    C112203   0.780   1.920  15.561  0.2217  0.0508 -0.0348
  830MPD2    C212204   0.886   1.938  15.472 -0.0049 -0.2118  0.0201
  830MPD2    C312205   0.860   1.935  15.337 -0.3244  0.2958 -0.5987
  830MPD2    C412206   0.738   1.896  15.299 -0.6152  0.0754  0.4577
  830MPD2    C512207   0.638   1.872  15.387 -0.2031 -0.1965  0.2335
  830MPD2     H12208   0.981   1.969  15.514  1.5409 -2.3188 -1.9314
  830MPD2    H112209   0.715   1.898  15.193 -0.0602  0.9006  0.3506
  830MPD2    H212210   0.578   1.868  15.592 -3.2180  0.6811 -2.0275
  830MPD2    H312211   0.543   1.838  15.347 -0.6133 -1.1827  2.0160
  830MPD2     N12212   0.944   1.972  15.233  0.5456 -0.0980  0.0859
  830MPD2    H512213   0.909   1.953  15.139  2.7589  1.1338 -1.0052
  830MPD2    N112214   0.777   1.953  15.698 -0.3119  0.1864 -0.4109
  830MPD2    H712215   0.690   1.958  15.750  0.8165  1.5315  1.3499
  831MPD2     C12216   1.180   3.541  16.588  0.2122  0.3324  0.3483
  831MPD2    C112217   1.108   3.532  16.472 -0.3853 -0.2064 -0.3080
  831MPD2    C212218   0.966   3.507  16.481  0.1956  0.5369 -0.5493
  831MPD2    C312219   0.903   3.480  16.597 -0.1894 -0.2567 -0.0463
  831MPD2    C412220   0.979   3.476  16.709 -0.7576 -0.2090  0.0189
  831MPD2    C512221   1.113   3.510  16.705 -0.3848 -0.3747 -0.2414
  831MPD2     H12222   0.904   3.506  16.392  0.8070  1.8753 -0.9813
  831MPD2    H112223   0.921   3.446  16.796 -1.0706  0.7162  0.1403
  831MPD2    H212224   1.286   3.563  16.595  0.1928  0.1848  1.0847
  831MPD2    H312225   1.166   3.496  16.799 -1.3143 -0.9140  0.2006
  831MPD2     N12226   0.762   3.450  16.607  0.1325  0.1993 -0.4835
  831MPD2    H512227   0.723   3.465  16.700  1.8931 -2.5487  0.7080
  831MPD2    N112228   1.169   3.543  16.347 -0.0635 -0.4205  0.0641
  831MPD2    H712229   1.270   3.527  16.345 -0.1088 -0.6947 -0.1127
  832MPD2     C12230   4.147   0.129  17.531 -0.2734  0.0856  0.0675
  832MPD2    C112231   4.086   0.253  17.531  0.2023  0.4185 -0.4297
  832MPD2    C212232   3.989   0.286  17.441  0.8038  0.1493  0.0118
  832MPD2    C312233   3.936   0.193  17.355  0.1109 -0.4911  0.0404
  832MPD2    C412234   3.986   0.066  17.358  0.4862  0.2092  0.5125
  832MPD2    C512235   4.093   0.044  17.443 -1.1285 -0.0991 -0.0655
  832MPD2     H12236   3.950   0.387  17.444 -1.3517 -0.6387 -1.4210
  832MPD2    H112237   3.951   4.708  17.296 -0.5405  1.1170 -0.0860
  832MPD2    H212238   4.219   0.107  17.609 -0.4508 -0.1724  0.1607
  832MPD2    H312239   4.144   4.672  17.437  0.0850  0.6782 -2.1805
  832MPD2     N12240   3.826   0.215  17.276 -0.0080 -0.5277 -1.0520
  832MPD2    H512241   3.796   0.132  17.226 -0.1888 -0.7243 -0.6195
  832MPD2    N112242   4.129   0.340  17.633 -0.0196 -0.0954  0.1020
  832MPD2    H712243   4.172   0.310   0.025 -1.0248  2.5411  1.5089
  833MPD2     C12244   1.880   1.253  12.715 -0.8396 -0.3545 -0.2920
  833MPD2    C112245   1.922   1.326  12.604 -0.1225  0.5170 -0.3245
  833MPD2    C212246   1.987   1.255  12.507 -0.1482  1.0869 -0.1401
  833MPD2    C312247   2.007   1.121  12.511 -0.1707  0.2735 -0.0334
  833MPD2    C412248   1.972   1.046  12.624  0.6156  0.3495  0.8739
  833MPD2    C512249   1.908   1.122  12.727 -0.0272  0.0817  0.7759
  833MPD2     H12250   1.994   1.309  12.414  2.3895 -0.9860 -1.1341
  833MPD2    H112251   1.987   0.939  12.641  1.8253  0.3890  0.0789
  833MPD2    H212252   1.832   1.307  12.796 -2.2944  1.2213 -2.2115
  833MPD2    H312253   1.878   1.067  12.816 -0.1951  0.0305  0.6871
  833MPD2     N12254   2.054   1.053  12.398 -0.5078  0.2601 -0.8288
  833MPD2    H512255   2.054   0.952  12.406  0.6675  0.3588  0.2838
  833MPD2    N112256   1.876   1.461  12.593  0.3660 -0.2641  0.2339
  833MPD2    H712257   1.802   1.492  12.654 -0.3803  0.5356 -1.0731
  834MPD2     C12258   1.776   0.320  11.798  0.6801  0.3593 -0.3871
  834MPD2    C112259   1.752   0.441  11.733  0.8279 -0.7170 -0.0388
  834MPD2    C212260   1.784   0.560  11.783 -0.2544  0.0452 -0.3600
  834MPD2    C312261   1.839   0.556  11.911 -0.8143  0.2146  0.4053
  834MPD2    C412262   1.863   0.442  11.980  0.2045 -0.0579 -0.1106
  834MPD2    C512263   1.822   0.323  11.928 -0.6532 -0.7217 -0.3176
  834MPD2     H12264   1.776   0.652  11.725  0.7247 -1.1986 -2.4606
  834MPD2    H112265   1.902   0.440  12.081 -1.3394 -1.4308  0.4563
  834MPD2    H212266   1.756   0.226  11.747  1.3884 -0.5849  1.0970
  834MPD2    H312267   1.853   0.225  11.964  0.8361  0.1405  0.7358
  834MPD2     N12268   1.883   0.687  11.953 -0.7324  0.6412  0.3965
  834MPD2    H512269   1.861   0.754  11.880  2.0286  0.8222 -0.2770
  834MPD2    N112270   1.718   0.423  11.596 -0.3070 -0.2085  0.0368
  834MPD2    H712271   1.702   0.329  11.562 -2.9014 -0.0337  0.7841
  835MPD2     C12272   1.924   3.276  10.864  0.9721 -0.7502 -0.2591
  835MPD2    C112273   1.860   3.389  10.893 -0.0828  0.0843  0.6139
  835MPD2    C212274   1.863   3.446  11.021 -0.0424 -0.3894  0.6682
  835MPD2    C312275   1.934   3.394  11.124 -0.1073  0.1919 -0.3745
  835MPD2    C412276   2.008   3.284  11.092 -0.0153 -0.2355  0.2150
  835MPD2    C512277   1.980   3.217  10.974 -0.0309  0.0414 -0.6384
  835MPD2     H12278   1.822   3.546  11.032  0.2784 -0.2713  0.7613
  835MPD2    H112279   2.056   3.239  11.178  1.9382 -2.0372 -1.8368
  835MPD2    H212280   1.925   3.226  10.767 -0.5406 -0.6343 -0.3415
  835MPD2    H312281   2.028   3.120  10.966 -2.3684 -1.0732 -0.9259
  835MPD2     N12282   1.916   3.446  11.254  0.2704  0.1124  0.0438
  835MPD2    H512283   1.981   3.419  11.327 -1.3185 -2.7182  0.4045
  835MPD2    N112284   1.779   3.457  10.798 -0.7970  0.2487  0.0506
  835MPD2    H712285   1.719   3.533  10.829 -1.4873 -0.0117 -0.6495
  836MPD2     C12286   1.426   3.939  11.274  0.1902 -0.0339  0.6528
  836MPD2    C112287   1.460   3.939  11.406  0.2199  0.3150 -0.7443
  836MPD2    C212288   1.382   4.014  11.493  0.6470 -0.0317  0.2595
  836MPD2    C312289   1.277   4.095  11.448  0.2286 -0.0251  0.4397
  836MPD2    C412290   1.255   4.107  11.316  0.0046  0.0070 -0.3231
  836MPD2    C512291   1.327   4.025  11.228  0.4647 -0.0835 -0.1753
  836MPD2     H12292   1.416   4.012  11.596  0.1452 -0.2549  0.4228
  836MPD2    H112293   1.180   4.168  11.267 -0.1371 -1.1981 -1.6199
  836MPD2    H212294   1.479   3.879  11.201 -0.1393 -0.2574  0.5971
  836MPD2    H312295   1.295   4.019  11.124  1.1072 -1.5563 -0.2849
  836MPD2     N12296   1.185   4.162  11.533 -0.3860 -0.2774 -1.1336
  836MPD2    H512297   1.120   4.221  11.483 -1.1530  1.8400  2.3743
  836MPD2    N112298   1.570   3.859  11.441 -0.3406  0.2587  0.3892
  836MPD2    H712299   1.605   3.803  11.364  1.8450  0.2458  1.4042
  837MPD2     C12300   0.189   3.165   9.934  0.5746  0.4201 -0.1197
  837MPD2    C112301   0.076   3.230   9.876  0.0723 -0.1063 -0.2300
  837MPD2    C212302   0.062   3.365   9.883 -0.7598 -0.7899  0.1470
  837MPD2    C312303   0.155   3.439   9.941  0.3596  0.2185 -0.2048
  837MPD2    C412304   0.260   3.380  10.012 -0.1930 -0.3016 -0.8372
  837MPD2    C512305   0.282   3.244   9.999 -0.0742 -0.3291 -0.0239
  837MPD2     H12306   4.692   3.410   9.852 -0.0263  0.4794 -0.2250
  837MPD2    H112307   0.342   3.441  10.048 -0.7820 -0.8757  1.4964
  837MPD2    H212308   0.195   3.057   9.933 -0.9621  0.3594 -4.1030
  837MPD2    H312309   0.371   3.192  10.031  1.5026  2.3011 -0.1495
  837MPD2     N12310   0.126   3.579   9.962 -0.3025 -0.7896  1.1280
  837MPD2    H512311   0.048   3.621   9.913  1.0966 -0.0192 -0.4496
  837MPD2    N112312   4.687   3.161   9.818 -0.5226  0.1966 -0.0731
  837MPD2    H712313   4.621   3.224   9.773 -1.6028 -1.3161 -0.6167
  838MPD2     C12314   2.959   1.253  11.309 -0.4524 -0.4859  0.6070
  838MPD2    C112315   2.983   1.357  11.401 -0.4255  0.6526  0.0457
  838MPD2    C212316   2.893   1.377  11.502  0.9908 -1.0079 -0.0079
  838MPD2    C312317   2.783   1.297  11.515 -0.1690 -0.6019  0.1680
  838MPD2    C412318   2.753   1.194  11.416  0.4744  0.2101 -0.0385
  838MPD2    C512319   2.844   1.183  11.313 -0.0034  1.5383  0.3646
  838MPD2     H12320   2.905   1.461  11.569  1.7117  0.5460 -2.0893
  838MPD2    H112321   2.657   1.143  11.423  1.0827 -0.8975  0.2894
  838MPD2    H212322   3.021   1.231  11.222  0.7549  1.3058  1.0292
  838MPD2    H312323   2.826   1.096  11.251 -1.1989  0.5672  2.0637
  838MPD2     N12324   2.700   1.321  11.631 -0.5113  0.4398  0.4061
  838MPD2    H512325   2.723   1.404  11.685  2.0243 -0.0090  0.0202
  838MPD2    N112326   3.102   1.433  11.395 -0.4408 -0.6652  0.2368
  838MPD2    H712327   3.096   1.509  11.462  0.7292  0.5037 -0.9916
  839MPD2     C12328   3.120   1.401  12.046 -0.1426  0.2439 -0.3527
  839MPD2    C112329   3.126   1.308  11.939 -0.1215 -0.2552  0.8558
  839MPD2    C212330   3.230   1.318  11.841  0.4526  0.1655  0.1488
  839MPD2    C312331   3.317   1.430  11.841  0.1149 -0.2768 -0.3371
  839MPD2    C412332   3.303   1.523  11.938 -0.8275  0.1277 -0.3363
  839MPD2    C512333   3.218   1.502  12.043 -0.3794 -0.3792 -0.1427
  839MPD2     H12334   3.238   1.253  11.755 -0.8413 -0.3212  0.3972
  839MPD2    H112335   3.354   1.619  11.931 -3.5654  1.6059 -0.0743
  839MPD2    H212336   3.056   1.390  12.133 -2.1768 -0.7522 -2.0094
  839MPD2    H312337   3.211   1.573  12.124  1.9098  1.5112 -1.5983
  839MPD2     N12338   3.398   1.437  11.723 -0.4347  0.0279 -0.3322
  839MPD2    H512339   3.384   1.363  11.655  0.6465  0.8010 -1.4007
  839MPD2    N112340   3.037   1.196  11.927  0.3057 -0.0125 -0.0159
  839MPD2    H712341   3.045   1.137  11.845 -1.6724 -1.0024  0.4926
  840MPD2     C12342   3.324   4.455  10.131 -0.1616 -0.2304 -0.1104
  840MPD2    C112343   3.321   4.364  10.238 -0.5498  0.9599  0.6886
  840MPD2    C212344   3.368   4.400  10.368 -0.4221  0.2746 -0.7163
  840MPD2    C312345   3.437   4.524  10.377  0.2669 -0.2430  0.7135
  840MPD2    C412346   3.451   4.599  10.265 -0.6441 -0.2953  0.1103
  840MPD2    C512347   3.396   4.565  10.144 -0.2582  0.1302  0.0988
  840MPD2     H12348   3.361   4.331  10.451  1.5134 -0.4615 -1.1551
  840MPD2    H112349   3.502   4.694  10.281  1.0846 -1.7669  3.2433
  840MPD2    H212350   3.298   4.421  10.032  0.0013  0.7763 -0.4951
  840MPD2    H312351   3.401   4.630  10.057 -2.4501  1.2300  0.7981
  840MPD2     N12352   3.491   4.567  10.497  0.2747  0.5013  0.2707
  840MPD2    H512353   3.535   4.658  10.508 -1.3782  1.4696 -1.1231
  840MPD2    N112354   3.251   4.243  10.210  0.3826 -0.0849  0.2473
  840MPD2    H712355   3.201   4.242  10.122  1.3071  1.8667 -0.3061
  841MPD2     C12356   2.599   3.770  14.879  0.6615 -0.5824 -0.6832
  841MPD2    C112357   2.705   3.731  14.793 -0.2314  0.0164 -0.0420
  841MPD2    C212358   2.806   3.817  14.753  0.0373 -0.4707 -0.2474
  841MPD2    C312359   2.823   3.934  14.820  0.6678  0.4831 -0.6662
  841MPD2    C412360   2.728   3.970  14.914 -0.3083  0.4309 -0.5070
  841MPD2    C512361   2.612   3.898  14.934 -0.0982 -0.4910 -0.3391
  841MPD2     H12362   2.875   3.789  14.674 -0.6679 -0.8327 -0.7382
  841MPD2    H112363   2.743   4.070  14.954  0.5860  0.9033 -2.0042
  841MPD2    H212364   2.533   3.693  14.919  0.1921 -1.7720 -3.7992
  841MPD2    H312365   2.541   3.928  15.011 -1.1420 -0.9723 -1.1191
  841MPD2     N12366   2.927   4.012  14.768 -0.1704 -0.4495 -0.2054
  841MPD2    H512367   2.986   3.978  14.693  1.0713  1.1018  0.0746
  841MPD2    N112368   2.705   3.602  14.723  0.5440 -0.0358 -0.5729
  841MPD2    H712369   2.775   3.590  14.651  2.6799  0.2363  1.4684
  842MPD2     C12370   3.175   0.599  17.196 -0.3868 -0.2473 -0.5982
  842MPD2    C112371   3.074   0.504  17.207  0.5848  0.3554  0.1160
  842MPD2    C212372   3.023   0.494  17.341 -0.2109 -0.1926  1.0085
  842MPD2    C312373   3.051   0.591  17.434  0.2676  0.7346  0.2793
  842MPD2    C412374   3.136   0.696  17.399 -0.2039 -0.1380 -0.1413
  842MPD2    C512375   3.204   0.692  17.291 -0.2625  0.1411 -0.6013
  842MPD2     H12376   2.942   0.424  17.357 -0.6880 -0.2065 -1.4641
  842MPD2    H112377   3.148   0.778  17.469  0.5137 -0.3281 -0.0395
  842MPD2    H212378   3.228   0.597  17.101 -0.8510 -0.0168 -0.8588
  842MPD2    H312379   3.277   0.767  17.260 -0.3228 -0.0726 -1.2481
  842MPD2     N12380   2.989   0.592  17.560  0.5930 -0.0693  0.0920
  842MPD2    H512381   3.000   0.660  17.635 -0.8019  1.0653 -0.7397
  842MPD2    N112382   3.053   0.422  17.093 -0.4788  0.5557 -0.1267
  842MPD2    H712383   3.089   0.458  17.005  2.5254 -2.5911 -0.1757
  843MPD2     C12384   4.581   0.644   0.697  0.2416  0.6372  0.1461
  843MPD2    C112385   4.586   0.555   0.597 -0.0765  0.0192  0.6015
  843MPD2    C212386   4.624   0.604   0.473  0.0970 -0.3841  0.3669
  843MPD2    C312387   4.670   0.734   0.454 -0.4296 -0.4768  0.1321
  843MPD2    C412388   4.667   0.823   0.562 -0.2268  0.0310  0.0968
  843MPD2    C512389   4.621   0.777   0.686 -0.3736  0.6884  0.3447
  843MPD2     H12390   4.616   0.541   0.384  2.5460 -0.8132  0.4601
  843MPD2    H112391   4.687   0.926   0.537  1.4461 -0.4555 -0.5772
  843MPD2    H212392   4.561   0.594   0.792  0.2439 -2.3243 -1.4376
  843MPD2    H312393   4.611   0.845   0.769 -1.6192  1.7893 -0.6941
  843MPD2     N12394   4.713   0.786   0.335  0.0238 -0.2217 -0.2361
  843MPD2    H512395   0.020   0.882   0.348 -1.4038  0.2031 -0.0689
  843MPD2    N112396   4.538   0.430   0.616  0.3744 -0.1088  0.2323
  843MPD2    H712397   4.484   0.407   0.699  0.9204  0.9932  0.8855
  844MPD2     C12398   3.645   4.404  16.824  0.0814  0.0875 -0.5861
  844MPD2    C112399   3.782   4.415  16.804 -0.9453 -0.4943 -0.3729
  844MPD2    C212400   3.834   4.540  16.774 -0.5669  0.1404 -0.5931
  844MPD2    C312401   3.764   4.653  16.794 -0.2363  0.0023  0.1019
  844MPD2    C412402   3.629   4.643  16.809  0.2552  0.7489  0.5077
  844MPD2    C512403   3.569   4.521  16.820 -0.0059  0.0846 -0.1115
  844MPD2     H12404   3.940   4.541  16.751 -0.8164  0.7028 -1.7215
  844MPD2    H112405   3.572   0.010  16.829  0.5604  1.3879 -1.4988
  844MPD2    H212406   3.589   4.311  16.825 -0.1968  0.2741  1.8811
  844MPD2    H312407   3.461   4.514  16.816 -0.0562  0.1940  1.1064
  844MPD2     N12408   3.834   0.055  16.781  0.6577 -0.2273  0.4202
  844MPD2    H512409   3.935   0.045  16.773  0.6934 -0.0899  0.6930
  844MPD2    N112410   3.867   4.301  16.794  0.2891 -0.1112  0.2366
  844MPD2    H712411   3.963   4.314  16.762  0.2667 -1.0304 -0.2004
  845MPD2     C12412   3.781   1.141  16.887 -0.1392 -0.5843 -0.5288
  845MPD2    C112413   3.811   1.077  17.003 -0.0214  0.4844 -0.9607
  845MPD2    C212414   3.848   0.946  16.996 -0.1334 -0.5483 -0.6307
  845MPD2    C312415   3.846   0.877  16.873  0.4934  0.3969  0.4008
  845MPD2    C412416   3.817   0.947  16.754  0.0607  0.2503  0.3033
  845MPD2    C512417   3.796   1.079  16.762  0.1803  0.7526  0.3170
  845MPD2     H12418   3.874   0.893  17.086 -2.4870  1.4842  1.2706
  845MPD2    H112419   3.829   0.910  16.653 -0.9143 -0.3199  0.3958
  845MPD2    H212420   3.736   1.240  16.893  1.7495  0.0731  2.7478
  845MPD2    H312421   3.790   1.131  16.667 -0.1843 -0.5596 -0.3783
  845MPD2     N12422   3.880   0.743  16.881 -0.5702  0.0640  0.3270
  845MPD2    H512423   3.899   0.704  16.972  0.4929 -1.7454 -0.6733
  845MPD2    N112424   3.785   1.152  17.125 -0.0491  0.9351 -0.2931
  845MPD2    H712425   3.751   1.245  17.105  1.8190  2.0202  1.6907
  846MPD2     C12426   0.891   1.173  13.753 -0.6680 -0.4208  0.2313
  846MPD2    C112427   0.795   1.270  13.729 -0.0745 -0.0738  0.4185
  846MPD2    C212428   0.700   1.299  13.831  0.1675  1.3291 -0.4448
  846MPD2    C312429   0.712   1.231  13.953 -0.9124  0.5759  0.3122
  846MPD2    C412430   0.818   1.155  13.977  0.1766  0.1584  0.0022
  846MPD2    C512431   0.898   1.113  13.876  0.0147  0.0889  0.0059
  846MPD2     H12432   0.627   1.379  13.818  1.6134  2.5629 -0.9925
  846MPD2    H112433   0.833   1.104  14.071  0.8989  2.6566  1.2619
  846MPD2    H212434   0.962   1.143  13.677 -2.3875 -0.3209 -1.3937
  846MPD2    H312435   0.968   1.036  13.909 -1.0125 -0.0389  1.8753
  846MPD2     N12436   0.617   1.253  14.050 -0.4037 -0.7550  0.4808
  846MPD2    H512437   0.528   1.288  14.017  0.1299 -0.2734 -0.4836
  846MPD2    N112438   0.789   1.331  13.600  0.1028  0.3922  0.5064
  846MPD2    H712439   0.725   1.409  13.595 -0.8692 -0.4256  0.1353
  847MPD2     C12440   0.848   2.011  14.072  0.2842  0.0651 -0.2659
  847MPD2    C112441   0.962   2.042  14.150  0.4033  0.1454 -0.1857
  847MPD2    C212442   0.995   1.961  14.254  0.4568 -0.7993 -0.4007
  847MPD2    C312443   0.907   1.860  14.294  0.2288 -0.4137  0.7851
  847MPD2    C412444   0.793   1.841  14.218  0.3200 -0.0536  0.1585
  847MPD2    C512445   0.773   1.910  14.107  0.3492  0.0911  0.5647
  847MPD2     H12446   1.086   1.982  14.310 -0.9056  0.7446  1.2196
  847MPD2    H112447   0.719   1.770  14.253  0.2773  0.0921  0.3608
  847MPD2    H212448   0.812   2.078  13.994  0.1107 -0.3255 -0.5219
  847MPD2    H312449   0.673   1.911  14.065  1.3663 -0.1662 -1.8917
  847MPD2     N12450   0.925   1.771  14.407  0.0720  0.1471 -0.5215
  847MPD2    H512451   0.855   1.700  14.422 -2.4734  3.1640  1.9750
  847MPD2    N112452   1.049   2.151  14.126  0.1658 -0.9208 -0.4414
  847MPD2    H712453   1.125   2.161  14.192  1.3661 -0.3726 -1.8918
  848MPD2     C12454   3.461   0.881  17.089 -0.1054  0.0971 -0.6533
  848MPD2    C112455   3.477   0.793  16.985  0.3273  0.0807 -0.3583
  848MPD2    C212456   3.474   0.837  16.857 -0.0673 -0.1151  0.9525
  848MPD2    C312457   3.457   0.973  16.832 -0.0014 -0.0040 -0.1720
  848MPD2    C412458   3.429   1.056  16.935 -0.1783 -1.1009  0.7181
  848MPD2    C512459   3.432   1.009  17.061 -0.1224 -0.1701  0.7131
  848MPD2     H12460   3.473   0.768  16.773 -0.8058 -0.7240  1.4687
  848MPD2    H112461   3.412   1.161  16.916 -1.2352 -1.0705  1.8167
  848MPD2    H212462   3.470   0.846  17.191  0.2122 -0.0095 -0.7198
  848MPD2    H312463   3.404   1.078  17.140  0.0201  0.1553  0.4809
  848MPD2     N12464   3.433   1.021  16.700 -0.5448  0.4469  1.5631
  848MPD2    H512465   3.411   1.119  16.690  0.1482  0.4451  0.0777
  848MPD2    N112466   3.515   0.664  17.020 -0.4609 -0.5386 -0.0956
  848MPD2    H712467   3.523   0.641  17.118  0.8558 -0.4561 -0.1808
  849MPD2     C12468   2.527   4.634  14.060  0.4247  0.7675 -0.3148
  849MPD2    C112469   2.646   4.640  14.126  0.0308  0.1132 -0.3910
  849MPD2    C212470   2.653   4.664  14.264 -0.5705  0.1008 -0.4850
  849MPD2    C312471   2.541   4.701  14.334  0.9220  0.2115  0.0496
  849MPD2    C412472   2.424   4.719  14.262 -0.2825 -0.1435 -0.4148
  849MPD2    C512473   2.411   4.677  14.132 -0.0343  0.1782  0.0155
  849MPD2     H12474   2.743   4.642  14.320 -0.7129  1.6206  0.3246
  849MPD2    H112475   2.328   0.015  14.309  0.9645  0.9237  1.7003
  849MPD2    H212476   2.507   4.610  13.956 -1.5553  0.3107  0.1699
  849MPD2    H312477   2.316   4.681  14.080 -1.4723 -2.0641  2.4669
  849MPD2     N12478   2.549   4.709  14.475 -0.1403  0.0989  0.1110
  849MPD2    H512479   2.640   4.711  14.519  0.5787 -2.8522 -1.1965
  849MPD2    N112480   2.754   4.597  14.048 -0.3856 -0.0884 -0.4176
  849MPD2    H712481   2.735   4.583  13.949  0.6022  0.6055 -0.7058
  850MPD2     C12482   0.381   2.481  14.933 -0.1915 -0.5674 -0.1919
  850MPD2    C112483   0.372   2.602  14.989  0.3436  0.1154 -0.8242
  850MPD2    C212484   0.486   2.678  15.017 -0.7744  0.1771 -0.4468
  850MPD2    C312485   0.605   2.621  14.983  0.0006  0.0417  0.4928
  850MPD2    C412486   0.616   2.508  14.909  0.2891 -0.5075  0.2639
  850MPD2    C512487   0.501   2.437  14.890  0.4987 -0.5080  0.1887
  850MPD2     H12488   0.476   2.778  15.058 -0.1524  0.5041 -1.0981
  850MPD2    H112489   0.713   2.472  14.879  0.2618 -0.5308  0.2030
  850MPD2    H212490   0.299   2.414  14.911  0.6313 -2.2741  1.9445
  850MPD2    H312491   0.494   2.346  14.831  0.5706 -1.1485  1.1657
  850MPD2     N12492   0.732   2.680  15.013  0.1307  0.1233 -1.2434
  850MPD2    H512493   0.810   2.619  14.991  0.1525 -0.5772  0.7684
  850MPD2    N112494   0.243   2.644  15.019 -0.0376  0.2450 -0.0338
  850MPD2    H712495   0.176   2.614  14.948  0.9211  0.5967 -1.0919
  851MPD2     C12496   0.884   2.655  15.563 -0.4661  0.5974  0.4183
  851MPD2    C112497   0.806   2.599  15.463  0.4451 -0.9127  0.8187
  851MPD2    C212498   0.868   2.537  15.353  0.0076  0.1505  0.1424
  851MPD2    C312499   1.004   2.520  15.354  0.7644  0.2112 -0.1195
  851MPD2    C412500   1.081   2.581  15.459  0.0754 -0.3508  0.5376
  851MPD2    C512501   1.018   2.650  15.559 -0.2542  0.5980 -0.4261
  851MPD2     H12502   0.817   2.504  15.263  0.5789  0.6080 -0.3447
  851MPD2    H112503   1.188   2.566  15.460 -0.0514 -1.2250  1.1219
  851MPD2    H212504   0.832   2.706  15.642 -1.1148 -0.3864  0.6254
  851MPD2    H312505   1.068   2.701  15.641  1.2916 -1.0415 -0.3430
  851MPD2     N12506   1.061   2.431  15.255  0.3534 -0.2951 -0.1608
  851MPD2    H512507   1.002   2.397  15.180  3.6708 -2.1824 -1.8914
  851MPD2    N112508   0.667   2.628  15.473 -0.2252  0.6709 -1.4682
  851MPD2    H712509   0.650   2.682  15.557 -0.2028  0.7087 -1.4881
  852MPD2     C12510   0.875   0.813   9.930  1.0053  0.0233 -0.1984
  852MPD2    C112511   0.962   0.793  10.036  0.0342 -0.5676 -0.1079
  852MPD2    C212512   1.090   0.848  10.041 -0.0579 -0.2880 -0.1456
  852MPD2    C312513   1.133   0.930   9.943  0.7842  0.2529  0.4428
  852MPD2    C412514   1.051   0.943   9.833  0.2695  0.5416  0.0439
  852MPD2    C512515   0.928   0.884   9.826 -0.0871  0.0354 -0.3757
  852MPD2     H12516   1.160   0.825  10.120 -0.6186 -0.3628  0.3241
  852MPD2    H112517   1.081   1.000   9.745  1.7958 -1.5139 -0.7855
  852MPD2    H212518   0.773   0.775   9.933  1.9913 -2.4069  2.9524
  852MPD2    H312519   0.862   0.901   9.742  0.3878  1.4956 -0.4522
  852MPD2     N12520   1.267   0.984   9.956 -0.1028  0.7136 -0.3685
  852MPD2    H512521   1.304   0.987  10.051 -0.0363 -3.0120 -0.2639
  852MPD2    N112522   0.919   0.703  10.144 -0.1360 -0.7110 -0.1692
  852MPD2    H712523   0.985   0.687  10.219  0.3697 -2.3634 -0.9618
  853MPD2     C12524   3.000   0.404  12.585  0.2293  0.4330  0.1862
  853MPD2    C112525   2.870   0.431  12.603  0.4613 -0.3496 -0.4668
  853MPD2    C212526   2.792   0.438  12.489  0.4109  1.2402 -0.1233
  853MPD2    C312527   2.839   0.403  12.367 -0.5258  0.5756  0.8459
  853MPD2    C412528   2.980   0.369  12.354  0.1440  0.1431 -0.4234
  853MPD2    C512529   3.057   0.366  12.469  0.1284 -0.2246  0.3926
  853MPD2     H12530   2.688   0.458  12.511 -0.8914 -4.2346 -1.3741
  853MPD2    H112531   3.023   0.327  12.264  3.7095  0.2642  1.2151
  853MPD2    H212532   3.067   0.410  12.670 -0.9212  1.1590  1.0463
  853MPD2    H312533   3.163   0.343  12.468  0.7277  2.6768 -1.2583
  853MPD2     N12534   2.757   0.389  12.253 -0.5885 -0.1764 -0.2405
  853MPD2    H512535   2.800   0.357  12.167  0.8920 -0.2211  0.5185
  853MPD2    N112536   2.827   0.472  12.734  0.1850  0.3973  0.1936
  853MPD2    H712537   2.898   0.472  12.806 -0.2086 -2.2400  0.5736
  854MPD2     C12538   0.127   0.630  12.352 -0.0227 -0.4264  0.1583
  854MPD2    C112539   0.044   0.649  12.459 -0.0705  0.7308  0.0874
  854MPD2    C212540   0.007   0.545  12.545  0.3822 -0.2074  0.4109
  854MPD2    C312541   0.054   0.412  12.512 -0.2395 -0.7234 -0.0068
  854MPD2    C412542   0.142   0.396  12.408 -0.4341 -0.0769  0.5320
  854MPD2    C512543   0.174   0.503  12.326 -0.4391  0.2558  0.0456
  854MPD2     H12544   4.667   0.567  12.630 -1.2661 -1.4640 -0.4994
  854MPD2    H112545   0.181   0.298  12.383 -1.0118  0.2196 -1.4967
  854MPD2    H212546   0.154   0.711  12.285 -0.1960 -0.5137 -0.0168
  854MPD2    H312547   0.246   0.490  12.246  1.2326  2.0330  1.2622
  854MPD2     N12548   0.018   0.298  12.580 -0.1521  0.4410 -0.2478
  854MPD2    H512549   0.066   0.214  12.547 -0.5510 -0.3932  1.3243
  854MPD2    N112550   0.004   0.783  12.475  0.3010 -0.1597 -0.6802
  854MPD2    H712551   0.016   0.840  12.392  0.9500 -0.4748 -0.8032
  855MPD2     C12552   4.239   0.309  13.438  0.0731 -0.0470  0.4425
  855MPD2    C112553   4.309   0.183  13.431  0.5237 -0.0911  0.3929
  855MPD2    C212554   4.352   0.142  13.310 -0.5330 -0.2332  0.4778
  855MPD2    C312555   4.336   0.218  13.191  0.4971 -0.4847 -0.9127
  855MPD2    C412556   4.277   0.341  13.199  0.0904 -0.2882 -0.0384
  855MPD2    C512557   4.234   0.387  13.325 -0.3917  0.3756 -0.6193
  855MPD2     H12558   4.410   0.050  13.315 -0.0799  0.1109  1.4457
  855MPD2    H112559   4.261   0.410  13.117  0.0906 -1.6610 -1.1926
  855MPD2    H212560   4.199   0.346  13.531  0.1690  1.7874 -0.2423
  855MPD2    H312561   4.190   0.484  13.341  0.2965  0.3444  1.4524
  855MPD2     N12562   4.381   0.176  13.068  0.0730  0.8127 -0.6420
  855MPD2    H512563   4.382   0.241  12.989  0.7121  2.1024  0.4372
  855MPD2    N112564   4.344   0.117  13.545  0.0374  0.6002  0.3935
  855MPD2    H712565   4.402   0.034  13.542  1.1288  1.2435  3.3683
  856MPD2     C12566   1.956   1.302  13.608 -0.5921  0.7420 -0.0314
  856MPD2    C112567   1.984   1.347  13.732 -0.0310  0.2138  0.0158
  856MPD2    C212568   1.941   1.469  13.770 -0.1078  0.3561  0.6779
  856MPD2    C312569   1.869   1.554  13.685 -0.2243 -0.1141 -0.4031
  856MPD2    C412570   1.836   1.502  13.561 -0.1090  0.0923  0.4702
  856MPD2    C512571   1.885   1.380  13.525 -0.2120  0.4807  0.1913
  856MPD2     H12572   1.958   1.497  13.873 -2.3182  0.6530  0.9432
  856MPD2    H112573   1.783   1.558  13.484  1.1451  0.3337 -0.2047
  856MPD2    H212574   2.001   1.210  13.574 -0.1962  0.8684  0.1582
  856MPD2    H312575   1.851   1.338  13.430 -0.1975 -1.1034  0.8905
  856MPD2     N12576   1.847   1.688  13.725  0.4202  0.4313 -0.3776
  856MPD2    H512577   1.808   1.742  13.648 -1.6145 -0.7371 -0.1800
  856MPD2    N112578   2.064   1.270  13.818 -0.0078 -0.0857  0.6737
  856MPD2    H712579   2.074   1.314  13.909  1.5360  1.8747 -0.4519
  857MPD2     C12580   3.710   3.652  12.473  0.3181  0.0734  1.1615
  857MPD2    C112581   3.728   3.600  12.595 -0.0349 -0.1368 -0.2007
  857MPD2    C212582   3.681   3.680  12.701 -0.3320  0.1449 -0.4060
  857MPD2    C312583   3.603   3.796  12.678  0.4958 -0.3004  0.3705
  857MPD2    C412584   3.575   3.838  12.547  0.5415  0.5250  0.2964
  857MPD2    C512585   3.637   3.766  12.446 -0.1219 -0.3930 -0.4201
  857MPD2     H12586   3.693   3.643  12.802 -0.2556  0.9824 -0.1031
  857MPD2    H112587   3.513   3.925  12.529 -2.6199 -1.9628 -0.8600
  857MPD2    H212588   3.749   3.604  12.384 -2.6620 -0.3409  0.0782
  857MPD2    H312589   3.611   3.789  12.344  2.2740  0.0060 -0.9392
  857MPD2     N12590   3.553   3.857  12.788 -0.0876 -0.2441  0.4927
  857MPD2    H512591   3.596   3.834  12.877  1.1888 -1.1392 -0.3650
  857MPD2    N112592   3.795   3.471  12.602 -0.3098  0.3276  0.3544
  857MPD2    H712593   3.828   3.439  12.511 -0.3462 -0.8238  0.7472
  858MPD2     C12594   3.552   2.387  16.989  0.1590  0.4887 -1.4407
  858MPD2    C112595   3.629   2.314  17.070  0.1926  0.2345  0.1642
  858MPD2    C212596   3.624   2.351  17.203  0.1356 -0.1553 -0.6196
  858MPD2    C312597   3.535   2.448  17.241 -0.0006 -0.1129  0.3831
  858MPD2    C412598   3.451   2.513  17.157 -0.0239 -0.1101 -0.4154
  858MPD2    C512599   3.468   2.482  17.029  0.0243  0.5735  0.6541
  858MPD2     H12600   3.690   2.314  17.281 -1.0529  0.9405  0.9025
  858MPD2    H112601   3.387   2.597  17.179  0.3536 -0.1719  0.9065
  858MPD2    H212602   3.553   2.378  16.881 -1.0443 -1.3992 -1.3078
  858MPD2    H312603   3.404   2.523  16.951  0.2083 -1.3157 -0.4902
  858MPD2     N12604   3.539   2.505  17.371  0.2307  0.2715 -0.5781
  858MPD2    H512605   3.492   2.594  17.374 -0.8343 -0.3237  0.4113
  858MPD2    N112606   3.729   2.238  17.007 -0.6240 -0.3745  0.3610
  858MPD2    H712607   3.730   2.238  16.906  1.7524  0.8447  0.3688
  859MPD2     C12608   2.182   3.908  15.267  0.9094 -0.6006 -0.5016
  859MPD2    C112609   2.312   3.962  15.260  0.1365 -0.0893 -0.2038
  859MPD2    C212610   2.419   3.881  15.257  0.4381 -0.3907 -0.1558
  859MPD2    C312611   2.396   3.739  15.249  0.6362 -0.4141 -0.0341
  859MPD2    C412612   2.268   3.690  15.258 -0.1742  0.2776 -0.0610
  859MPD2    C512613   2.163   3.773  15.271 -0.7395 -0.3341  0.5450
  859MPD2     H12614   2.523   3.910  15.253 -0.0860  0.9523 -4.1121
  859MPD2    H112615   2.247   3.585  15.241  0.7756  0.0249  0.3173
  859MPD2    H212616   2.097   3.974  15.257 -0.7113 -2.4455  1.3101
  859MPD2    H312617   2.072   3.716  15.282  0.0387 -1.5712  0.5549
  859MPD2     N12618   2.506   3.647  15.241 -0.2013  0.1783  0.1549
  859MPD2    H512619   2.483   3.552  15.215  1.1423  0.4740 -2.1334
  859MPD2    N112620   2.330   4.101  15.238  0.5904 -0.3331  0.4183
  859MPD2    H712621   2.245   4.152  15.217  0.1683 -1.5134 -0.7239
  860MPD2     C12622   0.755   0.127  11.289 -0.3137 -1.0441  0.2850
  860MPD2    C112623   0.817   0.128  11.417 -0.0652 -0.0166  0.3920
  860MPD2    C212624   0.739   0.111  11.528  0.3575  0.3405 -0.8196
  860MPD2    C312625   0.606   0.095  11.529  0.2435  0.6259  0.5606
  860MPD2    C412626   0.539   0.102  11.406 -0.0154  0.3636  0.0395
  860MPD2    C512627   0.613   0.120  11.287 -0.9322  0.2490  0.0433
  860MPD2     H12628   0.789   0.087  11.621 -1.8370  1.3186  0.6168
  860MPD2    H112629   0.432   0.109  11.391 -0.4761 -1.5760  2.2953
  860MPD2    H212630   0.803   0.119  11.192 -0.3109  0.3065  0.1828
  860MPD2    H312631   0.566   0.137  11.191  1.5356 -0.0595 -1.2335
  860MPD2     N12632   0.542   0.074  11.650  0.3102  0.0599  0.3486
  860MPD2    H512633   0.588   0.092  11.739 -0.7149 -0.9746  1.1018
  860MPD2    N112634   0.957   0.124  11.435  0.6015  0.0921  0.4368
  860MPD2    H712635   0.977   0.129  11.535  0.2710  1.3207  0.4432
  861MPD2     C12636   4.667   3.520  10.776  0.2212  0.1395  0.7739
  861MPD2    C112637   4.543   3.462  10.800 -0.1475  0.7728 -0.1350
  861MPD2    C212638   4.436   3.486  10.721 -0.0507 -0.2128  1.0184
  861MPD2    C312639   4.448   3.565  10.616  0.1950  0.0568 -0.6478
  861MPD2    C412640   4.571   3.626  10.585 -0.3350 -0.4351  0.2137
  861MPD2    C512641   4.681   3.594  10.662  0.3389 -0.5465 -0.4868
  861MPD2     H12642   4.340   3.444  10.745  0.5191 -2.9190 -1.4156
  861MPD2    H112643   4.589   3.680  10.492 -1.2855  1.4611  1.1265
  861MPD2    H212644   0.023   3.496  10.846  0.2218 -0.7537  0.4596
  861MPD2    H312645   0.053   3.638  10.635  0.5832 -0.8553 -0.1377
  861MPD2     N12646   4.345   3.591  10.513  0.0668  0.0848 -0.1143
  861MPD2    H512647   4.365   3.665  10.446 -0.1198 -0.9754 -1.3444
  861MPD2    N112648   4.505   3.394  10.928  0.0056  0.4856 -0.5566
  861MPD2    H712649   4.405   3.396  10.948 -0.0337  0.3635 -0.7407
  862MPD2     C12650   3.650   3.292  10.093 -0.0861  0.2062 -0.0386
  862MPD2    C112651   3.761   3.267  10.174  0.7395  0.3888 -1.2113
  862MPD2    C212652   3.781   3.144  10.228  0.1517 -0.2079 -0.2814
  862MPD2    C312653   3.689   3.040  10.209  0.3692 -0.2554  0.8544
  862MPD2    C412654   3.577   3.065  10.129 -0.3692  0.5635  0.2536
  862MPD2    C512655   3.557   3.191  10.073 -0.3482 -0.6894  0.5194
  862MPD2     H12656   3.863   3.127  10.297  0.2547 -0.4544 -0.4637
  862MPD2    H112657   3.497   2.998  10.102 -0.5742  0.2828  1.5535
  862MPD2    H212658   3.638   3.393  10.054 -0.4429 -0.3631 -1.4172
  862MPD2    H312659   3.471   3.215  10.011  0.2341 -0.2413 -0.1257
  862MPD2     N12660   3.716   2.914  10.279 -0.4472  0.0037 -0.0453
  862MPD2    H512661   3.810   2.899  10.313  0.0962  3.7101  0.0640
  862MPD2    N112662   3.853   3.366  10.215  1.1073 -0.2231  0.1236
  862MPD2    H712663   3.926   3.323  10.270  1.1903  0.6647  0.7076
  863MPD2     C12664   1.825   2.104  17.292 -0.1152  0.0715 -0.1883
  863MPD2    C112665   1.908   1.997  17.271 -0.5921 -0.0198 -0.4991
  863MPD2    C212666   1.998   1.958  17.364  0.2123 -0.5188 -0.2282
  863MPD2    C312667   2.009   2.022  17.482  0.4424 -0.4937  0.0109
  863MPD2    C412668   1.918   2.126  17.508  0.0100  0.1066  1.0783
  863MPD2    C512669   1.831   2.170  17.414  0.5426  0.4443 -0.0926
  863MPD2     H12670   2.064   1.875  17.342  0.2586 -0.4015 -0.5367
  863MPD2    H112671   1.914   2.182  17.601  1.1649  0.4232  0.9326
  863MPD2    H212672   1.761   2.150  17.218  1.3423  1.7968 -0.3830
  863MPD2    H312673   1.747   2.238  17.427 -0.1420 -0.3675 -0.2371
  863MPD2     N12674   2.094   1.982  17.593  0.2959 -0.0295 -0.6615
  863MPD2    H512675   2.086   2.031  17.681 -0.4807  0.2592 -0.8971
  863MPD2    N112676   1.889   1.942  17.140  0.1544  0.6558 -0.0294
  863MPD2    H712677   1.807   1.980  17.093  0.2179  0.7369 -0.0764
  864MPD2     C12678   2.259   3.211  16.721 -0.1852 -0.1774 -0.0716
  864MPD2    C112679   2.378   3.190  16.794 -0.5704  0.4409  0.0599
  864MPD2    C212680   2.495   3.262  16.768  0.2176 -0.2844 -0.1312
  864MPD2    C312681   2.488   3.348  16.661  0.0169  0.5160  0.1152
  864MPD2    C412682   2.374   3.381  16.596  0.2092  0.0946  0.8473
  864MPD2    C512683   2.257   3.312  16.625 -0.4221 -0.4523 -0.3183
  864MPD2     H12684   2.591   3.250  16.817  0.2973 -3.0564 -1.0148
  864MPD2    H112685   2.373   3.454  16.516 -1.5197  0.2036  0.9581
  864MPD2    H212686   2.175   3.149  16.750 -0.5102 -0.0963 -0.8642
  864MPD2    H312687   2.173   3.324  16.558 -0.8416  1.6917  0.6033
  864MPD2     N12688   2.608   3.402  16.599  0.1042  0.1804  0.3067
  864MPD2    H512689   2.594   3.462  16.518  1.3816 -0.3680 -0.3139
  864MPD2    N112690   2.368   3.081  16.883 -0.0813 -0.2850 -0.0500
  864MPD2    H712691   2.298   3.009  16.868  0.2043 -0.2876 -1.3473
  865MPD2     C12692   2.568   3.226  16.195 -0.6116 -0.2516 -0.1030
  865MPD2    C112693   2.701   3.249  16.195 -0.0202  0.1377 -0.1489
  865MPD2    C212694   2.738   3.380  16.200 -0.4396  0.3629  0.1467
  865MPD2    C312695   2.647   3.483  16.206  0.5910 -0.1199  0.5456
  865MPD2    C412696   2.514   3.456  16.195  0.8433  0.1475  0.0671
  865MPD2    C512697   2.474   3.328  16.193 -0.1552  0.5636  0.0873
  865MPD2     H12698   2.844   3.400  16.201 -0.4979  0.6626  0.2758
  865MPD2    H112699   2.440   3.535  16.203 -0.2539 -0.7864 -0.8890
  865MPD2    H212700   2.529   3.125  16.191  1.2465 -0.9122 -1.5975
  865MPD2    H312701   2.369   3.301  16.188  0.8644 -3.2292 -1.1739
  865MPD2     N12702   2.693   3.613  16.226 -0.0854 -0.8440 -0.4111
  865MPD2    H512703   2.623   3.683  16.204  0.6818 -1.0834 -3.6175
  865MPD2    N112704   2.775   3.126  16.188 -0.0810  0.3113 -0.0245
  865MPD2    H712705   2.717   3.044  16.177 -1.6341  1.3331  0.6500
  866MPD2     C12706   0.172   3.711  11.352 -0.4368  0.2243  0.4139
  866MPD2    C112707   0.163   3.670  11.223 -0.7351 -0.7227  0.0846
  866MPD2    C212708   0.055   3.708  11.139 -0.5808 -0.4380  0.1868
  866MPD2    C312709   4.669   3.779  11.195  0.0848  0.2334 -0.4767
  866MPD2    C412710   4.675   3.817  11.329 -0.1455 -0.8237 -0.1128
  866MPD2    C512711   0.070   3.791  11.398 -0.8040  0.5839  0.0284
  866MPD2     H12712   0.050   3.664  11.040  0.2251 -1.5627  0.6415
  866MPD2    H112713   4.594   3.878  11.367 -0.9396  0.2703 -3.6083
  866MPD2    H212714   0.250   3.678  11.420 -1.4440 -0.6303  1.1590
  866MPD2    H312715   0.081   3.841  11.493  0.7026  0.9270 -0.3325
  866MPD2     N12716   4.559   3.813  11.115 -0.5612  0.7441 -0.3632
  866MPD2    H512717   4.471   3.846  11.153  0.0249  1.3028  0.4792
  866MPD2    N112718   0.249   3.562  11.196  0.3077 -0.2685 -0.0295
  866MPD2    H712719   0.303   3.516  11.269 -0.8826 -0.6857  0.5950
  867MPD2     C12720   1.739   2.963  16.964  0.1701  0.1578 -0.6683
  867MPD2    C112721   1.850   2.934  17.040 -0.3725  0.5514  0.8942
  867MPD2    C212722   1.951   3.028  17.056  0.5593  0.1565  0.7694
  867MPD2    C312723   1.937   3.155  16.997 -0.3549  0.4893  0.9690
  867MPD2    C412724   1.831   3.180  16.917 -0.1655  0.0789 -0.6415
  867MPD2    C512725   1.736   3.087  16.901  0.0086  0.4593 -0.1311
  867MPD2     H12726   2.046   3.000  17.101 -0.3955 -0.2158  2.5626
  867MPD2    H112727   1.815   3.276  16.869  0.5478  0.0872 -0.8600
  867MPD2    H212728   1.664   2.888  16.943 -1.3492  1.6955 -0.7799
  867MPD2    H312729   1.653   3.118  16.839 -2.1796 -1.9791  1.5797
  867MPD2     N12730   2.045   3.244  17.004 -0.3785 -0.3477  0.1984
  867MPD2    H512731   2.042   3.319  16.936  0.2977 -0.3264  0.1909
  867MPD2    N112732   1.852   2.803  17.085  0.4729 -0.4985  0.1755
  867MPD2    H712733   1.778   2.740  17.054  0.5783  0.9172 -2.9381
  868MPD2     C12734   3.885   2.009  13.162 -0.9085  0.0726 -0.3936
  868MPD2    C112735   3.900   1.930  13.277  0.0748  0.4269 -0.0920
  868MPD2    C212736   3.822   1.955  13.387 -0.3013 -0.5057  0.6551
  868MPD2    C312737   3.726   2.057  13.378 -1.0631  0.6614 -0.0443
  868MPD2    C412738   3.713   2.129  13.263  0.3964 -0.7029  0.2891
  868MPD2    C512739   3.791   2.106  13.154 -0.2085  0.1698 -0.4574
  868MPD2     H12740   3.826   1.888  13.473  1.2601 -1.9614 -0.5355
  868MPD2    H112741   3.647   2.214  13.256  1.0353 -0.2557 -0.3740
  868MPD2    H212742   3.943   1.977  13.077  1.0497  0.4863  0.7816
  868MPD2    H312743   3.781   2.165  13.063 -1.2289 -1.4591 -1.4061
  868MPD2     N12744   3.648   2.076  13.494 -0.1018 -0.8318 -0.6231
  868MPD2    H512745   3.671   2.021  13.575  0.2249  0.3568  0.0962
  868MPD2    N112746   3.998   1.826  13.265 -0.0350  0.0263  0.1811
  868MPD2    H712747   4.055   1.819  13.182 -2.6616 -1.5753 -1.4987
  869MPD2     C12748   4.458   4.705   2.331  0.1278  0.2961 -0.1406
  869MPD2    C112749   4.366   4.636   2.257  0.1173 -0.1846 -0.0816
  869MPD2    C212750   4.321   4.693   2.140 -0.8867  0.2571  0.1000
  869MPD2    C312751   4.366   0.098   2.112  0.4480 -0.5573 -0.2941
  869MPD2    C412752   4.448   0.164   2.196  0.2853 -0.3898  0.8483
  869MPD2    C512753   4.510   0.100   2.300  0.0528 -0.2442  0.5098
  869MPD2     H12754   4.242   4.645   2.084  0.3379 -1.0460 -0.4955
  869MPD2    H112755   4.487   0.262   2.172 -0.0772 -0.4854 -0.1616
  869MPD2    H212756   4.495   4.656   2.421  1.8390 -1.7778 -1.9646
  869MPD2    H312757   4.579   0.141   2.373 -0.5597 -0.8447  1.4305
  869MPD2     N12758   4.346   0.161   1.991 -0.1945 -0.4031  0.2116
  869MPD2    H512759   4.387   0.253   1.983  1.3196 -1.0452  0.5678
  869MPD2    N112760   4.328   4.503   2.297  0.1889  0.0123  0.6294
  869MPD2    H712761   4.376   4.469   2.380 -0.3084  1.7694  1.6627
  870MPD2     C12762   3.442   3.899   1.513  0.7479  0.7660  0.3829
  870MPD2    C112763   3.554   3.941   1.449 -0.0397  0.1451 -0.0786
  870MPD2    C212764   3.552   4.026   1.338 -0.2034  0.1062 -0.8897
  870MPD2    C312765   3.426   4.056   1.279 -0.1025  0.0188  0.3360
  870MPD2    C412766   3.312   4.015   1.347 -1.1719  0.4522  0.8425
  870MPD2    C512767   3.321   3.940   1.461  0.3186 -0.1572 -0.3610
  870MPD2     H12768   3.644   4.047   1.286  0.1681 -1.5473 -0.8735
  870MPD2    H112769   3.211   4.047   1.327 -1.1572 -0.9754 -1.5199
  870MPD2    H212770   3.429   3.842   1.605 -0.0827  0.6770  0.2094
  870MPD2    H312771   3.227   3.919   1.512 -0.6905  0.4575 -1.9646
  870MPD2     N12772   3.418   4.139   1.164 -0.2361 -0.0338  0.7563
  870MPD2    H512773   3.503   4.143   1.107 -1.2149 -2.3985 -0.8591
  870MPD2    N112774   3.677   3.899   1.502  0.9859 -0.0602  0.1855
  870MPD2    H712775   3.672   3.823   1.570  2.8330  1.5092  2.1005
  871MPD2     C12776   0.741   3.055  16.577  0.0274 -0.1677 -0.2990
  871MPD2    C112777   0.741   2.982  16.690  0.1935 -0.4009 -0.2314
  871MPD2    C212778   0.749   2.849  16.687  0.7232  0.1477 -0.2905
  871MPD2    C312779   0.752   2.783  16.563  0.8098  0.4985 -0.4279
  871MPD2    C412780   0.753   2.855  16.450 -0.0200 -0.0159 -0.1385
  871MPD2    C512781   0.745   2.989  16.456  0.2202  0.0613  0.2901
  871MPD2     H12782   0.761   2.793  16.779  1.0485  3.3468  1.6226
  871MPD2    H112783   0.773   2.811  16.353  0.0215 -0.6404  0.1552
  871MPD2    H212784   0.746   3.163  16.584  0.6568 -0.3365  1.7219
  871MPD2    H312785   0.762   3.043  16.363  0.1116  0.6553  0.6142
  871MPD2     N12786   0.773   2.643  16.571  0.0100  0.3866  0.0548
  871MPD2    H512787   0.752   2.604  16.662  0.7529  0.1427  0.1265
  871MPD2    N112788   0.725   3.052  16.812 -0.0340 -0.5455 -0.3513
  871MPD2    H712789   0.707   3.152  16.804  1.1662 -0.3039  0.0426
  872MPD2     C12790   1.587   0.569  14.343 -0.2420 -0.3912 -0.4469
  872MPD2    C112791   1.614   0.653  14.235 -0.2680  0.7665 -0.5372
  872MPD2    C212792   1.504   0.714  14.173  0.0498  0.4694 -0.3556
  872MPD2    C312793   1.375   0.697  14.224 -0.1128  0.1528 -0.8738
  872MPD2    C412794   1.353   0.632  14.343  0.4766 -0.0962  0.5908
  872MPD2    C512795   1.456   0.563  14.396  0.2211 -0.0033 -0.4436
  872MPD2     H12796   1.508   0.777  14.085  0.5916  0.7700 -0.1168
  872MPD2    H112797   1.260   0.633  14.399  1.3778 -0.0715  2.0911
  872MPD2    H212798   1.658   0.503  14.391  0.4425  0.4080 -0.3605
  872MPD2    H312799   1.445   0.514  14.492 -0.1278  2.0121  0.5366
  872MPD2     N12800   1.277   0.783  14.175 -0.0424  0.5062 -0.1258
  872MPD2    H512801   1.309   0.865  14.125 -0.5555  1.1271  0.5630
  872MPD2    N112802   1.743   0.656  14.173 -0.1098  0.4695  0.0561
  872MPD2    H712803   1.751   0.708  14.086  0.8784 -1.1319 -0.8246
  873MPD2     C12804   3.322   0.888   1.952 -0.9243  0.3912  0.4705
  873MPD2    C112805   3.209   0.958   1.915 -0.8892 -0.6308 -0.0496
  873MPD2    C212806   3.089   0.887   1.914 -0.4472 -0.5889  0.4300
  873MPD2    C312807   3.086   0.752   1.939 -0.0264  0.0428 -0.2639
  873MPD2    C412808   3.203   0.680   1.969 -0.4862 -0.3060 -0.2438
  873MPD2    C512809   3.314   0.759   1.988 -0.0480 -0.4424 -0.2826
  873MPD2     H12810   2.995   0.930   1.881 -0.0508  1.4325  1.9190
  873MPD2    H112811   3.209   0.578   2.005  0.7377 -0.1796 -0.0948
  873MPD2    H212812   3.410   0.947   1.973 -1.1706  0.2232  1.9569
  873MPD2    H312813   3.404   0.717   2.032 -0.1730  0.0964  0.4709
  873MPD2     N12814   2.966   0.675   1.934 -0.1906 -0.0668  0.2615
  873MPD2    H512815   2.975   0.574   1.934 -0.4017 -0.0848 -0.3179
  873MPD2    N112816   3.215   1.102   1.900 -0.4702 -0.1816  0.6269
  873MPD2    H712817   3.307   1.140   1.916 -0.5958 -0.6930  2.6827
  874MPD2     C12818   2.756   0.526  16.354 -0.1202 -0.4881  0.2638
  874MPD2    C112819   2.860   0.515  16.444  0.4178 -0.2247  0.5559
  874MPD2    C212820   2.949   0.622  16.456  0.0923 -0.1527 -0.0424
  874MPD2    C312821   2.938   0.733  16.377  0.1097  0.1101 -0.9870
  874MPD2    C412822   2.850   0.723  16.274 -0.0072 -0.5842 -0.1257
  874MPD2    C512823   2.755   0.622  16.262 -0.0999 -0.6634 -0.0665
  874MPD2     H12824   3.030   0.634  16.526 -1.7886  1.0116  1.9154
  874MPD2    H112825   2.853   0.791  16.190  0.6873 -1.2092 -0.5975
  874MPD2    H212826   2.677   0.453  16.343 -2.2806  2.0245 -0.8876
  874MPD2    H312827   2.688   0.608  16.178  0.0098 -0.7877 -0.1320
  874MPD2     N12828   3.037   0.838  16.393  0.2646  0.3380 -0.3605
  874MPD2    H512829   3.091   0.830  16.479 -1.3785 -0.6909  0.5796
  874MPD2    N112830   2.856   0.406  16.534  0.2861  0.2600  0.0154
  874MPD2    H712831   2.771   0.353  16.545  1.4139 -1.0954  2.0882
  875MPD2     C12832   4.276   3.758  14.459  0.6142  0.5078  0.0471
  875MPD2    C112833   4.166   3.847  14.464 -0.0895  0.2652 -0.0843
  875MPD2    C212834   4.138   3.916  14.581  0.0501  0.2005 -0.1684
  875MPD2    C312835   4.218   3.892  14.693 -0.7200  0.3529 -0.0390
  875MPD2    C412836   4.327   3.809  14.681 -0.4376 -0.1157 -0.5765
  875MPD2    C512837   4.356   3.741  14.568  0.2068 -0.8282 -0.1868
  875MPD2     H12838   4.053   3.984  14.576 -0.7989 -0.8285  0.3658
  875MPD2    H112839   4.376   3.787  14.775 -2.0145 -2.1361 -0.2121
  875MPD2    H212840   4.297   3.697  14.372  0.0761  1.4614 -0.7545
  875MPD2    H312841   4.428   3.660  14.571  1.7625  0.5561  0.2231
  875MPD2     N12842   4.190   3.947  14.821  0.1097 -0.3643  0.3364
  875MPD2    H512843   4.242   3.911  14.900  0.4255 -0.4761  0.0744
  875MPD2    N112844   4.081   3.871  14.351 -0.0759  0.2623 -0.1186
  875MPD2    H712845   3.999   3.929  14.366  0.9836  1.4192  1.2828
  876MPD2     C12846   3.289   0.556  16.172 -0.7377  0.5056 -0.9003
  876MPD2    C112847   3.202   0.448  16.163  0.2657  0.8488  0.0110
  876MPD2    C212848   3.239   0.330  16.217 -0.3070 -0.4872 -0.1501
  876MPD2    C312849   3.369   0.308  16.270  0.3915 -0.3499  0.0206
  876MPD2    C412850   3.457   0.415  16.266 -0.3705 -0.1254 -0.4600
  876MPD2    C512851   3.424   0.536  16.212 -0.4883  0.1168 -0.2481
  876MPD2     H12852   3.182   0.238  16.208 -0.8128 -0.2165  0.2782
  876MPD2    H112853   3.559   0.384  16.288 -1.1301 -0.7688  2.1949
  876MPD2    H212854   3.266   0.658  16.145 -2.9450  0.4341  0.7526
  876MPD2    H312855   3.491   0.621  16.218  1.7406 -1.6723  0.1023
  876MPD2     N12856   3.405   0.181  16.316  0.0939 -0.0129 -0.3836
  876MPD2    H512857   3.327   0.116  16.304  1.1235 -1.1791 -0.8046
  876MPD2    N112858   3.073   0.465  16.092  0.0766 -0.3479  0.3143
  876MPD2    H712859   3.057   0.560  16.059 -0.2502 -0.7050 -0.5595
  877MPD2     C12860   2.825   0.933  15.580 -0.3556 -0.7679 -0.2248
  877MPD2    C112861   2.874   0.811  15.547 -0.1121  0.3486 -0.4458
  877MPD2    C212862   2.955   0.802  15.435  0.5668 -0.0323  0.4577
  877MPD2    C312863   2.968   0.899  15.342  0.3300 -0.1362  0.0849
  877MPD2    C412864   2.902   1.015  15.367 -0.2237 -0.4598  0.4410
  877MPD2    C512865   2.847   1.033  15.492 -1.1473 -0.7106  0.4377
  877MPD2     H12866   2.984   0.699  15.420  2.5457  0.4304  1.1387
  877MPD2    H112867   2.905   1.096  15.295 -1.0323 -0.1558  0.7517
  877MPD2    H212868   2.768   0.947  15.672  0.9904 -2.3086  0.8375
  877MPD2    H312869   2.817   1.135  15.512  0.1610 -0.4663  1.1970
  877MPD2     N12870   3.037   0.888  15.218 -0.4858 -0.4423  0.2278
  877MPD2    H512871   3.018   0.963  15.153  1.1789  1.5893  2.0762
  877MPD2    N112872   2.849   0.690  15.617 -0.9698  0.2146  0.2670
  877MPD2    H712873   2.886   0.606  15.573 -0.9200  0.7756 -0.7636
  878MPD2     C12874   2.805   4.324  13.227 -0.6987  0.3896  0.1201
  878MPD2    C112875   2.912   4.409  13.258  0.0930  0.0447 -0.1412
  878MPD2    C212876   2.941   4.419  13.390 -0.1829  0.3117 -0.5460
  878MPD2    C312877   2.874   4.338  13.485 -0.0075  0.2993  0.4790
  878MPD2    C412878   2.764   4.254  13.454 -0.1368  0.5927  0.4587
  878MPD2    C512879   2.729   4.253  13.323 -0.6215  0.3540  0.1616
  878MPD2     H12880   3.018   4.486  13.426 -1.0321  1.6352 -1.1778
  878MPD2    H112881   2.703   4.211  13.533  0.1814 -0.4944  0.1211
  878MPD2    H212882   2.778   4.320  13.122 -0.2186  0.8208 -0.0201
  878MPD2    H312883   2.645   4.193  13.291  0.3130 -1.1646  0.5584
  878MPD2     N12884   2.905   4.359  13.624  0.6105  0.3697 -0.2480
  878MPD2    H512885   2.976   4.430  13.639  1.5136 -0.8292  1.0536
  878MPD2    N112886   2.985   4.474  13.153  0.3497  0.1601  0.3446
  878MPD2    H712887   2.940   4.462  13.063  1.2885 -2.9413  0.2871
  879MPD2     C12888   3.308   1.669  17.690  0.7791  0.5966 -0.8399
  879MPD2    C112889   3.236   1.570   0.051  0.1997  0.4006 -0.2536
  879MPD2    C212890   3.096   1.575   0.059 -0.3163 -0.3856  0.5329
  879MPD2    C312891   3.032   1.688   0.001  0.2292 -0.0804 -0.0088
  879MPD2    C412892   3.108   1.783  17.632  0.4877  0.2451 -0.2291
  879MPD2    C512893   3.241   1.774  17.631  0.6263  0.1768 -0.2506
  879MPD2     H12894   3.040   1.504   0.120  0.0503  0.6819  2.0929
  879MPD2    H112895   3.064   1.867  17.579  1.5060  0.7925 -0.2100
  879MPD2    H212896   3.416   1.671   0.002  0.7174  1.4714 -0.0664
  879MPD2    H312897   3.295   1.844  17.568  0.9273  0.1962  0.0275
  879MPD2     N12898   2.896   1.703  17.685 -0.1619 -0.0775 -0.4384
  879MPD2    H512899   2.854   1.770  17.622  0.6808 -0.4234 -1.3637
  879MPD2    N112900   3.309   1.464   0.105  0.2415 -0.0361  0.3280
  879MPD2    H712901   3.408   1.475   0.086 -0.3096 -0.3973 -2.6622
  880MPD2     C12902   4.268   3.601   0.209  0.3354  0.3613 -0.4604
  880MPD2    C112903   4.263   3.654   0.337  0.0343 -0.1584  0.5773
  880MPD2    C212904   4.284   3.575   0.451 -0.3083 -0.2586 -0.3523
  880MPD2    C312905   4.297   3.439   0.442 -0.7379 -0.4635  0.4918
  880MPD2    C412906   4.283   3.380   0.314  0.2773 -0.3000  0.2817
  880MPD2    C512907   4.277   3.461   0.206 -0.4146 -0.5946 -0.1633
  880MPD2     H12908   4.302   3.629   0.544  0.9974  1.6139 -1.6825
  880MPD2    H112909   4.273   3.273   0.295 -0.0334 -0.3715  0.8318
  880MPD2    H212910   4.255   3.656   0.117 -2.9233  1.7070  0.8219
  880MPD2    H312911   4.271   3.413   0.109 -2.0193  1.2227 -0.9913
  880MPD2     N12912   4.312   3.362   0.554 -0.1803 -0.1093 -0.1371
  880MPD2    H512913   4.334   3.417   0.637 -1.1594  2.7334 -1.7373
  880MPD2    N112914   4.241   3.793   0.345  0.4493  0.4061 -0.4907
  880MPD2    H712915   4.233   3.836   0.254  0.5280 -0.2713 -0.8225
  881MPD2     C12916   0.095   4.507   0.057  0.3254 -0.3727 -0.1737
  881MPD2    C112917   0.090   4.368   0.065 -0.3496 -0.0945  0.0893
  881MPD2    C212918   4.700   4.307   0.124  0.4004  0.2677 -0.5851
  881MPD2    C312919   4.600   4.390   0.167 -0.2512  0.2893 -0.1580
  881MPD2    C412920   4.616   4.526   0.170  0.3980 -0.7485  0.0552
  881MPD2    C512921   0.011   4.580   0.133 -0.0176  0.0519  0.0636
  881MPD2     H12922   4.690   4.199   0.127  0.2164  0.3008  0.0648
  881MPD2    H112923   4.545   4.597   0.211 -0.2073 -1.5150  0.3268
  881MPD2    H212924   0.176   4.555   0.004  0.1875  1.0488  0.9132
  881MPD2    H312925   0.031   4.686   0.144  2.3060 -0.2420 -1.2572
  881MPD2     N12926   4.478   4.340   0.218 -0.0020 -0.6476  0.3435
  881MPD2    H512927   4.416   4.409   0.260 -1.4245 -2.6254  1.5325
  881MPD2    N112928   0.182   4.295  17.677  0.3418  0.2061 -0.4714
  881MPD2    H712929   0.235   4.352  17.612 -0.6736 -1.1064 -2.4460
  882MPD2     C12930   2.824   0.874  14.507  0.4147  0.0561 -0.8756
  882MPD2    C112931   2.819   0.756  14.586  0.7508 -0.1206  0.1990
  882MPD2    C212932   2.728   0.659  14.570 -0.6598  0.1110 -0.1621
  882MPD2    C312933   2.619   0.668  14.485 -0.0302 -0.2526  0.7318
  882MPD2    C412934   2.612   0.786  14.414 -1.1205 -0.2602  0.2317
  882MPD2    C512935   2.717   0.882  14.421 -0.0891  0.4130  0.2367
  882MPD2     H12936   2.746   0.567  14.624  0.7803  0.2153 -0.4797
  882MPD2    H112937   2.548   0.792  14.326  1.9674  0.1451 -2.0060
  882MPD2    H212938   2.901   0.949  14.513 -0.2339  0.4082  3.1157
  882MPD2    H312939   2.715   0.967  14.354 -2.0577  0.8044  0.8116
  882MPD2     N12940   2.525   0.565  14.463  0.4315  0.0268  0.0938
  882MPD2    H512941   2.444   0.589  14.407  1.6533  3.5395 -0.1919
  882MPD2    N112942   2.927   0.731  14.675 -0.5227  0.5139 -0.4644
  882MPD2    H712943   2.938   0.634  14.706  0.6190  0.9460  0.4948
  883MPD2     C12944   0.707   1.273  16.051 -0.5855  0.3726  0.2202
  883MPD2    C112945   0.697   1.143  16.021 -0.3703  0.4114 -0.0767
  883MPD2    C212946   0.815   1.078  15.996  0.0374 -0.1073 -0.1048
  883MPD2    C312947   0.936   1.136  16.028 -0.4882 -0.7157  0.2201
  883MPD2    C412948   0.939   1.261  16.081  1.0071 -0.3333 -0.4284
  883MPD2    C512949   0.827   1.336  16.089 -0.2651 -0.0874  0.0039
  883MPD2     H12950   0.808   0.975  15.963 -4.4001 -0.1147  0.8502
  883MPD2    H112951   1.026   1.320  16.107  0.6095  0.9481 -1.9496
  883MPD2    H212952   0.626   1.345  16.043 -0.4336  0.4714 -0.4431
  883MPD2    H312953   0.824   1.441  16.114  1.6368 -0.5304  2.0716
  883MPD2     N12954   1.055   1.059  16.006  0.1289 -0.4894 -0.0870
  883MPD2    H512955   1.053   0.968  15.962  0.7407 -0.7836  0.4921
  883MPD2    N112956   0.573   1.089  15.977  0.4875 -0.0072  0.4847
  883MPD2    H712957   0.581   0.995  15.938 -2.1628 -0.4091  0.9377
  884MPD2     C12958   2.113   1.297  15.643 -0.2349  0.8741 -0.2897
  884MPD2    C112959   2.131   1.427  15.600  0.8023 -0.2544 -0.3910
  884MPD2    C212960   2.020   1.493  15.548  0.1946  0.0184 -0.1033
  884MPD2    C312961   1.903   1.427  15.526  0.0351  1.1712 -0.3021
  884MPD2    C412962   1.884   1.300  15.566 -0.2536  0.3789  0.8565
  884MPD2    C512963   1.993   1.238  15.628 -0.6269  0.5476 -0.6366
  884MPD2     H12964   2.030   1.598  15.522  0.0059  0.6274  2.2688
  884MPD2    H112965   1.792   1.243  15.555  1.6259 -2.0851 -2.2499
  884MPD2    H212966   2.196   1.246  15.692 -0.3767  2.7987  1.9295
  884MPD2    H312967   1.967   1.139  15.663  0.6177  0.7762  0.8957
  884MPD2     N12968   1.806   1.496  15.451 -0.8848  0.1964 -0.1787
  884MPD2    H512969   1.832   1.593  15.436 -1.1877  0.2712 -0.2091
  884MPD2    N112970   2.248   1.497  15.615  0.1282 -0.7052  0.8003
  884MPD2    H712971   2.252   1.588  15.570 -0.1331 -1.0072  0.1804
  885MPD2     C12972   0.727   1.856   0.400 -0.5041  0.2949 -0.7964
  885MPD2    C112973   0.605   1.811   0.371  0.0039 -0.4924 -0.5516
  885MPD2    C212974   0.553   1.824   0.242  0.3055 -0.3497  0.1897
  885MPD2    C312975   0.627   1.898   0.144  0.0157  0.8613 -1.2192
  885MPD2    C412976   0.745   1.959   0.186 -0.0376 -0.1416  0.2501
  885MPD2    C512977   0.793   1.939   0.314  0.6172  0.2169 -0.1653
  885MPD2     H12978   0.461   1.773   0.214 -1.4911  1.5315  2.6676
  885MPD2    H112979   0.809   2.011   0.115 -0.1748 -0.5533 -0.1777
  885MPD2    H212980   0.777   1.841   0.495 -0.8681 -1.0932 -0.8219
  885MPD2    H312981   0.890   1.981   0.338  0.5824  1.0857 -1.5044
  885MPD2     N12982   0.582   1.897   0.011 -0.7013 -0.2139 -0.4357
  885MPD2    H512983   0.492   1.851  17.691 -1.0155  1.2437 -3.0448
  885MPD2    N112984   0.546   1.728   0.469 -0.3685 -0.1164  0.2100
  885MPD2    H712985   0.599   1.716   0.555  0.3524 -0.3662 -0.2713
  886MPD2     C12986   2.018   0.390  15.494  0.2219 -0.8573 -0.2363
  886MPD2    C112987   2.011   0.297  15.389  0.2089  0.8146 -0.1856
  886MPD2    C212988   1.914   0.305  15.288  0.5562  0.2889  0.1070
  886MPD2    C312989   1.844   0.421  15.277  0.2324 -0.0430 -0.2603
  886MPD2    C412990   1.856   0.525  15.365  0.0423  0.4433 -0.8332
  886MPD2    C512991   1.946   0.498  15.473  0.8875 -0.8881  0.0308
  886MPD2     H12992   1.915   0.236  15.204 -0.8718  1.4114 -0.8327
  886MPD2    H112993   1.806   0.621  15.361  0.3760  0.7288  1.9696
  886MPD2    H212994   2.096   0.386  15.569 -0.7415  0.0756  0.8170
  886MPD2    H312995   1.965   0.566  15.556 -0.7219 -0.6965  0.2454
  886MPD2     N12996   1.771   0.426  15.162 -0.0712  0.2385  0.2054
  886MPD2    H512997   1.780   0.342  15.105  0.4053  0.6254 -0.3041
  886MPD2    N112998   2.093   0.178  15.388 -0.4373 -0.9805 -0.5261
  886MPD2    H712999   2.065   0.113  15.316 -0.8257 -2.4829  0.9943
  887MPD2     C13000   2.604   0.049  15.933  0.6760 -0.1101 -0.1037
  887MPD2    C113001   2.495   0.095  15.853 -0.3974  0.1943  0.1518
  887MPD2    C213002   2.404   0.183  15.905  0.0151 -0.1042  0.2131
  887MPD2    C313003   2.414   0.226  16.036  0.3047  0.5287  0.4185
  887MPD2    C413004   2.504   0.162  16.113 -0.4282  0.3076 -0.0994
  887MPD2    C513005   2.600   0.081  16.064  0.1545  0.6888  0.8203
  887MPD2     H13006   2.326   0.235  15.851 -0.1669 -1.7937 -1.1514
  887MPD2    H113007   2.509   0.190  16.218  0.7596 -0.4420  0.0317
  887MPD2    H213008   2.681   4.705  15.896  0.0257 -0.9526  0.0716
  887MPD2    H313009   2.678   0.055  16.134  1.3970  0.6417 -0.5760
  887MPD2     N13010   2.331   0.332  16.085 -0.4726  0.0989  0.4973
  887MPD2    H513011   2.259   0.372  16.026 -1.8623 -0.7844  1.5868
  887MPD2    N113012   2.471   0.055  15.719 -0.8681 -0.3043  0.3952
  887MPD2    H713013   2.418   0.120  15.662 -1.6585 -2.1255 -0.9640
  888MPD2     C13014   4.171   0.325  14.981 -0.1048  0.0285  0.0472
  888MPD2    C113015   4.219   0.400  15.089 -0.3625  0.3009 -0.3610
  888MPD2    C213016   4.228   0.540  15.084 -0.2340  0.1367 -0.9158
  888MPD2    C313017   4.197   0.602  14.963 -0.5568 -0.0737  0.3192
  888MPD2    C413018   4.160   0.524  14.850 -0.0085 -0.6051  0.1314
  888MPD2    C513019   4.146   0.390  14.861 -0.9583 -0.5724  0.4849
  888MPD2     H13020   4.263   0.603  15.166  0.3953 -0.7715 -0.4824
  888MPD2    H113021   4.138   0.570  14.755  0.6690 -1.4279 -0.4282
  888MPD2    H213022   4.172   0.216  14.980  0.5013  0.0376 -0.0099
  888MPD2    H313023   4.097   0.339  14.779 -2.1454 -0.9688  1.4383
  888MPD2     N13024   4.219   0.741  14.956 -0.3908  0.3804 -0.5436
  888MPD2    H513025   4.272   0.782  15.032 -1.7979 -0.5686  0.9370
  888MPD2    N113026   4.264   0.329  15.209 -0.5210  0.6931  0.2847
  888MPD2    H713027   4.298   0.382  15.289  0.8713  1.3190 -0.7285
  889MPD2     C13028   3.391   4.572  12.797 -0.1516  0.1777  0.0230
  889MPD2    C113029   3.452   4.533  12.918  0.0728  0.3735  0.1923
  889MPD2    C213030   3.450   4.629  13.018  0.3520 -0.1281 -0.1550
  889MPD2    C313031   3.426   0.041  13.000  0.0535  0.0454  0.0957
  889MPD2    C413032   3.392   0.081  12.871 -0.1373  0.3132  0.3420
  889MPD2    C513033   3.374   4.707  12.774 -0.1341  0.2495  0.5998
  889MPD2     H13034   3.490   4.597  13.114 -1.1521 -0.4122  0.3722
  889MPD2    H113035   3.400   0.184  12.839 -1.9531  0.9754  2.0398
  889MPD2    H213036   3.389   4.510  12.708  1.9211 -0.2600  0.2779
  889MPD2    H313037   3.347   0.023  12.677 -0.8649  1.0808  1.1295
  889MPD2     N13038   3.442   0.131  13.109 -0.2021 -0.4476 -0.4137
  889MPD2    H513039   3.449   0.083  13.198 -1.3561  0.5147  0.1917
  889MPD2    N113040   3.462   4.391  12.932  0.0472  1.2646  0.0455
  889MPD2    H713041   3.450   4.334  12.848 -0.1299 -0.1783  1.0511
  890MPD2     C13042   3.244   1.364  15.069  0.2880  0.6700  0.3710
  890MPD2    C113043   3.211   1.441  15.181 -0.1947 -0.3003  0.0879
  890MPD2    C213044   3.193   1.378  15.302 -0.0990  0.5675 -0.1661
  890MPD2    C313045   3.210   1.242  15.317 -0.8945 -0.5071  0.3180
  890MPD2    C413046   3.241   1.170  15.204 -0.2450  0.0715 -0.8278
  890MPD2    C513047   3.252   1.233  15.085 -0.2119  0.2510 -0.0052
  890MPD2     H13048   3.176   1.436  15.392 -0.2200 -0.0213  0.1926
  890MPD2    H113049   3.260   1.063  15.200  2.4221  0.5309 -0.2497
  890MPD2    H213050   3.254   1.407  14.970  0.7907  1.9539  0.9900
  890MPD2    H313051   3.271   1.179  14.993 -2.9481  2.2624 -1.7152
  890MPD2     N13052   3.185   1.173  15.437  0.0634 -0.3041  0.7448
  890MPD2    H513053   3.207   1.074  15.434  0.8759 -0.1335  0.9330
  890MPD2    N113054   3.190   1.578  15.154  0.4144  0.1220  0.3605
  890MPD2    H713055   3.213   1.607  15.059 -1.3337 -0.6313 -0.3063
  891MPD2     C13056   1.155   4.156  16.809  0.5833  0.9912  0.3430
  891MPD2    C113057   1.179   4.288  16.846 -0.3925  0.5003 -0.5080
  891MPD2    C213058   1.290   4.323  16.921  1.0757 -0.4819  0.0026
  891MPD2    C313059   1.375   4.217  16.953 -0.2424  0.7076 -0.0664
  891MPD2    C413060   1.343   4.085  16.913  0.4726 -0.4347  0.1926
  891MPD2    C513061   1.236   4.056  16.844  0.3732 -0.1649 -0.3339
  891MPD2     H13062   1.320   4.425  16.941 -1.1445 -0.0093  0.9622
  891MPD2    H113063   1.393   3.995  16.949 -2.3430 -1.2442  2.0452
  891MPD2    H213064   1.060   4.128  16.766  1.5059  1.7597 -2.2095
  891MPD2    H313065   1.204   3.960  16.803 -1.1517  0.5191 -0.7319
  891MPD2     N13066   1.485   4.251  17.036  0.3299  0.3875 -0.1448
  891MPD2    H513067   1.486   4.351  17.057  0.9080  0.2390  0.5385
  891MPD2    N113068   1.088   4.390  16.805  0.0614 -0.4436 -0.8154
  891MPD2    H713069   1.021   4.362  16.734 -0.2118 -0.0087 -0.7303
  892MPD2     C13070   2.174   1.121  14.759 -0.1664 -0.6617  0.1983
  892MPD2    C113071   2.062   1.039  14.737  0.4669  0.3047 -0.5959
  892MPD2    C213072   2.081   0.906  14.720  0.1285 -0.1904  0.4095
  892MPD2    C313073   2.213   0.859  14.697  0.6449  0.3443  0.3552
  892MPD2    C413074   2.322   0.946  14.700  0.3926  0.2353 -0.3433
  892MPD2    C513075   2.303   1.069  14.742 -0.0446  0.0054  0.0007
  892MPD2     H13076   1.989   0.847  14.726 -0.5106  0.9735  1.9815
  892MPD2    H113077   2.424   0.909  14.702  0.5664  0.5849 -2.2553
  892MPD2    H213078   2.161   1.224  14.789 -1.5308 -0.8240  0.1624
  892MPD2    H313079   2.392   1.127  14.764 -0.8424  0.2159  2.7116
  892MPD2     N13080   2.236   0.723  14.671  0.1278 -0.1604 -0.1073
  892MPD2    H513081   2.334   0.698  14.667  0.7172  2.1232  0.0220
  892MPD2    N113082   1.934   1.086  14.754  0.5013 -0.1285  0.0200
  892MPD2    H713083   1.864   1.013  14.761 -0.2614  0.7076  0.9834
  893MPD2     C13084   2.953   4.389   1.326 -0.5891  0.0107  0.8470
  893MPD2    C113085   2.997   4.371   1.456 -0.1442  0.0022  0.3258
  893MPD2    C213086   2.912   4.377   1.567 -0.0055 -0.1433 -0.5746
  893MPD2    C313087   2.773   4.394   1.535  0.2207 -0.6109 -0.2036
  893MPD2    C413088   2.730   4.433   1.412 -0.2876 -0.3454  0.1610
  893MPD2    C513089   2.822   4.425   1.309 -0.8332  0.2356 -0.5045
  893MPD2     H13090   2.942   4.355   1.669 -3.0339 -1.2045  0.0953
  893MPD2    H113091   2.628   4.459   1.389  0.5795  2.1900 -0.8075
  893MPD2    H213092   3.014   4.386   1.237  0.3407 -0.6825  1.5140
  893MPD2    H313093   2.796   4.437   1.205 -0.9185  0.4906 -0.4545
  893MPD2     N13094   2.669   4.386   1.628 -0.0937 -0.1412 -0.2437
  893MPD2    H513095   2.585   4.431   1.593  0.2291  0.4977 -0.1966
  893MPD2    N113096   3.131   4.327   1.467 -0.5578 -0.0375  0.2502
  893MPD2    H713097   3.190   4.330   1.384 -0.6836  0.1399  0.1664
  894MPD2     C13098   1.502   2.351   1.379 -0.9722  0.4792  0.1542
  894MPD2    C113099   1.574   2.342   1.495  0.0780  0.7983 -0.2380
  894MPD2    C213100   1.709   2.360   1.480  0.2401 -0.1273  0.0137
  894MPD2    C313101   1.769   2.378   1.356 -0.0184  0.3796  0.2172
  894MPD2    C413102   1.697   2.382   1.239  0.0127  0.1853  1.2664
  894MPD2    C513103   1.558   2.377   1.255 -0.8054 -0.5692  0.4453
  894MPD2     H13104   1.777   2.362   1.565  1.4484 -0.5266 -0.9332
  894MPD2    H113105   1.729   2.408   1.139 -0.3659 -1.0605  0.8213
  894MPD2    H213106   1.396   2.326   1.388 -1.5575  2.5892 -0.7486
  894MPD2    H313107   1.488   2.398   1.175  0.5748 -1.7253 -1.0699
  894MPD2     N13108   1.907   2.392   1.363  1.2530  0.2258 -0.0812
  894MPD2    H513109   1.959   2.397   1.450 -3.3558 -0.3620  2.7104
  894MPD2    N113110   1.522   2.313   1.624 -0.2365 -0.3780  0.5736
  894MPD2    H713111   1.588   2.301   1.700  2.2023  5.2383 -0.6258
  895MPD2     C13112   1.277   0.417  13.424 -0.0955 -0.0637  0.1434
  895MPD2    C113113   1.220   0.342  13.323  0.0878  0.9805 -0.9193
  895MPD2    C213114   1.288   0.227  13.274  0.7373 -0.0107  0.7009
  895MPD2    C313115   1.404   0.187  13.333  0.1524 -0.1688  0.2085
  895MPD2    C413116   1.455   0.251  13.446  0.0334  0.3662 -0.0080
  895MPD2    C513117   1.384   0.361  13.491 -0.4261 -0.3254  0.0364
  895MPD2     H13118   1.251   0.182  13.183 -3.5672  0.5335  2.1741
  895MPD2    H113119   1.545   0.222  13.499 -0.7762  0.4515  1.4062
  895MPD2    H213120   1.231   0.511  13.453  1.2904  0.5015  0.4805
  895MPD2    H313121   1.409   0.403  13.588 -2.3999  0.5897  0.1466
  895MPD2     N13122   1.463   0.079  13.274 -0.2306 -0.2341  0.3620
  895MPD2    H513123   1.406   0.040  13.199  0.3397  1.1017 -0.7793
  895MPD2    N113124   1.106   0.382  13.255 -0.1196 -0.1131 -0.3702
  895MPD2    H713125   1.077   0.327  13.174 -0.3809 -0.0867 -0.2934
  896MPD2     C13126   3.625   2.537   1.923  0.3083 -0.2783  0.7655
  896MPD2    C113127   3.611   2.542   1.788  0.8864 -1.0005  0.0980
  896MPD2    C213128   3.491   2.509   1.723  1.0482  0.3117  0.2283
  896MPD2    C313129   3.384   2.474   1.797 -0.3424  0.5102  0.3449
  896MPD2    C413130   3.396   2.466   1.935  0.1449 -0.4000  0.6361
  896MPD2    C513131   3.519   2.496   1.993  0.3232 -0.5676 -0.4553
  896MPD2     H13132   3.486   2.520   1.615 -0.4823 -2.2891  0.0469
  896MPD2    H113133   3.315   2.447   2.004  1.0574  1.0227  2.1113
  896MPD2    H213134   3.710   2.581   1.974  1.2733 -0.2939 -0.8005
  896MPD2    H313135   3.526   2.503   2.101 -0.3492 -1.6644 -0.3303
  896MPD2     N13136   3.261   2.455   1.732 -0.3916 -0.7597  0.2523
  896MPD2    H513137   3.265   2.442   1.631  1.6712 -1.4765  0.4201
  896MPD2    N113138   3.730   2.584   1.724  0.3602  0.2070 -0.6547
  896MPD2    H713139   3.793   2.639   1.781  0.1463 -0.8614  0.5998
  897MPD2     C13140   0.336   3.994  10.325 -0.2030 -0.2522  0.7677
  897MPD2    C113141   0.293   4.124  10.357  0.8920  0.6914  0.0591
  897MPD2    C213142   0.211   4.143  10.467  0.3477  0.3739 -0.3264
  897MPD2    C313143   0.187   4.036  10.550  0.1440  0.1887  0.6405
  897MPD2    C413144   0.238   3.910  10.529 -0.4148 -0.5146  0.3921
  897MPD2    C513145   0.314   3.892  10.412 -0.2327  0.2698 -0.4253
  897MPD2     H13146   0.174   4.243  10.491 -0.5356 -0.5751  2.2349
  897MPD2    H113147   0.215   3.827  10.594  2.1610 -0.7436  1.0278
  897MPD2    H213148   0.388   3.979  10.231 -1.3296 -0.5197  0.1830
  897MPD2    H313149   0.356   3.794  10.393  0.1073 -0.2548  2.9342
  897MPD2     N13150   0.101   4.053  10.659  0.4618 -0.1358  0.4613
  897MPD2    H513151   0.122   4.002  10.745  1.5095  0.3532  0.4924
  897MPD2    N113152   0.335   4.227  10.274 -0.1893  0.0054  0.5551
  897MPD2    H713153   0.406   4.198  10.207 -0.3008 -3.9367  2.1241
  898MPD2     C13154   2.122   0.478   0.155  0.2796 -0.4444  0.3209
  898MPD2    C113155   2.037   0.567   0.222 -0.2177  0.3175 -0.1202
  898MPD2    C213156   1.925   0.617   0.154  0.1704  0.6353  0.1096
  898MPD2    C313157   1.880   0.579   0.031 -0.1472 -0.1379  0.1190
  898MPD2    C413158   1.956   0.475  17.666  0.0990 -0.1252  0.5484
  898MPD2    C513159   2.080   0.438   0.030  1.0367 -0.5762 -0.6084
  898MPD2     H13160   1.875   0.708   0.184 -0.4461  0.8930 -1.6950
  898MPD2    H113161   1.934   0.445  17.564 -0.9908 -0.3336  0.8541
  898MPD2    H213162   2.217   0.443   0.194  0.4683 -1.3861 -0.9795
  898MPD2    H313163   2.132   0.363  17.666  0.8214 -0.0714 -1.4406
  898MPD2     N13164   1.762   0.636  17.671 -0.1459 -0.1704 -0.2419
  898MPD2    H513165   1.709   0.682   0.050 -1.4665  0.4911 -1.5992
  898MPD2    N113166   2.074   0.618   0.347 -0.8372  0.2516  0.8211
  898MPD2    H713167   2.016   0.696   0.378  0.5061  0.7787  2.0668
  899MPD2     C13168   2.067   1.431   0.238  0.2356 -0.7366 -0.0738
  899MPD2    C113169   2.149   1.504   0.316 -0.1375  0.1084  0.2550
  899MPD2    C213170   2.174   1.463   0.445  0.0453 -0.0741  0.8457
  899MPD2    C313171   2.109   1.352   0.495  0.3800  0.5856 -0.7355
  899MPD2    C413172   2.023   1.272   0.423 -0.1597 -0.4704 -0.7996
  899MPD2    C513173   2.000   1.319   0.295  0.0336  0.1991 -0.3662
  899MPD2     H13174   2.248   1.513   0.507 -0.9641  0.5688  1.5324
  899MPD2    H113175   1.971   1.187   0.465  0.2345  0.7733  2.2351
  899MPD2    H213176   2.039   1.468   0.140 -0.3491 -0.2924  0.2602
  899MPD2    H313177   1.929   1.266   0.233 -0.5292  1.3221 -0.6867
  899MPD2     N13178   2.123   1.319   0.629  0.3249  0.1619  0.4698
  899MPD2    H513179   2.062   1.247   0.668 -0.5453  0.0827 -1.0652
  899MPD2    N113180   2.212   1.609   0.249  0.1975 -0.4132 -0.0769
  899MPD2    H713181   2.189   1.621   0.151 -0.2455  0.4637  0.1347
  900MPD2     C13182   2.812   2.508  13.053  0.0710  0.7347  0.4409
  900MPD2    C113183   2.838   2.468  12.925  0.4874 -0.6330 -0.1817
  900MPD2    C213184   2.744   2.497  12.827 -0.4634  0.3105  0.8907
  900MPD2    C313185   2.627   2.561  12.855 -0.2525 -0.0578 -0.2264
  900MPD2    C413186   2.602   2.604  12.986  0.2842  0.7277 -0.4334
  900MPD2    C513187   2.700   2.574  13.079 -0.2584  0.8202  0.0808
  900MPD2     H13188   2.762   2.469  12.724  1.8764  1.0655  1.0901
  900MPD2    H113189   2.512   2.660  13.010 -0.6778 -0.6035 -0.8639
  900MPD2    H213190   2.889   2.488  13.127  1.8500  0.8343 -1.3757
  900MPD2    H313191   2.674   2.627  13.170 -1.5831 -1.2215  0.8971
  900MPD2     N13192   2.543   2.596  12.750 -0.5290 -0.1443 -0.2306
  900MPD2    H513193   2.584   2.589  12.657  0.1269  1.5997 -0.0752
  900MPD2    N113194   2.950   2.385  12.896 -0.2823 -0.3615 -0.0235
  900MPD2    H713195   2.991   2.341  12.978 -0.1782  1.3427  0.8502
  901MPD2     C13196   3.145   1.551  13.168  0.1120 -0.8195 -0.9863
  901MPD2    C113197   3.100   1.530  13.043 -0.2923 -0.6357 -0.5598
  901MPD2    C213198   3.109   1.634  12.950  0.5269  0.1230 -0.1697
  901MPD2    C313199   3.157   1.758  12.994  0.4351 -0.1372  1.0661
  901MPD2    C413200   3.194   1.776  13.116  0.7305  0.6302  0.3648
  901MPD2    C513201   3.185   1.674  13.209 -0.7980 -0.5413 -0.4485
  901MPD2     H13202   3.072   1.624  12.848 -0.9510  2.5528  0.1363
  901MPD2    H113203   3.238   1.869  13.149  2.6534  0.8023 -2.7139
  901MPD2    H213204   3.140   1.472  13.242  0.6440  0.2728  0.2010
  901MPD2    H313205   3.209   1.688  13.313 -1.8515 -1.7071 -0.0424
  901MPD2     N13206   3.160   1.862  12.903 -0.0496  0.4505 -0.1445
  901MPD2    H513207   3.114   1.840  12.815  0.6194 -1.5781  0.0016
  901MPD2    N113208   3.040   1.405  13.010  0.4804  0.3787  0.0321
  901MPD2    H713209   3.027   1.337  13.084 -0.6913 -0.7671 -1.2175
  902MPD2     C13210   1.507   0.474  13.159 -0.9876 -0.2801 -0.0329
  902MPD2    C113211   1.456   0.538  13.044  0.6402 -0.7837  0.3337
  902MPD2    C213212   1.503   0.498  12.918  0.4144 -0.4734  0.1486
  902MPD2    C313213   1.598   0.401  12.902  0.0511 -0.5781 -0.0069
  902MPD2    C413214   1.651   0.351  13.017  0.0581 -0.8817  0.3050
  902MPD2    C513215   1.608   0.381  13.145  0.1815  0.1715 -0.6243
  902MPD2     H13216   1.485   0.550  12.825 -0.4875  2.2636  1.8694
  902MPD2    H113217   1.732   0.279  13.023  1.2950  0.4575 -0.1965
  902MPD2    H213218   1.473   0.499  13.259  0.7783  0.8090  0.2968
  902MPD2    H313219   1.645   0.333  13.235  2.7041  2.0761 -0.6682
  902MPD2     N13220   1.636   0.355  12.773 -0.0154  0.0389  0.2875
  902MPD2    H513221   1.584   0.385  12.690 -2.7495 -0.0800  1.9696
  902MPD2    N113222   1.364   0.642  13.067 -0.3282 -0.2307  0.3838
  902MPD2    H713223   1.336   0.660  13.163  0.6430  3.1768  0.0325
  903MPD2     C13224   1.554   0.505  12.096 -0.3921  0.0797  0.1517
  903MPD2    C113225   1.501   0.385  12.139 -0.1547  0.7014 -0.2361
  903MPD2    C213226   1.436   0.317  12.031 -0.8629 -0.3928 -0.2061
  903MPD2    C313227   1.418   0.369  11.901 -0.3971  0.6355 -0.3225
  903MPD2    C413228   1.447   0.504  11.883  0.3521  0.2967  0.2587
  903MPD2    C513229   1.522   0.566  11.980 -0.5028  0.0646  0.2732
  903MPD2     H13230   1.393   0.218  12.038 -1.3442 -0.1753 -0.1013
  903MPD2    H113231   1.431   0.553  11.788 -1.0841 -0.1746  0.2576
  903MPD2    H213232   1.609   0.557  12.174  0.8483 -1.5601  0.3723
  903MPD2    H313233   1.551   0.668  11.959 -1.6753  0.3869  0.2000
  903MPD2     N13234   1.357   0.285  11.805  0.2352 -0.4804  0.0371
  903MPD2    H513235   1.329   0.196  11.843  1.1062 -1.8239 -2.4317
  903MPD2    N113236   1.534   0.329  12.265  0.3912  0.9476 -0.1387
  903MPD2    H713237   1.588   0.388  12.327  0.8230  0.5533 -0.1414
  904MPD2     C13238   1.079   4.256  13.554  0.1241  0.0162 -0.2913
  904MPD2    C113239   1.035   4.372  13.607  0.4156  0.1128  0.1285
  904MPD2    C213240   1.110   4.430  13.711 -0.4610  0.0374  0.3408
  904MPD2    C313241   1.229   4.379  13.744 -0.0053  0.1711  0.0673
  904MPD2    C413242   1.275   4.269  13.679  0.3562 -0.4961  0.6049
  904MPD2    C513243   1.199   4.202  13.584 -0.4772  0.0519  0.5726
  904MPD2     H13244   1.076   4.517  13.767  0.1567 -0.2204  1.1154
  904MPD2    H113245   1.369   4.218  13.697 -0.4257 -2.9244 -2.1926
  904MPD2    H213246   1.036   4.212  13.464 -1.2254 -0.6676  0.6843
  904MPD2    H313247   1.236   4.110  13.541 -0.6469  0.7879 -1.1467
  904MPD2     N13248   1.294   4.421  13.852 -0.1206  0.3891  0.2314
  904MPD2    H513249   1.251   4.506  13.889  0.2575  0.3599  0.7413
  904MPD2    N113250   0.918   4.436  13.552  0.1474  0.5886 -0.1651
  904MPD2    H713251   0.867   4.396  13.473 -0.5109  0.0504  0.5370
  905MPD2     C13252   0.871   4.423  12.942 -0.2342  0.6837  0.2447
  905MPD2    C113253   0.913   4.541  13.001  0.3493 -0.8961  0.4230
  905MPD2    C213254   1.038   4.590  12.971  0.1949  0.2238  0.7536
  905MPD2    C313255   1.126   4.514  12.897  0.5925  0.0552  0.6328
  905MPD2    C413256   1.079   4.407  12.827 -0.8035 -0.0116  0.0389
  905MPD2    C513257   0.946   4.358  12.847  0.1391 -0.2472 -0.4818
  905MPD2     H13258   1.072   4.684  13.013  0.3002  0.4499  0.1588
  905MPD2    H113259   1.139   4.351  12.756  0.8038  0.9889  0.5929
  905MPD2    H213260   0.781   4.375  12.976 -0.7735  0.9404 -0.8097
  905MPD2    H313261   0.897   4.276  12.795  1.3507 -0.6678 -0.9569
  905MPD2     N13262   1.268   4.533  12.898  0.3940  0.0029  0.3401
  905MPD2    H513263   1.314   4.471  12.832 -0.8624  0.9522 -1.4018
  905MPD2    N113264   0.828   4.592  13.101  0.3228 -0.2120  0.6409
  905MPD2    H713265   0.743   4.545  13.131 -0.7007 -0.0771 -2.1066
  906MPD2     C13266   3.440   4.534  11.347  0.2502  0.0390  0.4566
  906MPD2    C113267   3.474   4.444  11.251  0.8998 -1.2120  0.3635
  906MPD2    C213268   3.459   4.306  11.271 -0.1732 -0.1766 -0.4560
  906MPD2    C313269   3.394   4.259  11.385 -0.3355  0.2213 -0.4159
  906MPD2    C413270   3.343   4.353  11.474  0.1035 -0.3549  0.3947
  906MPD2    C513271   3.376   4.484  11.457  0.4570 -0.4845  0.2247
  906MPD2     H13272   3.496   4.244  11.190 -0.5489  0.0832 -0.8274
  906MPD2    H113273   3.280   4.333  11.560 -0.7779 -1.5962 -0.5308
  906MPD2    H213274   3.457   4.640  11.342 -0.9441  0.3047  2.0782
  906MPD2    H313275   3.355   4.547  11.543 -0.7245  0.6404 -0.9031
  906MPD2     N13276   3.354   4.128  11.405  0.3333  0.0134  0.1203
  906MPD2    H513277   3.266   4.116  11.454 -0.1099 -0.8407 -0.8968
  906MPD2    N113278   3.538   4.482  11.127 -0.5169  0.9295 -0.1130
  906MPD2    H713279   3.545   4.405  11.060  1.9448  0.4437  0.6949
  907MPD2     C13280   1.726   3.687  15.311 -0.1823  0.1572  0.5272
  907MPD2    C113281   1.814   3.587  15.348 -0.1956 -0.4165  0.0555
  907MPD2    C213282   1.886   3.607  15.467 -0.1319  0.3722 -0.3604
  907MPD2    C313283   1.871   3.726  15.543  0.0369  0.1248 -0.1291
  907MPD2    C413284   1.789   3.831  15.493  0.2883  0.1367 -0.1558
  907MPD2    C513285   1.714   3.807  15.376 -0.2246  0.4068 -0.4508
  907MPD2     H13286   1.940   3.522  15.507 -2.3140  0.2427  2.3553
  907MPD2    H113287   1.805   3.931  15.532  0.1259  0.0812  0.0504
  907MPD2    H213288   1.677   3.689  15.214 -0.9911  1.1127  0.9542
  907MPD2    H313289   1.657   3.885  15.326  0.7145 -0.0747 -2.2773
  907MPD2     N13290   1.933   3.730  15.668  0.5325 -0.0531  0.1133
  907MPD2    H513291   1.974   3.638  15.683 -0.1906 -0.6868 -1.8290
  907MPD2    N113292   1.814   3.460  15.275 -0.4489  0.1199 -0.7626
  907MPD2    H713293   1.887   3.399  15.311  0.3099  1.8574  0.6453
  908MPD2     C13294   0.519   4.165   9.432 -0.8613 -0.4240  0.3334
  908MPD2    C113295   0.421   4.136   9.525 -0.8609  0.4934 -0.0507
  908MPD2    C213296   0.422   4.190   9.652 -0.6251 -0.2271  0.2693
  908MPD2    C313297   0.516   4.289   9.685  0.0191 -0.9492  0.1084
  908MPD2    C413298   0.611   4.324   9.592 -0.9584  0.1129 -0.2552
  908MPD2    C513299   0.615   4.259   9.468  0.1265 -0.3333  0.2073
  908MPD2     H13300   0.348   4.159   9.724 -0.2081 -0.5557  0.5598
  908MPD2    H113301   0.682   4.405   9.601 -0.9775 -0.2166  2.7348
  908MPD2    H213302   0.513   4.130   9.330  0.7203 -0.4535  0.2517
  908MPD2    H313303   0.676   4.302   9.390 -0.4185 -2.2797 -1.2847
  908MPD2     N13304   0.495   4.337   9.821 -0.6423  0.2814  0.1019
  908MPD2    H513305   0.420   4.293   9.872  0.6210 -0.2643  1.5047
  908MPD2    N113306   0.327   4.035   9.502 -0.0369 -0.3686  0.5899
  908MPD2    H713307   0.257   4.017   9.573  0.2927 -0.3951  0.9050
  909MPD2     C13308   0.118   2.641  12.259  0.4992 -0.4832  0.2167
  909MPD2    C113309   0.165   2.746  12.182 -0.5130  0.6981  0.0090
  909MPD2    C213310   0.103   2.867  12.184 -0.7501 -0.2377  0.2536
  909MPD2    C313311   4.715   2.892  12.265  0.3775  0.8514  0.0934
  909MPD2    C413312   4.670   2.790  12.344 -0.0415 -1.1578  0.6973
  909MPD2    C513313   0.011   2.666  12.343  0.0796  0.1761 -0.3783
  909MPD2     H13314   0.143   2.939  12.113 -1.9178  0.0381 -0.1323
  909MPD2    H113315   4.581   2.800  12.405 -0.0525  2.2304  0.1125
  909MPD2    H213316   0.158   2.541  12.247  1.9023  0.0271  0.5834
  909MPD2    H313317   4.683   2.591  12.403 -0.3143 -0.2528 -1.2425
  909MPD2     N13318   4.660   3.022  12.270 -0.6367  0.6355 -0.3587
  909MPD2    H513319   4.704   3.090  12.208  2.7730  1.0018  2.4728
  909MPD2    N113320   0.277   2.726  12.095  0.1968  0.3041 -0.4345
  909MPD2    H713321   0.301   2.801  12.031  3.5183 -1.2346 -0.9772
  910MPD2     C13322   0.800   4.187  15.951  0.0418  0.0245  0.2127
  910MPD2    C113323   0.914   4.205  15.878 -0.6673 -0.0573 -0.2280
  910MPD2    C213324   0.927   4.301  15.776 -1.1803  0.5150  0.4791
  910MPD2    C313325   0.815   4.381  15.744  0.6539 -0.1577 -0.0175
  910MPD2    C413326   0.699   4.358  15.816 -0.8324  0.0873  0.0870
  910MPD2    C513327   0.691   4.266  15.916 -0.7035  0.4670 -0.1947
  910MPD2     H13328   1.019   4.306  15.718 -2.6512  2.4320 -1.6878
  910MPD2    H113329   0.613   4.419  15.792 -0.5536  0.6063  0.3981
  910MPD2    H213330   0.797   4.117  16.033  1.2646 -1.9583 -1.4473
  910MPD2    H313331   0.600   4.241  15.970 -0.1578  0.9798  0.9590
  910MPD2     N13332   0.813   4.473  15.638  0.1289 -0.0084  0.1823
  910MPD2    H513333   0.724   4.520  15.625 -0.1659  0.3371  3.5443
  910MPD2    N113334   1.033   4.138  15.911 -0.2759  0.1257  0.1187
  910MPD2    H713335   1.119   4.170  15.868 -1.3232  2.9544  0.1800
  911MPD2     C13336   4.158   0.015  16.701 -0.2107 -1.1432  0.0227
  911MPD2    C113337   4.169   4.604  16.691 -0.5686 -0.1985 -0.8609
  911MPD2    C213338   4.112   4.543  16.576  0.1341 -0.1832 -0.2196
  911MPD2    C313339   4.046   4.621  16.482  0.8171  0.3421 -0.0063
  911MPD2    C413340   4.035   0.038  16.500 -1.0976  0.8658 -0.4258
  911MPD2    C513341   4.094   0.095  16.610  0.3758  0.0521 -0.1600
  911MPD2     H13342   4.114   4.436  16.565  4.1380 -0.0728 -0.4980
  911MPD2    H113343   4.002   0.096  16.416  0.6167 -0.3000 -1.9129
  911MPD2    H213344   4.198   0.064  16.789  2.4775 -0.2787 -1.6879
  911MPD2    H313345   4.088   0.202  16.623  1.0655  0.1001 -0.2341
  911MPD2     N13346   4.004   4.567  16.364  0.7822  0.6417 -0.0436
  911MPD2    H513347   3.982   4.634  16.290 -0.5351  1.0970  0.7592
  911MPD2    N113348   4.252   4.536  16.783 -0.0911  0.3409  0.2667
  911MPD2    H713349   4.286   4.595  16.859  2.1731 -0.3217 -0.2462
  912MPD2     C13350   4.326   4.007  16.153 -0.0209  0.1910  0.0119
  912MPD2    C113351   4.199   4.017  16.167 -0.5572  0.3181 -0.4929
  912MPD2    C213352   4.142   4.000  16.291 -0.6128  0.4474 -0.1804
  912MPD2    C313353   4.230   4.000  16.403  0.0185  0.3008  0.1215
  912MPD2    C413354   4.368   3.987  16.386  0.2362 -0.1962  0.1550
  912MPD2    C513355   4.416   3.984  16.261 -0.1227 -0.1640 -0.3100
  912MPD2     H13356   4.036   3.998  16.315 -0.5243 -4.1263 -0.0150
  912MPD2    H113357   4.447   3.985  16.460  0.8897  0.3782 -0.5329
  912MPD2    H213358   4.374   4.000  16.056  0.1606  1.2793  0.0215
  912MPD2    H313359   4.523   3.983  16.247  0.2462  0.0643  2.5656
  912MPD2     N13360   4.173   4.019  16.536 -0.5306  0.7064 -0.1217
  912MPD2    H513361   4.075   4.041  16.544 -0.3757 -0.5549  5.2663
  912MPD2    N113362   4.124   4.045  16.047 -0.0557  0.1519 -0.1685
  912MPD2    H713363   4.178   4.075  15.967 -2.3806 -0.3145 -1.9089
  913MPD2     C13364   0.254   0.652  10.747  0.3647  0.6668 -0.0864
  913MPD2    C113365   0.307   0.772  10.774  0.4635  0.8236  0.3558
  913MPD2    C213366   0.293   0.872  10.679  0.6134  0.0206 -0.9680
  913MPD2    C313367   0.248   0.851  10.552  0.5513 -0.7377 -0.9912
  913MPD2    C413368   0.209   0.722  10.519  0.0667  0.0884  0.1175
  913MPD2    C513369   0.213   0.623  10.617 -0.4953 -0.7306 -0.2265
  913MPD2     H13370   0.330   0.972  10.698 -1.1610  0.1769  1.6679
  913MPD2    H113371   0.161   0.701  10.425  1.8247  0.6580 -0.9024
  913MPD2    H213372   0.240   0.573  10.820 -0.9191  1.2298  0.2874
  913MPD2    H313373   0.179   0.525  10.586  0.7240 -1.2720  0.1136
  913MPD2     N13374   0.248   0.951  10.450  0.1265  0.0085 -0.8610
  913MPD2    H513375   0.226   0.912  10.359  0.1600  0.8435 -1.2161
  913MPD2    N113376   0.347   0.802  10.902 -0.7146  0.4784  0.4388
  913MPD2    H713377   0.366   0.723  10.962 -0.5013  0.7415  0.7179
  914MPD2     C13378   2.475   0.938  12.266 -0.4348  0.1589  0.5933
  914MPD2    C113379   2.530   1.067  12.269  0.3726  0.6267 -0.9061
  914MPD2    C213380   2.619   1.097  12.372 -0.1669  0.0807  0.3762
  914MPD2    C313381   2.641   1.007  12.474 -1.2912 -0.1658  0.7963
  914MPD2    C413382   2.581   0.881  12.482  0.4207  0.1149 -0.2543
  914MPD2    C513383   2.498   0.850  12.372  0.1531 -0.5138  1.0567
  914MPD2     H13384   2.668   1.194  12.368  0.1549 -0.0418  1.3094
  914MPD2    H113385   2.601   0.796  12.546  1.3006  0.1770 -0.4549
  914MPD2    H213386   2.417   0.909  12.180  0.7022  1.2555 -0.5498
  914MPD2    H313387   2.449   0.754  12.365 -0.0518 -0.2259 -1.6765
  914MPD2     N13388   2.749   1.045  12.558  0.2087  0.1637  0.4980
  914MPD2    H513389   2.806   1.124  12.529 -0.5148  0.5377  0.0971
  914MPD2    N113390   2.501   1.155  12.162  0.4341 -0.0360 -0.3992
  914MPD2    H713391   2.456   1.107  12.084 -0.4821  1.7737 -0.9772
  915MPD2     C13392   0.817   1.647  15.957  0.3367 -0.1379  0.0655
  915MPD2    C113393   0.681   1.628  15.923 -0.1198 -0.2125  0.1091
  915MPD2    C213394   0.590   1.645  16.030  0.4062  1.6220  0.1520
  915MPD2    C313395   0.626   1.711  16.145  0.4941 -0.5120 -0.1077
  915MPD2    C413396   0.759   1.749  16.170  0.4170  0.4698 -0.2063
  915MPD2    C513397   0.856   1.715  16.074  0.4285 -0.5421 -0.6037
  915MPD2     H13398   0.485   1.619  16.025  1.2234 -1.9096  1.0816
  915MPD2    H113399   0.791   1.803  16.259 -1.2104 -1.0998  1.3260
  915MPD2    H213400   0.893   1.627  15.882 -1.7176 -0.8885 -1.8442
  915MPD2    H313401   0.960   1.741  16.092  0.0222  1.3834 -1.1012
  915MPD2     N13402   0.523   1.755  16.228  0.7359 -0.3867  0.0337
  915MPD2    H513403   0.430   1.725  16.199  1.5274 -2.8949  0.0984
  915MPD2    N113404   0.647   1.566  15.801  0.4957 -0.5159 -0.0475
  915MPD2    H713405   0.722   1.545  15.737  0.6984 -0.3085  0.1237
  916MPD2     C13406   3.813   4.535  15.905 -0.0689 -0.0033  0.0580
  916MPD2    C113407   3.737   4.449  15.970  0.6004  0.3164 -0.2779
  916MPD2    C213408   3.709   4.326  15.911 -0.0166  0.5696 -0.3072
  916MPD2    C313409   3.769   4.283  15.792 -0.3115 -0.3491 -0.4871
  916MPD2    C413410   3.848   4.378  15.731  0.6422  0.0978 -0.0411
  916MPD2    C513411   3.877   4.499  15.789  0.4298  0.4935 -0.2074
  916MPD2     H13412   3.631   4.267  15.958 -0.8847  0.1672 -2.2400
  916MPD2    H113413   3.894   4.363  15.634 -1.4988  0.2411 -1.0799
  916MPD2    H213414   3.812   4.642  15.922 -0.7028  0.0974 -0.6070
  916MPD2    H313415   3.918   4.576  15.724 -3.0551  0.2594 -2.7295
  916MPD2     N13416   3.736   4.157  15.735 -0.3858  0.2437 -0.0384
  916MPD2    H513417   3.661   4.100  15.772  0.3623 -0.3449  0.5774
  916MPD2    N113418   3.682   4.497  16.091  0.5420 -0.1754 -0.4965
  916MPD2    H713419   3.710   4.591  16.117 -1.1767  0.3298 -0.4698
  917MPD2     C13420   4.162   1.574  10.781 -0.9715 -0.2664 -0.2720
  917MPD2    C113421   4.248   1.636  10.866  0.0554 -0.3319 -0.3997
  917MPD2    C213422   4.349   1.722  10.814  0.0620 -0.2914  0.9622
  917MPD2    C313423   4.352   1.749  10.678 -0.3593  0.0470  0.1060
  917MPD2    C413424   4.268   1.682  10.593  0.4177  0.0351 -0.1761
  917MPD2    C513425   4.176   1.596  10.643  0.4114 -0.0878  0.0691
  917MPD2     H13426   4.412   1.777  10.882  0.8047 -1.4408  1.1963
  917MPD2    H113427   4.268   1.704  10.487  1.8428 -0.5676 -0.2925
  917MPD2    H213428   4.087   1.506  10.820 -1.5284 -0.0465 -0.9600
  917MPD2    H313429   4.117   1.542  10.571  0.3212 -0.4347  0.4043
  917MPD2     N13430   4.451   1.823  10.619 -0.8552  0.3856 -0.1646
  917MPD2    H513431   4.434   1.849  10.523 -1.5405 -1.5515 -0.5521
  917MPD2    N113432   4.232   1.622  11.006 -0.4141 -0.2935 -0.5863
  917MPD2    H713433   4.154   1.565  11.035 -0.5006  0.3923  0.5434
  918MPD2     C13434   4.353   2.043  12.022 -0.0576  0.2727  0.0446
  918MPD2    C113435   4.398   1.916  12.023  0.3868  0.0746  0.4227
  918MPD2    C213436   4.380   1.836  11.911  0.4261 -0.0733 -0.6691
  918MPD2    C313437   4.327   1.887  11.796 -0.7090  0.6543  0.6814
  918MPD2    C413438   4.278   2.013  11.792 -0.3945 -0.0104 -0.1028
  918MPD2    C513439   4.295   2.086  11.906 -0.0704  0.4681  0.4751
  918MPD2     H13440   4.398   1.729  11.921 -1.7149 -0.4523 -0.8014
  918MPD2    H113441   4.235   2.058  11.704  0.3109  1.8809  0.4988
  918MPD2    H213442   4.354   2.116  12.101  0.2623  2.6216 -2.1464
  918MPD2    H313443   4.263   2.190  11.903 -1.2695  0.1516  2.0723
  918MPD2     N13444   4.324   1.802  11.681 -0.6084 -0.4391 -0.2163
  918MPD2    H513445   4.335   1.702  11.697  0.6237 -0.3800 -0.6663
  918MPD2    N113446   4.463   1.856  12.136  0.3920  0.3366  0.2408
  918MPD2    H713447   4.507   1.768  12.113  1.5806  0.6960  1.1048
  919MPD2     C13448   0.094   1.061  11.613 -0.5457 -0.1536  0.3990
  919MPD2    C113449   0.096   0.926  11.600  0.2126 -0.5049  0.8536
  919MPD2    C213450   0.091   0.865  11.473  0.1686 -0.2969  0.3790
  919MPD2    C313451   0.075   0.950  11.364  0.1995 -0.2644  0.4365
  919MPD2    C413452   0.064   1.086  11.383  0.0069  0.7338  0.1469
  919MPD2    C513453   0.085   1.141  11.505  0.2807  0.5863 -0.0712
  919MPD2     H13454   0.087   0.757  11.469 -1.3215 -0.2121 -0.2543
  919MPD2    H113455   0.067   1.157  11.301  0.2740 -0.7236 -1.1002
  919MPD2    H213456   0.104   1.101  11.713  2.6377 -0.9758  0.4067
  919MPD2    H313457   0.084   1.248  11.524 -2.2349  0.5606 -0.0013
  919MPD2     N13458   0.044   0.903  11.234  0.4759 -0.3706  0.7141
  919MPD2    H513459   0.012   0.978  11.174  2.1771 -0.1067  0.1282
  919MPD2    N113460   0.089   0.837  11.715 -0.0680 -0.3267 -0.5892
  919MPD2    H713461   0.099   0.739  11.689  0.5360  0.2867 -2.6449
  920MPD2     C13462   4.519   1.149  10.304  0.4573 -0.1233 -1.0366
  920MPD2    C113463   4.429   1.053  10.345 -0.1877  0.4377 -0.0838
  920MPD2    C213464   4.452   0.973  10.455 -0.3992  0.1389 -0.4858
  920MPD2    C313465   4.559   0.993  10.533 -0.9663  0.2804  0.7924
  920MPD2    C413466   4.649   1.094  10.498 -0.2348  0.1134  0.0749
  920MPD2    C513467   4.628   1.164  10.384 -0.5023  0.4200  0.2705
  920MPD2     H13468   4.377   0.900  10.482  0.0162  0.6814  2.1377
  920MPD2    H113469   0.018   1.104  10.555  0.0149 -0.6397 -0.1994
  920MPD2    H213470   4.504   1.216  10.220 -0.5213  1.4936  0.4054
  920MPD2    H313471   4.699   1.239  10.351 -2.4633  1.6459 -1.1316
  920MPD2     N13472   4.579   0.907  10.643  0.3664  0.1767 -0.2635
  920MPD2    H513473   4.512   0.830  10.639  0.3223  0.1751  0.5231
  920MPD2    N113474   4.319   1.017  10.266 -0.2965  0.5114  0.0615
  920MPD2    H713475   4.258   0.944  10.301  2.7208 -2.6874 -1.4186
  921MPD2     C13476   0.443   0.161  16.958 -0.4241  0.1576  0.9960
  921MPD2    C113477   0.457   0.060  16.862 -0.1805 -0.1898  0.1072
  921MPD2    C213478   0.342   4.704  16.827 -0.1138  0.4207  0.2328
  921MPD2    C313479   0.225   4.707  16.900 -0.0603  0.0458  0.3349
  921MPD2    C413480   0.216   0.082  16.996 -0.6291 -0.8104  0.0688
  921MPD2    C513481   0.321   0.165  17.014 -0.7312  0.6811 -0.3545
  921MPD2     H13482   0.353   4.639  16.742  1.2585  3.1805 -1.7117
  921MPD2    H113483   0.142   0.103  17.072 -0.9818 -0.9363 -0.2429
  921MPD2    H213484   0.515   0.234  16.991 -2.8789  2.5333  1.1390
  921MPD2    H313485   0.314   0.227  17.102  1.8349 -0.4089  0.6500
  921MPD2     N13486   0.122   4.618  16.867  0.0432 -0.0851  0.6875
  921MPD2    H513487   0.137   4.561  16.784 -0.4945  0.5631  0.1395
  921MPD2    N113488   0.571   0.028  16.789 -0.0608 -0.2053 -0.0259
  921MPD2    H713489   0.571   4.676  16.722 -1.3146 -0.8303  0.6641
  922MPD2     C13490   1.293   2.641  17.111 -0.3608 -0.1299 -0.3528
  922MPD2    C113491   1.285   2.694  17.236  0.3924 -0.2534 -0.5257
  922MPD2    C213492   1.221   2.623  17.338 -0.1400  0.0636 -0.1929
  922MPD2    C313493   1.160   2.503  17.308 -0.0579  0.8262 -0.0266
  922MPD2    C413494   1.159   2.460  17.175 -0.2245 -0.0320  0.5504
  922MPD2    C513495   1.225   2.530  17.080 -0.0648 -0.6994 -0.3605
  922MPD2     H13496   1.206   2.665  17.436 -1.6141  0.8695 -0.7619
  922MPD2    H113497   1.107   2.368  17.151  0.3038 -0.3234  0.5119
  922MPD2    H213498   1.346   2.700  17.037  1.5095 -0.6978  0.5476
  922MPD2    H313499   1.236   2.471  16.989  0.2731  0.2207 -0.9106
  922MPD2     N13500   1.098   2.419  17.410 -0.4097  0.0328  0.1833
  922MPD2    H513501   1.042   2.345  17.369  0.6426  0.4838 -2.1169
  922MPD2    N113502   1.357   2.818  17.278  0.9074  0.4183 -0.3621
  922MPD2    H713503   1.351   2.835  17.378 -0.4468 -1.3940 -0.1177
  923MPD2     C13504   2.747   4.476   8.904 -0.0197  0.1057 -0.3990
  923MPD2    C113505   2.768   4.572   8.994  0.3129 -0.7624  0.0695
  923MPD2    C213506   2.875   4.573   9.074 -0.7763  0.0613  0.1114
  923MPD2    C313507   2.973   4.474   9.051  0.1586  0.3935  0.3866
  923MPD2    C413508   2.955   4.375   8.961 -0.7610 -0.0041  0.0405
  923MPD2    C513509   2.842   4.382   8.881 -0.5134 -0.2521 -0.5775
  923MPD2     H13510   2.886   4.652   9.147  1.1472 -0.7899  0.7492
  923MPD2    H113511   3.020   4.290   8.949  1.5015  1.8298 -0.7376
  923MPD2    H213512   2.655   4.466   8.849  0.7321 -0.3956 -1.5677
  923MPD2    H313513   2.823   4.304   8.809 -0.6403 -1.0061  0.2656
  923MPD2     N13514   3.097   4.474   9.120  0.4411 -0.3789 -0.2496
  923MPD2    H513515   3.148   4.388   9.102 -0.2435 -0.4617 -1.7050
  923MPD2    N113516   2.661   4.666   9.003 -0.0164  0.3614  0.1135
  923MPD2    H713517   2.575   4.662   8.951  0.0578 -2.4499  0.2150
  924MPD2     C13518   2.288   3.132  15.750  0.4104 -0.2121  0.9452
  924MPD2    C113519   2.224   3.149  15.872 -0.2366  0.2367 -0.4005
  924MPD2    C213520   2.226   3.275  15.929  0.4200 -0.0022 -0.4982
  924MPD2    C313521   2.287   3.385  15.860  0.4315  0.3891 -0.6488
  924MPD2    C413522   2.358   3.357  15.741  0.1121 -0.2056 -0.4271
  924MPD2    C513523   2.361   3.235  15.687  0.7470 -0.3357 -0.1812
  924MPD2     H13524   2.167   3.292  16.018  0.4138 -2.5411 -0.0303
  924MPD2    H113525   2.408   3.438  15.690 -0.7294 -0.5486 -1.8084
  924MPD2    H213526   2.273   3.039  15.698  0.2243 -1.5307  3.3424
  924MPD2    H313527   2.409   3.219  15.591 -2.9963  2.4649 -2.5213
  924MPD2     N13528   2.265   3.515  15.898  0.1010  0.4744  0.5225
  924MPD2    H513529   2.290   3.586  15.830 -0.7344 -0.3285 -0.6008
  924MPD2    N113530   2.143   3.045  15.928 -0.3976 -0.5914  0.5717
  924MPD2    H713531   2.121   2.977  15.855 -0.0523  1.4956 -1.4611
  925MPD2     C13532   1.264   0.900  14.800  0.2516 -0.3806 -0.6500
  925MPD2    C113533   1.144   0.853  14.746 -0.1263  0.4755 -0.2160
  925MPD2    C213534   1.065   0.760  14.809 -0.0831  0.5569  0.1640
  925MPD2    C313535   1.119   0.706  14.929  0.1327  0.3947  0.6511
  925MPD2    C413536   1.246   0.748  14.977 -0.4447 -0.4041  0.1601
  925MPD2    C513537   1.316   0.840  14.906 -0.0394  0.1597 -0.2045
  925MPD2     H13538   0.969   0.727  14.772 -0.2384  1.7313 -0.4917
  925MPD2    H113539   1.294   0.709  15.066  1.7202  0.5834 -0.5831
  925MPD2    H213540   1.321   0.978  14.752 -1.0508  0.5800 -0.6572
  925MPD2    H313541   1.415   0.868  14.942 -0.8789  0.5050  1.8149
  925MPD2     N13542   1.041   0.623  15.016  0.6777  0.1301  0.3703
  925MPD2    H513543   1.087   0.594  15.101 -1.0747 -1.6658  0.7016
  925MPD2    N113544   1.088   0.901  14.626 -0.4836 -0.6043  0.2291
  925MPD2    H713545   0.996   0.871  14.596 -0.9070  0.6972  0.2225
  926MPD2     C13546   4.479   3.522  13.278 -0.2741 -0.7403  0.0274
  926MPD2    C113547   4.434   3.644  13.332 -0.4312 -0.0811 -0.1039
  926MPD2    C213548   4.397   3.748  13.243 -0.6640  0.0545  0.3250
  926MPD2    C313549   4.431   3.736  13.104  0.1017  0.1809 -0.1649
  926MPD2    C413550   4.497   3.624  13.065 -0.3236 -0.1453 -0.1991
  926MPD2    C513551   4.523   3.519  13.150  0.1710 -0.4084 -0.7578
  926MPD2     H13552   4.364   3.843  13.284  0.0500  0.1581  0.6647
  926MPD2    H113553   4.530   3.602  12.964 -0.5159 -1.8980  0.1169
  926MPD2    H213554   4.506   3.435  13.336  0.7661 -0.5596 -0.1845
  926MPD2    H313555   4.582   3.437  13.110  1.4304 -0.1991  0.7032
  926MPD2     N13556   4.412   3.832  13.006 -0.4109 -0.7913  0.5042
  926MPD2    H513557   4.451   3.818  12.913  0.7341 -0.9388  1.0036
  926MPD2    N113558   4.418   3.648  13.477  0.0696 -0.2524 -0.6041
  926MPD2    H713559   4.374   3.723  13.529  0.5029 -1.0721  0.9467
  927MPD2     C13560   0.050   2.167   0.279 -0.0210  0.8097 -0.3282
  927MPD2    C113561   4.716   2.052   0.328 -0.3652 -0.4739 -0.3678
  927MPD2    C213562   0.028   1.931   0.280  0.6644  0.0679  0.1151
  927MPD2    C313563   0.116   1.919   0.175  0.2471  0.1618 -0.4630
  927MPD2    C413564   0.171   2.030   0.125  0.0149  0.2087 -0.6148
  927MPD2    C513565   0.145   2.151   0.185 -0.3156  0.7661 -0.2399
  927MPD2     H13566   4.705   1.843   0.324 -1.8393 -1.1267 -4.8805
  927MPD2    H113567   0.242   2.020   0.044  1.1526 -0.7266  0.5032
  927MPD2    H213568   0.007   2.263   0.304  1.3241  1.1983  0.4798
  927MPD2    H313569   0.192   2.242   0.148  0.0782  0.7428  0.1907
  927MPD2     N13570   0.142   1.786   0.126  0.5656 -0.0007  0.5305
  927MPD2    H513571   0.090   1.706   0.159  0.8812 -0.0371  0.9448
  927MPD2    N113572   4.630   2.070   0.437 -0.0215 -0.4945 -0.2132
  927MPD2    H713573   4.612   2.167   0.461 -3.6829 -1.0979 -0.5795
  928MPD2     C13574   1.891   0.886   1.573 -0.1130  0.5935 -0.4691
  928MPD2    C113575   1.856   0.762   1.551  0.3673  0.1042  0.2325
  928MPD2    C213576   1.944   0.689   1.473 -0.0564 -0.8565  0.1948
  928MPD2    C313577   2.064   0.737   1.424  0.9796  0.3239  0.1669
  928MPD2    C413578   2.088   0.872   1.434 -0.5348  0.2614 -0.0765
  928MPD2    C513579   2.002   0.944   1.516  0.1665  0.0700 -0.3757
  928MPD2     H13580   1.930   0.582   1.467  0.7427 -1.0273  1.2810
  928MPD2    H113581   2.180   0.913   1.392 -0.8623  1.3114  0.2422
  928MPD2    H213582   1.825   0.943   1.638 -0.7345 -0.6700 -0.0016
  928MPD2    H313583   2.019   1.049   1.541 -0.8470  0.2160 -0.2974
  928MPD2     N13584   2.156   0.669   1.359 -0.0895  0.5057  0.0672
  928MPD2    H513585   2.241   0.718   1.333  1.5448 -1.5439  1.5579
  928MPD2    N113586   1.736   0.700   1.605  0.2631  0.0280  0.0989
  928MPD2    H713587   1.678   0.761   1.661  0.1942  1.8523 -1.9156
  929MPD2     C13588   2.927   4.209  10.373 -0.1444  0.6209  0.4959
  929MPD2    C113589   2.825   4.123  10.335 -0.3265 -0.6442 -0.0211
  929MPD2    C213590   2.750   4.155  10.219 -0.0508  0.4684  0.3786
  929MPD2    C313591   2.776   4.273  10.147  0.4545 -0.3096 -0.3750
  929MPD2    C413592   2.886   4.348  10.184 -0.1128 -0.1717  0.2742
  929MPD2    C513593   2.962   4.316  10.296 -0.0223  0.3873  0.4356
  929MPD2     H13594   2.663   4.093  10.201  0.4121 -0.0755  0.0346
  929MPD2    H113595   2.900   4.443  10.134 -0.2506 -0.3647 -0.1319
  929MPD2    H213596   2.982   4.200  10.465 -0.0395 -2.4041  0.1518
  929MPD2    H313597   3.039   4.386  10.326  1.0178 -0.5239 -0.0996
  929MPD2     N13598   2.695   4.327  10.047 -0.5314  0.7333  1.0666
  929MPD2    H513599   2.722   4.418  10.011  1.4318 -0.2125  0.1372
  929MPD2    N113600   2.778   4.018  10.417  0.2565  0.1777  0.2586
  929MPD2    H713601   2.687   3.979  10.393  0.6437 -0.3744 -0.3096
  930MPD2     C13602   4.193   1.868  14.610  0.5863  0.0333 -0.3681
  930MPD2    C113603   4.154   1.997  14.582 -0.6575  0.0773  0.0947
  930MPD2    C213604   4.041   2.011  14.509  0.7672 -0.2369  0.4372
  930MPD2    C313605   3.967   1.903  14.462  0.0116 -0.5027  0.3879
  930MPD2    C413606   4.001   1.777  14.494  0.0008  0.5734 -0.5687
  930MPD2    C513607   4.119   1.756  14.569 -0.1249  0.2953 -0.3448
  930MPD2     H13608   4.030   2.111  14.467 -1.4727 -1.1011 -1.0250
  930MPD2    H113609   3.945   1.689  14.466 -0.4808  0.1221  1.8217
  930MPD2    H213610   4.278   1.855  14.676 -0.6055 -0.1846  1.1291
  930MPD2    H313611   4.141   1.654  14.597  2.5691  1.1076  0.5629
  930MPD2     N13612   3.868   1.920  14.362  0.5148  0.0810  0.1594
  930MPD2    H513613   3.829   1.833  14.326 -2.2017  0.7756  1.4075
  930MPD2    N113614   4.249   2.099  14.628 -0.0490 -1.1047  0.3306
  930MPD2    H713615   4.338   2.071  14.668  0.6721  0.3577 -0.2124
  931MPD2     C13616   4.506   1.472   0.892 -0.3179 -0.4070 -0.3664
  931MPD2    C113617   4.453   1.578   0.958 -0.0241 -0.0066  0.5783
  931MPD2    C213618   4.411   1.564   1.093 -0.1698 -0.3759  0.5123
  931MPD2    C313619   4.413   1.431   1.150  0.4282 -0.7230  0.0210
  931MPD2    C413620   4.456   1.329   1.075  0.1211  0.9240 -0.4396
  931MPD2    C513621   4.506   1.349   0.948  0.5177  0.4561 -0.3454
  931MPD2     H13622   4.355   1.637   1.149  0.5016  0.6261 -0.1283
  931MPD2    H113623   4.465   1.228   1.112  1.5891  0.8872 -0.8767
  931MPD2    H213624   4.531   1.481   0.787 -1.5008  2.2238 -0.4094
  931MPD2    H313625   4.546   1.264   0.894 -0.5942 -1.0986  1.2646
  931MPD2     N13626   4.372   1.400   1.280 -0.5399  0.5442  0.2018
  931MPD2    H513627   4.369   1.303   1.309 -0.5333 -0.1795 -2.2414
  931MPD2    N113628   4.443   1.702   0.890  0.2332 -0.6935 -0.3740
  931MPD2    H713629   4.493   1.707   0.802  1.3960 -2.2971  0.1935
  932MPD2     C13630   1.406   4.652  11.101 -0.1387 -0.1657  0.8837
  932MPD2    C113631   1.472   4.704  11.215  0.1550  0.1625 -0.1997
  932MPD2    C213632   1.498   4.613  11.315 -0.4840 -0.8138  0.6908
  932MPD2    C313633   1.456   4.481  11.306 -0.1275  0.2445  0.2688
  932MPD2    C413634   1.392   4.433  11.195 -0.0314  0.4679  0.2337
  932MPD2    C513635   1.370   4.519  11.091 -0.0481  0.6258  0.0013
  932MPD2     H13636   1.545   4.648  11.407  0.1825 -0.0202  0.0510
  932MPD2    H113637   1.373   4.328  11.176 -2.6642  1.3357 -1.8667
  932MPD2    H213638   1.374   4.709  11.014 -1.0076 -2.2849 -0.1997
  932MPD2    H313639   1.326   4.496  10.994 -0.4107 -1.1547  0.5917
  932MPD2     N13640   1.470   4.385  11.415  0.3747  0.0524  0.2815
  932MPD2    H513641   1.433   4.291  11.405  0.1443  0.1302  0.3954
  932MPD2    N113642   1.515   0.111  11.236  0.3691 -0.2875 -0.5358
  932MPD2    H713643   1.572   0.125  11.319 -1.5928  0.5162  0.6775
  933MPD2     C13644   1.087   0.860   1.944 -0.7171  0.3984  0.0426
  933MPD2    C113645   1.189   0.902   1.864 -0.0395 -0.2766 -0.6177
  933MPD2    C213646   1.183   1.029   1.816  0.3617 -0.4511 -0.4420
  933MPD2    C313647   1.077   1.119   1.846 -0.1439 -0.2401  0.0229
  933MPD2    C413648   0.982   1.079   1.933  0.0388 -0.4322  0.2464
  933MPD2    C513649   0.982   0.944   1.971 -0.2265 -0.8660 -0.2953
  933MPD2     H13650   1.261   1.066   1.752  2.1738 -1.3794  1.2364
  933MPD2    H113651   0.911   1.147   1.979  2.9050  0.5350  3.3083
  933MPD2    H213652   1.066   0.762   1.986  0.0789  0.4571  0.5715
  933MPD2    H313653   0.898   0.910   2.030 -1.4416  2.8731  0.1142
  933MPD2     N13654   1.086   1.256   1.801 -0.5682  0.1451  0.1298
  933MPD2    H513655   1.165   1.258   1.738 -0.6828 -1.7286 -0.0775
  933MPD2    N113656   1.295   0.815   1.825 -0.6651  0.4893  0.1096
  933MPD2    H713657   1.368   0.856   1.767 -1.5930 -1.6562 -2.5632
  934MPD2     C13658   3.713   2.164   2.305  0.3782 -0.4259  0.7281
  934MPD2    C113659   3.600   2.240   2.303  0.7211  0.2595 -0.1724
  934MPD2    C213660   3.486   2.185   2.236  0.5691 -0.6576  0.0601
  934MPD2    C313661   3.498   2.069   2.159  0.5025  0.0505  0.0858
  934MPD2    C413662   3.603   1.986   2.175 -0.0873  0.2905 -0.0202
  934MPD2    C513663   3.714   2.035   2.250 -0.4746 -0.1947  0.2513
  934MPD2     H13664   3.395   2.244   2.235  1.0626  0.1276  1.4413
  934MPD2    H113665   3.624   1.898   2.116 -0.5682 -0.8615  1.5215
  934MPD2    H213666   3.802   2.187   2.364 -0.0211  4.1082 -0.4403
  934MPD2    H313667   3.809   1.983   2.248 -1.7343 -2.4448 -1.4431
  934MPD2     N13668   3.401   2.027   2.058 -0.0390 -0.6013 -0.5111
  934MPD2    H513669   3.433   1.946   2.005 -0.9795  0.7458 -3.1262
  934MPD2    N113670   3.594   2.372   2.363 -0.0501 -0.7179  0.2206
  934MPD2    H713671   3.504   2.419   2.359  0.1242 -0.4337 -0.4263
  935MPD2     C13672   3.529   1.357   1.584  0.0057 -0.3137 -0.0650
  935MPD2    C113673   3.400   1.391   1.547  0.8894 -0.2769 -0.5961
  935MPD2    C213674   3.357   1.519   1.568 -0.5708 -0.5680  0.3136
  935MPD2    C313675   3.439   1.621   1.628  0.3760  0.4115  0.3457
  935MPD2    C413676   3.574   1.596   1.641  0.1264 -0.4307  0.5443
  935MPD2    C513677   3.612   1.467   1.614  0.4723  0.1056 -0.3696
  935MPD2     H13678   3.250   1.537   1.570  0.0682  3.6172 -2.5228
  935MPD2    H113679   3.639   1.668   1.689 -0.0185 -0.4240  0.7364
  935MPD2    H213680   3.572   1.258   1.578 -0.0704 -0.3399 -0.1695
  935MPD2    H313681   3.716   1.438   1.615  0.7150  0.9888 -0.1063
  935MPD2     N13682   3.392   1.748   1.669  0.3595 -0.3404  0.4018
  935MPD2    H513683   3.449   1.819   1.714 -2.9903  1.6343  1.5261
  935MPD2    N113684   3.308   1.296   1.493  1.1970 -0.3756  0.3217
  935MPD2    H713685   3.225   1.333   1.448  2.1674 -1.8371 -2.6985
  936MPD2     C13686   2.131   3.776  12.267  0.2952  1.1290  0.3802
  936MPD2    C113687   2.137   3.846  12.384 -0.0365  0.2076 -0.0068
  936MPD2    C213688   2.130   3.985  12.376  0.1704  0.2759  0.4193
  936MPD2    C313689   2.101   4.050  12.259 -0.3693 -0.6988  0.2870
  936MPD2    C413690   2.093   3.980  12.138  0.7709  0.2838 -0.5717
  936MPD2    C513691   2.103   3.840  12.147  0.7443  0.0240 -0.2174
  936MPD2     H13692   2.138   4.044  12.467 -1.5883  2.6898 -1.0110
  936MPD2    H113693   2.062   4.031  12.048  2.5274 -0.3030 -1.4934
  936MPD2    H213694   2.139   3.668  12.268  1.9101  1.2492  0.4211
  936MPD2    H313695   2.094   3.784  12.055  1.8622  0.6996 -0.7341
  936MPD2     N13696   2.104   4.191  12.271  0.0174 -0.2500  0.1534
  936MPD2    H513697   2.106   4.228  12.366 -0.0838 -2.1547  0.8826
  936MPD2    N113698   2.144   3.792  12.509 -0.2410 -0.3026 -0.3132
  936MPD2    H713699   2.162   3.852  12.589 -1.2996 -1.0092  0.4493
  937MPD2     C13700   0.071   0.213  11.594 -0.0199  0.4365 -1.3307
  937MPD2    C113701   0.147   0.330  11.614  0.6548  0.5947  0.3289
  937MPD2    C213702   0.207   0.386  11.500  0.3649 -0.6490 -0.0048
  937MPD2    C313703   0.205   0.327  11.367 -0.2735  0.2152 -0.9905
  937MPD2    C413704   0.155   0.198  11.358 -0.2382  0.0731  0.0179
  937MPD2    C513705   0.076   0.151  11.465 -0.4490  0.0630  0.1899
  937MPD2     H13706   0.243   0.488  11.509 -1.1775  0.1515 -2.9506
  937MPD2    H113707   0.156   0.143  11.265  0.7398 -0.4218  0.3188
  937MPD2    H213708   0.017   0.159  11.672  1.0402  1.0490 -0.1667
  937MPD2    H313709   0.029   0.057  11.437  0.7992 -0.3132 -0.6670
  937MPD2     N13710   0.293   0.381  11.269  0.2991  0.1571 -0.5349
  937MPD2    H513711   0.353   0.460  11.290 -2.1672  1.9202 -0.1816
  937MPD2    N113712   0.140   0.414  11.729  0.1615  0.5346  0.4867
  937MPD2    H713713   0.204   0.493  11.727  1.1525 -0.3087 -1.1836
  938MPD2     C13714   1.768   2.150   0.857  0.0468 -0.4143  0.1357
  938MPD2    C113715   1.859   2.165   0.951 -0.2312  1.1453  0.4057
  938MPD2    C213716   1.831   2.117   1.076  0.1413  0.1797 -0.4538
  938MPD2    C313717   1.715   2.052   1.106  0.3636  0.0739 -0.3292
  938MPD2    C413718   1.621   2.029   1.007 -0.2383  0.5379 -0.0278
  938MPD2    C513719   1.651   2.088   0.887 -0.2737  0.0503 -0.1250
  938MPD2     H13720   1.904   2.146   1.151  0.2934  0.3533 -0.6667
  938MPD2    H113721   1.529   1.975   1.023 -1.6161  2.1596 -2.4140
  938MPD2    H213722   1.784   2.183   0.755 -1.5723 -0.3657 -0.1055
  938MPD2    H313723   1.586   2.083   0.800  0.8590 -0.6316 -0.9303
  938MPD2     N13724   1.691   1.993   1.231 -0.0275 -0.2913  0.2496
  938MPD2    H513725   1.598   1.956   1.249  0.3842 -2.2500 -1.6753
  938MPD2    N113726   1.986   2.226   0.919  0.3143 -0.8047 -0.1625
  938MPD2    H713727   2.060   2.209   0.987  0.1723 -1.3088 -0.1305
  939MPD2     C13728   3.498   2.975   1.858  0.1967  0.2546 -0.0667
  939MPD2    C113729   3.509   3.092   1.796 -0.0742  1.0597 -0.7636
  939MPD2    C213730   3.503   3.101   1.658 -0.5833 -0.4866  0.6389
  939MPD2    C313731   3.459   2.997   1.585  0.8279  0.2405  0.3888
  939MPD2    C413732   3.436   2.876   1.648 -0.2718  0.1295 -0.3412
  939MPD2    C513733   3.459   2.866   1.786 -0.9691  0.6555 -0.0528
  939MPD2     H13734   3.525   3.197   1.611 -1.0554 -1.2319 -1.1299
  939MPD2    H113735   3.398   2.783   1.608  0.1403 -0.1334 -0.1344
  939MPD2    H213736   3.507   2.956   1.965  0.6943  0.4598 -0.0730
  939MPD2    H313737   3.436   2.769   1.829 -0.6384  0.9467  0.7888
  939MPD2     N13738   3.460   3.005   1.443 -0.1059 -0.3951 -0.1423
  939MPD2    H513739   3.478   3.094   1.396  1.5035  0.2329  1.6732
  939MPD2    N113740   3.524   3.209   1.875 -0.1245 -0.2814  0.4947
  939MPD2    H713741   3.526   3.200   1.976 -0.3120 -2.3882  0.3066
  940MPD2     C13742   2.525   3.322  12.956  0.2207  0.2052 -0.2249
  940MPD2    C113743   2.649   3.351  13.014  0.3672  0.7386  0.3205
  940MPD2    C213744   2.766   3.330  12.939  0.4630 -0.5048  0.5819
  940MPD2    C313745   2.758   3.300  12.802  0.4964 -0.3127 -0.1916
  940MPD2    C413746   2.632   3.282  12.746  0.2838 -0.0002 -0.8976
  940MPD2    C513747   2.515   3.283  12.824 -0.7377  0.9415  0.6274
  940MPD2     H13748   2.864   3.343  12.984 -0.1311  0.3298  1.6290
  940MPD2    H113749   2.623   3.249  12.643  0.7311  1.2707 -1.3325
  940MPD2    H213750   2.429   3.340  13.001  1.2503  0.3888  1.8848
  940MPD2    H313751   2.419   3.263  12.777 -0.8525  0.8407  0.9014
  940MPD2     N13752   2.875   3.287  12.721  0.2163  0.5536 -0.1615
  940MPD2    H513753   2.867   3.259  12.623  1.1951 -1.5363  0.3584
  940MPD2    N113754   2.662   3.393  13.150  0.1254  0.2418  0.1893
  940MPD2    H713755   2.754   3.405  13.191  1.3431  0.0204 -2.4993
  941MPD2     C13756   1.906   3.002   9.639 -0.7629 -0.2013 -0.7100
  941MPD2    C113757   1.989   2.964   9.741  0.2085 -0.3151 -0.1610
  941MPD2    C213758   1.944   2.866   9.824 -0.3279  0.1512  0.3359
  941MPD2    C313759   1.818   2.804   9.810  0.0745  0.1426 -0.2876
  941MPD2    C413760   1.741   2.836   9.702  0.5548 -0.2333 -0.8722
  941MPD2    C513761   1.786   2.942   9.624 -0.1812 -0.6421  0.6618
  941MPD2     H13762   2.001   2.846   9.914 -0.6485  0.6786  0.6534
  941MPD2    H113763   1.640   2.795   9.696 -0.1914  1.2158  1.9542
  941MPD2    H213764   1.923   3.093   9.584  1.1274 -1.1696 -1.7218
  941MPD2    H313765   1.714   2.981   9.552  0.9597 -0.6664 -0.4858
  941MPD2     N13766   1.767   2.705   9.897 -0.0053  0.6039  0.0658
  941MPD2    H513767   1.671   2.674   9.897  0.6761 -1.5553  1.0447
  941MPD2    N113768   2.120   3.013   9.759 -0.2651 -0.0436 -0.3483
  941MPD2    H713769   2.164   2.977   9.843  1.4122  0.3712 -1.0464
  942MPD2     C13770   1.505   4.271   9.552  0.5833 -0.0035 -0.2483
  942MPD2    C113771   1.507   4.243   9.423 -0.3799 -0.2850  0.3910
  942MPD2    C213772   1.628   4.250   9.353  0.2272  0.5710  0.4972
  942MPD2    C313773   1.744   4.296   9.413  0.4858 -0.0684  0.5461
  942MPD2    C413774   1.737   4.328   9.550 -0.4234 -0.3659 -0.4623
  942MPD2    C513775   1.617   4.308   9.619 -0.1569 -0.1012  0.3925
  942MPD2     H13776   1.627   4.224   9.248 -1.0763 -3.6875  1.5558
  942MPD2    H113777   1.822   4.365   9.606  0.4356 -1.9173 -0.7320
  942MPD2    H213778   1.420   4.253   9.617  0.2591  1.0628 -0.3712
  942MPD2    H313779   1.619   4.322   9.727  2.5008  1.4506  0.1519
  942MPD2     N13780   1.863   4.329   9.340  0.0523  0.4141  0.2680
  942MPD2    H513781   1.943   4.362   9.392  1.4991 -0.0276 -1.6500
  942MPD2    N113782   1.395   4.183   9.357 -0.3157  0.2223  0.2720
  942MPD2    H713783   1.414   4.155   9.261  0.2106 -2.4869  1.1713
  943MPD2     C13784   1.144   2.439   9.639  0.2091 -0.2858 -0.7577
  943MPD2    C113785   1.074   2.320   9.664  0.4930  0.2507  0.6993
  943MPD2    C213786   0.969   2.282   9.586 -0.1701 -0.1171 -0.1128
  943MPD2    C313787   0.924   2.368   9.488  0.3550  0.6981 -0.4202
  943MPD2    C413788   0.990   2.483   9.468  0.0507  0.1560 -0.3358
  943MPD2    C513789   1.103   2.524   9.540 -0.1788 -0.1510 -0.5678
  943MPD2     H13790   0.909   2.195   9.612 -0.9081  0.6547  0.7795
  943MPD2    H113791   0.952   2.554   9.395  0.7565  0.3690 -0.5019
  943MPD2    H213792   1.229   2.472   9.697 -1.0951 -0.2113  1.1227
  943MPD2    H313793   1.154   2.618   9.520 -0.2307 -0.0569 -0.2489
  943MPD2     N13794   0.809   2.333   9.400 -0.0282  0.8832  0.3154
  943MPD2    H513795   0.783   2.395   9.324 -0.9785 -1.0763 -0.9491
  943MPD2    N113796   1.107   2.254   9.781 -0.1832 -0.5007  0.2657
  943MPD2    H713797   1.172   2.301   9.844  1.8390 -0.0114 -2.1771
  944MPD2     C13798   1.273   1.129  11.555  0.1901 -0.1374 -0.4119
  944MPD2    C113799   1.192   1.129  11.441  0.8741  0.4933  0.5669
  944MPD2    C213800   1.057   1.157  11.463  0.0762  0.6692  0.2846
  944MPD2    C313801   1.009   1.184  11.589 -0.8443  0.4824 -0.0933
  944MPD2    C413802   1.094   1.171  11.698  0.9429  0.2832  0.7878
  944MPD2    C513803   1.225   1.145  11.679  0.2080  0.0836  0.9237
  944MPD2     H13804   0.985   1.171  11.383  1.8944  0.5464 -1.3785
  944MPD2    H113805   1.061   1.173  11.801  0.3391  1.0173  0.5757
  944MPD2    H213806   1.380   1.118  11.564 -0.3032 -1.9891  3.1245
  944MPD2    H313807   1.289   1.136  11.766  1.7359 -1.4436 -0.3650
  944MPD2     N13808   0.878   1.239  11.600  0.5960 -0.2653 -0.0297
  944MPD2    H513809   0.811   1.227  11.525  0.9597 -0.2011 -0.3591
  944MPD2    N113810   1.255   1.096  11.322  0.2478 -0.1870 -0.4436
  944MPD2    H713811   1.354   1.071  11.323  1.3690  4.2891 -0.3792
    1TCq1    O113812   2.797   2.908  15.066 -0.7418  0.4569 -0.1884
    1TCq1    C113813   2.918   2.864  15.102 -0.9756  0.1436  0.2837
    1TCq1    O213814   3.004   2.829  15.020 -0.2452 -0.1290 -0.0021
    1TCq1    C213815   2.963   2.948  15.212 -0.1364  0.3567  0.3542
    1TCq1    C313816   2.895   2.952  15.331  0.2399 -0.1371 -0.0697
    1TCq1    C413817   2.907   3.055  15.419  0.0109 -0.3910  0.5981
    1TCq1    C513818   3.003   3.153  15.392  0.7166 -1.0500  0.2869
    1TCq1    C613819   3.079   3.149  15.280 -0.1126  0.5035 -0.7612
    1TCq1    C713820   3.058   3.052  15.185  0.0057 -0.2429  0.6285
    1TCq1    C813821   3.141   3.274  15.240  0.2370 -0.6712  0.2943
    1TCq1    O413822   3.198   3.279  15.133  0.0659  0.4450  0.3506
    1TCq1    C913823   2.848   3.045  15.553 -0.0323 -0.1104 -0.1800
    1TCq1    O513824   2.865   3.145  15.627  0.3177 -0.6597 -0.0952
    1TCq1    O613825   2.764   2.957  15.571  0.1750 -0.0319  0.0535
    1TCq1    H113826   2.765   2.975  15.129 -1.5934 -2.0952  2.1144
    1TCq1    H213827   2.823   2.877  15.363 -1.5210  0.9882 -1.4542
    1TCq1    H313828   3.038   3.215  15.473  0.6030  0.0954 -0.5340
    1TCq1    H413829   3.109   3.059  15.090 -1.5916  0.5035 -0.1671
    2MPD2     C13830   3.160   3.790  15.228 -0.2201 -0.2806  0.8971
    2MPD2    C113831   3.224   3.702  15.146 -0.3803 -0.2691  0.6507
    2MPD2    C213832   3.196   3.567  15.162  0.0356  0.1067  0.4209
    2MPD2    C313833   3.113   3.519  15.263 -0.1971  0.3537  0.2432
    2MPD2    C413834   3.052   3.614  15.348  0.3632  0.5722 -0.1867
    2MPD2    C513835   3.067   3.745  15.322 -0.4809 -0.3716 -0.3851
    2MPD2     H13836   3.247   3.497  15.097 -3.0131 -1.6741 -0.1018
    2MPD2    H113837   2.992   3.581  15.432  0.8341  0.5466  0.1383
    2MPD2    H213838   3.180   3.895  15.209 -0.1628 -0.7252 -1.4714
    2MPD2    H313839   3.014   3.819  15.381  1.3012  0.8430 -0.2950
    2MPD2     N13840   3.090   3.384  15.302  0.2262 -0.0312 -0.2806
    2MPD2    H513841   3.039   3.375  15.389  0.7393  2.0319  0.2428
    2MPD2    N113842   3.322   3.758  15.051  0.1800  0.2353 -0.2607
    2MPD2    H713843   3.337   3.858  15.052 -1.6921  0.5348 -1.5143
    3TMC2    C113844   3.485   3.761  14.881  0.0623 -0.8538 -0.1336
    3TMC2    C213845   3.527   3.886  14.927  0.1794 -0.0553 -1.2565
    3TMC2    C313846   3.599   3.955  14.840 -0.6540 -0.4042 -0.7481
    3TMC2    C413847   3.507   3.716  14.754  0.0159 -0.0361 -0.8077
    3TMC2    C513848   3.559   3.803  14.662 -0.3735  0.3836 -0.2544
    3TMC2    C613849   3.604   3.924  14.707 -0.2905 -0.0687 -0.5727
    3TMC2     C13850   3.390   3.685  14.959 -0.9298  0.0699 -0.4349
    3TMC2     O13851   3.386   3.561  14.939  0.2002 -1.0450  0.1395
    3TMC2     H13852   3.511   3.920  15.028 -0.5935 -0.2800 -1.3064
    3TMC2    H113853   3.468   3.617  14.729  0.8285 -0.9573  1.5523
    3TMC2    H213854   3.647   3.995  14.637 -1.5032 -0.0663 -1.3007
    3TMC2    C713855   3.532   3.785  14.522 -0.7892  0.1943  0.4783
    3TMC2    C813856   3.679   4.066  14.886 -0.6466  0.3935  0.3465
    3TMC2    O113857   3.555   3.881  14.448 -0.1016  0.2071 -0.6326
    3TMC2    O213858   3.699   4.159  14.812  0.1116 -0.3519  0.0544
    3TMC2    O513859   3.700   4.065  15.020 -0.0429  0.2415  0.0958
    3TMC2    H513860   3.681   3.981  15.068  0.0909 -0.5396 -1.2331
    4MPD2     C13861   2.683   3.789  13.267 -0.3969  0.3355 -0.4987
    4MPD2    C113862   2.645   3.882  13.359  0.2667  0.3727  0.2378
    4MPD2    C213863   2.729   3.930  13.458  0.0109  0.3331  0.3081
    4MPD2    C313864   2.852   3.867  13.478 -0.6922  0.2089 -0.4720
    4MPD2    C413865   2.899   3.777  13.387 -0.1536 -0.0186 -0.1132
    4MPD2    C513866   2.812   3.735  13.281  0.5189  0.7228  0.3013
    4MPD2     H13867   2.694   3.998  13.535  0.4417  0.6257  0.2460
    4MPD2    H113868   2.993   3.723  13.395 -1.0512 -1.5469  0.1109
    4MPD2    H213869   2.614   3.754  13.191 -1.3685  0.5606  0.2878
    4MPD2    H313870   2.848   3.653  13.220 -0.3648  1.4524 -1.1983
    4MPD2     N13871   2.927   3.911  13.585 -0.0060  0.0258  0.1804
    4MPD2    H513872   2.893   3.995  13.631 -1.2677  0.3408 -1.3481
    4MPD2    N113873   2.514   3.926  13.343 -0.0571  0.4261 -0.0803
    4MPD2    H713874   2.455   3.882  13.273 -1.0869  0.8411  0.5395
    5TCq2    C113875   3.029   3.841  13.644  0.6425 -0.2796 -0.4234
    5TCq2    O213876   3.056   3.720  13.628  0.3417  0.3054  0.1599
    5TCq2    C213877   3.109   3.919  13.742  0.0972  0.3984  0.2985
    5TCq2    C313878   3.153   4.045  13.707 -0.9868  0.4771  0.3737
    5TCq2    C413879   3.254   4.102  13.781 -0.1874 -0.1947 -0.2692
    5TCq2    C513880   3.303   4.043  13.895 -0.2031  0.3151  0.1451
    5TCq2    C613881   3.259   3.915  13.918 -0.6162 -0.4587  0.8122
    5TCq2    C713882   3.166   3.847  13.841  0.8422  0.0799  0.3171
    5TCq2    C813883   3.332   3.845  14.024 -0.4253 -0.0419 -0.2973
    5TCq2    O413884   3.404   3.915  14.096  0.0234 -0.1262 -0.2599
    5TCq2    C913885   3.296   4.238  13.750 -0.5300 -0.4207  0.4429
    5TCq2    O513886   3.387   4.279  13.819 -0.3304 -0.2357 -0.7827
    5TCq2    O613887   3.258   4.291  13.645  0.2277  0.4175  0.4590
    5TCq2    H213888   3.112   4.093  13.620 -1.1652 -1.4501 -0.6119
    5TCq2    H313889   3.380   4.082  13.960 -0.0290  0.5173 -0.1840
    5TCq2    H413890   3.126   3.748  13.861 -0.5175  0.7607  0.9336
    6MPD1     C13891   1.409   0.678  13.738  0.4248 -1.2288  0.1897
    6MPD1    C113892   1.495   0.718  13.639  0.0302  0.6388  0.7562
    6MPD1    C213893   1.601   0.634  13.610 -0.1287  0.5986  0.5396
    6MPD1    C313894   1.639   0.519  13.683 -0.3427 -0.3279 -0.0809
    6MPD1    C413895   1.547   0.486  13.785 -0.0543 -0.2770  0.0839
    6MPD1    C513896   1.438   0.565  13.812  0.1733 -0.0242  0.2293
    6MPD1     H13897   1.659   0.667  13.524 -0.6118 -2.0079 -0.7753
    6MPD1    H113898   1.556   0.393  13.840  1.5350  0.0514  0.3737
    6MPD1    H213899   1.318   0.731  13.765  1.0095 -0.5195  0.7573
    6MPD1    H313900   1.366   0.523  13.880  0.5323  0.6165  0.9982
    6MPD1     N13901   1.745   0.429  13.662  0.3327  0.1652  0.4693
    6MPD1    H513902   1.728   0.345  13.716  0.5059 -0.2038 -0.0526
    6MPD1    N113903   1.465   0.825  13.561  0.4790 -0.1802  0.1269
    6MPD1    H613904   1.405   0.889  13.613  0.9593 -0.0962  0.5854
    6MPD1    H713905   1.542   0.880  13.523  2.2472 -1.9924  1.0748
    7MPD2     C13906   1.688   4.482  13.603  0.5198 -0.2662 -0.0197
    7MPD2    C113907   1.823   4.478  13.617 -0.2929  0.0280 -0.1428
    7MPD2    C213908   1.889   4.364  13.607 -0.5442  0.0872 -0.0822
    7MPD2    C313909   1.820   4.249  13.559  0.2174 -0.8448 -0.2120
    7MPD2    C413910   1.689   4.249  13.537  0.4762  0.4789 -0.0196
    7MPD2    C513911   1.621   4.366  13.561  0.1485 -0.4074  0.4681
    7MPD2     H13912   1.996   4.371  13.621 -0.1704 -2.7384 -1.5472
    7MPD2    H113913   1.640   4.171  13.480 -0.4022  0.3595  0.9001
    7MPD2    H213914   1.632   4.574  13.617  0.7718 -0.3978  1.8643
    7MPD2    H313915   1.514   4.365  13.545  0.1772 -0.5144  0.2785
    7MPD2     N13916   1.895   4.140  13.520  0.0688 -0.2297 -0.5730
    7MPD2    H513917   1.848   4.067  13.466 -0.5297 -0.0895 -0.2450
    7MPD2    N113918   1.905   4.585  13.637  0.3735 -0.5969  0.0733
    7MPD2    H713919   2.006   4.573  13.633  0.4595  0.1695 -0.1853
    8TMC3    C113920   2.087   4.043  13.452 -0.0788  0.0825  0.1097
    8TMC3    C213921   2.212   3.997  13.479  0.2318  0.3356  0.0729
    8TMC3    C313922   2.310   4.002  13.380  0.3968  0.5536 -0.2345
    8TMC3    C413923   2.065   4.069  13.315 -0.5816 -1.4937  0.5137
    8TMC3    C513924   2.162   4.073  13.220 -0.8432  1.1843 -0.4364
    8TMC3    C613925   2.283   4.024  13.250 -0.1798  0.0945 -0.9720
    8TMC3     C13926   2.026   4.127  13.549  0.1078 -0.3961 -0.7515
    8TMC3     O13927   2.097   4.177  13.632  0.3696 -0.5479  0.2890
    8TMC3     H13928   2.249   3.997  13.581  0.6005  0.4929 -0.0586
    8TMC3    H113929   1.975   4.125  13.291  0.8075  1.0153  1.2355
    8TMC3    H213930   2.361   4.032  13.175  0.9636  1.6502  0.3756
    8TMC3    C713931   2.166   4.205  13.161  0.0161 -0.9327 -0.0889
    8TMC3    C813932   2.446   4.003  13.425 -0.8192  0.4237  0.0761
    8TMC3    O113933   2.265   4.270  13.181  0.0958  0.0413 -0.0885
    8TMC3    O213934   2.467   4.047  13.540 -0.1932 -0.5965  0.3370
    9TMC3    C113935   1.909   0.311  13.551  0.0008  0.6036 -0.6023
    9TMC3    C213936   1.967   0.280  13.431 -0.5205 -0.2860 -0.0325
    9TMC3    C313937   2.006   0.154  13.404 -0.4368 -0.1356  0.2726
    9TMC3    C413938   1.905   0.217  13.650 -0.3778 -0.5460  0.1878
    9TMC3    C513939   1.945   0.086  13.618 -0.9388  0.6367  0.0121
    9TMC3    C613940   2.001   0.056  13.492 -0.5685 -0.1587 -0.2774
    9TMC3     C13941   1.832   0.432  13.562 -0.0256 -0.0200  0.5270
    9TMC3     O13942   1.831   0.514  13.470 -0.3314  0.0679  1.0929
    9TMC3     H13943   1.964   0.357  13.355  1.1378 -0.4435 -0.2544
    9TMC3    H113944   1.861   0.239  13.746  0.9366 -1.0847  0.9141
    9TMC3    H213945   2.023   4.679  13.459  0.6749 -0.2690  0.9059
    9TMC3    C713946   1.850   4.706  13.661  0.1753 -0.0583  0.7073
    9TMC3    C813947   2.010   0.112  13.265  0.3856  0.2446 -0.5743
    9TMC3    O113948   1.746   0.014  13.711 -0.0891  0.2504 -0.1667
    9TMC3    O213949   1.956   0.183  13.179 -0.4996  0.3698 -0.1854
   10MPD2     C13950   1.913   4.411  12.993 -0.9579 -0.4253  0.6457
   10MPD2    C113951   2.019   4.386  13.080  0.1293 -0.3391  0.0265
   10MPD2    C213952   2.072   4.490  13.146 -0.0030 -0.5194 -0.0138
   10MPD2    C313953   2.016   4.615  13.145  0.1887  0.2810 -0.5060
   10MPD2    C413954   1.918   4.640  13.053  0.6348 -0.2384  0.1621
   10MPD2    C513955   1.877   4.542  12.968  0.2947  0.5838  0.4764
   10MPD2     H13956   2.141   4.468  13.227  0.9567  2.4552 -0.0307
   10MPD2    H113957   1.886   0.016  13.024 -0.8795 -0.7992 -0.0552
   10MPD2    H213958   1.873   4.327  12.938 -1.5553  1.1207 -1.3061
   10MPD2    H313959   1.794   4.568  12.904  0.5724  0.4867  0.0752
   10MPD2     N13960   2.052   4.704  13.247  0.2337 -0.2504  0.1660
   10MPD2    H513961   2.095   4.664  13.329 -0.6332  1.1469  1.3071
   10MPD2    N113962   2.048   4.250  13.102  0.0208  0.1687  0.0962
   10MPD2    H713963   1.996   4.175  13.057  0.0461  0.0371  0.2845
   11MPD2     C13964   3.415   3.462  14.366 -0.5850 -0.3015  0.0567
   11MPD2    C113965   3.440   3.600  14.374 -0.3223  0.4313  0.2037
   11MPD2    C213966   3.415   3.680  14.262  0.4410 -0.1361  0.4577
   11MPD2    C313967   3.335   3.633  14.155 -0.0711  0.3275  0.4645
   11MPD2    C413968   3.292   3.501  14.161  0.1245  0.2840 -0.3913
   11MPD2    C513969   3.328   3.411  14.267 -0.5438 -0.3707  0.6885
   11MPD2     H13970   3.454   3.781  14.265  1.0454 -0.3276 -1.0853
   11MPD2    H113971   3.234   3.455  14.081  0.6815  1.1071 -1.2649
   11MPD2    H213972   3.429   3.396  14.451 -1.7462 -0.7656 -0.1133
   11MPD2    H313973   3.282   3.313  14.273 -2.0017  0.2294 -0.4957
   11MPD2     N13974   3.299   3.709  14.047 -0.1687 -0.7361 -0.0535
   11MPD2    H513975   3.243   3.658  13.980 -0.0725 -1.6705  0.5761
   11MPD2    N113976   3.501   3.648  14.491  0.0773  0.4264  0.0870
   11MPD2    H713977   3.514   3.580  14.565 -3.5835 -0.6252 -0.2227
    1MPD1     C13978   1.187   0.969  16.375 -0.9277 -0.2599 -0.2198
    1MPD1    C113979   1.302   1.041  16.409 -0.9877 -0.3946 -0.1340
    1MPD1    C213980   1.398   0.983  16.487  0.0520  0.0245  0.4964
    1MPD1    C313981   1.373   0.851  16.525  0.6145  0.3118 -0.5968
    1MPD1    C413982   1.262   0.778  16.482  1.2241  0.3238 -0.4086
    1MPD1    C513983   1.171   0.839  16.402  0.6099  0.8294  0.5332
    1MPD1     H13984   1.486   1.038  16.515 -0.5767  0.2851  1.9775
    1MPD1    H113985   1.247   0.676  16.516 -0.4053  1.2171  1.5815
    1MPD1    H213986   1.114   1.013  16.307 -1.8870 -1.7287 -0.1296
    1MPD1    H313987   1.078   0.795  16.368  0.3715  1.7002  0.0691
    1MPD1     N13988   1.465   0.784  16.611 -0.1698 -0.2636  0.3059
    1MPD1    H513989   1.438   0.695  16.652  1.5135 -0.5885  0.6867
    1MPD1    N113990   1.308   1.176  16.371  0.3715 -0.1862  0.3542
    1MPD1    H613991   1.264   1.195  16.281  0.2644  0.9547  0.6495
    1MPD1    H713992   1.408   1.187  16.356  0.4312 -0.1435  0.7732
    2MPD1     C13993   1.746   1.055  17.521  0.1332  0.2701  0.6442
    2MPD1    C113994   1.641   1.089  17.434 -0.2156  0.5334 -0.0531
    2MPD1    C213995   1.651   1.036  17.307 -0.3722  0.0164 -0.5268
    2MPD1    C313996   1.748   0.948  17.261 -0.3955  0.1666  0.3727
    2MPD1    C413997   1.834   0.914  17.357 -0.0964 -0.3701 -0.4857
    2MPD1    C513998   1.838   0.970  17.482 -0.0394 -0.1907 -0.0081
    2MPD1     H13999   1.574   1.055  17.233  1.0154  2.6116 -1.2615
    2MPD1    H114000   1.918   0.848  17.343 -0.5867 -0.9268 -0.8268
    2MPD1    H214001   1.751   1.104  17.617 -0.7844  2.0526 -0.2044
    2MPD1    H314002   1.914   0.940  17.553 -0.5956 -1.3839  0.0762
    2MPD1     N14003   1.751   0.890  17.129 -0.0236  0.0390  0.0665
    2MPD1    H514004   1.669   0.910  17.072 -1.6019  1.7251  2.9179
    2MPD1    N114005   1.554   1.193  17.456 -0.0982  0.0426 -0.0563
    2MPD1    H614006   1.464   1.184  17.409  0.5388 -0.8420 -1.1147
    2MPD1    H714007   1.558   1.218  17.554 -0.5527  1.3336 -0.3546
    3TMC3    C114008   1.785   0.745  16.954  0.3376 -0.5871  0.1908
    3TMC3    C214009   1.818   0.621  16.924  0.0562 -0.4382 -0.4519
    3TMC3    C314010   1.769   0.558  16.810  0.8931 -0.0941 -0.1303
    3TMC3    C414011   1.711   0.821  16.861 -0.4268  0.2344 -0.2534
    3TMC3    C514012   1.653   0.750  16.760  0.2797  0.4894 -0.1386
    3TMC3    C614013   1.680   0.622  16.725  0.3331  0.3546  0.1623
    3TMC3     C14014   1.834   0.794  17.081 -0.7125  0.3704  0.6451
    3TMC3     O14015   1.935   0.742  17.123  0.3994 -0.8895  0.0560
    3TMC3     H14016   1.872   0.560  16.996 -0.5477 -3.5439 -2.6153
    3TMC3    H114017   1.684   0.924  16.881 -2.8242 -0.4646  0.0868
    3TMC3    H214018   1.648   0.574  16.634 -2.9653 -0.0124  1.4986
    3TMC3    C714019   1.575   0.842  16.671  0.5572  0.2735  0.1666
    3TMC3    C814020   1.824   0.428  16.781 -0.4659  0.8482  0.6067
    3TMC3    O114021   1.621   0.957  16.659  0.3734  0.2401  0.9041
    3TMC3    O214022   1.931   0.401  16.837  0.0925 -0.2822 -1.0997
    4MPD1     C14023   1.879   0.045  16.452  0.5947 -0.3507 -1.0469
    4MPD1    C114024   1.751   0.086  16.455 -0.1617  1.1546  0.6379
    4MPD1    C214025   1.711   0.190  16.535 -0.1915  0.0368  0.4261
    4MPD1    C314026   1.789   0.240  16.630  0.0299 -0.4910 -0.1517
    4MPD1    C414027   1.919   0.185  16.641 -0.4763 -0.2681  1.1606
    4MPD1    C514028   1.963   0.098  16.546 -0.4680 -0.4894  0.0182
    4MPD1     H14029   1.611   0.229  16.522 -0.4133 -0.3367  0.9909
    4MPD1    H114030   1.989   0.227  16.712  2.2094  0.7748 -2.1084
    4MPD1    H214031   1.916   4.697  16.379  0.4956  0.8536 -2.3027
    4MPD1    H314032   2.068   0.071  16.534  0.1870  0.9031  2.7203
    4MPD1     N14033   1.741   0.349  16.705  0.3053 -0.1459  0.5649
    4MPD1    H514034   1.643   0.374  16.692  0.3587 -0.1325  0.1947
    4MPD1    N114035   1.660   0.039  16.358 -0.1667  0.2415  0.2956
    4MPD1    H614036   1.566   0.060  16.392 -2.0378 -3.3928 -2.6936
    4MPD1    H714037   1.668   4.667  16.324 -2.3624  0.1685 -0.0017
    1TCq1    O114038   1.736   0.877  13.135  0.5033 -0.4001  0.8857
    1TCq1    C114039   1.636   0.833  13.058 -0.1138  0.1110  0.0736
    1TCq1    O214040   1.536   0.898  13.034  0.8962 -0.1576  0.8334
    1TCq1    C214041   1.722   0.769  12.955 -0.1694 -0.1972 -0.5282
    1TCq1    C314042   1.826   0.689  12.994  0.7836 -0.1625 -0.4496
    1TCq1    C414043   1.907   0.643  12.891 -0.4068 -0.6600 -0.0575
    1TCq1    C514044   1.864   0.654  12.758  0.3524  0.2425 -0.3450
    1TCq1    C614045   1.764   0.732  12.727  0.8582 -0.6946 -0.2128
    1TCq1    C714046   1.685   0.789  12.821 -0.3389 -0.5713 -0.8162
    1TCq1    C814047   1.763   0.787  12.597  0.0588  0.0068  0.6554
    1TCq1    O414048   1.841   0.736  12.517  0.4885 -0.6162  0.1277
    1TCq1    C914049   1.991   0.528  12.917 -0.7469 -0.9302  0.1144
    1TCq1    O514050   1.995   0.445  12.824  0.1564  0.2605  0.7244
    1TCq1    O614051   2.009   0.489  13.037 -0.0070  0.4746  0.3948
    1TCq1    H114052   1.822   0.834  13.113  0.8312  0.6924 -0.0041
    1TCq1    H214053   1.848   0.655  13.095 -0.7518  1.5600  0.4600
    1TCq1    H314054   1.903   0.586  12.683 -1.4002  1.6428 -2.5422
    1TCq1    H414055   1.582   0.824  12.811  0.0983  0.8046 -0.5510
    2MPD1     C14056   1.681   1.150  12.236 -0.0837 -0.6006  0.4234
    2MPD1    C114057   1.638   1.190  12.364 -0.1576  0.8660 -0.7318
    2MPD1    C214058   1.626   1.101  12.463  0.3365 -0.4422  0.3682
    2MPD1    C314059   1.680   0.978  12.461 -0.1085 -0.0858  0.0587
    2MPD1    C414060   1.715   0.930  12.332 -0.0353 -0.3449  0.4604
    2MPD1    C514061   1.711   1.017  12.221  0.1893 -0.2204  0.8339
    2MPD1     H14062   1.585   1.142  12.555 -0.9313 -1.3207  0.1849
    2MPD1    H114063   1.746   0.828  12.316 -1.4238 -0.6443 -0.3063
    2MPD1    H214064   1.689   1.217  12.151 -0.5266 -3.0823 -1.5904
    2MPD1    H314065   1.734   0.975  12.123  2.3302  1.2115  0.7328
    2MPD1     N14066   1.684   0.903  12.581 -0.0657  0.0861 -0.0020
    2MPD1    H514067   1.635   0.946  12.659 -1.3899  1.0207 -1.3694
    2MPD1    N114068   1.592   1.322  12.383 -0.2611 -0.3077 -0.8305
    2MPD1    H614069   1.629   1.373  12.303  2.8661 -1.9509 -0.4387
    2MPD1    H714070   1.618   1.361  12.473 -0.0399 -2.8781  0.2365
    1TCq1    O114071   1.108   3.077   2.240  0.4937  0.5837  0.3445
    1TCq1    C114072   1.130   2.959   2.188  1.2860  0.1514 -0.3768
    1TCq1    O214073   1.220   2.884   2.228 -0.0435 -0.1732 -0.6709
    1TCq1    C214074   1.093   2.984   2.048  0.2691 -0.2242  0.2927
    1TCq1    C314075   1.172   2.930   1.951 -0.2660  0.6710 -0.4454
    1TCq1    C414076   1.138   2.951   1.820 -0.7105  0.3146  0.0246
    1TCq1    C514077   1.021   3.021   1.794  0.3030 -0.6026 -0.3897
    1TCq1    C614078   0.930   3.049   1.891  0.1361 -1.1763 -0.3722
    1TCq1    C714079   0.968   3.031   2.024  0.0296 -0.6126  0.3354
    1TCq1    C814080   0.805   3.102   1.854 -0.2135  0.3487 -0.6597
    1TCq1    O414081   0.722   3.114   1.942  0.0847 -0.1576  0.1611
    1TCq1    C914082   1.231   2.940   1.710  0.7880 -0.7477  0.8365
    1TCq1    O514083   1.190   2.979   1.595 -0.1166  0.3664  0.0312
    1TCq1    O614084   1.354   2.915   1.726 -0.0436  0.2713  0.0428
    1TCq1    H114085   1.051   3.138   2.188  0.6329  1.0024  0.6741
    1TCq1    H214086   1.273   2.899   1.973 -0.9390 -1.5017 -0.4414
    1TCq1    H314087   0.987   3.034   1.692 -0.9074  0.4741  0.1578
    1TCq1    H414088   0.895   3.053   2.101  2.0397  0.3644  1.9843
    2MPD1     C14089   0.494   3.372   1.528  0.7669 -0.0968  0.0517
    2MPD1    C114090   0.612   3.334   1.466 -0.0262  0.0491 -0.1041
    2MPD1    C214091   0.710   3.262   1.531 -0.5186  0.1567 -0.1152
    2MPD1    C314092   0.690   3.221   1.664  0.1500  0.3845 -0.4061
    2MPD1    C414093   0.568   3.252   1.723  0.1723 -0.8739  0.0054
    2MPD1    C514094   0.473   3.320   1.654 -0.0747  0.0066  1.0233
    2MPD1     H14095   0.801   3.231   1.480 -0.5605 -0.1764  0.0105
    2MPD1    H114096   0.542   3.221   1.823  0.7142 -0.9705  0.1134
    2MPD1    H214097   0.418   3.432   1.479  3.3692  3.2626  0.1699
    2MPD1    H314098   0.377   3.342   1.701  0.3277 -1.7409  2.6505
    2MPD1     N14099   0.793   3.153   1.726 -0.7782  0.2067 -0.7426
    2MPD1    H514100   0.877   3.138   1.670 -0.5169  0.2978 -0.3793
    2MPD1    N114101   0.638   3.392   1.345 -0.5396 -0.0515  0.0007
    2MPD1    H614102   0.701   3.327   1.298  0.8222  0.9160  0.4792
    2MPD1    H714103   0.558   3.406   1.283 -0.0314  0.5030 -0.5245
    1MPD1     C14104   4.225   0.168  12.218  0.2438 -0.3439 -0.5264
    1MPD1    C114105   4.298   0.093  12.124  0.0145  0.1487 -0.4655
    1MPD1    C214106   4.358   0.159  12.021 -0.1833  0.0626  0.9521
    1MPD1    C314107   4.329   0.288  11.987  0.6301 -0.2975  0.5305
    1MPD1    C414108   4.229   0.350  12.061 -0.2536 -0.2756 -0.0881
    1MPD1    C514109   4.196   0.297  12.179 -0.3391 -1.0457 -0.6499
    1MPD1     H14110   4.439   0.115  11.965 -1.0521 -1.7015  1.0971
    1MPD1    H114111   4.197   0.453  12.050  0.0962 -0.1272  0.3074
    1MPD1    H214112   4.182   0.133  12.311  0.9881  0.7853  0.2336
    1MPD1    H314113   4.114   0.345  12.232  0.0928  0.6883 -1.5385
    1MPD1     N14114   4.383   0.341  11.870 -0.5393  0.2387 -0.3404
    1MPD1    H514115   4.453   0.282  11.826  0.4160  1.4038 -0.3874
    1MPD1    N114116   4.357   4.695  12.162  0.0232  0.7819  0.7541
    1MPD1    H614117   4.286   4.631  12.196 -0.4669  0.9562  0.0573
    1MPD1    H714118   4.380   4.654  12.071 -1.7124  1.7275 -0.1288
    2MPD1     C14119   2.999   0.555  11.822 -0.0720  0.5871  0.5613
    2MPD1    C114120   2.901   0.479  11.763 -0.5269  0.1574 -0.0997
    2MPD1    C214121   2.936   0.416  11.644 -0.1359 -0.1005  0.1791
    2MPD1    C314122   3.057   0.438  11.585 -0.6933  0.2416 -0.0773
    2MPD1    C414123   3.152   0.518  11.645 -0.0330 -0.6625  0.2448
    2MPD1    C514124   3.120   0.581  11.764  1.0495 -0.0807 -0.3568
    2MPD1     H14125   2.865   0.347  11.598 -1.1000  0.6781  0.4911
    2MPD1    H114126   3.252   0.538  11.607 -0.2088 -1.5516 -0.6679
    2MPD1    H214127   2.988   0.608  11.916  3.1379  0.2571  1.1020
    2MPD1    H314128   3.188   0.651  11.811 -0.8319  1.0276  0.7156
    2MPD1     N14129   3.099   0.367  11.469  0.4700 -0.7874  0.0106
    2MPD1    H514130   3.195   0.384  11.440 -0.3053 -1.2351 -2.7784
    2MPD1    N114131   2.791   0.435  11.831  0.2759 -0.4134  0.1896
    2MPD1    H614132   2.727   0.404  11.757 -0.7842  1.7847  0.1960
    2MPD1    H714133   2.752   0.508  11.890  0.3427  0.2209 -0.5538
    3MPD1     C14134   3.167   4.134  10.954 -0.5597 -0.6663 -0.0136
    3MPD1    C114135   3.219   4.229  10.867 -0.6470  0.2608 -0.0086
    3MPD1    C214136   3.219   4.360  10.913 -0.4399 -0.1549 -0.1648
    3MPD1    C314137   3.194   4.386  11.046 -0.0639 -0.0735  0.3098
    3MPD1    C414138   3.161   4.281  11.131  0.0088 -0.2798 -0.4694
    3MPD1    C514139   3.151   4.150  11.084 -0.5603 -0.4036 -0.2922
    3MPD1     H14140   3.234   4.443  10.844 -3.0085 -0.1123 -0.6671
    3MPD1    H114141   3.135   4.296  11.235 -1.6310  1.3899 -1.1245
    3MPD1    H214142   3.164   4.031  10.921  0.4112 -0.6500 -0.1419
    3MPD1    H314143   3.108   4.074  11.149  0.3178 -1.0280 -0.4362
    3MPD1     N14144   3.194   4.523  11.088  0.4208 -0.3190  0.4226
    3MPD1    H514145   3.217   4.579  11.006  1.7165  3.4112  3.3680
    3MPD1    N114146   3.239   4.195  10.740  1.0316  0.1410 -0.3159
    3MPD1    H614147   3.271   4.099  10.726  2.7310  0.2857  2.7263
    3MPD1    H714148   3.311   4.253  10.697  0.8847  1.0428  0.6646
    4MPD2     C14149   4.421   0.909  11.236  0.0544  0.0815 -0.0433
    4MPD2    C114150   4.416   0.769  11.245  0.3871  0.3331 -0.3422
    4MPD2    C214151   4.385   0.698  11.133  0.1864 -0.6078 -0.2079
    4MPD2    C314152   4.342   0.763  11.015 -0.3189 -0.0682  0.3512
    4MPD2    C414153   4.345   0.901  11.008 -0.4813 -0.4511 -0.3865
    4MPD2    C514154   4.383   0.970  11.116  0.1209  0.5310  1.0704
    4MPD2     H14155   4.381   0.590  11.145 -2.8115 -0.4890 -0.0742
    4MPD2    H114156   4.320   0.958  10.920  2.3178 -0.7977 -1.4106
    4MPD2    H214157   4.462   0.964  11.320  0.5684 -0.5725  0.1305
    4MPD2    H314158   4.389   1.077  11.108  1.0208  0.3799 -0.4359
    4MPD2     N14159   4.305   0.673  10.913 -0.4366 -0.0551 -0.3794
    4MPD2    H514160   4.320   0.575  10.935 -1.7163 -0.5349 -1.6123
    4MPD2    N114161   4.456   0.697  11.353 -0.4274  0.8298  0.0507
    4MPD2    H714162   4.475   0.598  11.340 -1.3886  0.3710  2.0909
    5TMC3    C114163   4.549   0.644  11.558 -0.7304  0.1733  0.0533
    5TMC3    C214164   4.484   0.624  11.675 -0.3001 -0.6971 -0.6309
    5TMC3    C314165   4.458   0.495  11.708 -0.3105  0.0736 -0.6176
    5TMC3    C414166   4.606   0.541  11.482  0.1532 -0.4475  1.1704
    5TMC3    C514167   4.555   0.417  11.509  0.4393  0.3147  0.0133
    5TMC3    C614168   4.481   0.385  11.623  0.4162 -0.1775  0.7747
    5TMC3     C14169   4.477   0.746  11.478  0.4420  0.1679  0.2385
    5TMC3     O14170   4.425   0.842  11.536 -0.6053  0.1333  0.1393
    5TMC3     H14171   4.447   0.707  11.735  2.5325  0.4568 -0.4514
    5TMC3    H114172   4.678   0.565  11.405 -0.2702  0.8327  1.1815
    5TMC3    H214173   4.420   0.297  11.633  1.0505 -0.5533  1.3498
    5TMC3    C714174   4.516   0.348  11.384  0.2133 -0.5963  0.2652
    5TMC3    C814175   4.385   0.470  11.830  0.2188  0.3757  0.1262
    5TMC3    O114176   4.530   0.419  11.286  0.6002  0.5620 -0.1188
    5TMC3    O214177   4.343   0.565  11.895  0.1634  0.1064  0.0724
    6TMC3    C114178   3.107   0.207  11.303 -0.3037 -0.3013 -0.7417
    6TMC3    C214179   3.086   0.072  11.298 -0.3585 -0.5055  0.0325
    6TMC3    C314180   3.172   0.003  11.211 -0.1117  0.1038 -0.2822
    6TMC3    C414181   3.195   0.267  11.213 -0.3083 -0.4799 -0.4476
    6TMC3    C514182   3.277   0.195  11.131  0.7160 -0.5305  0.4115
    6TMC3    C614183   3.270   0.058  11.135  1.4251  0.0554 -0.4520
    6TMC3     C14184   3.026   0.280  11.390  0.4343  0.1819 -0.2593
    6TMC3     O14185   2.908   0.248  11.392  0.3245  1.0499 -0.0399
    6TMC3     H14186   3.013   0.017  11.357 -0.9814 -0.2373 -0.4907
    6TMC3    H114187   3.212   0.372  11.234  0.6266 -0.8306  0.5956
    6TMC3    H214188   3.349   0.007  11.081  2.3257 -0.3382  1.2166
    6TMC3    C714189   3.370   0.260  11.039 -0.6190  0.0571  0.0866
    6TMC3    C814190   3.140   4.582  11.198  0.1509  0.0578 -0.3143
    6TMC3    O114191   3.455   0.196  10.982 -0.1038  0.0265 -0.1784
    6TMC3    O214192   3.077   4.537  11.289 -0.1825  0.4334 -0.3482
    7MPD2     C14193   4.263   4.714  11.119 -0.0351  0.5337 -0.7409
    7MPD2    C114194   4.288   0.124  11.092  0.6163  0.3610 -0.2623
    7MPD2    C214195   4.358   0.206  11.182  0.8487 -0.5292 -0.1851
    7MPD2    C314196   4.413   0.146  11.295 -0.3518  0.0692 -0.1339
    7MPD2    C414197   4.396   0.009  11.314  0.0561 -0.3207  0.6307
    7MPD2    C514198   4.319   4.653  11.228 -0.5950 -0.1686  0.3226
    7MPD2     H14199   4.368   0.313  11.165  0.6761 -0.7539 -1.6719
    7MPD2    H114200   4.428   4.685  11.406 -1.5864 -1.5448  0.5736
    7MPD2    H214201   4.200   4.645  11.063 -1.6436  1.1377  0.3067
    7MPD2    H314202   4.310   4.545  11.233  2.0091 -0.3790  0.1764
    7MPD2     N14203   4.474   0.221  11.398 -0.2548  0.8348 -0.1999
    7MPD2    H514204   4.484   0.174  11.487  0.7476 -0.2975 -0.9103
    7MPD2    N114205   4.235   0.190  10.976  0.1733  0.0341  0.2138
    7MPD2    H714206   4.166   0.137  10.925 -0.0318 -0.4411  0.9807
    8TMC3    C114207   4.197   0.358  10.818  0.2052 -0.2535  0.2397
    8TMC3    C214208   4.062   0.340  10.823 -0.3440  0.0354  0.1359
    8TMC3    C314209   3.980   0.447  10.782  0.3894  0.2023  0.4758
    8TMC3    C414210   4.251   0.474  10.771  0.4572 -0.0113  1.0487
    8TMC3    C514211   4.171   0.585  10.743  0.2050 -0.2607  0.1738
    8TMC3    C614212   4.034   0.565  10.742 -0.1017 -0.4449 -0.5815
    8TMC3     C14213   4.277   0.309  10.926  0.9035  0.6787 -0.0098
    8TMC3     O14214   4.371   0.383  10.952  0.6940  0.3565 -0.3997
    8TMC3     H14215   4.017   0.255  10.873  2.8142 -0.9995  1.1903
    8TMC3    H114216   4.355   0.480  10.744  0.1387  1.3752  0.1426
    8TMC3    H214217   3.973   0.645  10.700  2.1543  2.6129  1.9193
    8TMC3    C714218   4.225   0.703  10.805  0.0271 -0.4230 -0.1069
    8TMC3    C814219   3.840   0.432  10.807  0.3779  0.8278 -0.4471
    8TMC3    O114220   4.173   0.813  10.782  0.3084  0.2176  0.3165
    8TMC3    O214221   3.787   0.323  10.820 -0.1223 -0.1353  0.6828
    9MPD2     C14222   3.588   0.692  10.852 -0.6591 -0.0015  0.3639
    9MPD2    C114223   3.640   0.568  10.870  0.1684  0.1287  0.0589
    9MPD2    C214224   3.559   0.463  10.918  0.5134 -0.5012  0.1423
    9MPD2    C314225   3.432   0.489  10.967 -0.5738 -0.4491 -0.2776
    9MPD2    C414226   3.381   0.613  10.947 -0.0482 -0.9505  0.3264
    9MPD2    C514227   3.450   0.708  10.877  0.3779  0.2883  0.3240
    9MPD2     H14228   3.605   0.366  10.934 -1.1709 -1.2623  0.3298
    9MPD2    H114229   3.285   0.647  10.984  0.4239  1.1556 -0.4102
    9MPD2    H214230   3.655   0.771  10.818 -0.5699  0.2664  1.1544
    9MPD2    H314231   3.404   0.805  10.861  0.9478  0.9225  2.4826
    9MPD2     N14232   3.351   0.394  11.033 -0.8506  0.0379 -0.5232
    9MPD2    H514233   3.261   0.427  11.065 -0.3806  1.0450 -0.2146
    9MPD2    N114234   3.772   0.551  10.822 -0.3704  0.3406 -0.2171
    9MPD2    H714235   3.824   0.638  10.829 -0.3739  0.2477  0.9518
    1MPD1     C14236   4.265   4.449  17.126  0.0245 -0.1071 -0.7178
    1MPD1    C114237   4.189   4.562  17.099 -0.0775  0.5427 -0.1421
    1MPD1    C214238   4.056   4.557  17.102 -0.4637 -0.7573  0.3265
    1MPD1    C314239   3.995   4.440  17.140 -0.2806 -0.1002 -0.1644
    1MPD1    C414240   4.069   4.322  17.170 -0.1812  0.4409  0.3724
    1MPD1    C514241   4.201   4.329  17.169  0.0295 -0.4879  0.2112
    1MPD1     H14242   3.998   4.643  17.070  0.4053  0.5504  2.2653
    1MPD1    H114243   4.029   4.235  17.220 -1.0919  0.2534 -0.6930
    1MPD1    H214244   4.372   4.441  17.110 -0.0722 -0.8783 -0.9960
    1MPD1    H314245   4.259   4.238  17.183  0.1945 -0.5466 -0.8012
    1MPD1     N14246   3.856   4.434  17.156 -0.3246 -0.2660  0.3039
    1MPD1    H514247   3.827   4.342  17.190  2.0757 -1.6042 -1.2516
    1MPD1    N114248   4.260   4.669  17.046 -0.0512  0.5861 -0.2126
    1MPD1    H614249   4.349   4.688  17.090 -0.0909 -1.7799  0.8976
    1MPD1    H714250   4.203   0.030  17.049 -0.9425 -0.0261  0.0325
    2MPD1     C14251   3.336   3.740  16.981  0.1718  0.1190 -0.2778
    2MPD1    C114252   3.472   3.758  16.998 -0.4547 -0.3354  0.6468
    2MPD1    C214253   3.517   3.879  17.052  0.4446  0.4371  0.5486
    2MPD1    C314254   3.429   3.985  17.079  0.1122  0.4149 -0.2353
    2MPD1    C414255   3.296   3.962  17.049  0.7920 -0.0101 -0.0540
    2MPD1    C514256   3.254   3.844  17.003 -0.4628 -0.4585 -0.2451
    2MPD1     H14257   3.625   3.880  17.053  0.4300  3.2723 -0.1329
    2MPD1    H114258   3.228   4.046  17.056  0.5869 -0.1838  0.0402
    2MPD1    H214259   3.286   3.655  16.937  2.1438 -0.2126 -1.8800
    2MPD1    H314260   3.151   3.831  16.972 -0.0802  1.4336 -2.3733
    2MPD1     N14261   3.477   4.111  17.135 -0.1600  0.2827 -0.5089
    2MPD1    H514262   3.575   4.131  17.150 -0.4722  0.8444  0.8285
    2MPD1    N114263   3.566   3.672  16.936 -0.2847  0.0921 -0.0203
    2MPD1    H614264   3.649   3.665  16.994  0.6149 -2.6551 -1.6247
    2MPD1    H714265   3.529   3.577  16.934 -3.1871  1.2284 -0.7536
    3TCq2    C114266   3.396   4.210  17.181  0.3467 -0.0509 -0.2034
    3TCq2    O214267   3.279   4.201  17.213  0.2536  0.2838  0.0451
    3TCq2    C214268   3.475   4.324  17.233 -0.1936  0.2231  0.3380
    3TCq2    C314269   3.406   4.414  17.313  0.0226  0.1190 -1.0806
    3TCq2    C414270   3.464   4.530  17.349  0.2679 -0.0031  0.5513
    3TCq2    C514271   3.578   4.574  17.291 -0.0929 -0.2890  0.7379
    3TCq2    C614272   3.640   4.489  17.203  0.2894 -0.8773  0.6405
    3TCq2    C714273   3.594   4.362  17.179  0.2899 -0.1183  0.0910
    3TCq2    C814274   3.765   4.536  17.152 -0.6392 -0.1834 -0.3544
    3TCq2    O414275   3.790   4.659  17.143  0.2246  0.0375  0.2033
    3TCq2    C914276   3.398   4.613  17.449 -0.7248  0.2644 -0.2153
    3TCq2    O514277   3.298   4.562  17.508 -0.6362 -0.0640 -0.3200
    3TCq2    O614278   3.469   4.707  17.496 -0.4338 -0.5527 -0.0357
    3TCq2    H214279   3.308   4.387  17.351  0.3625 -2.0317 -1.7324
    3TCq2    H314280   3.623   4.671  17.310  1.7162 -0.5044 -2.3995
    3TCq2    H414281   3.660   4.310  17.111  0.7514  1.3158 -0.5554
    1TCq1    O114282   0.910   2.623  12.863  0.2150 -0.3192 -0.3136
    1TCq1    C114283   0.918   2.745  12.900  0.2760 -0.1430 -0.4969
    1TCq1    O214284   0.866   2.843  12.847  0.2709 -0.1470  0.1176
    1TCq1    C214285   0.971   2.747  13.036 -0.9982 -0.0673 -0.6885
    1TCq1    C314286   0.932   2.666  13.137 -0.4121 -0.4861  0.5416
    1TCq1    C414287   0.997   2.674  13.258 -0.0494 -0.2063 -0.7233
    1TCq1    C514288   1.100   2.760  13.284  0.0415 -0.2563 -0.2723
    1TCq1    C614289   1.137   2.845  13.180  0.5447  0.3204 -0.9407
    1TCq1    C714290   1.069   2.841  13.063 -0.0548 -0.4609 -0.3346
    1TCq1    C814291   1.228   2.953  13.206  0.7526  0.0275  0.7334
    1TCq1    O414292   1.224   3.048  13.129 -0.0833  0.7826  0.7533
    1TCq1    C914293   0.961   2.589  13.364 -0.3166  0.1453 -0.2870
    1TCq1    O514294   1.030   2.587  13.472 -0.3316 -0.3511 -0.0823
    1TCq1    O614295   0.839   2.555  13.361 -0.3079  0.0156 -0.3167
    1TCq1    H114296   0.981   2.565  12.899 -0.0148 -0.5663 -0.2612
    1TCq1    H214297   0.854   2.593  13.122 -0.3882 -0.2780 -0.5961
    1TCq1    H314298   1.152   2.757  13.380 -0.6915  1.2386  0.1678
    1TCq1    H414299   1.102   2.901  12.980  1.5455  4.1578  3.6402
    2MPD2     C14300   1.400   3.146  13.340 -0.4254 -0.2163 -0.0690
    2MPD2    C114301   1.416   3.013  13.357  0.0679  0.2851  0.1572
    2MPD2    C214302   1.530   2.956  13.410 -0.6448 -0.0316 -0.6880
    2MPD2    C314303   1.631   3.049  13.437  0.0877  0.3587  0.3522
    2MPD2    C414304   1.610   3.181  13.439 -0.6945 -0.2272 -0.3482
    2MPD2    C514305   1.491   3.230  13.389 -0.0573  0.2600 -0.4868
    2MPD2     H14306   1.538   2.849  13.421  1.8444  0.0970 -1.2557
    2MPD2    H114307   1.698   3.241  13.456 -0.0745 -1.6314  1.2859
    2MPD2    H214308   1.313   3.187  13.290 -0.6615  0.0451  0.5448
    2MPD2    H314309   1.479   3.337  13.378  0.1138  0.4509  1.0981
    2MPD2     N14310   1.759   2.992  13.458  0.0258  0.1655 -0.5722
    2MPD2    H514311   1.757   2.890  13.455  2.5805  0.1095 -0.1874
    2MPD2    N114312   1.325   2.920  13.299  0.4145  0.1988 -0.1563
    2MPD2    H714313   1.330   2.823  13.329  1.7237 -0.2849 -1.9371
    3TCq1    O114314   2.289   2.988  13.811  0.2603  0.3322 -0.3110
    3TCq1    C114315   2.307   2.915  13.701  0.3998  1.0925  0.2695
    3TCq1    O214316   2.407   2.847  13.679 -0.3233 -0.5863 -0.0847
    3TCq1    C214317   2.178   2.889  13.637  0.5014 -0.7260  0.1747
    3TCq1    C314318   2.180   2.774  13.554  0.3764  0.2877  1.2218
    3TCq1    C414319   2.083   2.752  13.458 -0.8251  0.2282 -0.8086
    3TCq1    C514320   1.993   2.850  13.442 -0.8344 -0.0349 -0.0789
    3TCq1    C614321   1.989   2.962  13.520 -0.0778  0.3875  0.0642
    3TCq1    C714322   2.081   2.984  13.620 -0.2579 -0.2017  0.3936
    3TCq1    C814323   1.876   3.053  13.503  0.4982 -0.2303  0.1540
    3TCq1    O414324   1.887   3.162  13.561  0.4570 -0.1626  0.3586
    3TCq1    C914325   2.089   2.647  13.354  0.6863 -0.5091 -0.0585
    3TCq1    O514326   1.983   2.632  13.283  0.1154  0.2548  0.3181
    3TCq1    O614327   2.195   2.578  13.348 -0.2061 -0.1302  0.3222
    3TCq1    H114328   2.193   2.991  13.826  0.0590 -2.5298 -0.9253
    3TCq1    H214329   2.259   2.700  13.560 -0.1598 -0.3789  0.2332
    3TCq1    H314330   1.929   2.845  13.355 -2.1730  3.5264  0.7328
    3TCq1    H414331   2.100   3.085  13.652  1.6088  0.3139 -2.3133
    1MPD2     C14332   0.624   3.920  15.166  0.0692  0.0851  0.0143
    1MPD2    C114333   0.553   3.812  15.211 -0.3700  0.3167 -0.1063
    1MPD2    C214334   0.621   3.694  15.235  0.1373 -0.1039  0.0039
    1MPD2    C314335   0.757   3.685  15.213 -0.1041  0.4275  0.0003
    1MPD2    C414336   0.824   3.793  15.174 -0.1476 -0.1459  0.0657
    1MPD2    C514337   0.760   3.906  15.147 -0.4441  0.4352 -1.0756
    1MPD2     H14338   0.568   3.614  15.285  2.3327 -0.4725  1.7604
    1MPD2    H114339   0.930   3.786  15.151  0.1017  0.0387  1.1705
    1MPD2    H214340   0.569   4.012  15.150  1.0051  0.4620 -1.0197
    1MPD2    H314341   0.812   3.992  15.108 -0.7141  1.0323 -0.1322
    1MPD2     N14342   0.816   3.550  15.234 -0.3072  0.4795  0.1513
    1MPD2    H514343   0.746   3.480  15.254 -1.0140  1.5570  1.4808
    1MPD2    N114344   0.413   3.825  15.243 -0.0517  0.5518  0.5150
    1MPD2    H714345   0.372   3.913  15.212 -0.1752 -0.4906 -2.2104
    2TMC3    C114346   0.194   3.734  15.273  0.1424  0.3278 -0.8754
    2TMC3    C214347   0.124   3.628  15.319 -0.4860 -0.4236 -0.2553
    2TMC3    C314348   0.024   3.575  15.241  0.8593  0.0543 -0.1397
    2TMC3    C414349   0.151   3.813  15.172  0.4290  0.1446 -0.0593
    2TMC3    C514350   0.034   3.766  15.110  0.3041  0.5251  0.0978
    2TMC3    C614351   4.696   3.645  15.137  0.5256 -0.2349  0.4055
    2TMC3     C14352   0.337   3.730  15.307 -0.3056 -0.6031  0.5947
    2TMC3     O14353   0.373   3.646  15.390 -0.1104  0.2936  0.2371
    2TMC3     H14354   0.155   3.588  15.414  1.3745  2.1838  0.2160
    2TMC3    H114355   0.191   3.910  15.147 -0.2620  0.3130 -0.5282
    2TMC3    H214356   4.620   3.597  15.076  0.3247 -0.7124  1.0272
    2TMC3    C714357   4.681   3.848  15.020 -0.0077 -0.9063 -0.3412
    2TMC3    C814358   0.023   3.429  15.228  0.0829 -0.3234  0.2045
    2TMC3    O114359   4.576   3.800  14.983 -0.5658 -0.3952  0.4539
    2TMC3    O214360   4.658   3.372  15.167  0.8188 -0.0385  0.1236
    3TCq1    O114361   0.330   0.054  14.413 -0.2483 -1.0027  0.5758
    3TCq1    C114362   0.220   4.704  14.436 -0.0249 -0.4026  0.2865
    3TCq1    O214363   0.177   4.622  14.359 -0.2703 -0.1503 -0.2947
    3TCq1    C214364   0.172   4.716  14.572 -0.1567  0.2932  0.1082
    3TCq1    C314365   0.266   0.027  14.670 -0.3326  0.2487 -0.6665
    3TCq1    C414366   0.223   0.012  14.804 -0.0743  0.6867 -0.4744
    3TCq1    C514367   0.108   4.678  14.835 -0.3278  0.2422 -1.2002
    3TCq1    C614368   0.020   4.648  14.730  0.1559  0.2620 -0.0982
    3TCq1    C714369   0.045   4.670  14.595 -0.3738  0.2425  0.9370
    3TCq1    C814370   4.660   4.527  14.744  0.4105 -0.6021  0.2473
    3TCq1    O414371   4.578   4.511  14.659 -0.5077 -0.3777 -0.3524
    3TCq1    C914372   0.303   0.073  14.909  0.9383  1.0094 -0.7967
    3TCq1    O514373   0.388   0.160  14.881 -0.4093 -0.3894  0.1348
    3TCq1    O614374   0.251   0.068  15.024 -0.1235  0.0390 -0.0929
    3TCq1    H114375   0.361   0.117  14.482  0.0352  0.6347 -1.0595
    3TCq1    H214376   0.363   0.072  14.648  0.5334 -1.7347 -0.8905
    3TCq1    H314377   0.074   4.673  14.938  1.1969  2.2907 -0.6207
    3TCq1    H414378   4.705   4.650  14.509 -0.1021 -0.4276  0.8911
    4MPD2     C14379   4.519   4.272  14.783 -0.1756 -0.3688  0.6283
    4MPD2    C114380   4.641   4.312  14.853 -0.4965  0.9488  0.8083
    4MPD2    C214381   4.700   4.221  14.938 -0.3079 -0.7847  0.2765
    4MPD2    C314382   4.650   4.084  14.934 -0.0774  0.2172  0.5023
    4MPD2    C414383   4.542   4.053  14.857  0.4091 -0.5631  0.2204
    4MPD2    C514384   4.478   4.143  14.786 -0.6589 -0.3252  0.5290
    4MPD2     H14385   0.062   4.246  15.001  0.0619  2.0941 -1.3813
    4MPD2    H114386   4.509   3.952  14.835 -0.4849 -0.7877  2.5857
    4MPD2    H214387   4.461   4.346  14.729 -0.1461 -1.0662 -0.3681
    4MPD2    H314388   4.392   4.120  14.725 -2.0458 -0.6552  2.6001
    4MPD2     N14389   4.718   3.982  15.007 -0.1506  0.1480 -0.0740
    4MPD2    H514390   0.078   4.017  15.053  1.0630 -1.9078 -0.7091
    4MPD2    N114391   4.705   4.439  14.841  0.4500 -0.3350 -0.1145
    4MPD2    H714392   0.055   4.461  14.907 -0.6781  1.6443  0.4872
    5TMC2    C114393   0.793   3.201  15.224  0.8595  0.4828  0.4921
    5TMC2    C214394   0.818   3.163  15.088 -0.1743 -0.2305 -0.9822
    5TMC2    C314395   0.919   3.232  15.019 -0.1845 -0.5956  0.0487
    5TMC2    C414396   0.869   3.303  15.273  0.6927 -0.0044 -0.0498
    5TMC2    C514397   0.964   3.364  15.204 -0.4448  0.1484  0.2313
    5TMC2    C614398   1.002   3.325  15.080  0.3468 -0.5976 -1.0120
    5TMC2     C14399   0.651   3.228  15.248  0.8211  0.7090 -0.1964
    5TMC2     O14400   0.627   3.347  15.283  0.1720 -0.2222  0.0881
    5TMC2     H14401   0.757   3.092  15.034  1.8648 -1.5009 -1.6124
    5TMC2    H114402   0.849   3.334  15.375 -0.5175 -0.0103 -0.2902
    5TMC2    H214403   1.088   3.371  15.032  0.2458 -1.1499 -1.7386
    5TMC2    C714404   0.944   3.506  15.216  0.4919 -0.1501  0.3085
    5TMC2    C814405   0.952   3.188  14.888 -0.1113 -0.2407 -0.2164
    5TMC2    O114406   1.037   3.579  15.177  0.0161 -0.3038 -0.4512
    5TMC2    O214407   0.870   3.141  14.812  0.3357 -0.0829 -0.3778
    5TMC2    O514408   1.084   3.165  14.897 -0.0883 -0.2350 -0.1235
    5TMC2    H514409   1.123   3.186  14.984  0.1645 -0.7393 -0.1150
    6MPD2     C14410   0.161   3.178  15.134  0.1225 -0.4474 -0.0042
    6MPD2    C114411   0.223   3.278  15.201 -0.2720 -0.2293 -0.5769
    6MPD2    C214412   0.359   3.255  15.229 -0.2910  0.1993 -0.2772
    6MPD2    C314413   0.424   3.154  15.174  0.1065  0.6617 -0.5282
    6MPD2    C414414   0.354   3.057  15.106 -0.3073 -0.4820 -0.0849
    6MPD2    C514415   0.225   3.068  15.084 -0.1564  0.3682  0.5609
    6MPD2     H14416   0.410   3.330  15.288  0.1180  1.2661 -2.0041
    6MPD2    H114417   0.399   2.971  15.058  0.8405  0.1193 -0.0828
    6MPD2    H214418   0.060   3.189  15.096  0.2764 -0.6587 -0.4830
    6MPD2    H314419   0.171   3.002  15.017  2.0806  0.3667 -1.2575
    6MPD2     N14420   0.564   3.129  15.203  0.2724  0.6409 -0.6570
    6MPD2    H514421   0.606   3.041  15.176 -0.4730 -0.4349  1.6701
    6MPD2    N114422   0.156   3.388  15.249  0.6078 -0.3812 -0.4179
    6MPD2    H714423   0.223   3.447  15.297  0.2313 -2.0745  2.1693
  945NH3     N114424   3.521   3.405   0.463  0.2087  0.7173 -0.3268
  945NH3     H214425   3.597   3.352   0.505 -1.7896 -1.5270  0.4766
  945NH3     H314426   3.556   3.466   0.390  1.7988 -0.5159 -0.5923
  945NH3     H414427   3.465   3.338   0.411  0.0233  0.5748  0.0528
  946SOD     NA14428   2.202   2.597  12.001  0.0274 -0.3109 -0.1412
  947SOD     NA14429   3.771   0.765  15.706  0.0550 -0.3810  0.1161
  948SOD     NA14430   1.312   4.199   1.902 -0.2807  0.3903  0.1520
  949SOD     NA14431   2.248   4.367  11.699 -0.0161 -0.2156 -0.1043
  950SOD     NA14432   1.653   0.952   9.316  0.2098  0.1906  0.1489
  951SOD     NA14433   2.373   0.202  16.636 -0.2501  0.3065  0.0795
  952SOD     NA14434   2.364   1.251  10.990  0.1690  0.1581  0.6742
  953SOD     NA14435   4.650   0.700  13.084  0.7766 -0.2476  0.0513
  954SOD     NA14436   3.639   0.335   0.910  0.3512  0.0784  0.2365
  955SOD     NA14437   1.152   3.899  14.759  0.2270 -0.5193 -0.0908
  956SOD     NA14438   3.693   3.764   2.670  0.2404 -0.3144  0.0683
  957SOD     NA14439   0.966   2.370  10.436 -0.4280  0.6495 -0.3515
  958SOD     NA14440   2.241   2.410  12.913  0.1357 -0.1224 -0.0477
  959SOD     NA14441   2.733   1.327  14.027 -0.2672  0.1765 -0.0457
  960SOD     NA14442   2.792   3.158  15.834  0.3996 -0.5528 -0.1655
  961SOD     NA14443   1.507   2.262  10.468  0.0397 -0.1318 -0.1332
  962SOD     NA14444   1.158   1.628   9.673 -0.0265  0.3190 -0.2168
  963SOD     NA14445   3.070   1.500   3.990 -0.3721 -0.0039 -0.1213
  964SOD     NA14446   1.903   0.319   1.447 -0.5234  0.6716 -0.1634
  965SOD     NA14447   1.080   3.563   9.898 -0.1958  0.3022 -0.0535
  966SOD     NA14448   3.205   2.107   2.609 -0.1189 -0.0643  0.1091
  967SOD     NA14449   1.837   4.702   1.464 -0.1223  0.0499  0.3308
  968SOD     NA14450   0.855   3.919  14.594 -0.1389  0.0241  0.3741
  969SOD     NA14451   1.254   2.456  10.303 -0.5085 -0.0390  0.0400
  970SOD     NA14452   2.885   2.875  11.299 -0.1749 -0.2519  0.6902
  971SOD     NA14453   3.498   3.158  14.865 -0.0541  0.5680 -0.3802
  972SOD     NA14454   1.198   0.498  16.247  0.2768  0.6150 -0.1112
  973SOD     NA14455   2.924   2.881  14.811 -0.6192  0.4759 -0.0691
  974SOD     NA14456   2.711   2.488  11.966 -0.2931  0.5531 -0.0095
  975SOD     NA14457   2.777   3.457  11.142 -0.0125  0.6380  0.3014
  976SOD     NA14458   3.017   2.502  14.409 -0.0037  0.1870 -0.6158
  977SOD     NA14459   2.454   4.288  11.959  0.2927  0.2262  0.2920
  978SOD     NA14460   1.951   0.281  12.972  0.1155  0.0181 -0.3437
  979SOD     NA14461   3.299   2.441   1.269  0.1686  0.0291 -0.3088
  980SOD     NA14462   1.575   2.232   6.160 -0.3333 -0.4593  0.2191
  981SOD     NA14463   3.542   2.434   1.048 -0.1109 -0.2762  0.0980
  982SOD     NA14464   1.364   2.769   2.364 -0.3351  0.0873  0.3698
  983SOD     NA14465   2.295   1.421  17.172  0.0979  0.1115 -0.1434
  984SOD     NA14466   0.638   2.581  10.573  0.3191  0.2305 -0.0154
  985SOD     NA14467   0.878   2.059  10.498  0.0556 -0.2559 -0.4301
  986SOD     NA14468   1.215   2.830   1.437  0.4226  0.4839  0.0498
  987SOD     NA14469   1.117   2.187  10.603 -0.0054  0.2177 -0.1674
  988SOD     NA14470   2.457   2.611   8.656  0.3815  0.0129  0.2169
  989SOD     NA14471   1.130   1.793   0.997 -0.7347 -0.0025  0.1711
  990SOD     NA14472   4.153   2.255   1.129 -0.4771 -0.0593  0.1755
  991SOD     NA14473   1.939   3.858  14.780  0.1224  0.1166  0.4903
  992SOD     NA14474   0.743   2.756  13.378  0.3875  0.1036  0.2565
  993SOD     NA14475   4.202   3.491   2.337  0.2199 -0.1725 -0.4917
  994SOD     NA14476   0.423   0.199  15.107 -0.4481  0.0234 -0.1569
  995SOD     NA14477   2.981   2.837  14.447 -0.0264 -0.4429 -0.0285
  996SOD     NA14478   0.722   1.750   9.899 -0.1782  0.0802 -0.9478
  997SOD     NA14479   2.798   1.850  12.614  0.0637  0.3158  0.3498
  998SOD     NA14480   2.153   4.463   5.684  0.2288 -0.0567  0.2435
  999SOD     NA14481   3.563   4.396  13.382  0.1185 -0.4180  0.2166
 1000SOD     NA14482   3.298   3.504   0.608  0.0480 -0.1243  0.1380
 1001SOD     NA14483   4.124   2.246  10.632 -0.1926 -0.1875  0.2284
 1002SOD     NA14484   1.547   4.184   8.382 -0.1334 -0.1238 -0.4032
 1003SOD     NA14485   2.144   2.267  11.091 -0.0430  0.5551  0.2162
 1004SOD     NA14486   1.621   2.692   9.072  0.0076  0.0659  0.1269
 1005SOD     NA14487   0.355   2.281  14.352  0.4022  0.1650 -0.2764
 1006SOD     NA14488   3.264   4.436  17.682  0.1316 -0.1693  0.1311
 1007SOD     NA14489   2.383   2.848  12.127 -0.2252  0.8617  0.1876
 1008SOD     NA14490   3.382   3.614  16.317  0.1142  0.1265 -0.1194
 1009SOD     NA14491   0.451   4.377   0.810 -0.5598 -0.5691  0.0981
 1010SOD     NA14492   1.176   3.426   1.146 -0.3781 -0.0029 -0.3024
 1011SOD     NA14493   2.208   2.308   5.816 -0.0577 -0.5327  0.3522
 1012SOL     OW14494   1.375   0.427   5.997 -0.5098 -0.2394  1.0304
 1012SOL    HW114495   1.295   0.417   6.047 -0.9158 -1.5242  0.1439
 1012SOL    HW214496   1.348   0.391   5.912  0.7044 -0.2163  0.6289
 1013SOL     OW14497   2.060   4.528   3.329 -0.3226 -0.5446 -0.5754
 1013SOL    HW114498   2.047   4.484   3.245 -0.3989 -0.1345 -0.7770
 1013SOL    HW214499   2.112   4.604   3.305  0.1148 -1.3653 -2.2176
 1014SOL     OW14500   1.686   0.606   9.645 -0.0297 -0.6258  0.8423
 1014SOL    HW114501   1.674   0.535   9.708 -2.1743 -1.5534 -0.6094
 1014SOL    HW214502   1.738   0.662   9.703  1.5778 -0.7236 -0.5002
 1015SOL     OW14503   3.941   3.174   2.758 -0.4861 -0.0743 -0.1127
 1015SOL    HW114504   3.855   3.136   2.771 -0.7238  0.6397  0.4723
 1015SOL    HW214505   3.909   3.256   2.720  0.3854  0.4649  0.2958
 1016SOL     OW14506   2.110   4.354   4.361 -0.1644  0.3800  0.1996
 1016SOL    HW114507   2.129   4.295   4.434  2.6850  0.5857 -0.3831
 1016SOL    HW214508   2.044   4.296   4.325 -1.0052 -0.3231  2.8664
 1017SOL     OW14509   1.696   1.486   6.451 -0.6334  0.3553 -0.1262
 1017SOL    HW114510   1.750   1.456   6.377 -1.5841 -1.1814 -0.1902
 1017SOL    HW214511   1.703   1.406   6.503 -1.9758  0.6140  0.4461
 1018SOL     OW14512   0.398   2.396  12.591  0.0515 -0.2249 -0.3496
 1018SOL    HW114513   0.472   2.457  12.595 -0.6962  0.7753 -1.7079
 1018SOL    HW214514   0.443   2.327  12.543 -0.9109  0.1944 -1.8255
 1019SOL     OW14515   3.932   1.724   8.818 -0.3421  0.5745 -0.1128
 1019SOL    HW114516   3.900   1.654   8.875  4.1240 -2.9815 -1.9665
 1019SOL    HW214517   3.910   1.693   8.730  0.4501  1.5638 -0.6541
 1020SOL     OW14518   3.718   1.733  13.077 -0.6734 -0.3193  0.3399
 1020SOL    HW114519   3.649   1.672  13.052 -0.8792 -0.3541  0.9874
 1020SOL    HW214520   3.705   1.721  13.172  2.9788 -0.3211  0.8475
 1021SOL     OW14521   0.528   2.944   3.237 -0.0693  0.6459  0.3046
 1021SOL    HW114522   0.486   3.014   3.186 -1.7383  0.6288  1.6862
 1021SOL    HW214523   0.602   2.994   3.274 -0.8662 -0.3538  3.2617
 1022SOL     OW14524   3.848   3.271   7.423 -0.0923 -0.0731  0.0163
 1022SOL    HW114525   3.904   3.261   7.346 -1.7219 -0.7503 -1.0765
 1022SOL    HW214526   3.914   3.244   7.487 -0.4200 -0.5689  0.1461
 1023SOL     OW14527   0.250   4.628  11.060  0.2354  0.5659  0.2342
 1023SOL    HW114528   0.158   4.648  11.075 -0.3084 -2.4243  0.8446
 1023SOL    HW214529   0.291   4.608  11.144  1.8120  1.3051 -0.3615
 1024SOL     OW14530   0.298   1.095   5.769  0.7314  0.2409 -0.5930
 1024SOL    HW114531   0.278   1.081   5.861  2.7382 -2.9955 -0.6364
 1024SOL    HW214532   0.394   1.091   5.772  0.7249  2.0106  1.7009
 1025SOL     OW14533   3.849   3.529   2.302 -0.0688  0.0682  0.0098
 1025SOL    HW114534   3.930   3.537   2.251  1.6060 -2.0603  2.2764
 1025SOL    HW214535   3.835   3.436   2.287 -1.1285  0.8569 -3.6995
 1026SOL     OW14536   3.585   1.810   5.580 -0.3357 -0.1901 -0.0209
 1026SOL    HW114537   3.579   1.786   5.672  0.8644 -1.4006 -0.2644
 1026SOL    HW214538   3.491   1.822   5.567 -0.2783  0.6717  0.3385
 1027SOL     OW14539   2.535   0.353  14.945  0.0732  0.0221 -0.3754
 1027SOL    HW114540   2.569   0.321  15.028  0.8000 -0.9154 -1.0241
 1027SOL    HW214541   2.601   0.320  14.883 -0.7842 -1.4891 -0.4823
 1028SOL     OW14542   3.841   3.543   1.457 -0.9913  0.2544 -0.2695
 1028SOL    HW114543   3.785   3.575   1.386 -0.8471 -0.2566 -0.6109
 1028SOL    HW214544   3.896   3.484   1.406 -0.2401  0.3732  0.3982
 1029SOL     OW14545   1.692   3.470   6.499  0.2803  0.1843 -0.3145
 1029SOL    HW114546   1.752   3.506   6.434  3.2362 -2.7599  0.7413
 1029SOL    HW214547   1.672   3.387   6.456 -0.1493  0.1388 -0.0228
 1030SOL     OW14548   4.527   2.225  13.988  0.6144 -0.8547 -1.0224
 1030SOL    HW114549   4.432   2.229  13.988  0.7049  1.7174 -0.6393
 1030SOL    HW214550   4.548   2.212  14.080 -2.5349 -0.7145 -0.3136
 1031SOL     OW14551   0.935   3.994   6.552 -0.5044  0.4311 -0.5606
 1031SOL    HW114552   0.981   3.964   6.474 -2.3085 -0.6017 -1.2134
 1031SOL    HW214553   1.007   4.045   6.590  0.1346 -0.3924 -0.6740
 1032SOL     OW14554   2.429   4.451   1.494 -0.0987 -0.0254  0.5564
 1032SOL    HW114555   2.426   4.432   1.400 -0.1476 -2.5351  1.0648
 1032SOL    HW214556   2.380   4.376   1.528 -0.4670 -0.5999 -1.2326
 1033SOL     OW14557   2.113   2.781   1.112 -0.4720  0.5248 -0.0171
 1033SOL    HW114558   2.050   2.754   1.178 -1.3147 -0.8260 -1.3782
 1033SOL    HW214559   2.072   2.862   1.082  0.9278  1.8538  1.6605
 1034SOL     OW14560   4.374   2.758  11.732 -0.1030  0.2458  0.4134
 1034SOL    HW114561   4.422   2.724  11.657 -0.4381  0.2066  0.2191
 1034SOL    HW214562   4.369   2.677  11.782  1.8721  0.8590  1.6325
 1035SOL     OW14563   2.678   1.216   3.044 -0.1655  0.4169 -0.0456
 1035SOL    HW114564   2.632   1.206   2.961 -0.4780 -1.4219  0.3543
 1035SOL    HW214565   2.726   1.134   3.055  1.0774  0.9095 -1.8244
 1036SOL     OW14566   0.145   3.518  12.141  0.3993 -0.1560 -0.6348
 1036SOL    HW114567   0.144   3.478  12.228  1.0066 -1.8528 -1.4074
 1036SOL    HW214568   0.131   3.438  12.090 -1.4323  0.6992 -1.4983
 1037SOL     OW14569   3.838   2.100   7.872 -0.1752 -0.1998  0.2190
 1037SOL    HW114570   3.903   2.156   7.915  1.4759 -1.1769 -0.9803
 1037SOL    HW214571   3.895   2.047   7.816  0.1921  0.8909 -0.4468
 1038SOL     OW14572   1.333   2.153   1.074  0.2173  0.1523 -0.7785
 1038SOL    HW114573   1.291   2.211   1.137  1.2969  1.8207 -1.6096
 1038SOL    HW214574   1.352   2.220   1.009  1.9197  1.2360  0.8084
 1039SOL     OW14575   0.153   3.491   5.861  0.5520  0.3651  0.6161
 1039SOL    HW114576   0.198   3.523   5.782  1.1462  0.0679  0.8374
 1039SOL    HW214577   0.077   3.447   5.821  1.7638  0.8823 -2.2711
 1040SOL     OW14578   2.103   0.787   8.480  0.6975  0.2625 -0.8188
 1040SOL    HW114579   2.119   0.876   8.514 -1.4667  0.0366  0.8053
 1040SOL    HW214580   2.011   0.771   8.499  1.0198  0.2676  0.7830
 1041SOL     OW14581   0.649   0.080   1.432  0.9063 -0.0159  0.4840
 1041SOL    HW114582   0.674   0.008   1.374  0.0623  0.4277 -0.4415
 1041SOL    HW214583   0.598   0.128   1.366  0.3503  1.2804  1.8627
 1042SOL     OW14584   0.947   0.005   9.130  0.3919 -0.2571  0.0270
 1042SOL    HW114585   0.907   4.649   9.166 -0.2490 -0.2409 -0.6508
 1042SOL    HW214586   0.894   0.071   9.174  1.5468  1.1969 -0.7518
 1043SOL     OW14587   0.453   3.992   6.540  0.1022 -0.5896 -0.1831
 1043SOL    HW114588   0.419   4.019   6.626 -1.5002 -1.0976 -0.6595
 1043SOL    HW214589   0.545   4.015   6.556  0.4725 -2.2058  0.0152
 1044SOL     OW14590   1.450   1.681  11.240 -0.2995  0.1597 -0.6956
 1044SOL    HW114591   1.536   1.716  11.266  0.5901 -0.6940 -2.5147
 1044SOL    HW214592   1.440   1.718  11.152 -1.3123 -1.7037 -1.3699
 1045SOL     OW14593   0.269   1.455   5.204  0.2677 -0.2132 -0.3702
 1045SOL    HW114594   0.302   1.521   5.143  0.7499 -2.3554 -2.4159
 1045SOL    HW214595   0.179   1.487   5.213  0.0589 -0.7147 -0.7043
 1046SOL     OW14596   1.599   2.361  17.123  0.1194 -0.0716  0.5772
 1046SOL    HW114597   1.578   2.450  17.094  0.3817 -0.3883 -0.5856
 1046SOL    HW214598   1.661   2.336  17.055  0.9319  1.4242  0.7800
 1047SOL     OW14599   0.959   4.318   1.246 -0.7330 -0.4447  0.2252
 1047SOL    HW114600   1.046   4.325   1.207 -1.3844  0.6831 -1.0068
 1047SOL    HW214601   0.953   4.222   1.251 -0.2739 -0.5974 -1.8792
 1048SOL     OW14602   1.634   0.658   5.156  0.2770  0.3854  0.0015
 1048SOL    HW114603   1.587   0.647   5.074 -1.2248 -0.2826  0.9745
 1048SOL    HW214604   1.613   0.581   5.208 -1.7748 -0.1616 -1.6636
 1049SOL     OW14605   2.534   0.607   8.168  0.1062  0.6108  0.7094
 1049SOL    HW114606   2.481   0.527   8.179  0.3508  0.0027 -2.7720
 1049SOL    HW214607   2.569   0.606   8.257 -1.2957  0.5031  1.2606
 1050SOL     OW14608   0.538   0.841   4.287 -0.2926 -0.3886  0.6687
 1050SOL    HW114609   0.595   0.837   4.364  0.0104 -1.7339  0.3742
 1050SOL    HW214610   0.536   0.936   4.289  1.2992 -0.2911 -1.5059
 1051SOL     OW14611   2.139   0.452   7.507  0.8691  0.0275  0.0446
 1051SOL    HW114612   2.071   0.509   7.542  2.2241  1.5332  0.2325
 1051SOL    HW214613   2.203   0.518   7.480  0.6081  0.5765  0.7808
 1052SOL     OW14614   4.535   4.100  11.471  0.5218  0.0084 -0.3762
 1052SOL    HW114615   4.565   4.117  11.382  3.0593 -0.2692  0.4295
 1052SOL    HW214616   4.598   4.160  11.510  0.4575 -0.8611  1.0666
 1053SOL     OW14617   0.897   3.740   8.268 -0.8406 -0.3254 -0.0730
 1053SOL    HW114618   0.891   3.828   8.230 -0.5077 -0.2498  0.0485
 1053SOL    HW214619   0.964   3.755   8.335  1.2958 -0.1406 -2.2488
 1054SOL     OW14620   1.614   1.649   7.158 -0.3098  0.0624 -0.3850
 1054SOL    HW114621   1.539   1.621   7.212  0.8445  0.3698  1.3722
 1054SOL    HW214622   1.618   1.589   7.084  0.7899  0.4121 -0.6132
 1055SOL     OW14623   3.784   4.625   7.545 -0.0827  0.6150 -0.3035
 1055SOL    HW114624   3.705   4.625   7.598 -0.1146 -0.8286 -0.3624
 1055SOL    HW214625   3.844   4.654   7.614  1.2903  0.9183 -1.6090
 1056SOL     OW14626   0.285   2.257   0.980 -0.4776  0.2781  0.1647
 1056SOL    HW114627   0.337   2.228   0.905 -0.9621  1.2678 -0.5405
 1056SOL    HW214628   0.234   2.331   0.947 -0.8894 -0.5090 -0.9672
 1057SOL     OW14629   4.015   1.216   7.991 -0.9652 -0.3530 -0.3792
 1057SOL    HW114630   4.073   1.221   7.916 -2.4061  0.8447 -1.4193
 1057SOL    HW214631   4.050   1.281   8.053  1.3614  0.3417 -2.4512
 1058SOL     OW14632   4.379   0.509  15.390 -0.1269  0.0162 -0.2806
 1058SOL    HW114633   4.312   0.558  15.438 -3.0258 -2.1236 -2.2369
 1058SOL    HW214634   4.410   0.570  15.322 -1.1400  1.9495  1.0124
 1059SOL     OW14635   4.200   2.407  10.841 -0.5457  0.3868  0.3755
 1059SOL    HW114636   4.292   2.418  10.865  0.0568 -1.9314 -0.9085
 1059SOL    HW214637   4.165   2.361  10.917  2.0252 -0.8924  0.7831
 1060SOL     OW14638   4.611   0.097   1.682 -0.2540 -0.5037 -0.1556
 1060SOL    HW114639   4.645   0.152   1.612 -2.8784 -0.1890 -1.1606
 1060SOL    HW214640   4.633   0.154   1.756  0.5385 -1.6659  0.5124
 1061SOL     OW14641   1.366   3.193   7.635 -0.1996 -0.4879  0.7729
 1061SOL    HW114642   1.383   3.105   7.603 -1.1264 -0.3163 -0.2140
 1061SOL    HW214643   1.345   3.179   7.727 -0.1347 -1.0429  0.7008
 1062SOL     OW14644   1.559   0.992   6.272 -0.1913  0.7229 -0.7475
 1062SOL    HW114645   1.610   0.988   6.353 -1.7683 -0.1012  0.1885
 1062SOL    HW214646   1.621   0.959   6.206  1.1120  1.4259  0.1173
 1063SOL     OW14647   1.471   2.398   9.849  0.7032  0.7016  0.2066
 1063SOL    HW114648   1.499   2.471   9.792 -0.2703  2.5625  2.1146
 1063SOL    HW214649   1.446   2.444   9.929 -1.9840 -1.2621  0.4611
 1064SOL     OW14650   2.716   2.133   3.646  0.6518  0.5053 -0.0351
 1064SOL    HW114651   2.791   2.193   3.647  1.2031 -0.1691 -0.5455
 1064SOL    HW214652   2.649   2.183   3.692 -1.2454 -1.8903 -0.1600
 1065SOL     OW14653   2.796   2.703   4.779  0.5458  1.0504  0.6121
 1065SOL    HW114654   2.747   2.628   4.745 -1.2623  2.3724  0.2832
 1065SOL    HW214655   2.765   2.770   4.718 -1.3871 -0.6018 -0.2391
 1066SOL     OW14656   3.700   0.928   4.083 -0.5328  0.1950 -0.2345
 1066SOL    HW114657   3.761   0.893   4.018  0.2711 -1.5958  1.4819
 1066SOL    HW214658   3.627   0.952   4.025 -1.1661  2.9040  1.6852
 1067SOL     OW14659   4.339   4.093   4.047 -0.4259 -0.2681  0.7011
 1067SOL    HW114660   4.294   4.175   4.029  0.0986 -0.0697  0.2900
 1067SOL    HW214661   4.328   4.080   4.141 -1.1985 -1.3732  0.4615
 1068SOL     OW14662   1.922   0.268  17.122  0.4101 -0.4426  0.0011
 1068SOL    HW114663   1.972   0.190  17.146 -1.0430 -1.4048 -0.0927
 1068SOL    HW214664   1.954   0.332  17.186  1.8294  0.5770 -1.7416
 1069SOL     OW14665   3.323   1.382  10.326  0.2120 -0.8890 -0.0494
 1069SOL    HW114666   3.346   1.414  10.238 -1.2255 -0.2547 -0.1911
 1069SOL    HW214667   3.229   1.393  10.335  0.0684 -1.5722 -0.7540
 1070SOL     OW14668   3.011   2.219   3.097  0.7857 -0.2223  0.1884
 1070SOL    HW114669   3.094   2.266   3.106  2.9179 -4.0371  0.5008
 1070SOL    HW214670   2.957   2.268   3.035  1.3058  1.3553  0.9897
 1071SOL     OW14671   0.465   1.048   4.592  0.0002  0.6666 -0.2302
 1071SOL    HW114672   0.415   0.993   4.532  3.2366 -2.9736  0.4388
 1071SOL    HW214673   0.422   1.130   4.567  1.6069  2.1858  1.9503
 1072SOL     OW14674   0.316   2.486  10.396 -0.4378  0.0810 -0.0020
 1072SOL    HW114675   0.411   2.474  10.405 -0.3100  0.9224 -0.2219
 1072SOL    HW214676   0.294   2.411  10.450  3.1563 -0.2077  1.0695
 1073SOL     OW14677   4.446   3.580   6.473  0.0007  0.6334  0.6528
 1073SOL    HW114678   4.401   3.531   6.404  0.2952  1.8898 -0.4229
 1073SOL    HW214679   4.466   3.665   6.434  0.0981 -0.0512 -0.7794
 1074SOL     OW14680   4.546   0.070   3.271  0.5522 -0.2952  0.1088
 1074SOL    HW114681   4.630   0.024   3.269  0.9760  0.4417  0.8953
 1074SOL    HW214682   4.557   0.108   3.184 -1.1837 -1.1854 -0.4985
 1075SOL     OW14683   1.979   4.200   6.124  0.0268  0.5932  0.2610
 1075SOL    HW114684   1.926   4.228   6.198  0.1055  1.1080  0.1196
 1075SOL    HW214685   1.911   4.152   6.077 -0.3858  0.5681  0.8927
 1076SOL     OW14686   1.033   2.696   3.869 -0.5780  0.6835 -0.5112
 1076SOL    HW114687   1.112   2.706   3.815 -2.5127 -0.4398 -3.6103
 1076SOL    HW214688   1.012   2.785   3.895 -1.7853  0.9694 -2.4929
 1077SOL     OW14689   1.897   2.635   3.863  0.5985 -0.3757  0.2003
 1077SOL    HW114690   1.819   2.606   3.816 -0.2306  2.9300 -0.4253
 1077SOL    HW214691   1.897   2.582   3.942 -1.0625 -0.8641 -0.1404
 1078SOL     OW14692   0.331   1.633   3.433  0.2835 -0.2367  0.1557
 1078SOL    HW114693   0.402   1.657   3.374 -1.4280  0.3046 -1.6949
 1078SOL    HW214694   0.347   1.538   3.431 -3.0917 -0.7785 -2.8191
 1079SOL     OW14695   1.405   3.249   5.593 -0.2055 -0.0837  0.3069
 1079SOL    HW114696   1.421   3.180   5.529 -1.0757 -0.9365  1.0210
 1079SOL    HW214697   1.310   3.257   5.593 -0.2392 -0.5066  0.2969
 1080SOL     OW14698   2.781   2.792  12.401 -0.6025 -0.2829 -0.3510
 1080SOL    HW114699   2.812   2.842  12.326  1.9214  0.5077  1.2283
 1080SOL    HW214700   2.812   2.844  12.475 -1.2586  0.6666 -0.7461
 1081SOL     OW14701   1.869   2.925   4.948 -0.4345 -0.1507 -0.6981
 1081SOL    HW114702   1.944   2.984   4.956 -2.1762  1.5150  3.3385
 1081SOL    HW214703   1.826   2.967   4.874  2.3219  0.8692 -1.7408
 1082SOL     OW14704   4.386   1.193   9.732  0.1149 -0.0333  0.0716
 1082SOL    HW114705   4.411   1.284   9.749  2.0475 -0.2257 -1.6517
 1082SOL    HW214706   4.424   1.144   9.804  1.1858 -3.8510 -3.0768
 1083SOL     OW14707   4.084   3.808   9.329 -0.4439 -0.6090  0.3111
 1083SOL    HW114708   4.102   3.744   9.398 -2.2982 -0.8878  0.5435
 1083SOL    HW214709   4.134   3.882   9.362 -1.5948 -1.0626  3.0648
 1084SOL     OW14710   3.506   1.677  15.764  0.0449 -0.2548  0.1551
 1084SOL    HW114711   3.457   1.601  15.795  1.5340 -1.4452 -0.3830
 1084SOL    HW214712   3.466   1.673  15.677 -1.1115 -1.5484  0.7453
 1085SOL     OW14713   3.792   3.221   5.569 -0.8156 -0.5103  0.1537
 1085SOL    HW114714   3.755   3.281   5.505 -1.7511 -1.5136 -0.2334
 1085SOL    HW214715   3.801   3.273   5.649 -1.6128  2.8374 -1.9095
 1086SOL     OW14716   1.860   4.080   7.362  0.1561 -0.5530  0.1406
 1086SOL    HW114717   1.810   4.009   7.402  0.5066 -0.5681  0.5524
 1086SOL    HW214718   1.925   4.099   7.429 -0.1485 -0.0918  0.3139
 1087SOL     OW14719   0.889   4.193   5.088 -0.1430 -0.1457 -0.4515
 1087SOL    HW114720   0.832   4.270   5.086  0.7466  0.5059 -0.3284
 1087SOL    HW214721   0.911   4.175   5.179  3.0604 -2.0906 -1.6193
 1088SOL     OW14722   1.138   4.684   4.345  0.4872 -0.1489 -0.4661
 1088SOL    HW114723   1.044   4.683   4.329  0.3026 -3.4359  0.7134
 1088SOL    HW214724   1.172   4.716   4.261  1.5868  0.2391  0.1175
 1089SOL     OW14725   0.605   3.701   2.084 -0.1250  0.4480 -0.1244
 1089SOL    HW114726   0.618   3.690   2.178 -1.1230  0.1863 -0.0175
 1089SOL    HW214727   0.655   3.780   2.067 -1.5390  1.3980  0.1331
 1090SOL     OW14728   4.380   0.700  12.751  0.0664 -0.3002 -0.2214
 1090SOL    HW114729   4.471   0.678  12.733  0.2776  0.3312  0.0939
 1090SOL    HW214730   4.336   0.670  12.671 -0.7571 -1.8800  0.8078
 1091SOL     OW14731   3.938   4.082   2.714  0.0459 -0.0247  0.6405
 1091SOL    HW114732   3.879   4.013   2.744  0.6435 -1.4963 -1.5635
 1091SOL    HW214733   3.912   4.078   2.622 -0.8899 -0.2961  0.9159
 1092SOL     OW14734   0.073   1.404   9.098  0.2581 -0.3010 -0.5801
 1092SOL    HW114735   0.004   1.470   9.103  1.5789  1.1114 -0.9580
 1092SOL    HW214736   0.113   1.407   9.185  1.0517 -0.9141 -0.9161
 1093SOL     OW14737   4.591   1.557   4.106  0.3929 -0.2081  0.0085
 1093SOL    HW114738   4.686   1.565   4.096  0.1444  2.6796  0.0946
 1093SOL    HW214739   4.560   1.515   4.025  0.9503 -0.0151 -0.3064
 1094SOL     OW14740   1.594   4.407   4.012  0.7573  0.0038  0.6558
 1094SOL    HW114741   1.594   4.435   4.103  1.5926 -0.0213  0.6653
 1094SOL    HW214742   1.509   4.364   4.013  0.6978  0.0496 -1.0915
 1095SOL     OW14743   0.434   0.547   2.210  0.0549  0.1633 -0.0427
 1095SOL    HW114744   0.395   0.518   2.292  1.2060 -1.3767 -0.0489
 1095SOL    HW214745   0.403   0.487   2.142  0.4529 -0.0105 -0.0718
 1096SOL     OW14746   1.562   1.878   3.702 -0.0368 -0.3124 -0.4287
 1096SOL    HW114747   1.642   1.871   3.755 -1.0759 -0.3921  1.1242
 1096SOL    HW214748   1.603   1.901   3.619 -0.0729 -1.3189 -0.7265
 1097SOL     OW14749   1.784   2.852   0.863 -0.3896 -0.1220  0.8104
 1097SOL    HW114750   1.821   2.798   0.792  0.4117  0.3904  0.8445
 1097SOL    HW214751   1.794   2.786   0.931 -0.5152 -0.3442  0.6140
 1098SOL     OW14752   1.501   3.018  13.043  0.4086  0.1086  0.2671
 1098SOL    HW114753   1.437   3.049  13.107  0.0958  0.4766 -0.2228
 1098SOL    HW214754   1.516   2.933  13.084 -1.0410 -1.1607 -1.8539
 1099SOL     OW14755   3.164   3.865   8.131  0.5301 -0.5697  0.2463
 1099SOL    HW114756   3.162   3.909   8.216 -3.1829  3.0884 -1.7789
 1099SOL    HW214757   3.249   3.821   8.125  0.7795 -0.2394  1.2555
 1100SOL     OW14758   3.635   1.903   7.953 -0.5359  0.3295  0.6681
 1100SOL    HW114759   3.663   1.905   8.044 -3.5752 -2.7913  1.6873
 1100SOL    HW214760   3.699   1.964   7.917 -1.3728  1.3172  0.8581
 1101SOL     OW14761   1.082   1.065  10.331  0.1439  0.2764  0.1485
 1101SOL    HW114762   1.048   1.038  10.416 -1.9722  0.8602 -0.5152
 1101SOL    HW214763   1.154   1.003  10.327  1.0010  1.2876 -0.1936
 1102SOL     OW14764   4.451   0.098  16.582  0.4810  0.6654 -0.0972
 1102SOL    HW114765   4.540   0.090  16.616  0.9005 -0.0790 -1.3729
 1102SOL    HW214766   4.408   0.145  16.653 -0.9822  0.0942 -0.5914
 1103SOL     OW14767   0.258   0.372   1.764  0.3008 -0.3963  0.0821
 1103SOL    HW114768   0.338   0.324   1.783  0.6201 -0.0793 -0.4587
 1103SOL    HW214769   0.287   0.460   1.742 -0.5279 -0.6462 -2.0504
 1104SOL     OW14770   1.834   2.547   7.643  0.1037 -0.3811 -0.0679
 1104SOL    HW114771   1.800   2.570   7.557 -1.1115 -0.3398  0.4238
 1104SOL    HW214772   1.922   2.511   7.629 -0.1558 -0.2641 -1.9975
 1105SOL     OW14773   0.847   1.121   2.275  0.2901  0.0765 -0.5731
 1105SOL    HW114774   0.776   1.122   2.212  0.5317 -1.3040 -0.8731
 1105SOL    HW214775   0.821   1.048   2.331 -0.7561  0.9615  0.0797
 1106SOL     OW14776   3.613   0.959   3.431 -0.3268  0.1191 -0.1482
 1106SOL    HW114777   3.708   0.966   3.440 -0.2705 -0.3214 -0.3771
 1106SOL    HW214778   3.579   1.015   3.500 -0.8610  0.5056 -0.7275
 1107SOL     OW14779   0.809   1.730   8.313  0.6814 -0.2091 -0.2690
 1107SOL    HW114780   0.750   1.798   8.282 -1.9852 -0.9806  3.2012
 1107SOL    HW214781   0.803   1.652   8.257  1.8144 -0.4565 -0.0491
 1108SOL     OW14782   1.244   1.093   1.103 -0.6281 -0.4471  0.4633
 1108SOL    HW114783   1.151   1.073   1.114  0.3954 -3.0444  4.3020
 1108SOL    HW214784   1.283   1.006   1.118 -0.0401  0.0918  2.0431
 1109SOL     OW14785   3.989   1.656   5.408 -0.5015  0.4895 -0.3548
 1109SOL    HW114786   4.007   1.644   5.315 -1.1571 -0.3515 -0.3729
 1109SOL    HW214787   3.938   1.737   5.400 -2.1184 -0.4426  0.4951
 1110SOL     OW14788   0.549   2.725   4.825 -0.6580 -0.2999 -0.2035
 1110SOL    HW114789   0.591   2.674   4.895  1.4790 -0.2462 -1.4449
 1110SOL    HW214790   0.576   2.814   4.852 -2.0590  0.9358 -2.9388
 1111SOL     OW14791   0.577   0.416   3.321 -0.5092  0.1460  0.4930
 1111SOL    HW114792   0.635   0.392   3.249 -0.4074 -1.0141  0.9677
 1111SOL    HW214793   0.578   0.343   3.383 -1.1998 -0.8640 -0.6834
 1112SOL     OW14794   4.297   3.697  16.157  0.2916 -0.0732 -0.3506
 1112SOL    HW114795   4.211   3.685  16.198 -0.0785  0.1196 -1.0756
 1112SOL    HW214796   4.327   3.761  16.222  0.4518 -1.0169  0.5099
 1113SOL     OW14797   0.838   3.202   5.380  0.2541  0.1941  0.0446
 1113SOL    HW114798   0.771   3.231   5.441 -0.6104 -0.8919 -0.3834
 1113SOL    HW214799   0.907   3.166   5.435  0.1341  0.7185  0.5302
 1114SOL     OW14800   1.749   2.527   0.354 -0.0110 -0.7589 -0.0545
 1114SOL    HW114801   1.766   2.455   0.414 -0.5994 -0.9402 -0.1108
 1114SOL    HW214802   1.826   2.580   0.375  0.1817 -1.0074 -0.1367
 1115SOL     OW14803   0.519   4.413   1.033  0.2478 -0.8092 -0.1507
 1115SOL    HW114804   0.479   4.346   1.089  0.4930  0.1922  1.2174
 1115SOL    HW214805   0.596   4.430   1.088 -0.9901  1.4242  0.8914
 1116SOL     OW14806   0.940   4.003   1.758 -0.1523 -0.0626  0.0676
 1116SOL    HW114807   0.947   3.927   1.701  1.0008 -1.6708  2.3222
 1116SOL    HW214808   0.943   4.072   1.692  1.5871  3.1053  3.4485
 1117SOL     OW14809   1.274   3.994   4.565 -0.1456  0.1546  0.6929
 1117SOL    HW114810   1.182   4.013   4.582 -0.3159 -1.8538  2.1063
 1117SOL    HW214811   1.279   4.006   4.470  0.6980 -1.7821  0.4933
 1118SOL     OW14812   0.132   4.588   1.563 -0.2270 -0.0131  0.1516
 1118SOL    HW114813   0.219   4.588   1.602 -0.0947 -0.4289 -0.1467
 1118SOL    HW214814   0.086   4.519   1.611  0.6730 -1.2281 -0.7692
 1119SOL     OW14815   2.292   0.214  13.984  0.2812 -0.1479  0.3908
 1119SOL    HW114816   2.238   0.209  14.063  1.9347 -1.6827  1.4198
 1119SOL    HW214817   2.247   0.144  13.936  2.2952 -0.9511 -0.3128
 1120SOL     OW14818   4.254   2.902   5.412 -0.0372  0.5681 -0.1454
 1120SOL    HW114819   4.277   2.991   5.439  1.1562  0.5504 -1.1023
 1120SOL    HW214820   4.304   2.894   5.330 -0.1775  2.5726 -0.4435
 1121SOL     OW14821   1.485   2.730   3.184 -0.5109  0.1406 -0.5933
 1121SOL    HW114822   1.390   2.726   3.186 -0.4348 -1.2098  0.0716
 1121SOL    HW214823   1.504   2.641   3.155 -4.8650 -0.0588 -2.7352
 1122SOL     OW14824   2.996   2.945   8.532  0.0427  0.0021 -0.1756
 1122SOL    HW114825   3.024   2.859   8.501 -1.5449  0.0928 -1.9215
 1122SOL    HW214826   2.947   2.925   8.612  2.5459  0.5986  1.4741
 1123SOL     OW14827   1.874   1.351   7.664 -0.0932 -0.3322  0.4788
 1123SOL    HW114828   1.874   1.293   7.588  2.4049 -0.5935  0.6631
 1123SOL    HW214829   1.954   1.404   7.660 -0.4167  0.2416  1.7537
 1124SOL     OW14830   4.472   1.252   4.785 -0.1546  0.4699 -0.4586
 1124SOL    HW114831   4.515   1.199   4.717 -0.5095  1.2615 -1.3057
 1124SOL    HW214832   4.393   1.198   4.790  1.2486 -1.3461  1.4896
 1125SOL     OW14833   0.900   0.971   6.651  0.3190  0.1450  0.5847
 1125SOL    HW114834   0.911   0.981   6.745  0.7018  0.5620  0.4922
 1125SOL    HW214835   0.935   1.049   6.609 -1.3277  0.2388 -0.6260
 1126SOL     OW14836   0.083   0.245  15.107 -0.5464 -0.2271 -0.0461
 1126SOL    HW114837   0.166   0.293  15.102 -0.5431 -0.4502 -2.3743
 1126SOL    HW214838   0.121   0.165  15.070  1.4266  0.0547  1.3647
 1127SOL     OW14839   0.284   2.691  10.858 -0.0506 -0.4220  0.1494
 1127SOL    HW114840   0.227   2.700  10.781  0.0672  3.8274  0.5558
 1127SOL    HW214841   0.354   2.636  10.824 -0.2251 -1.4174  1.4236
 1128SOL     OW14842   3.488   0.435   3.423  0.5381  0.2658 -0.0603
 1128SOL    HW114843   3.404   0.389   3.417  0.6890 -0.2760  1.7622
 1128SOL    HW214844   3.538   0.360   3.391 -0.6880 -0.4375 -0.3368
 1129SOL     OW14845   0.970   3.183   9.336 -0.6782  0.1413 -0.1443
 1129SOL    HW114846   1.022   3.250   9.380 -0.5029 -0.5265  0.6552
 1129SOL    HW214847   0.891   3.187   9.390  1.1200  0.6315  2.4476
 1130SOL     OW14848   0.496   4.233   5.521 -0.1927 -0.4364 -0.1031
 1130SOL    HW114849   0.520   4.316   5.479 -1.1149  0.4603  1.1288
 1130SOL    HW214850   0.558   4.174   5.479  1.2126  1.2576 -0.4427
 1131SOL     OW14851   3.839   2.832   7.571  0.0421  0.8040  0.4102
 1131SOL    HW114852   3.830   2.740   7.547 -1.1096  0.5457  1.8304
 1131SOL    HW214853   3.762   2.872   7.532 -0.4594  0.3406  0.9265
 1132SOL     OW14854   3.331   2.214  16.832  0.0053 -0.3160 -0.3002
 1132SOL    HW114855   3.325   2.183  16.922  0.3279  2.5318  0.6927
 1132SOL    HW214856   3.242   2.239  16.806  0.3919  1.0293 -0.3310
 1133SOL     OW14857   0.361   1.394   5.472  0.7051 -0.0757 -0.3875
 1133SOL    HW114858   0.335   1.413   5.382  1.2478 -2.7356 -1.1024
 1133SOL    HW214859   0.453   1.419   5.462  0.2576  1.4526 -0.6511
 1134SOL     OW14860   3.204   0.739   7.213 -0.2303 -0.2714 -0.0906
 1134SOL    HW114861   3.272   0.728   7.146  0.2637  3.2135 -0.1699
 1134SOL    HW214862   3.132   0.772   7.160 -0.4934 -1.0625 -0.2163
 1135SOL     OW14863   0.603   3.184   4.245 -0.4408 -0.2176 -0.4887
 1135SOL    HW114864   0.633   3.236   4.170 -0.8874 -0.7912 -1.0615
 1135SOL    HW214865   0.595   3.258   4.305  1.1444 -0.2401 -0.2374
 1136SOL     OW14866   0.747   0.118   4.776  1.2048 -0.1879  0.0335
 1136SOL    HW114867   0.778   0.073   4.855 -0.4496  0.3158  0.9779
 1136SOL    HW214868   0.654   0.112   4.799  1.4037 -1.8868  0.4402
 1137SOL     OW14869   0.271   2.019   5.390 -0.1264 -0.0750  0.0814
 1137SOL    HW114870   0.194   2.073   5.373 -0.5998 -0.4217  1.1396
 1137SOL    HW214871   0.252   1.983   5.477  1.9333 -0.6630  0.2952
 1138SOL     OW14872   2.585   2.957   2.444 -0.6235 -0.5759 -0.3813
 1138SOL    HW114873   2.565   3.029   2.385  0.3769 -0.3647 -0.4663
 1138SOL    HW214874   2.627   2.903   2.377 -1.8176 -2.0415  0.0453
 1139SOL     OW14875   2.795   2.119   5.731  0.6551  0.0202  0.3656
 1139SOL    HW114876   2.867   2.064   5.701 -1.2873 -1.6526 -1.2419
 1139SOL    HW214877   2.737   2.051   5.766  0.2955  0.6894  1.0587
 1140SOL     OW14878   0.404   4.461   8.569 -0.3411 -0.0994  0.0082
 1140SOL    HW114879   0.377   4.394   8.631  0.6011  0.4730  1.0277
 1140SOL    HW214880   0.413   4.412   8.487 -0.4735 -0.2455  0.0826
 1141SOL     OW14881   0.510   1.097   4.286  0.1647  0.6132 -0.0679
 1141SOL    HW114882   0.442   1.097   4.219 -0.0595  0.0785  0.1580
 1141SOL    HW214883   0.481   1.178   4.328 -1.0463  0.7465 -1.1478
 1142SOL     OW14884   3.451   3.152   5.509  0.2818 -0.4456 -0.3888
 1142SOL    HW114885   3.362   3.166   5.476  0.6517 -1.0944 -1.6386
 1142SOL    HW214886   3.485   3.092   5.444  2.5547  0.3667  0.0459
 1143SOL     OW14887   3.579   1.400  12.583 -0.0799  0.4962  0.5960
 1143SOL    HW114888   3.532   1.437  12.508  0.8388  2.2779  0.9133
 1143SOL    HW214889   3.604   1.480  12.628  1.7417  0.9947 -1.2953
 1144SOL     OW14890   2.361   3.948   6.240  0.5602  0.2136 -0.1624
 1144SOL    HW114891   2.403   3.999   6.309  0.9110  0.1288 -0.3164
 1144SOL    HW214892   2.277   3.926   6.282  0.5928  1.9031  0.8227
 1145SOL     OW14893   1.259   0.158   0.687 -0.1312  0.1199  0.1599
 1145SOL    HW114894   1.348   0.136   0.713  0.8802  1.7023 -1.8733
 1145SOL    HW214895   1.276   0.169   0.593 -0.9469  3.5917  0.4128
 1146SOL     OW14896   4.379   2.864   8.453 -0.3869  0.8075  0.0475
 1146SOL    HW114897   4.440   2.896   8.519  0.9081 -0.7321 -0.3885
 1146SOL    HW214898   4.307   2.926   8.468 -0.4464  0.5692  0.7419
 1147SOL     OW14899   0.342   1.410   5.761  0.1434 -0.1896  0.2542
 1147SOL    HW114900   0.408   1.347   5.789 -0.3448 -0.2520  1.2619
 1147SOL    HW214901   0.360   1.398   5.668 -1.1427  1.3755 -0.2057
 1148SOL     OW14902   0.040   1.176   8.070  0.1042 -0.0426  0.4078
 1148SOL    HW114903   0.061   1.217   8.154  2.2144 -0.2218 -0.0290
 1148SOL    HW214904   0.115   1.207   8.019 -0.2639  2.0969  1.1869
 1149SOL     OW14905   1.228   3.887   6.112 -0.0444  0.5629  0.6141
 1149SOL    HW114906   1.134   3.873   6.124 -0.0195  1.5211  1.9996
 1149SOL    HW214907   1.259   3.814   6.059  0.5178  0.1320  1.5498
 1150SOL     OW14908   0.786   3.770   7.474  0.2578  0.1809 -0.2248
 1150SOL    HW114909   0.872   3.727   7.469 -0.4020 -1.1072 -0.2753
 1150SOL    HW214910   0.769   3.777   7.568  1.0486  1.8190 -0.1979
 1151SOL     OW14911   0.562   2.797   6.047  0.4493 -0.1085  0.7682
 1151SOL    HW114912   0.624   2.726   6.032  2.1902  1.4692  0.5905
 1151SOL    HW214913   0.592   2.870   5.993  0.8328 -1.5522 -0.9234
 1152SOL     OW14914   1.240   2.587   2.352 -0.2816 -0.0398  0.4162
 1152SOL    HW114915   1.199   2.517   2.301  1.9035 -0.5001 -0.7187
 1152SOL    HW214916   1.232   2.555   2.442 -2.0611 -3.1143 -0.8137
 1153SOL     OW14917   2.885   0.100   6.245  0.1357 -0.1261  0.4879
 1153SOL    HW114918   2.933   0.026   6.208 -1.3901 -0.9533  0.1661
 1153SOL    HW214919   2.931   0.107   6.329  2.7151 -2.0630 -0.7940
 1154SOL     OW14920   1.519   4.528  17.042  0.0895 -0.5611  0.7021
 1154SOL    HW114921   1.542   4.511  16.951  1.4081  0.2699  0.8801
 1154SOL    HW214922   1.513   4.623  17.053  1.0177 -0.2254 -1.7312
 1155SOL     OW14923   3.685   3.790   3.837 -0.4260  0.9907 -0.1724
 1155SOL    HW114924   3.666   3.768   3.746  0.0131 -1.2969  0.2815
 1155SOL    HW214925   3.763   3.735   3.852  0.2638  1.5315 -1.8092
 1156SOL     OW14926   0.982   1.155   8.810 -0.5162 -0.0171 -0.2236
 1156SOL    HW114927   0.985   1.068   8.772  0.9599  0.2908 -0.8422
 1156SOL    HW214928   1.043   1.196   8.748  0.6749 -0.0215  0.9322
 1157SOL     OW14929   2.526   2.890  12.316 -0.3299 -0.5441 -0.3701
 1157SOL    HW114930   2.514   2.905  12.410 -0.9099  0.8186 -0.6614
 1157SOL    HW214931   2.617   2.862  12.327 -0.0707 -0.5626 -2.5127
 1158SOL     OW14932   2.275   3.856  15.573 -0.8299 -0.3467  0.1784
 1158SOL    HW114933   2.221   3.802  15.517 -0.9180 -1.2394  1.1325
 1158SOL    HW214934   2.319   3.791  15.627 -0.3544  0.1972  0.4523
 1159SOL     OW14935   0.051   3.289   3.926  0.0187  0.0582 -0.2820
 1159SOL    HW114936   0.000   3.259   3.851 -0.1298 -1.1907  0.3220
 1159SOL    HW214937   0.070   3.219   3.988  1.1962  0.0722 -0.6249
 1160SOL     OW14938   4.288   1.838  10.024  0.3219 -0.4544  0.0046
 1160SOL    HW114939   4.301   1.749  10.058  0.6087 -0.7055 -0.7663
 1160SOL    HW214940   4.373   1.840   9.980 -0.1991  1.4312 -0.9228
 1161SOL     OW14941   2.403   2.509   9.913 -0.3731 -0.2377 -0.0111
 1161SOL    HW114942   2.340   2.438   9.930 -1.6110  1.2874  1.7913
 1161SOL    HW214943   2.448   2.476   9.835  0.4528 -1.5348  1.0138
 1162SOL     OW14944   0.638   1.401   5.159  0.7003  0.3162 -0.8218
 1162SOL    HW114945   0.585   1.456   5.102 -0.3924 -1.0091 -1.0755
 1162SOL    HW214946   0.716   1.456   5.161 -0.4742  1.9624  0.1684
 1163SOL     OW14947   2.002   1.217  15.081  0.4638  0.0954  0.3208
 1163SOL    HW114948   1.921   1.266  15.068  0.7406  0.3266 -0.5752
 1163SOL    HW214949   1.978   1.125  15.080  1.8352 -0.2533 -2.0348
 1164SOL     OW14950   4.617   2.338  11.513  0.0969 -0.6340  0.2557
 1164SOL    HW114951   4.568   2.285  11.450  0.4095 -0.7398  0.1046
 1164SOL    HW214952   4.584   2.305  11.597  0.7075  0.1500  0.8105
 1165SOL     OW14953   2.878   3.119   3.902 -0.1703 -0.5500  0.7658
 1165SOL    HW114954   2.851   3.089   3.988 -2.3089  0.5276  0.4773
 1165SOL    HW214955   2.922   3.045   3.862 -0.4746  0.2247 -1.0109
 1166SOL     OW14956   3.935   0.024  16.148  0.2640  0.2397  0.0783
 1166SOL    HW114957   3.888   0.103  16.119  0.0310 -0.1087 -0.4933
 1166SOL    HW214958   4.018   0.035  16.102 -0.1812  1.7992 -0.3686
 1167SOL     OW14959   1.485   3.453   8.407 -0.1130  0.7722  0.1130
 1167SOL    HW114960   1.495   3.485   8.496  1.6919  2.3426 -0.6369
 1167SOL    HW214961   1.441   3.369   8.418 -0.1863  1.1907  3.0185
 1168SOL     OW14962   0.707   3.260   5.597  0.2845 -0.1515 -0.5181
 1168SOL    HW114963   0.692   3.308   5.678  1.6069  0.2027 -0.4793
 1168SOL    HW214964   0.672   3.172   5.612 -1.2370  0.5306 -0.1158
 1169SOL     OW14965   4.194   3.265   2.401 -0.1134 -0.4422  0.5163
 1169SOL    HW114966   4.170   3.173   2.397 -3.0969  0.4143 -1.2174
 1169SOL    HW214967   4.198   3.283   2.495  0.8464  1.6860  0.0808
 1170SOL     OW14968   3.843   3.398   4.548  0.2303  0.2505  0.1765
 1170SOL    HW114969   3.878   3.334   4.485 -1.2633  0.2754 -0.6764
 1170SOL    HW214970   3.827   3.340   4.623 -2.4795  0.1356 -0.5068
 1171SOL     OW14971   2.866   4.290   4.794  0.1194  0.4764 -0.3261
 1171SOL    HW114972   2.916   4.353   4.743  1.3670 -0.5422 -0.3506
 1171SOL    HW214973   2.938   4.250   4.843 -0.5749 -1.4850 -0.9257
 1172SOL     OW14974   2.226   3.882   9.205  0.2235 -0.6559  0.2426
 1172SOL    HW114975   2.279   3.962   9.203  1.1730 -1.3407 -1.8316
 1172SOL    HW214976   2.145   3.901   9.156 -1.2840 -1.8308  2.3236
 1173SOL     OW14977   3.796   3.400   2.664  0.1885  0.3775 -0.4393
 1173SOL    HW114978   3.703   3.379   2.671  0.8435 -1.7027  1.9135
 1173SOL    HW214979   3.770   3.451   2.587 -3.7955 -0.1711  0.5644
 1174SOL     OW14980   0.935   4.064   2.421 -0.3503  0.9843 -0.2227
 1174SOL    HW114981   0.997   4.040   2.352 -1.3822 -1.5178 -0.2808
 1174SOL    HW214982   0.956   3.998   2.486 -1.9064 -0.3960 -1.1059
 1175SOL     OW14983   2.468   1.927  14.872 -0.1203  0.4644  0.3209
 1175SOL    HW114984   2.499   1.967  14.953 -0.2523  1.9043 -0.3356
 1175SOL    HW214985   2.476   2.002  14.813 -2.6657  0.1325 -0.4326
 1176SOL     OW14986   2.255   2.326   7.555 -0.4347 -0.1537 -0.1053
 1176SOL    HW114987   2.230   2.259   7.492 -0.9371 -0.3187  0.2698
 1176SOL    HW214988   2.246   2.278   7.637 -0.7451  1.6097  0.8941
 1177SOL     OW14989   3.105   0.688  12.780  0.4254  0.3056 -0.1422
 1177SOL    HW114990   3.169   0.752  12.750  2.0691 -0.3331  1.9938
 1177SOL    HW214991   3.169   0.618  12.792  1.1377  0.8713 -0.6670
 1178SOL     OW14992   3.559   1.201   6.476 -0.0388  0.2072  0.2165
 1178SOL    HW114993   3.558   1.107   6.492  0.1055  0.8118  3.6649
 1178SOL    HW214994   3.640   1.217   6.428 -0.4793  2.8193  0.3056
 1179SOL     OW14995   0.824   1.350   5.531 -0.4379  0.0510  0.1512
 1179SOL    HW114996   0.746   1.396   5.499 -0.3059 -0.8160 -1.3941
 1179SOL    HW214997   0.894   1.379   5.472  0.9993 -1.5914  1.0744
 1180SOL     OW14998   2.389   1.967   0.896  0.0756  0.1266 -0.0197
 1180SOL    HW114999   2.453   1.954   0.966  0.0835  0.3101  0.0067
 1180SOL    HW215000   2.321   1.916   0.939 -1.4282  3.9900  2.1373
 1181SOL     OW15001   1.331   4.594   6.637 -0.0284  0.2072 -0.0047
 1181SOL    HW115002   1.353   4.687   6.640 -2.0012  0.6606 -0.0843
 1181SOL    HW215003   1.326   4.575   6.731 -0.7962 -0.4485 -0.1760
 1182SOL     OW15004   1.135   3.284   3.844 -0.1704 -0.1262  0.1781
 1182SOL    HW115005   1.127   3.244   3.758  0.5647 -0.9065  0.4727
 1182SOL    HW215006   1.043   3.282   3.871  0.2343  0.2045  1.5735
 1183SOL     OW15007   3.105   3.235   3.398  0.6778  0.1387 -0.3480
 1183SOL    HW115008   3.192   3.231   3.356  1.0327  2.4236  0.1959
 1183SOL    HW215009   3.049   3.176   3.348 -0.2091  0.7772 -0.0916
 1184SOL     OW15010   1.217   1.213   1.518 -0.4525 -0.6769  0.4352
 1184SOL    HW115011   1.269   1.231   1.440  2.2544 -0.1839  2.3594
 1184SOL    HW215012   1.160   1.139   1.496 -2.7994  0.7135  1.7507
 1185SOL     OW15013   0.390   3.810   7.257 -0.6294 -0.3822 -0.6322
 1185SOL    HW115014   0.484   3.791   7.256 -0.4636  0.3437  1.5172
 1185SOL    HW215015   0.365   3.763   7.337 -1.9283  0.8560 -0.3204
 1186SOL     OW15016   0.238   3.819   8.693  0.8653 -0.4419  0.0407
 1186SOL    HW115017   0.238   3.751   8.626  0.2712  0.0561 -0.4619
 1186SOL    HW215018   0.330   3.822   8.719  0.5341 -0.5815  1.2392
 1187SOL     OW15019   4.480   1.619   8.096  0.2572  0.5777 -0.2270
 1187SOL    HW115020   4.407   1.662   8.140  0.1813 -1.5306  1.7358
 1187SOL    HW215021   4.554   1.678   8.103  0.1139  0.9770 -2.0600
 1188SOL     OW15022   4.444   2.250  12.343  0.2210 -0.0793 -0.1444
 1188SOL    HW115023   4.519   2.275  12.289  1.3360 -2.8433  0.1150
 1188SOL    HW215024   4.447   2.154  12.338 -2.1518  0.0006 -3.0408
 1189SOL     OW15025   0.081   1.856  13.770  0.3104 -0.4385 -0.1974
 1189SOL    HW115026   0.022   1.784  13.753  0.0086 -0.3037  0.2594
 1189SOL    HW215027   0.030   1.910  13.710 -0.2339 -2.5270 -1.5843
 1190SOL     OW15028   3.046   3.371   4.495 -0.1062  1.0749  0.1581
 1190SOL    HW115029   3.134   3.333   4.490 -1.2891 -1.4308 -2.0671
 1190SOL    HW215030   3.000   3.287   4.494 -0.0753  1.0539  1.4889
 1191SOL     OW15031   3.479   3.314   7.201  0.2919  0.1423 -0.4249
 1191SOL    HW115032   3.519   3.326   7.115 -0.2729  0.0043 -0.7093
 1191SOL    HW215033   3.506   3.395   7.245 -0.3771  1.5929 -2.6758
 1192SOL     OW15034   1.564   2.295   4.448 -0.6036 -0.1043 -0.1525
 1192SOL    HW115035   1.536   2.258   4.531 -0.6461  0.7182  0.2048
 1192SOL    HW215036   1.494   2.277   4.386 -0.3687 -0.4817 -0.3098
 1193SOL     OW15037   3.877   0.122   7.972  0.3309  0.1325 -0.0347
 1193SOL    HW115038   3.823   0.200   7.958  0.0131 -0.0118  0.3715
 1193SOL    HW215039   3.963   0.159   7.993  0.0824  0.6880 -0.0101
 1194SOL     OW15040   2.244   4.101  14.225  0.5646 -0.1018 -0.3769
 1194SOL    HW115041   2.159   4.136  14.197  1.7444  1.9267 -1.4837
 1194SOL    HW215042   2.258   4.043  14.150 -0.5101 -0.2853 -0.4461
 1195SOL     OW15043   4.562   1.067   7.659  0.6044 -0.0625  0.2229
 1195SOL    HW115044   4.556   0.999   7.591  0.2715  1.4184 -1.2408
 1195SOL    HW215045   4.621   1.130   7.619  0.9766 -1.8729 -2.1326
 1196SOL     OW15046   4.421   0.500   6.375 -0.5415 -0.6946 -0.4491
 1196SOL    HW115047   4.338   0.529   6.414 -1.0378  0.4650 -2.3463
 1196SOL    HW215048   4.381   0.426   6.330 -0.5274 -0.2152 -1.2456
 1197SOL     OW15049   1.077   1.773  11.754 -0.2429  0.2807  0.0863
 1197SOL    HW115050   1.154   1.818  11.788  1.4929 -1.7595 -1.2010
 1197SOL    HW215051   1.117   1.686  11.760 -0.2762  0.3314  1.0520
 1198SOL     OW15052   1.013   0.340   4.442 -0.6555  0.2321  0.0016
 1198SOL    HW115053   0.961   0.410   4.480  0.9979  2.2458 -1.4223
 1198SOL    HW215054   1.094   0.390   4.430  0.0507 -0.7038  0.9182
 1199SOL     OW15055   2.162   3.457   5.576 -0.0214  0.6004 -0.0726
 1199SOL    HW115056   2.120   3.426   5.656 -1.7260  0.5330 -1.0036
 1199SOL    HW215057   2.204   3.538   5.604  2.8908 -0.0600 -2.4855
 1200SOL     OW15058   3.650   2.243  14.771 -0.4791  0.1705  0.3886
 1200SOL    HW115059   3.620   2.269  14.685 -0.5886 -2.3048 -0.3146
 1200SOL    HW215060   3.743   2.263  14.760 -0.1638 -0.5893  1.6213
 1201SOL     OW15061   4.161   0.077  16.009 -0.2806  0.1240  0.5034
 1201SOL    HW115062   4.207   4.716  16.001 -2.4854 -1.1388  1.1684
 1201SOL    HW215063   4.221   0.133  15.960 -1.1496  1.0425  0.5065
 1202SOL     OW15064   1.674   0.186   4.195  0.1188 -0.2992  0.2015
 1202SOL    HW115065   1.686   0.227   4.110  1.5467 -2.7111 -0.7493
 1202SOL    HW215066   1.717   0.103   4.177  1.4833  0.3115  0.6616
 1203SOL     OW15067   1.279   2.587   2.863  0.0355  0.0300  0.3298
 1203SOL    HW115068   1.210   2.531   2.897 -1.4340  1.1543 -0.7860
 1203SOL    HW215069   1.349   2.522   2.869 -0.3233 -0.3177  0.7380
 1204SOL     OW15070   2.463   3.322   3.982  0.0136  0.2502 -0.0767
 1204SOL    HW115071   2.383   3.340   4.033  0.4211 -1.4024  1.1499
 1204SOL    HW215072   2.523   3.391   4.008  0.1933  0.3742 -0.8215
 1205SOL     OW15073   1.366   4.040  17.349 -0.0755 -0.1602  0.3121
 1205SOL    HW115074   1.327   3.984  17.415  0.8389 -0.6190  0.4634
 1205SOL    HW215075   1.345   3.991  17.269  0.8125 -1.3221  0.7949
 1206SOL     OW15076   2.821   2.734   3.032  0.5434 -0.4840 -0.2855
 1206SOL    HW115077   2.763   2.710   2.960  1.5186  0.4127 -1.3632
 1206SOL    HW215078   2.882   2.794   2.989 -0.6321  0.4464 -0.6602
 1207SOL     OW15079   2.268   0.661   6.347 -0.1636 -0.0214  0.0198
 1207SOL    HW115080   2.255   0.573   6.313 -3.2988  0.7474 -0.7421
 1207SOL    HW215081   2.322   0.695   6.276 -2.3461  0.9546 -1.1552
 1208SOL     OW15082   2.803   3.275   2.811 -0.3925  0.6294  0.3529
 1208SOL    HW115083   2.761   3.214   2.871 -1.6624  0.5869 -0.5785
 1208SOL    HW215084   2.824   3.214   2.740  2.2796  3.6809 -1.4859
 1209SOL     OW15085   4.444   3.795   2.777  0.6079  0.5265  0.1381
 1209SOL    HW115086   4.501   3.865   2.808  1.5229 -0.1466 -0.0111
 1209SOL    HW215087   4.395   3.847   2.714 -1.0762 -0.3907  0.7009
 1210SOL     OW15088   2.254   0.610  15.133 -0.2848  0.2505 -0.2190
 1210SOL    HW115089   2.318   0.663  15.086  2.4336 -2.5108  0.3197
 1210SOL    HW215090   2.305   0.539  15.172 -1.6509 -0.2254  0.7245
 1211SOL     OW15091   2.378   3.281   5.689 -0.0746  0.5625 -0.5602
 1211SOL    HW115092   2.432   3.284   5.768 -3.3872 -1.0654  1.7685
 1211SOL    HW215093   2.445   3.299   5.623 -0.1403  0.8028 -0.5608
 1212SOL     OW15094   2.461   1.197  10.770 -0.4284 -0.2651 -0.0810
 1212SOL    HW115095   2.412   1.243  10.702  0.3876  1.8509  0.7382
 1212SOL    HW215096   2.471   1.109  10.736 -1.4622 -1.6790  3.2884
 1213SOL     OW15097   0.724   1.108   9.562  0.2022  0.6994 -0.7175
 1213SOL    HW115098   0.795   1.170   9.578 -0.8348  1.2925  1.6318
 1213SOL    HW215099   0.775   1.029   9.581 -0.0275  0.4769 -1.0231
 1214SOL     OW15100   0.477   3.588   1.094  0.0361 -0.0284  0.7085
 1214SOL    HW115101   0.426   3.592   1.013 -0.3745  0.6326  1.0047
 1214SOL    HW215102   0.549   3.533   1.061 -1.5307 -0.9627 -1.1675
 1215SOL     OW15103   4.269   0.732   9.549  0.0038 -0.2229 -0.1479
 1215SOL    HW115104   4.254   0.815   9.595 -1.1527 -0.1759 -0.6074
 1215SOL    HW215105   4.180   0.702   9.532  0.3165  0.1187 -2.3554
 1216SOL     OW15106   0.931   0.881   3.163  0.1705  0.3592 -0.1615
 1216SOL    HW115107   1.002   0.940   3.188 -1.2672  2.1601 -0.3029
 1216SOL    HW215108   0.886   0.917   3.087 -0.1165  0.1846 -0.0753
 1217SOL     OW15109   0.916   0.062   0.995 -0.0493 -0.8969 -0.0253
 1217SOL    HW115110   0.991   0.122   0.987 -0.6588 -0.2046 -0.5712
 1217SOL    HW215111   0.954   4.712   1.043  0.2066 -0.5029  0.3776
 1218SOL     OW15112   2.812   0.612  10.005  0.0212  0.1601 -0.0622
 1218SOL    HW115113   2.755   0.687  10.021 -1.2721 -0.6074 -1.0489
 1218SOL    HW215114   2.791   0.563  10.084  0.5879 -1.0825 -0.6665
 1219SOL     OW15115   0.826   1.050  10.972  0.5239 -0.8282 -0.7870
 1219SOL    HW115116   0.784   0.989  11.033 -0.3733  1.4408  0.8504
 1219SOL    HW215117   0.891   1.103  11.019  0.4427 -0.9239 -0.5644
 1220SOL     OW15118   0.473   4.589   3.259 -0.0767 -0.2010 -0.1005
 1220SOL    HW115119   0.539   4.585   3.190  0.9180 -0.1207  0.8523
 1220SOL    HW215120   0.445   4.498   3.270 -1.5198  0.2752  0.1840
 1221SOL     OW15121   0.674   4.428  13.886  0.4657 -0.2170 -0.0818
 1221SOL    HW115122   0.727   4.379  13.824  0.4420 -1.1970  0.6715
 1221SOL    HW215123   0.586   4.420  13.848  0.3582 -0.4741  0.2226
 1222SOL     OW15124   2.486   2.209  16.748 -0.2477  0.2432  0.4812
 1222SOL    HW115125   2.511   2.196  16.839 -0.2614 -0.6784  0.3553
 1222SOL    HW215126   2.444   2.126  16.724  0.1491  0.9715 -2.6868
 1223SOL     OW15127   4.095   2.571   4.523 -0.3869 -0.0616  0.6863
 1223SOL    HW115128   4.174   2.534   4.483 -1.8844  0.9140 -3.1046
 1223SOL    HW215129   4.093   2.502   4.590 -0.0565 -0.1328  0.6274
 1224SOL     OW15130   2.284   1.146   1.513 -1.0474 -0.2534  1.1429
 1224SOL    HW115131   2.378   1.132   1.522 -0.6073  1.5065 -0.6600
 1224SOL    HW215132   2.258   1.218   1.570 -0.9870  0.9864 -0.3932
 1225SOL     OW15133   1.283   3.256   2.810 -0.2659  0.2727  0.1137
 1225SOL    HW115134   1.218   3.326   2.803  0.0254  0.4833 -0.5029
 1225SOL    HW215135   1.371   3.293   2.799  0.0611  0.0015  1.7517
 1226SOL     OW15136   0.962   1.391   4.337 -0.0985 -0.0971 -0.2794
 1226SOL    HW115137   0.868   1.383   4.348 -0.1951  0.8679 -0.4189
 1226SOL    HW215138   0.981   1.348   4.254 -0.9566  1.8220 -1.4600
 1227SOL     OW15139   0.236   2.010  16.891  0.1567 -0.0334  0.0448
 1227SOL    HW115140   0.211   2.009  16.983 -0.2967  0.2369 -0.0712
 1227SOL    HW215141   0.312   1.952  16.894  1.7723  2.0768  0.0923
 1228SOL     OW15142   2.840   0.567   0.589 -0.0582 -0.0406  0.0399
 1228SOL    HW115143   2.899   0.545   0.661  1.7404  0.7149 -1.1956
 1228SOL    HW215144   2.910   0.598   0.531 -1.3110  0.0560 -1.4067
 1229SOL     OW15145   4.197   0.715   6.144 -0.6750  0.6130 -0.1002
 1229SOL    HW115146   4.245   0.642   6.183  0.8921 -1.0003 -5.0970
 1229SOL    HW215147   4.214   0.696   6.052 -3.2813 -0.5205 -0.3376
 1230SOL     OW15148   2.803   4.051  15.221  0.1315 -0.0209 -0.0592
 1230SOL    HW115149   2.730   4.092  15.266  0.0019  0.7314 -0.9544
 1230SOL    HW215150   2.767   3.963  15.212  0.2607 -0.2348  1.4502
 1231SOL     OW15151   0.527   1.901  15.834 -0.3217 -0.1867 -0.1767
 1231SOL    HW115152   0.517   1.806  15.827  0.5104 -0.1959 -1.2255
 1231SOL    HW215153   0.471   1.926  15.761  0.4477  2.0161  0.0057
 1232SOL     OW15154   1.532   1.238  11.340 -0.4551 -0.3389 -0.3211
 1232SOL    HW115155   1.605   1.296  11.362 -0.4488 -0.8616  1.0727
 1232SOL    HW215156   1.466   1.304  11.319 -0.1998  0.0711  0.1459
 1233SOL     OW15157   0.964   4.319   7.834 -0.2815  0.0614  0.0048
 1233SOL    HW115158   0.958   4.384   7.903  0.3747  0.8526 -0.6844
 1233SOL    HW215159   1.057   4.316   7.814 -0.1012 -0.1994  0.9046
 1234SOL     OW15160   1.038   4.220  14.507 -0.2605 -0.3487  0.1708
 1234SOL    HW115161   1.057   4.130  14.534  2.1345 -0.1222 -0.7746
 1234SOL    HW215162   0.944   4.226  14.495 -0.3657 -0.9756  0.6541
 1235SOL     OW15163   0.481   2.813   6.900  0.0935 -0.1300  0.2212
 1235SOL    HW115164   0.424   2.870   6.952 -2.1986 -0.5423 -1.8416
 1235SOL    HW215165   0.481   2.736   6.956  1.9474  1.4798  2.4313
 1236SOL     OW15166   2.122   1.044   7.411 -0.6661 -0.1756  0.3278
 1236SOL    HW115167   2.057   1.014   7.348  1.2355 -0.6136 -1.4476
 1236SOL    HW215168   2.177   0.967   7.395  0.9935  0.7672  1.3959
 1237SOL     OW15169   2.555   2.906   3.800  0.2197  0.1072 -0.3598
 1237SOL    HW115170   2.585   2.995   3.785 -3.1775  1.8931  3.2927
 1237SOL    HW215171   2.482   2.923   3.860 -0.0547  0.5455 -0.8190
 1238SOL     OW15172   1.899   1.644  14.212 -0.9760  0.7176 -0.2558
 1238SOL    HW115173   1.923   1.665  14.122 -3.8018  0.6646 -1.0330
 1238SOL    HW215174   1.889   1.734  14.242  3.5720  1.2937 -0.4714
 1239SOL     OW15175   1.715   1.611  17.151  0.3119 -0.0701  0.4971
 1239SOL    HW115176   1.676   1.555  17.218  0.3282 -0.5836  0.0822
 1239SOL    HW215177   1.802   1.573  17.153 -0.8279 -2.6787  0.4595
 1240SOL     OW15178   2.038   1.053   4.730  0.0148  0.0384 -0.1322
 1240SOL    HW115179   2.063   1.007   4.650  0.1027  0.5188 -0.3812
 1240SOL    HW215180   1.988   0.981   4.769 -1.5109  1.2428  0.1264
 1241SOL     OW15181   2.386   2.288  15.080  0.2009  0.1375  0.1803
 1241SOL    HW115182   2.474   2.320  15.060  1.3181 -1.3881  2.5846
 1241SOL    HW215183   2.336   2.325  15.007 -0.2063  2.5546  1.6955
 1242SOL     OW15184   2.718   0.035   1.756 -0.0212  0.1489 -0.2009
 1242SOL    HW115185   2.767   0.033   1.674 -1.1128  0.1631 -0.8524
 1242SOL    HW215186   2.730   0.129   1.775  0.4599 -0.1805  1.1492
 1243SOL     OW15187   4.210   3.369   4.921  0.7307  0.1234  0.5479
 1243SOL    HW115188   4.183   3.438   4.981  0.1478 -0.6998  1.2325
 1243SOL    HW215189   4.146   3.303   4.946 -0.8562  1.7249  0.6892
 1244SOL     OW15190   1.574   3.814   6.125  0.2057 -0.3918  0.2815
 1244SOL    HW115191   1.603   3.747   6.063 -2.4008 -1.3708  0.1128
 1244SOL    HW215192   1.487   3.843   6.097  1.0196  0.1828 -1.6613
 1245SOL     OW15193   0.845   3.339   2.697 -0.0550  0.5677 -0.8950
 1245SOL    HW115194   0.925   3.367   2.743 -1.6720 -0.1741  2.3930
 1245SOL    HW215195   0.784   3.368   2.765  0.4828  1.6121 -0.8618
 1246SOL     OW15196   1.381   2.011   2.881  0.2914 -0.0017  0.3219
 1246SOL    HW115197   1.445   1.940   2.880  0.3846  0.0838  0.2726
 1246SOL    HW215198   1.381   2.040   2.790 -2.2555 -1.4475 -0.1586
 1247SOL     OW15199   4.573   2.622  11.546 -0.1725  0.4062 -0.1366
 1247SOL    HW115200   4.585   2.533  11.512  0.1210  0.3522  0.1075
 1247SOL    HW215201   4.606   2.612  11.635 -0.6704  0.1242  0.0202
 1248SOL     OW15202   2.485   0.066  17.587  0.3032  0.1776 -1.0978
 1248SOL    HW115203   2.571   0.107  17.591 -0.6625  2.1763 -0.8477
 1248SOL    HW215204   2.503   0.009  17.512  0.9613 -1.6522  0.4544
 1249SOL     OW15205   1.222   1.063   2.505 -0.2921 -0.0846 -0.3272
 1249SOL    HW115206   1.310   1.037   2.477  0.1721  1.0734  0.0823
 1249SOL    HW215207   1.176   1.035   2.425 -0.0190 -2.6490  0.4244
 1250SOL     OW15208   3.187   3.483   8.738 -0.1676  0.0490  0.6912
 1250SOL    HW115209   3.196   3.437   8.822 -2.3573  0.7039  1.2806
 1250SOL    HW215210   3.275   3.523   8.733 -1.3347  2.7993  1.9208
 1251SOL     OW15211   1.882   3.960   5.211  0.4712  0.2506 -0.1033
 1251SOL    HW115212   1.912   3.980   5.122  0.5912  0.8556  0.0727
 1251SOL    HW215213   1.810   4.020   5.233  1.1516  0.2101  2.2500
 1252SOL     OW15214   4.701   2.782  10.798 -0.3285 -0.3963  0.7846
 1252SOL    HW115215   4.677   2.703  10.846  1.2263 -2.0528 -1.1658
 1252SOL    HW215216   4.641   2.848  10.833 -2.9654 -1.2372 -2.1318
 1253SOL     OW15217   4.486   0.729   6.489 -0.1071 -0.2320  0.7040
 1253SOL    HW115218   4.394   0.749   6.503 -0.1981 -0.7499  0.8483
 1253SOL    HW215219   4.475   0.642   6.450 -0.7489  0.2923 -0.2649
 1254SOL     OW15220   4.361   4.403  11.503  0.2969  0.1079  0.0580
 1254SOL    HW115221   4.372   4.378  11.595 -0.1224  1.9708  0.6105
 1254SOL    HW215222   4.267   4.422  11.506  0.1634 -0.3277 -1.3837
 1255SOL     OW15223   3.344   2.291   1.444 -0.2299 -0.1347  0.7881
 1255SOL    HW115224   3.437   2.267   1.440 -0.3540 -0.8809  2.2681
 1255SOL    HW215225   3.306   2.209   1.412  0.9939 -0.8867  1.2691
 1256SOL     OW15226   2.259   1.270   7.501  0.4537 -0.9771  0.3005
 1256SOL    HW115227   2.193   1.203   7.481 -1.0963  1.1854 -1.7882
 1256SOL    HW215228   2.235   1.304   7.587  0.8618 -0.4256  0.1963
 1257SOL     OW15229   4.016   3.667  16.245 -0.6266  0.2765 -0.8420
 1257SOL    HW115230   3.971   3.597  16.197  1.9205 -0.5280 -2.0734
 1257SOL    HW215231   3.959   3.740  16.220  0.0609  1.5828  1.4169
 1258SOL     OW15232   3.683   0.071   2.038  0.6978  0.4645 -0.1366
 1258SOL    HW115233   3.641   0.072   2.124 -0.7324  0.4250 -0.8425
 1258SOL    HW215234   3.636   4.722   1.997 -0.0658 -0.3642  2.1931
 1259SOL     OW15235   2.912   2.362   2.863  0.3787 -0.0406  0.2280
 1259SOL    HW115236   2.906   2.393   2.773  0.5015 -1.2174 -0.1913
 1259SOL    HW215237   2.821   2.346   2.885  0.5889 -1.6209 -0.0561
 1260SOL     OW15238   2.039   1.365   7.001 -0.3637  0.1057  0.5479
 1260SOL    HW115239   2.054   1.453   6.966  0.0361 -0.1372  0.1002
 1260SOL    HW215240   2.102   1.318   6.946 -0.2784  0.8476  0.0148
 1261SOL     OW15241   0.795   0.828  11.157 -0.2727 -0.6457 -0.3279
 1261SOL    HW115242   0.783   0.825  11.252 -1.8095 -0.6556 -0.5167
 1261SOL    HW215243   0.891   0.821  11.158 -0.1231  1.3693  0.1842
 1262SOL     OW15244   2.140   0.501   5.964  0.1326 -0.0059  0.0058
 1262SOL    HW115245   2.080   0.431   5.936 -0.8095  0.2744  1.2975
 1262SOL    HW215246   2.223   0.454   5.960  0.9989  1.4795  0.5464
 1263SOL     OW15247   4.487   2.859   6.167 -0.2114 -0.5564 -0.0304
 1263SOL    HW115248   4.571   2.888   6.203  0.2364  0.6305 -2.0367
 1263SOL    HW215249   4.456   2.795   6.231 -2.6390  0.2286 -0.4295
 1264SOL     OW15250   2.297   1.960   9.160 -0.3690 -0.2200 -0.1724
 1264SOL    HW115251   2.366   2.021   9.185 -0.1831 -1.4769  2.3763
 1264SOL    HW215252   2.264   1.988   9.074  0.7491  0.5836 -0.3396
 1265SOL     OW15253   2.879   3.635   5.596  0.3737 -0.0180  0.1469
 1265SOL    HW115254   2.861   3.690   5.672  0.2149  0.0064  0.0915
 1265SOL    HW215255   2.812   3.657   5.532 -1.0227 -2.1667  0.8495
 1266SOL     OW15256   0.680   4.287  15.284  0.0382  0.4860 -0.0762
 1266SOL    HW115257   0.727   4.241  15.352  0.5533 -0.3943 -1.0299
 1266SOL    HW215258   0.596   4.309  15.324 -0.0160 -0.7752  0.4854
 1267SOL     OW15259   2.197   0.318   7.159 -0.2866 -0.0500 -0.1529
 1267SOL    HW115260   2.189   0.257   7.085 -1.5980 -1.0240  0.8005
 1267SOL    HW215261   2.164   0.270   7.235  0.6301 -0.2870  0.1042
 1268SOL     OW15262   3.253   1.707   8.012 -0.2649  0.0262 -0.4582
 1268SOL    HW115263   3.228   1.717   8.103 -3.5096  0.4191 -1.4021
 1268SOL    HW215264   3.274   1.614   8.015  1.2536  0.3831  0.0933
 1269SOL     OW15265   0.750   0.150   8.626 -0.3358 -0.1392 -0.3630
 1269SOL    HW115266   0.766   0.217   8.692 -1.6262 -1.1209  0.9326
 1269SOL    HW215267   0.656   0.135   8.629 -0.0710 -1.5694  0.6915
 1270SOL     OW15268   4.418   1.976   5.836  0.0958 -0.3390  0.0989
 1270SOL    HW115269   4.329   1.988   5.802  0.1293  3.8270  1.4521
 1270SOL    HW215270   4.409   1.890   5.877  0.8099 -0.1909  0.5591
 1271SOL     OW15271   0.681   4.370  10.317  0.6347  0.4718 -0.2931
 1271SOL    HW115272   0.720   4.457  10.315 -0.6902  1.0265 -1.9102
 1271SOL    HW215273   0.627   4.369  10.396 -1.1358 -2.9610 -1.5417
 1272SOL     OW15274   1.943   0.533   2.479  0.1895  0.4683 -0.3877
 1272SOL    HW115275   1.904   0.485   2.406  2.2037 -0.6890 -0.6939
 1272SOL    HW215276   1.867   0.539   2.538 -0.9489 -1.9832 -1.5914
 1273SOL     OW15277   3.462   2.648   6.303  0.0068 -0.1557 -0.3271
 1273SOL    HW115278   3.376   2.649   6.346 -2.2706 -3.0184 -4.8085
 1273SOL    HW215279   3.516   2.591   6.359 -1.8939 -1.5282  0.0964
 1274SOL     OW15280   1.036   1.017  16.947 -0.2584 -0.0424  0.0150
 1274SOL    HW115281   0.960   1.059  16.908  0.4893  1.7574  0.4731
 1274SOL    HW215282   1.100   1.089  16.939 -1.0775  0.8854  1.7962
 1275SOL     OW15283   1.261   2.581   5.402  0.0305  0.1680 -0.6841
 1275SOL    HW115284   1.173   2.567   5.368 -0.8946  1.9850  0.9270
 1275SOL    HW215285   1.309   2.579   5.320  0.2693  0.9394 -0.5577
 1276SOL     OW15286   4.289   0.861   8.248  0.2744  0.0677 -0.6683
 1276SOL    HW115287   4.240   0.943   8.252  2.4589  1.3160  0.4073
 1276SOL    HW215288   4.294   0.856   8.153  2.8964  2.0667 -0.6160
 1277SOL     OW15289   0.092   2.732  12.771 -0.2628  0.3376  0.0981
 1277SOL    HW115290   0.156   2.756  12.704 -0.9319 -1.4475 -1.1832
 1277SOL    HW215291   0.029   2.803  12.758 -1.4750 -0.9780 -1.3069
 1278SOL     OW15292   4.411   1.736   5.928 -0.5698  0.0684 -0.2505
 1278SOL    HW115293   4.478   1.671   5.902  0.7005  1.2712  0.0188
 1278SOL    HW215294   4.336   1.678   5.938 -1.0916  0.7259 -0.3559
 1279SOL     OW15295   0.761   3.201   8.877  0.5345  0.0677 -0.1102
 1279SOL    HW115296   0.827   3.131   8.879  0.0976 -0.3805 -1.2907
 1279SOL    HW215297   0.682   3.152   8.898  1.4852 -1.2313  0.4381
 1280SOL     OW15298   0.537   1.996   4.070 -0.6188 -0.2471  0.2925
 1280SOL    HW115299   0.591   2.040   4.135  0.3697  0.4094 -0.9601
 1280SOL    HW215300   0.557   2.057   3.999  1.6263 -0.7161  0.5121
 1281SOL     OW15301   1.505   2.764   6.209 -0.0537 -0.1967  0.1426
 1281SOL    HW115302   1.450   2.728   6.278  2.8586  0.1687  2.6299
 1281SOL    HW215303   1.465   2.728   6.129  0.8941  1.7375 -1.2037
 1282SOL     OW15304   1.079   2.724  16.487  0.2054  0.7321 -0.2961
 1282SOL    HW115305   0.989   2.697  16.470  0.3297 -0.1095  0.3890
 1282SOL    HW215306   1.120   2.696  16.405 -0.5070  3.0765 -1.4632
 1283SOL     OW15307   1.887   0.701   5.027 -0.7447  0.4600  0.7553
 1283SOL    HW115308   1.923   0.720   5.113 -0.0020 -1.9809  0.9963
 1283SOL    HW215309   1.798   0.680   5.056 -1.2504  0.1140 -1.0454
 1284SOL     OW15310   3.617   3.594  13.485 -0.5745  0.0872  0.3466
 1284SOL    HW115311   3.548   3.645  13.528 -2.5338 -0.9556 -1.5409
 1284SOL    HW215312   3.696   3.647  13.495 -1.3515  1.2200  0.6116
 1285SOL     OW15313   3.918   3.470   1.076  0.1504 -0.2958  0.1154
 1285SOL    HW115314   4.004   3.507   1.092 -0.6550  2.0360 -0.9733
 1285SOL    HW215315   3.933   3.390   1.126  0.0190 -0.4780 -0.1329
 1286SOL     OW15316   0.297   1.737  13.531  0.2968  0.5154  0.3992
 1286SOL    HW115317   0.259   1.813  13.488  0.3014 -0.3110 -1.0706
 1286SOL    HW215318   0.386   1.771  13.529  0.2388  0.4670 -2.4272
 1287SOL     OW15319   3.127   1.841   7.383  0.3515  0.0478 -0.4455
 1287SOL    HW115320   3.217   1.872   7.379  0.5536 -0.4524  0.3138
 1287SOL    HW215321   3.111   1.845   7.477  2.4047  1.4642 -0.1612
 1288SOL     OW15322   3.769   2.422   1.125  0.1354  0.2931  0.0506
 1288SOL    HW115323   3.811   2.337   1.127 -0.9447 -0.2397 -0.0741
 1288SOL    HW215324   3.847   2.475   1.110 -0.3350  0.7999 -0.6229
 1289SOL     OW15325   1.277   1.027   8.709  0.0214 -0.0733 -0.1615
 1289SOL    HW115326   1.189   1.014   8.673  0.1582  0.1661 -0.5852
 1289SOL    HW215327   1.288   0.934   8.729  1.7521  0.4057  1.0557
 1290SOL     OW15328   0.659   0.500  16.136 -0.2886  0.3917  0.0685
 1290SOL    HW115329   0.719   0.426  16.146  0.9127  1.1218 -1.9027
 1290SOL    HW215330   0.591   0.479  16.201 -0.7232 -0.2722 -0.6018
 1291SOL     OW15331   0.280   4.031   3.191  0.4440  0.1974  0.6325
 1291SOL    HW115332   0.234   3.964   3.141  1.3426  0.7892 -1.0121
 1291SOL    HW215333   0.211   4.078   3.238 -1.8344 -2.7143  0.2436
 1292SOL     OW15334   1.251   1.680   9.870 -0.2936  0.2560 -0.1362
 1292SOL    HW115335   1.257   1.611   9.936  1.5891  1.3001  0.7903
 1292SOL    HW215336   1.295   1.753   9.914  0.8270 -2.2699  3.0047
 1293SOL     OW15337   2.063   3.098   5.015  0.4126 -0.5552  0.0560
 1293SOL    HW115338   2.158   3.089   5.019  0.3424 -1.4440 -0.3207
 1293SOL    HW215339   2.059   3.188   4.981  1.2233 -0.7481 -0.5445
 1294SOL     OW15340   1.132   4.330  10.506 -0.2041  0.0233  0.2312
 1294SOL    HW115341   1.143   4.359  10.596  0.7318  1.2009 -0.2608
 1294SOL    HW215342   1.152   4.411  10.459  1.6690  0.5273  1.8789
 1295SOL     OW15343   4.528   3.047   1.539 -0.5073 -0.4596 -0.1654
 1295SOL    HW115344   4.540   3.016   1.449 -2.0470 -1.7580  0.0902
 1295SOL    HW215345   4.524   3.142   1.529  1.7805 -0.2110  1.2198
 1296SOL     OW15346   2.321   2.156  10.804 -0.4881  0.4635 -0.4446
 1296SOL    HW115347   2.274   2.136  10.884  2.1479  0.5858  1.1265
 1296SOL    HW215348   2.251   2.196  10.751 -0.2602  0.8379 -0.4634
 1297SOL     OW15349   0.407   4.616   5.183  0.0786 -0.7422 -0.4991
 1297SOL    HW115350   0.485   4.597   5.131 -0.4159 -1.3901 -1.0071
 1297SOL    HW215351   0.379   4.695   5.136  0.9394 -0.3511 -0.3560
 1298SOL     OW15352   0.650   1.398   4.256  0.0142 -1.1298  0.2714
 1298SOL    HW115353   0.575   1.452   4.232  1.3173  0.0732 -1.0969
 1298SOL    HW215354   0.665   1.431   4.344  1.2201 -0.5420 -0.1616
 1299SOL     OW15355   4.644   4.492  10.559  0.1016 -0.1971  0.1867
 1299SOL    HW115356   4.709   4.553  10.523 -0.3570  0.0631 -0.2082
 1299SOL    HW215357   4.664   4.411  10.512 -0.1531 -0.0447 -0.1850
 1300SOL     OW15358   1.235   3.092   0.506  0.7301 -0.6152  0.1445
 1300SOL    HW115359   1.302   3.142   0.459  0.0249 -0.4825 -0.7098
 1300SOL    HW215360   1.253   3.001   0.484  0.2216 -0.8172  0.5670
 1301SOL     OW15361   1.273   3.330  15.315 -0.2944  0.1762  0.1095
 1301SOL    HW115362   1.212   3.325  15.389 -0.3720 -1.7538 -0.0778
 1301SOL    HW215363   1.303   3.418  15.335  2.2988 -0.6603 -0.1262
 1302SOL     OW15364   4.723   4.649   4.046 -0.1845 -0.6550  0.1470
 1302SOL    HW115365   4.657   4.600   4.096 -0.5154 -1.2464 -0.8489
 1302SOL    HW215366   4.666   4.662   3.970 -0.7575 -1.0193  0.5125
 1303SOL     OW15367   0.886   2.195   2.971 -0.1656 -0.1011  0.0307
 1303SOL    HW115368   0.802   2.239   2.958 -0.4360 -0.9056 -0.9307
 1303SOL    HW215369   0.902   2.196   3.065  2.4000  1.7551 -0.4319
 1304SOL     OW15370   3.928   3.311   1.294  0.0001  0.1837 -0.0274
 1304SOL    HW115371   4.007   3.275   1.335 -1.5660 -3.0656  0.1373
 1304SOL    HW215372   3.859   3.245   1.302 -1.6955  1.7409 -1.9387
 1305SOL     OW15373   4.119   3.856   3.201  0.1171  0.1905  0.1039
 1305SOL    HW115374   4.164   3.787   3.249 -0.1004  0.3433  0.5327
 1305SOL    HW215375   4.151   3.934   3.246 -2.0505  0.5441  1.0347
 1306SOL     OW15376   3.529   2.383  13.064 -0.5037  0.1852  0.6718
 1306SOL    HW115377   3.457   2.323  13.082 -0.1471 -0.3505  0.3212
 1306SOL    HW215378   3.559   2.351  12.979  0.6238 -0.2735  1.2370
 1307SOL     OW15379   3.883   4.336  12.941 -0.0450  0.4161  0.7487
 1307SOL    HW115380   3.842   4.251  12.955  0.3395  0.0004 -0.6425
 1307SOL    HW215381   3.950   4.315  12.876 -1.3753  0.9105 -0.7768
 1308SOL     OW15382   1.773   1.500   1.949 -0.0206  0.1685  0.0523
 1308SOL    HW115383   1.805   1.486   1.860  0.3676 -0.9570  0.3711
 1308SOL    HW215384   1.835   1.570   1.969  0.1185 -0.0034  0.2238
 1309SOL     OW15385   3.577   2.224   7.835  0.4614  0.0140  0.2218
 1309SOL    HW115386   3.663   2.181   7.831  1.2921  1.5910  1.0741
 1309SOL    HW215387   3.578   2.261   7.923 -0.6032  0.0635  0.2169
 1310SOL     OW15388   2.510   4.320   5.941 -0.1288  0.4511  0.2477
 1310SOL    HW115389   2.454   4.290   6.013 -2.2258 -1.9143 -2.3336
 1310SOL    HW215390   2.587   4.263   5.940 -0.1616  0.4013  0.5466
 1311SOL     OW15391   2.575   3.572   4.493  0.0313  0.1562 -0.0844
 1311SOL    HW115392   2.663   3.540   4.474  0.5407  2.0976 -0.9048
 1311SOL    HW215393   2.543   3.585   4.404 -0.3294  1.9954  0.3145
 1312SOL     OW15394   0.474   2.193  13.312  0.3908  0.0562  0.1751
 1312SOL    HW115395   0.458   2.179  13.406 -0.7539  3.1555  0.4582
 1312SOL    HW215396   0.389   2.229  13.288  1.9781  3.1785 -0.7917
 1313SOL     OW15397   3.602   3.376   2.895 -0.4706  0.8930 -0.3007
 1313SOL    HW115398   3.574   3.342   2.810 -3.4044  1.2892  0.4949
 1313SOL    HW215399   3.530   3.438   2.909 -0.0020  0.9893  1.6088
 1314SOL     OW15400   0.102   4.099   0.800 -0.3160 -0.0055  0.1098
 1314SOL    HW115401   0.068   4.014   0.830 -0.3940  0.3091  0.9308
 1314SOL    HW215402   0.027   4.157   0.788 -0.2869 -0.4546 -2.0855
 1315SOL     OW15403   0.235   2.241   6.921 -0.3160  0.2839  0.4470
 1315SOL    HW115404   0.172   2.292   6.971  0.5824  0.8288  1.0300
 1315SOL    HW215405   0.257   2.301   6.851  0.2937  0.7050  0.9981
 1316SOL     OW15406   1.485   3.013   0.915 -0.2670 -0.2394  0.0795
 1316SOL    HW115407   1.401   3.027   0.957 -1.0349 -2.7200 -0.6256
 1316SOL    HW215408   1.483   2.921   0.887 -0.4849  0.6516 -2.8373
 1317SOL     OW15409   0.265   1.858   8.049  0.5370  0.3286 -0.0580
 1317SOL    HW115410   0.242   1.852   7.957  1.7826  1.5173 -0.4478
 1317SOL    HW215411   0.288   1.951   8.056 -0.8157  0.7753 -1.6511
 1318SOL     OW15412   1.325   2.366  16.207 -0.4507 -0.3940 -0.2139
 1318SOL    HW115413   1.268   2.326  16.272 -0.0462 -1.1599 -0.3237
 1318SOL    HW215414   1.286   2.339  16.124 -0.0731 -1.8912  0.0861
 1319SOL     OW15415   3.603   2.602  13.239  0.2691  0.3755  0.0418
 1319SOL    HW115416   3.541   2.569  13.303 -0.5175 -1.1232 -1.5096
 1319SOL    HW215417   3.566   2.556  13.164 -1.2622 -0.3690  1.2690
 1320SOL     OW15418   2.468   3.806   5.073  0.1870 -0.1009  0.1097
 1320SOL    HW115419   2.479   3.873   5.005 -0.9419  0.3116  0.3228
 1320SOL    HW215420   2.398   3.844   5.127 -0.5945 -0.7957 -0.3986
 1321SOL     OW15421   2.737   0.227   7.346 -0.1248 -0.7332 -0.4897
 1321SOL    HW115422   2.727   0.177   7.427 -0.4860 -0.1459 -0.1778
 1321SOL    HW215423   2.820   0.273   7.359 -0.6800  0.1820 -0.2044
 1322SOL     OW15424   3.508   0.903   6.194  0.0151 -0.2738  0.1052
 1322SOL    HW115425   3.461   0.845   6.254  0.5324 -0.4403  0.3453
 1322SOL    HW215426   3.447   0.976   6.193 -0.3270 -0.5528  0.6259
 1323SOL     OW15427   1.512   3.782   3.085  0.0384  0.0402  0.1499
 1323SOL    HW115428   1.599   3.750   3.109 -0.5169 -0.1430  1.9616
 1323SOL    HW215429   1.480   3.702   3.044  1.2893 -0.3812  0.0069
 1324SOL     OW15430   1.406   2.358   5.033 -0.2095  0.3280  0.4317
 1324SOL    HW115431   1.360   2.276   5.018 -0.1614  0.1331  1.3385
 1324SOL    HW215432   1.391   2.402   4.949  1.5454  0.1816  0.0507
 1325SOL     OW15433   4.245   3.112  15.837 -0.0542 -0.2570  0.1927
 1325SOL    HW115434   4.276   3.105  15.928  0.6018  1.0137  0.0612
 1325SOL    HW215435   4.151   3.096  15.842 -0.2173  0.7695  0.2567
 1326SOL     OW15436   4.378   2.523   9.275 -0.1078 -0.0736  0.1254
 1326SOL    HW115437   4.385   2.482   9.189  1.1628 -0.8593  0.6163
 1326SOL    HW215438   4.440   2.474   9.329  0.8266 -0.0467 -0.9282
 1327SOL     OW15439   0.126   1.746   5.852 -0.1511  0.4432 -0.4061
 1327SOL    HW115440   0.038   1.711   5.838 -0.5251  1.7788 -1.3456
 1327SOL    HW215441   0.181   1.674   5.883 -0.0085  0.6929 -0.0674
 1328SOL     OW15442   1.460   2.992   3.658 -0.2438 -0.2331  0.1233
 1328SOL    HW115443   1.526   2.978   3.590  1.0599  1.9142  0.9326
 1328SOL    HW215444   1.488   3.077   3.693 -1.2031  1.0323 -2.1776
 1329SOL     OW15445   1.505   3.603  13.807 -0.2644  0.0594 -0.1232
 1329SOL    HW115446   1.427   3.617  13.861  0.2451 -1.4605  1.0216
 1329SOL    HW215447   1.549   3.542  13.866 -1.3351 -0.8051 -0.2002
 1330SOL     OW15448   4.207   1.527  17.251 -0.0832  0.1168 -0.2725
 1330SOL    HW115449   4.269   1.547  17.181 -0.1328 -0.1438 -0.3903
 1330SOL    HW215450   4.191   1.433  17.243  1.1828 -0.1648  0.5515
 1331SOL     OW15451   1.612   1.235   6.543  0.2189 -0.5403 -0.4015
 1331SOL    HW115452   1.541   1.220   6.480  0.0110  0.9082 -0.5295
 1331SOL    HW215453   1.638   1.144   6.556  2.4222  0.1193 -0.2914
 1332SOL     OW15454   4.293   3.532   5.524  0.1896  0.4157  0.0898
 1332SOL    HW115455   4.220   3.473   5.505  0.0787 -0.3199  2.7716
 1332SOL    HW215456   4.372   3.484   5.501  1.8865  2.0127  2.6019
 1333SOL     OW15457   2.932   1.201  13.727  0.2103 -0.3884 -0.3376
 1333SOL    HW115458   2.922   1.222  13.820  0.0344  0.7690 -0.6221
 1333SOL    HW215459   3.027   1.192  13.732  0.2811 -0.4168 -1.6611
 1334SOL     OW15460   0.927   4.357   3.131  0.5594  0.2107 -0.0386
 1334SOL    HW115461   0.943   4.262   3.130 -1.3557 -0.0999 -1.9594
 1334SOL    HW215462   0.859   4.366   3.197 -0.3252  2.4922 -1.2778
 1335SOL     OW15463   0.424   3.526  11.839 -0.3666 -0.3873  0.5059
 1335SOL    HW115464   0.510   3.505  11.804 -0.2903  2.0972 -0.8220
 1335SOL    HW215465   0.453   3.597  11.896 -0.8004  0.4371 -0.2964
 1336SOL     OW15466   2.245   3.488   3.082 -1.0619  0.5438 -0.0210
 1336SOL    HW115467   2.279   3.545   3.152 -0.6887  1.5528 -1.0325
 1336SOL    HW215468   2.311   3.420   3.069 -1.5681 -0.1346  0.9330
 1337SOL     OW15469   2.809   1.698   9.197  0.0552  0.8714 -0.4223
 1337SOL    HW115470   2.826   1.696   9.103 -1.0940  0.0275 -0.6036
 1337SOL    HW215471   2.714   1.709   9.192  0.0834  0.4883 -1.9459
 1338SOL     OW15472   2.777   1.008   2.484  0.3786 -0.3269 -0.2421
 1338SOL    HW115473   2.813   1.096   2.473  0.5625 -0.4585 -0.7279
 1338SOL    HW215474   2.699   1.011   2.429 -0.2237  1.1274  0.7047
 1339SOL     OW15475   3.733   0.192   4.550 -0.2142  0.5332  0.3804
 1339SOL    HW115476   3.672   0.119   4.564  0.3987 -0.1488 -0.5131
 1339SOL    HW215477   3.665   0.259   4.552 -2.0559 -1.2093 -3.2543
 1340SOL     OW15478   1.826   0.809   7.010 -0.0380  0.0877 -0.0631
 1340SOL    HW115479   1.859   0.773   6.928  0.7720  0.8736 -0.0790
 1340SOL    HW215480   1.740   0.768   7.021 -0.8930  1.0059 -3.5408
 1341SOL     OW15481   2.660   3.585   3.415  0.5437  0.7374 -0.0656
 1341SOL    HW115482   2.652   3.493   3.438  5.7016  0.9310  2.6569
 1341SOL    HW215483   2.567   3.608   3.408  0.8041  1.4692 -1.0944
 1342SOL     OW15484   3.213   1.116   6.641  0.5776  0.4279 -0.6000
 1342SOL    HW115485   3.224   1.136   6.734 -2.4915 -0.4813 -0.0662
 1342SOL    HW215486   3.161   1.036   6.637 -2.0322  2.1297 -0.4623
 1343SOL     OW15487   0.690   4.063   5.454  0.3610 -0.4165  0.2153
 1343SOL    HW115488   0.716   3.976   5.483  1.3325 -0.7517 -1.6202
 1343SOL    HW215489   0.777   4.104   5.449  0.1120  0.1755  0.6926
 1344SOL     OW15490   2.629   3.647   9.814 -0.5439  0.1860 -0.0024
 1344SOL    HW115491   2.664   3.569   9.770 -1.2391 -1.2763  2.0202
 1344SOL    HW215492   2.577   3.611   9.886 -0.8130 -0.3300 -0.4624
 1345SOL     OW15493   2.178   3.807   1.931  0.0002 -0.0587 -0.4349
 1345SOL    HW115494   2.242   3.739   1.952  1.1919  0.8226 -1.2899
 1345SOL    HW215495   2.170   3.850   2.016  0.3475  2.6431 -1.7968
 1346SOL     OW15496   3.640   1.107   7.512 -0.0328  0.1701  0.8082
 1346SOL    HW115497   3.662   1.189   7.556 -3.8599  1.8080 -0.3507
 1346SOL    HW215498   3.610   1.142   7.428 -0.4904  1.4534  1.5092
 1347SOL     OW15499   3.526   0.575   6.356  0.2270 -0.5016 -0.2524
 1347SOL    HW115500   3.438   0.538   6.360 -0.3469  1.0305  1.2102
 1347SOL    HW215501   3.554   0.569   6.447 -2.0416  0.8672  0.5537
 1348SOL     OW15502   1.911   4.498   6.911  0.6215  0.0714 -0.2994
 1348SOL    HW115503   1.947   4.500   7.000  1.3678 -3.1578 -0.5541
 1348SOL    HW215504   1.992   4.504   6.860  0.6931  0.2354 -0.1698
 1349SOL     OW15505   2.054   3.931   0.563 -0.2229 -0.1146 -0.1184
 1349SOL    HW115506   2.116   3.928   0.635  0.1749  1.9976 -0.3612
 1349SOL    HW215507   2.079   3.850   0.519  1.4535  0.2457  0.1811
 1350SOL     OW15508   1.110   1.958   7.713 -0.2710 -0.2109 -0.3632
 1350SOL    HW115509   1.029   1.907   7.704 -0.1262 -0.4061 -0.5640
 1350SOL    HW215510   1.176   1.889   7.716 -1.4360 -1.1258  3.4215
 1351SOL     OW15511   2.504   3.502   5.872  0.2963 -0.4168 -0.0381
 1351SOL    HW115512   2.482   3.576   5.815 -0.5025 -1.6001 -1.2582
 1351SOL    HW215513   2.474   3.536   5.957  0.3641  2.0618 -1.0036
 1352SOL     OW15514   3.114   4.307   6.288  0.3270  0.1488  0.1730
 1352SOL    HW115515   3.144   4.228   6.243 -0.6715 -1.6680  2.7008
 1352SOL    HW215516   3.040   4.274   6.338  2.2084 -0.3495  2.5964
 1353SOL     OW15517   4.303   2.084   1.194  0.2897  0.1138  0.4657
 1353SOL    HW115518   4.324   2.072   1.286  0.9293  0.9099  0.4247
 1353SOL    HW215519   4.333   2.005   1.149  1.7943  2.0260 -1.9142
 1354SOL     OW15520   3.006   2.478   4.223 -0.6626  0.0680 -0.1859
 1354SOL    HW115521   2.977   2.544   4.286  1.7390  1.1130 -0.1703
 1354SOL    HW215522   2.985   2.397   4.270 -1.1819  0.5893  0.4793
 1355SOL     OW15523   3.253   0.320   7.265 -0.4055 -0.4257 -0.0276
 1355SOL    HW115524   3.314   0.248   7.282 -0.4050 -0.4923 -0.3148
 1355SOL    HW215525   3.234   0.293   7.175  0.4601 -2.1978  0.3065
 1356SOL     OW15526   3.565   2.351   4.009 -0.1495  0.1766  0.1021
 1356SOL    HW115527   3.558   2.266   4.050  1.2269  0.4704  0.9279
 1356SOL    HW215528   3.582   2.313   3.923  0.2053  0.1906  0.1652
 1357SOL     OW15529   0.012   3.414  17.057  0.0876  0.4477  0.6890
 1357SOL    HW115530   4.715   3.425  16.964  0.5314 -2.9450  0.1859
 1357SOL    HW215531   0.069   3.490  17.066  0.2373  0.3767  0.3258
 1358SOL     OW15532   0.559   4.244   4.448 -0.3017 -0.3020  0.1434
 1358SOL    HW115533   0.510   4.262   4.368 -1.0824 -0.4177  0.5921
 1358SOL    HW215534   0.517   4.301   4.512  1.0875  0.5808  0.2671
 1359SOL     OW15535   2.629   1.142   8.670  0.0671  0.6365 -0.2198
 1359SOL    HW115536   2.683   1.099   8.603 -0.6376 -0.9893  0.2547
 1359SOL    HW215537   2.538   1.142   8.642 -0.1685 -0.0732  0.5420
 1360SOL     OW15538   2.153   4.248   0.812  0.2315 -0.2972 -0.4441
 1360SOL    HW115539   2.196   4.197   0.743  0.8461  0.0519 -0.3210
 1360SOL    HW215540   2.064   4.223   0.788  1.3566 -3.4520 -1.3407
 1361SOL     OW15541   0.619   4.286   6.832  0.1455 -0.6770 -0.3545
 1361SOL    HW115542   0.671   4.343   6.889  0.6647 -0.0271 -1.4708
 1361SOL    HW215543   0.588   4.218   6.891  0.4107 -0.4790  0.0078
 1362SOL     OW15544   2.007   1.673   3.013 -0.0367  0.0107 -0.8414
 1362SOL    HW115545   2.084   1.634   3.054 -0.4792  0.7239  0.6587
 1362SOL    HW215546   1.944   1.601   3.010  0.6671 -0.6152 -0.5068
 1363SOL     OW15547   1.368   4.221   0.099 -0.0386 -0.0337  0.0352
 1363SOL    HW115548   1.281   4.190   0.074  0.2397 -0.5550 -0.2818
 1363SOL    HW215549   1.331   4.307   0.117  0.5322 -0.0510  1.2599
 1364SOL     OW15550   3.437   0.721   1.627  0.1221 -0.0568 -0.0636
 1364SOL    HW115551   3.431   0.652   1.561 -0.6396 -1.2619  1.2624
 1364SOL    HW215552   3.344   0.725   1.651  0.0679 -0.0836 -0.2701
 1365SOL     OW15553   4.528   2.572   7.081  0.1614  0.4647 -0.3973
 1365SOL    HW115554   4.540   2.612   7.167  0.5050 -2.3427  0.8629
 1365SOL    HW215555   4.443   2.612   7.061  0.5579  0.3717 -2.2831
 1366SOL     OW15556   1.945   3.210   8.386 -0.6753 -0.1969  0.1283
 1366SOL    HW115557   1.912   3.298   8.404 -1.3159 -0.4416  0.1864
 1366SOL    HW215558   2.039   3.222   8.376 -0.5631 -2.0872 -1.1700
 1367SOL     OW15559   1.618   4.202  15.153  0.5289 -0.2122  0.2226
 1367SOL    HW115560   1.607   4.242  15.239 -3.3216 -0.5369 -0.0992
 1367SOL    HW215561   1.711   4.212  15.135  0.4567  1.6749  0.8980
 1368SOL     OW15562   0.775   4.506   2.087 -0.0391 -0.0555  0.3002
 1368SOL    HW115563   0.813   4.437   2.141 -0.3145 -0.5892 -0.1977
 1368SOL    HW215564   0.803   4.482   1.999 -1.0172  1.4040 -0.4236
 1369SOL     OW15565   4.184   0.897   7.083 -0.3484  0.8990 -0.2304
 1369SOL    HW115566   4.200   0.991   7.093  1.9794  0.7042 -1.9620
 1369SOL    HW215567   4.272   0.861   7.100 -1.1212  0.0962  2.0045
 1370SOL     OW15568   1.461   3.982   3.472 -0.7230  0.0137  0.2368
 1370SOL    HW115569   1.532   3.917   3.474  1.0640  2.0164  2.3295
 1370SOL    HW215570   1.475   4.040   3.547 -0.1553  1.2240 -0.8091
 1371SOL     OW15571   4.563   1.646   0.197 -0.1838 -0.2105 -0.3984
 1371SOL    HW115572   4.511   1.593   0.137  1.5624 -2.1085 -0.2403
 1371SOL    HW215573   4.504   1.647   0.272 -1.5225  2.6169 -1.4686
 1372SOL     OW15574   4.367   0.258  16.807  0.8345  0.5397  0.4036
 1372SOL    HW115575   4.386   0.250  16.900  0.0648 -0.5877  0.4717
 1372SOL    HW215576   4.321   0.342  16.804 -1.4927 -0.6769  2.4837
 1373SOL     OW15577   2.924   3.397   1.722 -0.6873  0.2568 -0.3519
 1373SOL    HW115578   3.005   3.440   1.750  0.1108 -2.3006  1.2695
 1373SOL    HW215579   2.905   3.330   1.787 -0.5531  0.0570 -0.5165
 1374SOL     OW15580   2.550   4.183  10.764 -0.6356 -0.2502 -0.1566
 1374SOL    HW115581   2.545   4.271  10.801  1.7630  0.0203 -0.4810
 1374SOL    HW215582   2.476   4.187  10.703  1.2816  0.7890 -2.4107
 1375SOL     OW15583   3.465   1.452  13.312 -0.1947 -0.1387  1.1114
 1375SOL    HW115584   3.530   1.401  13.361  0.7579  0.8894  0.9057
 1375SOL    HW215585   3.384   1.429  13.358 -0.7704 -2.9712 -1.3543
 1376SOL     OW15586   2.919   2.222  16.956  0.1171 -0.6686  0.0852
 1376SOL    HW115587   2.974   2.144  16.945 -1.4111 -1.9383  1.4626
 1376SOL    HW215588   2.986   2.288  16.937 -0.1213 -0.1161  1.1750
 1377SOL     OW15589   4.709   3.489   3.587  0.0851  0.4336 -0.0554
 1377SOL    HW115590   4.707   3.403   3.545  0.6944  1.0096 -1.2559
 1377SOL    HW215591   4.615   3.504   3.598  0.5180  3.2654 -0.2524
 1378SOL     OW15592   1.509   4.442  15.037 -0.4085 -0.0979  0.1251
 1378SOL    HW115593   1.576   4.436  14.969  0.3569 -0.5252  0.9115
 1378SOL    HW215594   1.513   4.356  15.079  0.5833 -0.5205 -0.8237
 1379SOL     OW15595   4.346   2.664   3.283 -0.1614 -0.1175  0.7728
 1379SOL    HW115596   4.298   2.736   3.243 -0.2308  0.1017  1.2523
 1379SOL    HW215597   4.285   2.591   3.271 -1.1147  0.7490  0.3591
 1380SOL     OW15598   3.966   3.356   5.758 -0.0025 -0.1949  0.3286
 1380SOL    HW115599   3.940   3.282   5.814 -1.8858 -0.5318 -0.9757
 1380SOL    HW215600   4.047   3.385   5.800  0.4637  0.5480 -1.0769
 1381SOL     OW15601   2.511   1.012   2.359 -0.2661  0.6147  0.1889
 1381SOL    HW115602   2.470   1.011   2.445  1.2061  1.6879  0.9115
 1381SOL    HW215603   2.433   0.998   2.305 -0.3130  0.1539  0.3816
 1382SOL     OW15604   0.156   3.676   4.094 -0.5364  0.1816 -0.2004
 1382SOL    HW115605   0.081   3.617   4.081 -0.4856 -0.0982  0.7094
 1382SOL    HW215606   0.221   3.653   4.028  1.2175  1.2412  1.1578
 1383SOL     OW15607   0.067   3.610  17.623 -0.2706 -0.0464  0.0711
 1383SOL    HW115608   0.040   3.702  17.621  0.6958  0.1952 -1.8196
 1383SOL    HW215609   0.150   3.617  17.575  1.0479 -1.2899  2.1431
 1384SOL     OW15610   4.208   3.713   2.294 -0.4839 -0.0162  0.3648
 1384SOL    HW115611   4.145   3.785   2.291  0.1714  0.5946  1.2086
 1384SOL    HW215612   4.284   3.758   2.257 -1.5390  1.7271  0.3023
 1385SOL     OW15613   3.606   2.434   9.781  0.1134 -0.0671  0.2559
 1385SOL    HW115614   3.602   2.452   9.687 -0.3564  1.8068  0.6383
 1385SOL    HW215615   3.611   2.524   9.812  1.2425 -0.4523  1.1692
 1386SOL     OW15616   0.588   1.835   2.904  0.2115 -0.0594  0.2573
 1386SOL    HW115617   0.670   1.814   2.950  0.3782  1.9723  0.8809
 1386SOL    HW215618   0.542   1.869   2.981  0.1471  2.2664 -0.8062
 1387SOL     OW15619   2.712   3.318   6.435  0.4438  0.6329  0.8564
 1387SOL    HW115620   2.713   3.253   6.505  2.4640  0.9704  1.1355
 1387SOL    HW215621   2.770   3.272   6.374  0.3447  1.0524  0.4411
 1388SOL     OW15622   1.978   0.923   0.361  0.2125  0.6642 -0.4127
 1388SOL    HW115623   1.972   0.939   0.267 -2.4886 -2.9834 -0.8515
 1388SOL    HW215624   1.889   0.941   0.392 -1.3196 -0.7570 -4.0612
 1389SOL     OW15625   1.474   0.683   9.005 -0.2376  0.0885 -0.1354
 1389SOL    HW115626   1.556   0.650   9.040  0.7284 -0.2952 -2.7206
 1389SOL    HW215627   1.402   0.627   9.035 -1.2531  1.5043  0.1095
 1390SOL     OW15628   1.306   1.597   9.188  0.4421  0.3682 -0.0050
 1390SOL    HW115629   1.297   1.502   9.197 -0.7898  0.5634  0.8358
 1390SOL    HW215630   1.296   1.625   9.279 -0.0686 -1.1324  0.4040
 1391SOL     OW15631   2.499   1.380   2.414  0.0864  0.5366  0.6191
 1391SOL    HW115632   2.557   1.414   2.482 -1.8368  1.1377  1.9513
 1391SOL    HW215633   2.559   1.313   2.382  0.1468  0.5707  0.6616
 1392SOL     OW15634   2.628   2.168   1.354  0.0730  0.0129 -0.8881
 1392SOL    HW115635   2.676   2.085   1.356  0.9027  0.4350 -2.8850
 1392SOL    HW215636   2.555   2.130   1.306  0.5150 -0.3618 -1.2706
 1393SOL     OW15637   3.589   4.007   8.245 -0.1161  0.3148 -0.1775
 1393SOL    HW115638   3.681   4.029   8.261 -0.3647 -0.1051  1.7703
 1393SOL    HW215639   3.546   4.087   8.275  0.9915  0.7311  0.2982
 1394SOL     OW15640   0.807   2.365   7.231  0.5141 -0.1746 -0.8283
 1394SOL    HW115641   0.785   2.279   7.266  1.4697 -0.4944 -1.0342
 1394SOL    HW215642   0.810   2.346   7.137  0.9569 -1.5847 -0.5147
 1395SOL     OW15643   3.072   4.438   9.780  0.6596 -0.1029 -0.1827
 1395SOL    HW115644   3.065   4.435   9.685 -1.2725 -2.2145  0.0322
 1395SOL    HW215645   2.985   4.474   9.796  0.5791  0.1862 -1.2839
 1396SOL     OW15646   4.611   2.198   7.682 -0.1640 -0.5577  0.0603
 1396SOL    HW115647   4.610   2.116   7.633  1.8532  0.9596 -2.5265
 1396SOL    HW215648   4.571   2.254   7.615 -0.3579 -1.0215 -0.2082
 1397SOL     OW15649   0.005   2.055   3.957 -0.2071 -0.5105 -0.0130
 1397SOL    HW115650   4.671   1.980   3.976 -1.3682  1.0950  2.9147
 1397SOL    HW215651   0.010   2.048   3.862 -1.6344  1.3769 -0.2401
 1398SOL     OW15652   1.333   0.140   6.111  0.1725 -0.4634 -0.5196
 1398SOL    HW115653   1.313   0.232   6.130  0.6437 -0.6101  0.7073
 1398SOL    HW215654   1.368   0.109   6.195 -1.2873 -2.1579 -0.5175
 1399SOL     OW15655   3.608   1.013   2.208 -0.1925 -0.5111  0.2364
 1399SOL    HW115656   3.595   1.107   2.216 -0.8793 -0.5788 -0.0679
 1399SOL    HW215657   3.653   1.021   2.123  0.0526  0.9650  0.5120
 1400SOL     OW15658   0.187   0.285   8.131 -0.6463  0.6558  0.1644
 1400SOL    HW115659   0.161   0.198   8.100  2.1753 -0.7577  1.6509
 1400SOL    HW215660   0.166   0.345   8.060 -0.2403 -0.8752 -1.2656
 1401SOL     OW15661   2.168   2.035   6.086 -0.1579  0.0544 -1.2131
 1401SOL    HW115662   2.087   2.085   6.080 -0.4681 -0.4099 -0.8463
 1401SOL    HW215663   2.224   2.104   6.122 -0.2613 -1.2985  1.4765
 1402SOL     OW15664   2.125   1.184  12.978  0.1398 -0.7002  0.1926
 1402SOL    HW115665   2.096   1.190  12.887 -0.8013 -1.1169  0.4729
 1402SOL    HW215666   2.171   1.262  13.009 -2.3123  0.9583 -0.4361
 1403SOL     OW15667   1.769   0.395   8.078  0.0066  0.0627 -0.0697
 1403SOL    HW115668   1.848   0.437   8.045  0.3269 -0.0820  0.5186
 1403SOL    HW215669   1.718   0.384   7.998  1.4706  0.4245 -1.0516
 1404SOL     OW15670   1.279   0.637   6.734 -0.2699  0.0340  0.2106
 1404SOL    HW115671   1.345   0.606   6.795  1.4276  0.9675 -1.1589
 1404SOL    HW215672   1.221   0.564   6.711 -0.7162  0.8976 -1.4095
 1405SOL     OW15673   1.690   1.136   3.209  0.4546  0.3417  0.0082
 1405SOL    HW115674   1.764   1.116   3.151  1.5080  0.5769  1.2553
 1405SOL    HW215675   1.667   1.223   3.175  1.3505 -0.2183 -2.0491
 1406SOL     OW15676   2.436   4.391   1.227 -0.4707 -0.1834  0.1005
 1406SOL    HW115677   2.481   4.353   1.152  0.5403 -0.0817  0.6534
 1406SOL    HW215678   2.407   4.473   1.187  0.6816  0.2129  0.0723
 1407SOL     OW15679   0.900   1.722  11.518  0.1118 -0.8638  0.4088
 1407SOL    HW115680   0.980   1.700  11.565 -0.2632 -0.5614  1.1827
 1407SOL    HW215681   0.939   1.793  11.467 -1.0160  0.1655  0.9756
 1408SOL     OW15682   2.422   3.060   8.610  0.0112  0.2873 -0.0910
 1408SOL    HW115683   2.458   2.983   8.653  0.3185 -0.1628 -1.1329
 1408SOL    HW215684   2.498   3.117   8.599  1.1181 -1.2582 -0.4261
 1409SOL     OW15685   4.673   2.427   9.380 -0.3885 -0.2121  0.2891
 1409SOL    HW115686   4.607   2.358   9.382  0.4103 -0.9993 -0.1791
 1409SOL    HW215687   4.672   2.451   9.287  2.3135  0.6961  0.5035
 1410SOL     OW15688   0.885   4.222   0.620  0.1287 -0.0694 -0.6604
 1410SOL    HW115689   0.951   4.291   0.625  1.2814 -1.1623 -0.7583
 1410SOL    HW215690   0.930   4.147   0.580 -0.8721 -0.7241 -0.5595
 1411SOL     OW15691   3.749   1.399  15.616  0.2625 -0.3645 -0.5959
 1411SOL    HW115692   3.804   1.473  15.588  0.9238  0.0792  1.8083
 1411SOL    HW215693   3.751   1.331  15.550 -0.0253 -1.9901  1.0632
 1412SOL     OW15694   1.977   1.529  17.135 -0.3884 -0.5468  0.3143
 1412SOL    HW115695   2.001   1.452  17.084  1.9617 -0.5247  1.3642
 1412SOL    HW215696   2.039   1.587  17.091  0.0160 -0.6041  0.8103
 1413SOL     OW15697   2.058   0.146   8.625  0.0878  0.1063 -0.1992
 1413SOL    HW115698   2.078   0.128   8.533  3.4609  0.5363  0.4745
 1413SOL    HW215699   1.976   0.097   8.638  0.0703  0.6212  1.6552
 1414SOL     OW15700   3.495   0.924  11.182 -0.4211  0.2145 -0.6220
 1414SOL    HW115701   3.588   0.904  11.182  0.3496  3.6554  2.7517
 1414SOL    HW215702   3.483   0.981  11.106 -3.4380  1.8871  1.1160
 1415SOL     OW15703   4.292   0.131   4.340 -0.2586  0.2727  0.4030
 1415SOL    HW115704   4.285   0.225   4.356  0.0576 -0.1770  3.2120
 1415SOL    HW215705   4.210   0.118   4.293  0.2217  0.4402 -0.4767
 1416SOL     OW15706   1.095   3.693   8.428  0.3817 -0.4404  0.5553
 1416SOL    HW115707   1.190   3.702   8.426  0.3904 -0.1175  2.9628
 1416SOL    HW215708   1.074   3.689   8.521  0.6239 -0.2488  0.6155
 1417SOL     OW15709   2.380   3.435  12.395  0.6067  0.1218  0.1662
 1417SOL    HW115710   2.305   3.460  12.448 -0.6089 -2.4052 -0.3975
 1417SOL    HW215711   2.436   3.429  12.472 -1.3128 -0.9518  1.4669
 1418SOL     OW15712   1.412   2.917   7.571  0.0909  0.3258  0.0282
 1418SOL    HW115713   1.443   2.836   7.612 -1.3178 -0.2223  0.0017
 1418SOL    HW215714   1.328   2.882   7.542  1.5517 -2.9728 -0.2740
 1419SOL     OW15715   1.629   1.193  13.734  0.6616 -0.4031  0.4719
 1419SOL    HW115716   1.578   1.185  13.654  2.9956  1.9319 -1.2686
 1419SOL    HW215717   1.696   1.126  13.718  0.5792 -0.2081 -0.6749
 1420SOL     OW15718   3.006   3.512   6.121 -0.3730 -0.2572 -0.3478
 1420SOL    HW115719   3.047   3.599   6.119  0.2542 -0.5660 -0.5975
 1420SOL    HW215720   2.944   3.507   6.194 -1.0193  1.2755 -0.7617
 1421SOL     OW15721   1.353   0.127   8.756 -0.1731 -0.0048 -0.0554
 1421SOL    HW115722   1.381   0.111   8.846 -0.8370 -0.8426 -0.0024
 1421SOL    HW215723   1.259   0.108   8.752 -0.4954  1.3286  1.4659
 1422SOL     OW15724   3.526   2.529   6.049  0.4948 -0.6315 -0.3979
 1422SOL    HW115725   3.602   2.581   6.077 -0.2409 -0.8279  1.9657
 1422SOL    HW215726   3.469   2.572   6.113 -1.8146 -1.1321 -2.1495
 1423SOL     OW15727   0.554   1.461   8.248 -0.1208 -0.5738 -0.1370
 1423SOL    HW115728   0.514   1.548   8.234 -2.5392 -1.7503 -0.6749
 1423SOL    HW215729   0.587   1.469   8.337 -1.2522 -0.5565  0.2822
 1424SOL     OW15730   1.277   0.488   2.278  0.5439  0.5014 -0.3567
 1424SOL    HW115731   1.338   0.480   2.351 -1.7081  2.7252  1.7699
 1424SOL    HW215732   1.267   0.583   2.267 -0.2743  0.3664 -0.8000
 1425SOL     OW15733   0.001   3.306   3.281 -0.6211  0.2337 -0.6533
 1425SOL    HW115734   4.707   3.225   3.234 -0.5492  0.0838 -0.4190
 1425SOL    HW215735   4.632   3.325   3.299 -0.6997  1.7470 -2.5231
 1426SOL     OW15736   0.331   3.761   7.540 -0.2143  0.1452  0.0554
 1426SOL    HW115737   0.271   3.697   7.577  0.4501 -1.5563 -1.7812
 1426SOL    HW215738   0.419   3.741   7.573 -0.1390  2.8139  1.4567
 1427SOL     OW15739   3.800   1.518   7.892  0.1171  0.0443 -0.1786
 1427SOL    HW115740   3.895   1.520   7.897  0.2340 -0.9785 -1.9152
 1427SOL    HW215741   3.785   1.535   7.985 -1.6638  1.4919 -0.7143
 1428SOL     OW15742   0.443   2.329   5.999 -0.6833 -0.1750 -0.2706
 1428SOL    HW115743   0.427   2.359   6.089 -0.2380 -1.0065  0.0843
 1428SOL    HW215744   0.535   2.341   5.976 -0.4445 -1.6947 -0.0823
 1429SOL     OW15745   1.627   4.090  16.736  0.2207 -0.0523  0.2218
 1429SOL    HW115746   1.600   4.080  16.828 -0.7805 -4.3003 -0.5158
 1429SOL    HW215747   1.597   4.008  16.696 -0.7152  1.4803 -2.1908
 1430SOL     OW15748   0.685   2.373   0.678 -0.5046  0.3582  0.2180
 1430SOL    HW115749   0.702   2.279   0.674 -0.2872  0.3261  1.6865
 1430SOL    HW215750   0.710   2.407   0.592 -0.5991 -1.6963 -0.6252
 1431SOL     OW15751   0.575   2.850  16.060  0.2452  0.3368 -0.1666
 1431SOL    HW115752   0.590   2.910  16.133 -2.3126 -0.4583  1.0026
 1431SOL    HW215753   0.582   2.769  16.111  1.0410  1.4798  1.5579
 1432SOL     OW15754   0.017   0.722   5.715 -0.2435  0.9625  0.0851
 1432SOL    HW115755   4.704   0.700   5.801 -2.2618 -1.0482 -1.2735
 1432SOL    HW215756   0.086   0.657   5.719  0.5698  1.7400 -1.4843
 1433SOL     OW15757   1.980   2.243   4.782  0.6847  0.0005 -0.2072
 1433SOL    HW115758   1.920   2.272   4.851  1.4801  0.8570  0.1187
 1433SOL    HW215759   1.933   2.164   4.759 -2.2601  1.1061  2.0233
 1434SOL     OW15760   1.791   1.542   7.417 -0.2359  0.2272  0.0699
 1434SOL    HW115761   1.832   1.474   7.471 -1.2565  0.8594  1.6437
 1434SOL    HW215762   1.855   1.546   7.346 -0.5882 -0.9529 -0.3077
 1435SOL     OW15763   1.438   3.147   0.311 -0.3848  0.2704  0.0865
 1435SOL    HW115764   1.380   3.101   0.251  2.8252 -0.9045 -2.1046
 1435SOL    HW215765   1.491   3.207   0.259 -0.2929 -1.4051 -1.7327
 1436SOL     OW15766   0.435   3.524  12.210 -0.0355  0.5378  0.3694
 1436SOL    HW115767   0.352   3.523  12.162 -0.6835 -1.6248  1.5135
 1436SOL    HW215768   0.407   3.598  12.263  0.9639  0.0055  1.6454
 1437SOL     OW15769   3.829   0.342   2.919 -0.3080  0.1991 -0.5494
 1437SOL    HW115770   3.847   0.435   2.932  1.0181 -0.1219 -0.0876
 1437SOL    HW215771   3.858   0.327   2.829 -0.8632 -1.5089 -0.4421
 1438SOL     OW15772   1.862   1.767   7.801 -0.0185  0.5144 -0.1245
 1438SOL    HW115773   1.858   1.797   7.892  2.5597  0.1663  0.1038
 1438SOL    HW215774   1.786   1.709   7.794  0.8369 -0.8002  1.6348
 1439SOL     OW15775   3.181   2.744   8.222  0.4665  0.7715  0.5302
 1439SOL    HW115776   3.116   2.710   8.160  0.5430  1.0486  0.3018
 1439SOL    HW215777   3.251   2.682   8.202  0.0727  0.5536 -0.1861
 1440SOL     OW15778   0.433   3.364   3.456 -0.3778 -0.1619 -0.5441
 1440SOL    HW115779   0.353   3.411   3.479  0.7387  1.0502  0.8744
 1440SOL    HW215780   0.396   3.315   3.383 -0.3122 -0.3049 -0.4808
 1441SOL     OW15781   1.963   3.815   5.735 -0.0682  0.3624  0.1700
 1441SOL    HW115782   1.924   3.855   5.657 -0.0930 -0.5082 -0.2623
 1441SOL    HW215783   1.983   3.894   5.786  2.1556  0.8644 -1.5243
 1442SOL     OW15784   3.791   1.705   0.784  0.2035  0.1382  0.1793
 1442SOL    HW115785   3.751   1.763   0.849  0.8358 -0.9220  1.5084
 1442SOL    HW215786   3.884   1.706   0.806 -0.0073  1.0786  1.0521
 1443SOL     OW15787   2.718   0.203  12.702  0.1441 -0.1581  0.1880
 1443SOL    HW115788   2.624   0.212  12.685  0.1009  0.0788  0.5528
 1443SOL    HW215789   2.755   0.289  12.682 -0.3829  0.4565  1.8449
 1444SOL     OW15790   4.253   4.159  14.190  0.6483 -0.4159 -0.4023
 1444SOL    HW115791   4.229   4.252  14.189 -1.0354 -0.8477  0.5225
 1444SOL    HW215792   4.210   4.138  14.273 -1.5722  2.0947 -0.8994
 1445SOL     OW15793   4.431   1.473   8.717 -0.5060  0.0845  0.1647
 1445SOL    HW115794   4.358   1.531   8.738  2.4497  2.0529  4.9639
 1445SOL    HW215795   4.463   1.438   8.800 -0.2192 -3.5523 -1.4654
 1446SOL     OW15796   1.972   2.302   5.806 -0.4643  0.4814  0.3738
 1446SOL    HW115797   1.940   2.256   5.728 -1.7195  1.7315  0.1395
 1446SOL    HW215798   1.944   2.389   5.777  0.8971  0.0598 -2.2790
 1447SOL     OW15799   4.658   0.823  13.272  0.1966  0.0441  0.0183
 1447SOL    HW115800   4.677   0.826  13.366  0.3900 -1.1177  0.0288
 1447SOL    HW215801   4.628   0.913  13.260  1.3396  0.2361 -1.3669
 1448SOL     OW15802   2.824   2.332   9.446 -0.2196 -0.0280 -0.2377
 1448SOL    HW115803   2.772   2.272   9.499  1.0023  0.2579  1.2800
 1448SOL    HW215804   2.786   2.414   9.478 -0.1012 -0.3186  0.6498
 1449SOL     OW15805   3.578   1.516   3.477  0.3896 -0.2899  0.1843
 1449SOL    HW115806   3.613   1.604   3.488  0.3509 -0.3507  0.8090
 1449SOL    HW215807   3.513   1.531   3.408  1.1771 -0.6055 -0.6222
 1450SOL     OW15808   2.229   3.649   3.726  0.0038  0.3980 -0.3151
 1450SOL    HW115809   2.230   3.744   3.739  0.4288  0.4344 -0.6014
 1450SOL    HW215810   2.237   3.619   3.817  1.9149  1.4486 -0.1302
 1451SOL     OW15811   0.133   3.723   0.686 -0.0372  0.0789 -0.4758
 1451SOL    HW115812   0.072   3.650   0.681 -0.3163  0.1961  1.4683
 1451SOL    HW215813   0.099   3.770   0.609  0.1520  1.4166  0.2611
 1452SOL     OW15814   3.532   3.847   8.043 -0.4527  0.8257 -0.8578
 1452SOL    HW115815   3.534   3.894   8.127 -0.4236  0.0017 -0.4008
 1452SOL    HW215816   3.552   3.920   7.984  1.3029  0.7043 -0.4314
 1453SOL     OW15817   2.617   1.340   6.569  0.2657  0.4309  0.3933
 1453SOL    HW115818   2.641   1.350   6.477  0.8907  0.4722  0.5573
 1453SOL    HW215819   2.536   1.391   6.563  0.7226  1.0886 -0.2212
 1454SOL     OW15820   0.918   4.488  17.241 -0.2398  0.2167  0.1266
 1454SOL    HW115821   0.950   4.403  17.213 -0.6547 -0.5579  1.9556
 1454SOL    HW215822   0.832   4.477  17.282  0.6169 -0.7642  1.6756
 1455SOL     OW15823   2.647   2.977   5.352  0.7287  0.4234 -0.0192
 1455SOL    HW115824   2.666   2.951   5.262 -2.1799 -0.7695 -0.3025
 1455SOL    HW215825   2.677   3.068   5.353  0.8531  0.3565  1.4771
 1456SOL     OW15826   4.042   3.479   2.517 -0.3336  0.4204  0.2640
 1456SOL    HW115827   3.964   3.423   2.523 -0.4601  0.4390 -1.1208
 1456SOL    HW215828   4.034   3.555   2.575 -0.1108 -0.1845  1.0711
 1457SOL     OW15829   3.733   2.198   7.028  0.1972 -0.3139 -0.1164
 1457SOL    HW115830   3.681   2.278   7.035  0.1326 -0.5474  2.0048
 1457SOL    HW215831   3.668   2.135   6.995 -1.1108  1.4705 -0.9202
 1458SOL     OW15832   3.554   3.525  10.993  0.4534  0.2397  0.0353
 1458SOL    HW115833   3.519   3.598  10.942 -0.8814 -3.0106 -3.7443
 1458SOL    HW215834   3.513   3.540  11.079 -0.7231 -2.1136 -0.0938
 1459SOL     OW15835   2.266   1.664  11.201  0.1096  0.5271  0.4505
 1459SOL    HW115836   2.249   1.686  11.293 -0.0579 -0.8314  0.7413
 1459SOL    HW215837   2.250   1.751  11.164  1.9533  0.4828 -0.4182
 1460SOL     OW15838   1.348   4.078  14.729 -0.1564 -0.1765 -0.1840
 1460SOL    HW115839   1.420   4.133  14.698  0.2011 -0.7033 -0.2932
 1460SOL    HW215840   1.312   4.057  14.642  0.9923  0.4908 -0.8101
 1461SOL     OW15841   3.736   1.030  16.354 -0.1750  0.3185  0.0146
 1461SOL    HW115842   3.674   1.000  16.288  2.2362 -1.1326 -1.6028
 1461SOL    HW215843   3.754   0.947  16.398 -1.0032 -0.3115 -0.8411
 1462SOL     OW15844   1.619   2.645  17.070 -0.1354 -0.6190 -0.4416
 1462SOL    HW115845   1.531   2.677  17.089 -0.7247 -2.2488 -0.4218
 1462SOL    HW215846   1.607   2.634  16.976 -3.0285 -0.6115 -0.0874
 1463SOL     OW15847   1.962   3.721  15.015  0.6331  0.0589 -0.1070
 1463SOL    HW115848   1.937   3.666  15.089 -0.4858 -0.1760 -0.6611
 1463SOL    HW215849   1.879   3.764  14.994  1.4371  3.0805  2.9825
 1464SOL     OW15850   4.249   0.758   8.957 -0.0342 -0.7113 -0.6816
 1464SOL    HW115851   4.296   0.675   8.958 -1.6461 -1.5835  3.6923
 1464SOL    HW215852   4.286   0.797   8.877  0.9546 -0.0913  0.0725
 1465SOL     OW15853   1.836   3.157   1.982  1.2163 -0.1600  0.1527
 1465SOL    HW115854   1.805   3.222   2.045 -0.9176 -1.0493  0.0341
 1465SOL    HW215855   1.872   3.101   2.050  0.0388  1.0238  1.7533
 1466SOL     OW15856   3.095   2.656  10.774  0.5150 -0.3695  0.4659
 1466SOL    HW115857   3.150   2.594  10.822  0.8118 -0.5557 -0.1014
 1466SOL    HW215858   3.035   2.690  10.840 -1.7260 -0.8415 -1.3382
 1467SOL     OW15859   1.190   2.797   8.229  0.1681  0.0910 -0.0719
 1467SOL    HW115860   1.177   2.886   8.194  2.9561  0.2440 -0.7511
 1467SOL    HW215861   1.125   2.751   8.177  0.8953 -0.1606 -0.7636
 1468SOL     OW15862   3.803   3.232   5.137 -0.0438 -0.1965  0.1025
 1468SOL    HW115863   3.729   3.173   5.122  1.3508 -1.3826 -2.2502
 1468SOL    HW215864   3.771   3.290   5.206  2.5132  0.7713  0.4444
 1469SOL     OW15865   3.137   2.329   8.835 -0.0785 -0.4189  0.1160
 1469SOL    HW115866   3.164   2.264   8.900 -0.9307 -0.6349  0.2637
 1469SOL    HW215867   3.190   2.403   8.865  2.3248 -2.5234  1.0409
 1470SOL     OW15868   1.603   3.048   2.570  0.2531 -0.3037 -0.6963
 1470SOL    HW115869   1.589   3.021   2.479  0.0799 -1.2193 -0.3988
 1470SOL    HW215870   1.534   3.000   2.616  1.2107 -0.8624  0.1424
 1471SOL     OW15871   0.173   3.617  16.931  0.3563  0.3919 -0.3996
 1471SOL    HW115872   0.252   3.627  16.877  0.9320 -0.2357  0.3291
 1471SOL    HW215873   0.112   3.566  16.877 -0.0066 -1.3255  1.6495
 1472SOL     OW15874   0.751   1.416   6.224 -0.1381  0.0445  0.1958
 1472SOL    HW115875   0.820   1.457   6.276 -0.9247  0.7218  0.7058
 1472SOL    HW215876   0.801   1.346   6.184  0.4126  0.7784 -0.3909
 1473SOL     OW15877   0.500   1.992  13.042  0.2836 -0.2315 -0.3136
 1473SOL    HW115878   0.425   1.976  12.986  0.7671 -0.9400 -0.7558
 1473SOL    HW215879   0.462   2.019  13.125 -1.0140 -2.1763 -0.3087
 1474SOL     OW15880   1.194   1.852   9.624 -0.6665 -0.3342 -0.3911
 1474SOL    HW115881   1.252   1.908   9.572 -2.8451  0.4093 -2.0076
 1474SOL    HW215882   1.138   1.924   9.650 -0.6352 -0.6073  0.4353
 1475SOL     OW15883   4.042   4.624   2.413 -0.4132 -0.7745  0.6373
 1475SOL    HW115884   4.074   4.712   2.435  1.5013 -1.5532  0.9334
 1475SOL    HW215885   4.113   4.565   2.439  1.5196  1.7629  1.1383
 1476SOL     OW15886   0.510   3.722   6.646 -0.1334  0.1569 -0.3224
 1476SOL    HW115887   0.566   3.700   6.721  1.1435  1.0696 -1.0057
 1476SOL    HW215888   0.478   3.805   6.681  0.4574  0.1232  0.2996
 1477SOL     OW15889   0.386   3.821   2.347 -0.1294  0.2011 -0.5595
 1477SOL    HW115890   0.346   3.845   2.430 -0.6133  0.4232 -0.8561
 1477SOL    HW215891   0.376   3.726   2.338  1.1330  0.0512 -0.4162
 1478SOL     OW15892   2.252   3.263  14.339  0.5901  0.7461 -0.2663
 1478SOL    HW115893   2.236   3.347  14.382 -2.1163 -0.8516  1.8859
 1478SOL    HW215894   2.253   3.212  14.420 -1.5543  3.6380  1.5629
 1479SOL     OW15895   1.103   3.707   4.938 -0.2267 -0.1052 -0.0366
 1479SOL    HW115896   1.073   3.798   4.939 -0.2240 -0.0715 -3.0839
 1479SOL    HW215897   1.166   3.709   4.865  1.6809  2.4065  1.6758
 1480SOL     OW15898   2.980   0.834   7.012  0.2932 -0.4164 -0.7438
 1480SOL    HW115899   2.915   0.805   7.076  0.7590 -0.9774 -0.5203
 1480SOL    HW215900   2.924   0.862   6.940 -0.2130 -1.4375 -0.7473
 1481SOL     OW15901   0.814   0.279   0.844 -0.4506  0.0006 -0.8725
 1481SOL    HW115902   0.799   0.194   0.886 -2.0118  1.1279  0.8260
 1481SOL    HW215903   0.834   0.261   0.752  2.9218 -1.8379  0.2146
 1482SOL     OW15904   4.293   2.284   4.396  0.4906 -0.7458  0.6889
 1482SOL    HW115905   4.351   2.316   4.465 -0.0265  0.8016  0.4056
 1482SOL    HW215906   4.225   2.239   4.447 -0.0988 -1.3953 -0.6931
 1483SOL     OW15907   0.438   1.831   5.234  0.6308  0.4406 -0.1002
 1483SOL    HW115908   0.369   1.889   5.266 -1.0094 -1.0616 -0.8697
 1483SOL    HW215909   0.483   1.798   5.311 -1.4788 -0.3516  0.7964
 1484SOL     OW15910   1.179   2.794   8.929 -0.3460 -0.2506 -0.4901
 1484SOL    HW115911   1.246   2.862   8.941 -0.9141  0.1136  0.6033
 1484SOL    HW215912   1.206   2.739   9.003 -1.1956 -1.2659 -0.9371
 1485SOL     OW15913   2.207   2.060   4.297 -0.2641 -0.1899 -0.6095
 1485SOL    HW115914   2.176   2.003   4.367 -0.8047  0.9870  0.1160
 1485SOL    HW215915   2.240   1.991   4.240 -1.8737  0.5312 -2.4375
 1486SOL     OW15916   2.687   2.956   2.196 -0.2770  1.0548  0.2942
 1486SOL    HW115917   2.706   2.864   2.215 -0.9929  0.7969 -0.2311
 1486SOL    HW215918   2.766   3.000   2.225  1.4668 -1.6449 -0.3452
 1487SOL     OW15919   1.340   4.592   8.563  0.2700 -0.1286  0.2409
 1487SOL    HW115920   1.289   4.556   8.636  1.0937 -0.5527  0.6075
 1487SOL    HW215921   1.332   4.684   8.586 -3.6091 -0.5438  0.4927
 1488SOL     OW15922   4.444   2.656   4.348  0.4815  0.0162 -0.2490
 1488SOL    HW115923   4.517   2.673   4.288 -0.0134 -0.6944 -1.0556
 1488SOL    HW215924   4.485   2.605   4.417  2.7968  2.4999  0.2024
 1489SOL     OW15925   2.693   0.467   6.428  0.3348 -0.1505 -0.3390
 1489SOL    HW115926   2.739   0.421   6.498  2.0910  1.2912 -0.5408
 1489SOL    HW215927   2.649   0.402   6.374 -0.4578 -1.6513  2.1115
 1490SOL     OW15928   2.928   2.360   3.665 -0.3414  0.4293 -0.0201
 1490SOL    HW115929   3.021   2.355   3.684  0.2861 -3.1311 -4.2156
 1490SOL    HW215930   2.900   2.429   3.726  1.8696  1.1044  0.2097
 1491SOL     OW15931   1.591   0.699   9.377 -0.1220 -0.1307 -0.2542
 1491SOL    HW115932   1.498   0.679   9.373  0.1910 -1.4128 -0.9318
 1491SOL    HW215933   1.615   0.693   9.469  0.4618  0.3660 -0.3710
 1492SOL     OW15934   1.908   1.696   6.611  0.7499 -0.0933  0.0238
 1492SOL    HW115935   1.999   1.724   6.598  0.6176  1.0003  1.3976
 1492SOL    HW215936   1.902   1.605   6.585  0.1807 -0.2926  0.8674
 1493SOL     OW15937   3.453   2.562   3.260  0.3810 -0.3410  0.2124
 1493SOL    HW115938   3.406   2.616   3.323 -2.8966 -0.7107 -1.9014
 1493SOL    HW215939   3.388   2.495   3.236 -0.8593  1.8343 -2.4752
 1494SOL     OW15940   2.406   4.120   9.295  0.5041  0.4854  0.3803
 1494SOL    HW115941   2.441   4.053   9.354 -1.2231 -0.7729 -0.0165
 1494SOL    HW215942   2.356   4.167   9.361  0.6744  1.3318 -0.0967
 1495SOL     OW15943   1.775   1.346   2.389  0.0364  0.0272  0.1510
 1495SOL    HW115944   1.831   1.340   2.467 -0.8520  0.7158  0.8346
 1495SOL    HW215945   1.724   1.425   2.409 -1.7128 -1.1722  0.4005
 1496SOL     OW15946   0.713   2.085   4.264 -0.7456  0.3877 -0.4398
 1496SOL    HW115947   0.667   2.048   4.339  0.8640 -1.6402 -0.4476
 1496SOL    HW215948   0.774   2.146   4.304 -3.1141  2.7947 -0.4974
 1497SOL     OW15949   3.446   0.449   8.526 -0.5116  0.2873 -0.7293
 1497SOL    HW115950   3.526   0.425   8.572 -0.8772  0.9681  0.2690
 1497SOL    HW215951   3.380   0.396   8.570  2.5605 -2.3957  0.6592
 1498SOL     OW15952   2.493   1.431   4.495  0.0380  0.5109  0.1386
 1498SOL    HW115953   2.546   1.353   4.477 -0.5205  0.0720  0.3766
 1498SOL    HW215954   2.555   1.494   4.531  1.9686 -0.0086 -2.3410
 1499SOL     OW15955   3.630   0.173   2.911  0.1083 -0.0415 -0.3102
 1499SOL    HW115956   3.702   0.235   2.904 -1.8450  2.1776 -0.5037
 1499SOL    HW215957   3.680   0.100   2.948  0.4776 -0.2414 -1.1995
 1500SOL     OW15958   1.581   3.583   0.285 -0.3643  0.0998  0.2465
 1500SOL    HW115959   1.568   3.518   0.216 -2.2530  1.4145 -0.6453
 1500SOL    HW215960   1.667   3.562   0.322  0.1089 -1.6256 -1.8085
 1501SOL     OW15961   1.100   1.470   8.323 -0.0438 -0.0374 -0.0704
 1501SOL    HW115962   1.102   1.465   8.227  0.0965 -0.2657 -0.0579
 1501SOL    HW215963   1.181   1.512   8.351 -1.3252  0.6918  2.5281
 1502SOL     OW15964   0.913   2.630   8.610  0.1088  0.2260  0.0637
 1502SOL    HW115965   0.918   2.635   8.706 -0.6316  0.0257  0.1135
 1502SOL    HW215966   0.902   2.724   8.594 -1.6410  0.0942  0.4852
 1503SOL     OW15967   1.163   1.317   8.635 -0.1821  0.4295 -0.1056
 1503SOL    HW115968   1.242   1.318   8.689 -0.1483  0.8870 -0.1673
 1503SOL    HW215969   1.199   1.317   8.547  1.4618  0.4490  0.5612
 1504SOL     OW15970   0.809   2.683  10.378 -0.1353  0.4699  0.3649
 1504SOL    HW115971   0.782   2.608  10.326 -1.6319  0.9013  0.5154
 1504SOL    HW215972   0.728   2.734  10.375  1.1230  2.5286  0.6635
 1505SOL     OW15973   1.697   3.634   4.478 -0.0811  0.2458  0.4568
 1505SOL    HW115974   1.684   3.722   4.515  1.4594 -0.4890  2.7436
 1505SOL    HW215975   1.667   3.648   4.388 -0.2335  1.5839  0.7088
 1506SOL     OW15976   4.011   1.978   7.714 -0.1129  0.7565 -0.4998
 1506SOL    HW115977   4.088   1.925   7.735  0.1211  0.5919 -1.7786
 1506SOL    HW215978   3.959   1.919   7.660  1.6844 -0.8619 -0.4716
 1507SOL     OW15979   0.864   3.748   1.006  0.1962  0.0295  0.5450
 1507SOL    HW115980   0.832   3.711   0.923  0.8065 -1.4870  0.9759
 1507SOL    HW215981   0.860   3.841   0.984 -1.5351 -0.7275 -2.3733
 1508SOL     OW15982   3.076   0.228   8.489  0.2857  0.0645 -0.1787
 1508SOL    HW115983   3.050   0.159   8.428 -0.4271  0.0989  0.0892
 1508SOL    HW215984   2.997   0.279   8.505  1.3316  1.6156  0.0370
 1509SOL     OW15985   4.579   3.983   2.097 -0.3149  0.3776 -0.0898
 1509SOL    HW115986   4.621   3.983   2.183 -0.4855  1.1305 -0.0026
 1509SOL    HW215987   4.633   3.920   2.049 -1.1513  0.2635 -0.8782
 1510SOL     OW15988   3.349   3.676   8.500 -0.2871  0.0399  0.1427
 1510SOL    HW115989   3.431   3.626   8.499 -0.7438 -0.7275  2.5329
 1510SOL    HW215990   3.347   3.711   8.589  0.2940  1.5791 -0.4434
 1511SOL     OW15991   3.300   4.612   2.971 -0.2815 -0.2855  0.7293
 1511SOL    HW115992   3.289   4.518   2.956  0.7467 -0.1517 -0.8857
 1511SOL    HW215993   3.361   4.600   3.043  0.0361 -2.6219  0.0951
 1512SOL     OW15994   3.290   2.046   1.357  0.2756  0.1561 -0.3978
 1512SOL    HW115995   3.327   2.000   1.282 -0.8116 -2.5753  0.7398
 1512SOL    HW215996   3.213   1.992   1.376  1.1558 -0.3846  1.6857
 1513SOL     OW15997   2.577   2.532   9.235 -0.4354  0.1812  0.4614
 1513SOL    HW115998   2.484   2.520   9.254 -0.4426  0.8630  0.8827
 1513SOL    HW215999   2.611   2.554   9.322  1.0371 -0.9688  0.1681
 1514SOL     OW16000   1.159   1.302   9.011  0.0974 -0.3760  0.6760
 1514SOL    HW116001   1.197   1.304   8.923 -1.5024  0.5687  0.0167
 1514SOL    HW216002   1.175   1.213   9.044 -1.2250 -0.6708  0.4924
 1515SOL     OW16003   0.498   0.264   1.822 -0.4771  0.3556  0.0745
 1515SOL    HW116004   0.539   0.286   1.738 -1.4024 -3.1428 -1.2796
 1515SOL    HW216005   0.527   0.336   1.877 -0.3583  0.1375  0.2978
 1516SOL     OW16006   2.226   1.379   4.885  0.4575  0.4331 -0.3885
 1516SOL    HW116007   2.266   1.406   4.967  0.8797 -1.2936 -0.0144
 1516SOL    HW216008   2.148   1.334   4.919  1.3839  0.2854  1.5833
 1517SOL     OW16009   1.758   1.760  10.612 -0.2671  0.3897 -0.1820
 1517SOL    HW116010   1.668   1.790  10.621  0.0176  1.3399 -0.4692
 1517SOL    HW216011   1.776   1.780  10.520  2.0123 -1.5085 -0.1749
 1518SOL     OW16012   4.387   0.907   3.285  0.1105 -0.0883 -0.8114
 1518SOL    HW116013   4.343   0.962   3.349 -3.0887 -1.5923 -1.7007
 1518SOL    HW216014   4.325   0.835   3.270 -0.9792  1.1147 -2.1554
 1519SOL     OW16015   3.325   0.095   1.828  0.5694  0.0459 -0.2989
 1519SOL    HW116016   3.328   0.038   1.751 -1.2494 -0.6856  0.1812
 1519SOL    HW216017   3.408   0.143   1.826 -0.8023  2.3580 -1.3803
 1520SOL     OW16018   4.676   2.306   8.206  0.0068 -0.2859 -0.7890
 1520SOL    HW116019   4.651   2.381   8.258 -0.4635 -1.3937  0.5768
 1520SOL    HW216020   0.029   2.345   8.162  0.1458  1.1736  0.7749
 1521SOL     OW16021   3.237   0.481   6.979  0.5621  0.4920  0.3018
 1521SOL    HW116022   3.205   0.507   6.893  1.0005  0.0712  0.0085
 1521SOL    HW216023   3.174   0.410   6.994  0.0331  0.4770 -2.0409
 1522SOL     OW16024   3.858   1.939   6.184 -0.3851 -0.0514  0.0640
 1522SOL    HW116025   3.899   2.002   6.124 -0.0344  0.2651  0.6436
 1522SOL    HW216026   3.893   1.856   6.149 -3.8473 -1.5659  0.2207
 1523SOL     OW16027   2.374   1.475  16.353 -0.8551  0.0165 -0.4515
 1523SOL    HW116028   2.458   1.440  16.382 -0.1380  0.6037 -1.7903
 1523SOL    HW216029   2.347   1.504  16.440 -0.0457 -2.3266  0.5613
 1524SOL     OW16030   2.800   4.270   3.980  0.0009 -0.1236 -0.0592
 1524SOL    HW116031   2.772   4.309   4.063  0.0336  0.9143 -0.5326
 1524SOL    HW216032   2.798   4.340   3.915  0.9873 -1.2813 -1.3577
 1525SOL     OW16033   4.099   3.474   3.145 -0.1446 -0.5158 -0.2268
 1525SOL    HW116034   4.026   3.414   3.163  0.7098 -1.2594  0.7351
 1525SOL    HW216035   4.071   3.504   3.058 -0.9966 -0.7212 -0.0258
 1526SOL     OW16036   2.765   2.536   7.810  0.6740  0.3029  0.1509
 1526SOL    HW116037   2.720   2.452   7.796  0.0584  0.4891  0.9751
 1526SOL    HW216038   2.726   2.581   7.735  1.2850 -1.1492 -1.0261
 1527SOL     OW16039   0.956   0.850   5.001  0.1640  0.1220 -0.3738
 1527SOL    HW116040   0.914   0.936   5.010  0.0107 -0.1595  1.6086
 1527SOL    HW216041   1.028   0.855   5.064  0.5314  3.7928 -1.0976
 1528SOL     OW16042   1.665   1.005  16.189 -0.1184 -0.1751  0.0839
 1528SOL    HW116043   1.647   1.089  16.231  1.6919  0.5852 -0.6743
 1528SOL    HW216044   1.674   1.041  16.101  0.7841 -2.3530 -0.7277
 1529SOL     OW16045   1.846   0.599   3.273  0.4918 -0.4490 -0.0375
 1529SOL    HW116046   1.940   0.618   3.272  0.5469 -0.7429 -0.8706
 1529SOL    HW216047   1.828   0.562   3.187 -2.0471  0.3099  0.1829
 1530SOL     OW16048   2.828   2.978   5.987 -0.1667  0.4368 -0.6371
 1530SOL    HW116049   2.811   3.047   5.922  1.8342 -1.8788 -3.6458
 1530SOL    HW216050   2.916   3.004   6.016  0.4435 -1.9933 -0.2805
 1531SOL     OW16051   4.409   3.150   5.345  0.3022  0.5404 -1.2303
 1531SOL    HW116052   4.415   3.085   5.274  0.4541  1.0817 -1.7056
 1531SOL    HW216053   4.343   3.212   5.314 -0.7635  1.7642  3.6437
 1532SOL     OW16054   2.224   3.712   5.685  0.1248 -0.1917  0.0432
 1532SOL    HW116055   2.135   3.747   5.695 -0.4473 -0.9218 -2.6702
 1532SOL    HW216056   2.247   3.690   5.776  0.1235  0.5554  0.2209
 1533SOL     OW16057   1.056   2.032   2.384 -0.0412 -0.2835  0.1053
 1533SOL    HW116058   0.976   2.022   2.436  0.8791 -0.6622  1.4599
 1533SOL    HW216059   1.069   2.127   2.389 -0.3316 -0.2345 -0.0680
 1534SOL     OW16060   3.015   3.801   6.134 -0.0438 -0.1042  0.0946
 1534SOL    HW116061   3.003   3.888   6.097  0.1512  0.3776  1.1819
 1534SOL    HW216062   2.927   3.770   6.154 -0.7720  1.7416 -0.2438
 1535SOL     OW16063   3.644   2.486  13.685  0.2143  0.1999  0.0034
 1535SOL    HW116064   3.676   2.412  13.736  1.1368 -0.1197 -1.0308
 1535SOL    HW216065   3.716   2.496  13.622  0.7392 -0.6678  0.4763
 1536SOL     OW16066   4.369   2.291   5.828  0.5642 -0.2663  0.0876
 1536SOL    HW116067   4.287   2.256   5.793 -0.3336  0.3209  1.6011
 1536SOL    HW216068   4.356   2.245   5.911 -1.7728 -2.0585 -1.2993
 1537SOL     OW16069   4.151   0.870   1.003  0.5625 -0.2770  0.0610
 1537SOL    HW116070   4.216   0.826   1.058 -0.5225 -0.3754  1.2655
 1537SOL    HW216071   4.073   0.841   1.051 -0.2429 -0.9529 -1.6664
 1538SOL     OW16072   3.399   3.082  17.188  0.0247 -0.0450 -0.1518
 1538SOL    HW116073   3.318   3.095  17.139  2.0348  4.0533 -2.4164
 1538SOL    HW216074   3.378   3.148  17.254 -1.2136  1.0302 -1.6090
 1539SOL     OW16075   2.856   1.058  10.108 -0.0270 -0.3472 -0.0562
 1539SOL    HW116076   2.935   1.011  10.134  0.5228  3.0997  4.4074
 1539SOL    HW216077   2.789   0.992  10.123 -0.3082  0.1776  0.9569
 1540SOL     OW16078   0.217   3.266  14.354 -0.0472  0.2339 -0.0031
 1540SOL    HW116079   0.127   3.269  14.322  0.2125 -4.0483 -1.1185
 1540SOL    HW216080   0.214   3.174  14.378 -2.5920  0.1882 -0.4602
 1541SOL     OW16081   0.507   0.514   5.297  1.0470 -0.1703  0.3674
 1541SOL    HW116082   0.523   0.420   5.287  0.5652 -0.0771 -1.3218
 1541SOL    HW216083   0.591   0.545   5.331  1.1578 -0.3785  0.2888
 1542SOL     OW16084   1.713   2.178   9.068  0.4708 -0.0016  0.4966
 1542SOL    HW116085   1.705   2.238   9.142 -1.1759 -0.2757  0.5299
 1542SOL    HW216086   1.627   2.137   9.059 -0.5549  2.4097 -0.6686
 1543SOL     OW16087   0.664   0.782  15.517 -0.9745  0.2096  0.4048
 1543SOL    HW116088   0.590   0.790  15.576 -0.3902 -1.0352  1.3116
 1543SOL    HW216089   0.634   0.716  15.454  2.9150 -0.7209 -0.4896
 1544SOL     OW16090   1.720   3.880   7.492 -0.7250  0.5621 -0.3199
 1544SOL    HW116091   1.634   3.838   7.487 -0.9760  0.9685  0.7085
 1544SOL    HW216092   1.726   3.891   7.587 -0.4954  2.1710 -0.5268
 1545SOL     OW16093   0.939   4.281   3.605  0.2001  0.1241  0.1823
 1545SOL    HW116094   0.997   4.349   3.572 -1.3181  2.1624  1.7096
 1545SOL    HW216095   0.992   4.236   3.671 -0.4402 -2.6540 -1.1836
 1546SOL     OW16096   3.429   2.232   9.781 -0.1281 -0.3644  0.0329
 1546SOL    HW116097   3.510   2.280   9.797 -0.4955  1.1197 -2.5658
 1546SOL    HW216098   3.381   2.259   9.860 -0.4692 -1.9934  0.3839
 1547SOL     OW16099   1.411   2.251   5.450 -0.4691 -0.1621 -0.1299
 1547SOL    HW116100   1.479   2.252   5.382 -1.3058 -0.6462 -0.9739
 1547SOL    HW216101   1.322   2.250   5.416 -0.5564  1.5707  0.0442
 1548SOL     OW16102   0.630   0.741   7.400 -0.5223  0.6281 -0.1669
 1548SOL    HW116103   0.608   0.711   7.488 -0.7430 -2.5726 -1.3228
 1548SOL    HW216104   0.544   0.731   7.360 -1.9392 -0.3293  3.1323
 1549SOL     OW16105   3.861   0.146   6.136 -0.2456 -0.0967  0.2973
 1549SOL    HW116106   3.944   0.115   6.171  0.3358 -0.3349 -1.3220
 1549SOL    HW216107   3.823   0.062   6.112 -2.7888  1.2681 -0.4966
 1550SOL     OW16108   2.165   3.525   8.193  0.2817 -0.2282 -0.5896
 1550SOL    HW116109   2.109   3.532   8.270 -0.3792  0.9627 -1.1705
 1550SOL    HW216110   2.253   3.546   8.222  0.3234  2.5077 -2.6188
 1551SOL     OW16111   1.110   3.371   0.220  0.1907  0.3295  0.3335
 1551SOL    HW116112   1.118   3.279   0.193  1.0660  0.3611  0.4649
 1551SOL    HW216113   1.051   3.360   0.294  0.8052 -0.1073  0.7610
 1552SOL     OW16114   0.508   2.012   3.105  0.6171 -0.3900 -0.3533
 1552SOL    HW116115   0.562   2.091   3.098 -0.5497  0.5719  1.4460
 1552SOL    HW216116   0.421   2.053   3.112  0.9364  0.3561 -0.7341
 1553SOL     OW16117   3.555   1.474   8.581  0.1406  0.5844  0.0983
 1553SOL    HW116118   3.489   1.436   8.523  2.7819  0.1129 -2.5952
 1553SOL    HW216119   3.573   1.397   8.636  0.6136  0.2573 -0.5107
 1554SOL     OW16120   0.115   2.256   5.713 -0.0898 -0.2732  0.2809
 1554SOL    HW116121   0.034   2.207   5.730  0.7029 -0.4030  3.6057
 1554SOL    HW216122   0.087   2.307   5.637 -2.5564  0.9106  1.9826
 1555SOL     OW16123   2.585   3.952   4.313 -0.0739 -0.1717  0.0989
 1555SOL    HW116124   2.546   4.018   4.257  0.3668  0.5771  0.6750
 1555SOL    HW216125   2.665   3.931   4.264  1.6283 -0.3154  2.9127
 1556SOL     OW16126   0.723   2.583   6.051  0.4510  0.1678 -0.2425
 1556SOL    HW116127   0.816   2.561   6.059  0.5573  1.1217  0.9834
 1556SOL    HW216128   0.696   2.540   6.132  0.3143 -1.2087 -1.0071
 1557SOL     OW16129   0.581   3.805  11.824  0.2959  0.3741 -0.2717
 1557SOL    HW116130   0.511   3.792  11.759  0.1716  2.2958 -0.5117
 1557SOL    HW216131   0.661   3.788  11.775  0.1733  0.1597 -0.3949
 1558SOL     OW16132   0.496   1.888  10.939  0.4723  0.4689 -0.3047
 1558SOL    HW116133   0.572   1.835  10.917 -0.5184 -1.1039  0.0158
 1558SOL    HW216134   0.437   1.869  10.866  0.3408  2.4234 -0.7047
 1559SOL     OW16135   2.742   0.130  11.565  0.9760 -0.3518 -0.0323
 1559SOL    HW116136   2.814   0.159  11.509  0.3799  0.1638 -0.5261
 1559SOL    HW216137   2.791   0.083  11.633  3.0723 -1.0559 -2.0092
 1560SOL     OW16138   2.854   4.631   9.883  0.4607  0.0931  0.1772
 1560SOL    HW116139   2.931   4.687   9.894  0.3535  0.2883 -0.0718
 1560SOL    HW216140   2.816   4.625   9.971 -0.1070 -0.0488 -0.0783
 1561SOL     OW16141   3.214   2.675   0.053  0.2162  0.1454  0.3700
 1561SOL    HW116142   3.257   2.737   0.113  0.6769 -1.2215  1.4448
 1561SOL    HW216143   3.125   2.671   0.089  0.1568 -0.2042  0.1791
 1562SOL     OW16144   2.728   1.644   8.455  0.3361  0.2666  0.0570
 1562SOL    HW116145   2.760   1.624   8.543  1.7091  0.2409 -0.4484
 1562SOL    HW216146   2.745   1.558   8.417 -1.5740  0.0097 -0.2070
 1563SOL     OW16147   3.356   4.093   7.654  0.0738  0.7181  0.0885
 1563SOL    HW116148   3.273   4.116   7.696 -0.1687 -0.7265  0.4052
 1563SOL    HW216149   3.335   4.125   7.567  2.3619 -0.9709 -1.0862
 1564SOL     OW16150   0.403   0.801   8.917 -0.1973  0.5496  0.5624
 1564SOL    HW116151   0.314   0.837   8.925  0.0090  0.5543  2.7921
 1564SOL    HW216152   0.448   0.840   8.992 -1.5209  2.4815  0.3731
 1565SOL     OW16153   4.517   3.469  16.229  0.1220  0.4139  0.1374
 1565SOL    HW116154   4.580   3.479  16.300  1.7977  1.7363 -1.5375
 1565SOL    HW216155   4.448   3.530  16.257 -0.0521 -0.4255  1.5337
 1566SOL     OW16156   0.753   4.293  17.044 -0.1320  0.0197 -0.3881
 1566SOL    HW116157   0.709   4.321  17.124  2.4240 -0.3880  1.1470
 1566SOL    HW216158   0.835   4.253  17.074 -0.5881 -1.5747 -1.2611
 1567SOL     OW16159   0.029   2.515  15.387 -0.3051  0.0521  0.2052
 1567SOL    HW116160   4.681   2.467  15.430 -1.1306  0.7940 -0.3376
 1567SOL    HW216161   0.050   2.455  15.316 -1.5653 -0.2168  0.0597
 1568SOL     OW16162   0.351   1.961  12.038  0.2205  0.3500  0.1721
 1568SOL    HW116163   0.364   1.867  12.050  1.4821  0.6292  1.0233
 1568SOL    HW216164   0.298   1.965  11.958  0.3510  3.7118  0.2595
 1569SOL     OW16165   0.122   0.145   4.520  0.0316  0.6801 -0.1298
 1569SOL    HW116166   0.163   0.072   4.567  0.2826 -0.1424 -1.6617
 1569SOL    HW216167   0.054   0.102   4.468  1.6538 -0.3644 -1.3753
 1570SOL     OW16168   0.005   1.087   3.013  0.4190 -0.3432  0.0620
 1570SOL    HW116169   4.659   1.061   3.074 -0.0445 -0.3808 -0.4768
 1570SOL    HW216170   4.690   1.046   2.935  3.8383 -2.0237 -0.7039
 1571SOL     OW16171   0.936   4.173  13.838 -0.3942  0.3763 -0.4913
 1571SOL    HW116172   0.993   4.250  13.840 -0.0422  0.0978  0.4819
 1571SOL    HW216173   0.873   4.203  13.773 -0.9548 -1.5727 -0.8418
 1572SOL     OW16174   0.513   1.325   9.482  0.1162 -0.0573 -0.4164
 1572SOL    HW116175   0.578   1.337   9.551 -0.4575 -2.3882  0.5264
 1572SOL    HW216176   0.566   1.284   9.414  0.1981 -1.5041  0.5059
 1573SOL     OW16177   2.159   0.039   9.453  0.2519 -0.1537  0.2557
 1573SOL    HW116178   2.206   4.692   9.407  0.6078 -1.2768  2.3223
 1573SOL    HW216179   2.177   0.117   9.400 -1.0043 -0.8651 -1.2392
 1574SOL     OW16180   0.536   0.258   5.645 -0.7763 -0.3949  0.1069
 1574SOL    HW116181   0.496   0.241   5.730 -0.2942  0.4936  0.5029
 1574SOL    HW216182   0.499   0.189   5.590 -0.8015 -0.6187  0.4052
 1575SOL     OW16183   4.696   1.172   0.701  0.3083 -0.2542  0.1329
 1575SOL    HW116184   0.011   1.208   0.781 -1.4383  0.3600  0.6912
 1575SOL    HW216185   4.715   1.241   0.638  1.1204  0.9441  1.6709
 1576SOL     OW16186   4.095   1.133   6.802  0.0788 -0.7397 -0.3454
 1576SOL    HW116187   4.074   1.185   6.724 -1.7052 -1.3620 -0.2730
 1576SOL    HW216188   4.010   1.104   6.834  1.5957 -2.3353  2.2086
 1577SOL     OW16189   1.031   0.653   8.146  0.1167  0.2173  0.2313
 1577SOL    HW116190   0.938   0.666   8.164 -0.3372 -2.6004 -0.1313
 1577SOL    HW216191   1.035   0.573   8.093  0.1477 -1.2755  2.5198
 1578SOL     OW16192   3.929   1.292  13.482  0.4514  0.2788  0.0338
 1578SOL    HW116193   3.895   1.266  13.567 -0.3168 -0.2372 -0.4348
 1578SOL    HW216194   4.021   1.291  13.510  0.9437 -0.6334 -1.5925
 1579SOL     OW16195   4.021   4.370  10.006 -0.4472 -0.0997 -0.0767
 1579SOL    HW116196   4.062   4.445   9.963  1.3199 -1.3168 -0.4913
 1579SOL    HW216197   4.029   4.393  10.098  1.0101 -3.2699  0.5725
 1580SOL     OW16198   3.141   2.798   1.316 -0.5428  0.3993 -0.2155
 1580SOL    HW116199   3.097   2.858   1.256 -1.5700 -0.9570 -0.8328
 1580SOL    HW216200   3.172   2.733   1.252  0.7042  0.6783  0.0992
 1581SOL     OW16201   4.097   4.329   7.677 -0.2023 -0.3502 -0.2945
 1581SOL    HW116202   4.065   4.239   7.661  1.2920 -1.0610  0.7629
 1581SOL    HW216203   4.151   4.320   7.755  1.2774  1.3999 -1.1190
 1582SOL     OW16204   0.919   4.545   5.367 -0.1514  0.2450  0.0671
 1582SOL    HW116205   0.977   4.470   5.365  0.5500  0.7557  1.5563
 1582SOL    HW216206   0.977   4.611   5.405 -1.5464  0.1764  2.2879
 1583SOL     OW16207   0.555   3.542   8.285 -0.1569 -0.2637 -0.5920
 1583SOL    HW116208   0.491   3.505   8.346  0.5760 -0.7021 -0.0980
 1583SOL    HW216209   0.614   3.593   8.340 -1.3528  0.6720 -0.1685
 1584SOL     OW16210   2.068   2.739   1.981 -0.0543 -0.1837  0.3938
 1584SOL    HW116211   2.101   2.735   2.071  2.6089  2.3921 -0.4688
 1584SOL    HW216212   2.096   2.828   1.957  1.2507 -0.7728 -0.2629
 1585SOL     OW16213   4.024   3.946   6.757 -0.1961  0.6528 -0.4070
 1585SOL    HW116214   3.936   3.952   6.795  0.1830  0.6018  0.4840
 1585SOL    HW216215   4.054   4.036   6.746 -0.5499  0.9338  0.8232
 1586SOL     OW16216   0.774   4.656  10.321  0.1869  0.0302 -0.0260
 1586SOL    HW116217   0.784   4.699  10.236 -2.2995  2.8827  1.1179
 1586SOL    HW216218   0.856   4.676  10.366  0.1158 -0.4095  0.2855
 1587SOL     OW16219   1.129   1.445   3.804 -0.1973 -0.2588  0.6100
 1587SOL    HW116220   1.165   1.357   3.791  0.8929  0.5769 -2.0718
 1587SOL    HW216221   1.072   1.464   3.730  2.4889 -1.5922 -1.8069
 1588SOL     OW16222   0.783   2.157   3.285 -0.2044  0.0123 -0.1661
 1588SOL    HW116223   0.738   2.164   3.370 -1.5878  0.4947 -0.9431
 1588SOL    HW216224   0.748   2.233   3.239 -1.1036 -0.4469 -0.2582
 1589SOL     OW16225   1.247   0.455   8.956 -0.3606 -0.0259 -0.3588
 1589SOL    HW116226   1.169   0.457   8.899  0.5857  2.7252 -1.5867
 1589SOL    HW216227   1.317   0.415   8.905  0.4608 -0.4763  1.1508
 1590SOL     OW16228   2.889   2.059  12.540  0.2514  0.3024 -0.6651
 1590SOL    HW116229   2.952   2.095  12.478  0.2903  2.7513  0.7902
 1590SOL    HW216230   2.827   2.133  12.541  2.0757  1.8257 -0.5748
 1591SOL     OW16231   3.382   4.290   4.041 -0.2693 -0.5500 -0.4060
 1591SOL    HW116232   3.371   4.362   4.103  0.5189  0.4358 -1.4024
 1591SOL    HW216233   3.379   4.214   4.099  3.8024  1.2200  2.1411
 1592SOL     OW16234   4.311   4.359   4.819 -0.2890  0.4236  0.1241
 1592SOL    HW116235   4.299   4.362   4.914 -2.5072 -0.9654 -0.1210
 1592SOL    HW216236   4.398   4.320   4.810 -1.3810 -1.8033 -0.7545
 1593SOL     OW16237   0.398   3.643   7.019 -0.4475  0.5805  0.0205
 1593SOL    HW116238   0.365   3.700   7.089  0.2947 -2.1337  2.5838
 1593SOL    HW216239   0.396   3.554   7.055 -1.2559  0.4887 -0.2464
 1594SOL     OW16240   1.925   3.044   3.621 -0.2798 -0.1573  0.0596
 1594SOL    HW116241   1.927   3.047   3.717 -0.6934 -0.1374  0.0690
 1594SOL    HW216242   1.997   2.983   3.611 -0.7276 -0.5321 -0.8690
 1595SOL     OW16243   0.342   0.031  16.408 -0.2442  0.0466  0.4627
 1595SOL    HW116244   0.341   0.060  16.316 -0.8008  1.7949  1.0247
 1595SOL    HW216245   0.352   0.117  16.448 -1.0631 -0.3753  1.5676
 1596SOL     OW16246   1.708   2.823   5.919  0.2139 -0.1313 -0.2410
 1596SOL    HW116247   1.778   2.824   5.854  1.4607 -0.9651  1.0904
 1596SOL    HW216248   1.666   2.909   5.919  0.5035  0.0124 -0.0126
 1597SOL     OW16249   1.929   3.411  13.458 -0.7368 -0.1038 -0.0892
 1597SOL    HW116250   1.961   3.375  13.375 -2.0260 -0.8052 -0.2839
 1597SOL    HW216251   1.913   3.331  13.509 -0.4264 -1.2861 -1.8408
 1598SOL     OW16252   2.301   2.954  16.287  0.0940  0.0114  0.0622
 1598SOL    HW116253   2.251   3.007  16.225 -0.0212 -0.6754 -0.4421
 1598SOL    HW216254   2.277   2.862  16.275  1.1474 -0.2578  0.0717
 1599SOL     OW16255   2.905   1.601   7.692 -0.1431  0.0384  0.4195
 1599SOL    HW116256   2.977   1.646   7.736 -0.2891  0.2324  0.4580
 1599SOL    HW216257   2.951   1.526   7.655  0.5216  0.9625 -0.6225
 1600SOL     OW16258   1.205   2.662   0.285 -0.3667  0.3587 -0.7356
 1600SOL    HW116259   1.191   2.730   0.220 -2.0666 -2.6240 -3.4703
 1600SOL    HW216260   1.237   2.591   0.229  2.7140 -0.6954  2.3188
 1601SOL     OW16261   3.099   2.274  12.127  0.9280  0.6901  0.1133
 1601SOL    HW116262   3.111   2.363  12.160 -1.1984 -0.0118  2.8119
 1601SOL    HW216263   3.010   2.291  12.097  1.0801 -2.1410 -1.8637
 1602SOL     OW16264   4.095   0.224  11.335  0.5069 -0.1352 -0.1915
 1602SOL    HW116265   4.184   0.245  11.308  0.7862 -0.9089  0.1349
 1602SOL    HW216266   4.056   0.308  11.362 -0.2913 -0.8270  0.8357
 1603SOL     OW16267   0.213   2.993   7.438 -0.5567  0.1175  0.4356
 1603SOL    HW116268   0.145   3.000   7.505 -0.3874  0.7090  0.5413
 1603SOL    HW216269   0.170   3.010   7.354  0.6749 -0.0222 -0.2292
 1604SOL     OW16270   2.370   4.583  10.112  0.0334 -0.3944  0.5424
 1604SOL    HW116271   2.276   4.601  10.118 -0.3221 -1.9438 -0.3741
 1604SOL    HW216272   2.352   4.492  10.136 -3.9474 -0.3327 -2.1541
 1605SOL     OW16273   4.430   1.252   4.020  0.1346 -0.6272 -0.5965
 1605SOL    HW116274   4.489   1.299   3.961 -1.1447  3.3781  1.3737
 1605SOL    HW216275   4.362   1.224   3.958 -0.4721  1.1158 -0.7025
 1606SOL     OW16276   0.228   0.557  10.136  0.3131 -0.3665  0.3285
 1606SOL    HW116277   0.209   0.464  10.148 -0.3297 -0.1539  0.9394
 1606SOL    HW216278   0.312   0.539  10.094 -0.7314 -1.3204 -1.3715
 1607SOL     OW16279   2.504   0.417   3.042  0.2002  0.6801  0.4309
 1607SOL    HW116280   2.480   0.341   2.989 -2.5099  1.5374  0.4400
 1607SOL    HW216281   2.418   0.421   3.083  0.6746 -2.9655  1.8021
 1608SOL     OW16282   3.847   1.517   2.736  0.2269  0.1496  0.6522
 1608SOL    HW116283   3.826   1.598   2.782  1.3805 -0.0972  1.6333
 1608SOL    HW216284   3.837   1.452   2.806  3.6557 -2.0101 -0.8564
 1609SOL     OW16285   0.158   1.637   2.082  0.0184  1.0577  0.6151
 1609SOL    HW116286   0.097   1.710   2.090 -2.4733 -1.1100  1.4024
 1609SOL    HW216287   0.235   1.668   2.130  0.9210 -0.8141  0.3907
 1610SOL     OW16288   3.201   0.445   5.249 -0.2330  0.3797  0.8663
 1610SOL    HW116289   3.112   0.480   5.250 -0.5630 -0.4471  0.2114
 1610SOL    HW216290   3.252   0.526   5.239 -0.4341  0.2097 -1.4263
 1611SOL     OW16291   0.368   0.646   1.722  0.0919  0.1698 -0.2211
 1611SOL    HW116292   0.319   0.690   1.652 -0.1372  0.1356 -0.0799
 1611SOL    HW216293   0.359   0.711   1.791  0.7615  1.1205 -1.0267
 1612SOL     OW16294   0.966   0.767   4.490 -0.2967  0.5555 -0.9337
 1612SOL    HW116295   1.007   0.837   4.440  0.0423  0.2059 -1.1432
 1612SOL    HW216296   1.049   0.721   4.504 -0.8710  0.8575  3.4569
 1613SOL     OW16297   1.518   3.905   5.300 -0.4111 -0.1380  0.3934
 1613SOL    HW116298   1.483   3.838   5.241 -2.2655  0.4867  0.7766
 1613SOL    HW216299   1.565   3.845   5.358  1.1581 -1.1435 -1.9265
 1614SOL     OW16300   2.238   0.381   6.343  0.7071 -0.4210  0.6452
 1614SOL    HW116301   2.173   0.364   6.411  0.0022  0.3888  0.1652
 1614SOL    HW216302   2.278   0.294   6.347  0.9638 -0.3981 -1.3972
 1615SOL     OW16303   4.274   3.830   8.717  0.4548 -0.0280  0.0623
 1615SOL    HW116304   4.207   3.895   8.737 -0.3063 -0.8412  0.1401
 1615SOL    HW216305   4.266   3.770   8.791  0.7269  1.4373  1.2791
 1616SOL     OW16306   4.375   1.890   8.277 -0.3166 -0.1376 -0.0260
 1616SOL    HW116307   4.413   1.968   8.237 -0.9482 -0.4529 -1.2425
 1616SOL    HW216308   4.417   1.893   8.363  2.9555 -1.7074 -1.5804
 1617SOL     OW16309   1.622   1.363   2.787  0.2030  0.0128 -0.3607
 1617SOL    HW116310   1.677   1.416   2.729 -0.1774  0.0233 -0.7218
 1617SOL    HW216311   1.684   1.303   2.828  0.2297 -0.2619 -0.7991
 1618SOL     OW16312   1.736   3.613   3.085 -0.0300 -0.2794 -0.2181
 1618SOL    HW116313   1.711   3.521   3.077  0.5353 -0.5390  1.0544
 1618SOL    HW216314   1.810   3.614   3.146 -1.0026 -1.9214  0.9887
 1619SOL     OW16315   0.670   2.761  10.710 -0.1867 -0.1200 -0.4636
 1619SOL    HW116316   0.752   2.774  10.758 -0.5974  1.2632 -0.1374
 1619SOL    HW216317   0.620   2.839  10.733  0.4738 -0.1326  1.0633
 1620SOL     OW16318   0.861   1.525  16.462 -0.3862 -0.4503 -0.2401
 1620SOL    HW116319   0.882   1.613  16.493 -2.4066  0.1606 -0.6217
 1620SOL    HW216320   0.919   1.507  16.388  0.7354  1.1272  0.2661
 1621SOL     OW16321   3.762   0.504   3.928 -0.0501 -0.8720 -0.5922
 1621SOL    HW116322   3.709   0.458   3.863 -1.6846  0.7737 -0.4189
 1621SOL    HW216323   3.842   0.453   3.935  1.4106  1.6624  1.0473
 1622SOL     OW16324   1.485   1.600   3.671 -0.0181  0.2916  0.2112
 1622SOL    HW116325   1.572   1.569   3.695  0.6212  1.5108 -0.5609
 1622SOL    HW216326   1.491   1.692   3.646 -0.7817  0.6680  1.4305
 1623SOL     OW16327   0.609   2.467   1.559  0.1452 -0.0125 -0.3441
 1623SOL    HW116328   0.575   2.386   1.598  0.0741  0.6447  0.9788
 1623SOL    HW216329   0.685   2.494   1.611 -0.5682  0.8027  0.2841
 1624SOL     OW16330   1.667   3.809  13.667 -0.0479  0.2981 -0.2609
 1624SOL    HW116331   1.589   3.769  13.706 -1.0531 -0.3095 -2.8963
 1624SOL    HW216332   1.692   3.733  13.614  3.7531  0.5375  1.2114
 1625SOL     OW16333   3.493   0.289   7.539 -0.3645 -0.5826  0.0455
 1625SOL    HW116334   3.401   0.272   7.522 -0.7686 -0.1805  1.8184
 1625SOL    HW216335   3.502   0.238   7.620 -2.0089 -1.1794 -0.1598
 1626SOL     OW16336   0.228   3.980  13.644  0.0214 -0.0415  0.3705
 1626SOL    HW116337   0.271   3.909  13.596  0.8930  0.2736  0.7024
 1626SOL    HW216338   0.172   3.926  13.700 -1.3106  1.5808  0.6032
 1627SOL     OW16339   2.515   4.672   5.918 -0.0592 -0.6575 -0.1007
 1627SOL    HW116340   2.572   4.639   5.849  0.0725  0.1918 -0.3914
 1627SOL    HW216341   2.577   4.665   5.991  0.1927 -0.8517 -0.3333
 1628SOL     OW16342   3.310   1.493  15.930  0.0300  0.1424 -0.4248
 1628SOL    HW116343   3.353   1.420  15.886 -0.0879  0.2959 -0.7953
 1628SOL    HW216344   3.284   1.454  16.014  1.0017 -1.6803 -0.9639
 1629SOL     OW16345   0.439   0.339   3.703 -1.1602  0.5944 -0.2238
 1629SOL    HW116346   0.524   0.372   3.675 -0.6145  0.0988  0.8331
 1629SOL    HW216347   0.403   0.418   3.743 -2.0118 -0.2512  0.6963
 1630SOL     OW16348   0.205   2.398   6.686  0.0583 -0.5241  0.7640
 1630SOL    HW116349   0.205   2.390   6.590  1.5871  0.6403  0.6652
 1630SOL    HW216350   0.114   2.379   6.709 -0.0757 -1.1803 -0.2988
 1631SOL     OW16351   1.418   4.018   2.953  0.3445 -0.6286 -0.0129
 1631SOL    HW116352   1.344   3.989   3.007 -0.0274  2.0551  0.9275
 1631SOL    HW216353   1.479   3.944   2.960  1.5957  0.5117  1.3726
 1632SOL     OW16354   4.263   1.871   7.832  0.6324 -0.3440 -0.4328
 1632SOL    HW116355   4.319   1.811   7.784 -0.8017 -1.6237 -0.5201
 1632SOL    HW216356   4.256   1.830   7.918 -0.2621  1.3653  0.3110
 1633SOL     OW16357   4.524   1.199  16.995  0.0086  0.3082 -0.0306
 1633SOL    HW116358   4.563   1.112  17.008 -0.1339  0.1698 -0.5287
 1633SOL    HW216359   4.533   1.235  17.084  0.9500 -0.4275  0.1788
 1634SOL     OW16360   0.970   0.251   1.271 -0.0152 -0.0167 -0.3268
 1634SOL    HW116361   0.880   0.225   1.292  0.0814  0.5311  0.7792
 1634SOL    HW216362   0.950   0.283   1.183 -1.3516  1.2863  0.4548
 1635SOL     OW16363   0.122   0.974   8.590  0.6148 -0.1837 -0.2833
 1635SOL    HW116364   0.109   0.934   8.676 -1.0712 -2.3278 -1.5364
 1635SOL    HW216365   0.086   1.059   8.614  1.2721  0.6391 -2.2548
 1636SOL     OW16366   4.597   3.461  17.500  0.0197  0.2427 -0.0111
 1636SOL    HW116367   4.662   3.512  17.549  1.5585 -1.3899 -0.3852
 1636SOL    HW216368   4.658   3.418  17.441 -0.1578 -2.3898  1.7425
 1637SOL     OW16369   3.030   4.630   1.743  0.3068  0.0845  0.6244
 1637SOL    HW116370   3.003   4.702   1.801  1.5279  1.6218 -0.7153
 1637SOL    HW216371   3.000   4.555   1.794 -0.6428  0.0551  0.0139
 1638SOL     OW16372   0.442   0.347  13.398 -0.1792  0.0506  0.0939
 1638SOL    HW116373   0.476   0.407  13.464 -1.0081  0.3898  0.2127
 1638SOL    HW216374   0.497   0.354  13.320 -1.6415  0.2118 -0.9150
 1639SOL     OW16375   2.436   3.807   4.486  0.3361 -0.4624  0.0380
 1639SOL    HW116376   2.472   3.719   4.494 -0.1006 -0.6930 -0.4962
 1639SOL    HW216377   2.492   3.835   4.413  1.2832 -1.0625  0.5369
 1640SOL     OW16378   3.470   0.012   5.326  0.0161  0.2283  0.5270
 1640SOL    HW116379   3.399   0.074   5.340  1.7450  2.0662  1.1565
 1640SOL    HW216380   3.545   0.072   5.331  1.2408 -1.4147  2.0327
 1641SOL     OW16381   1.600   4.141   6.464  0.0859 -0.1007  0.5419
 1641SOL    HW116382   1.585   4.213   6.525  1.9223  0.6814  0.0914
 1641SOL    HW216383   1.517   4.105   6.432 -0.9172  1.1343  1.7776
 1642SOL     OW16384   1.745   4.695   0.954  0.0692 -0.2647 -0.6275
 1642SOL    HW116385   1.785   4.613   0.985  0.7761 -1.0651 -3.6890
 1642SOL    HW216386   1.796   0.042   0.994  0.3415  0.3163 -2.0111
 1643SOL     OW16387   2.960   1.675   7.235  0.2610  0.9455  0.1590
 1643SOL    HW116388   3.015   1.726   7.294  0.8481  0.9264 -0.3642
 1643SOL    HW216389   2.948   1.590   7.278 -1.1735  1.0195 -0.0892
 1644SOL     OW16390   3.083   0.589   0.469 -0.0945  0.1435  0.0693
 1644SOL    HW116391   3.100   0.537   0.391  0.9319  1.4451 -0.5745
 1644SOL    HW216392   3.174   0.605   0.495 -0.0229  1.6063 -1.0895
 1645SOL     OW16393   2.098   3.846  16.717 -0.4994  0.0567  0.1753
 1645SOL    HW116394   2.166   3.913  16.727 -0.0087 -0.3410 -0.5692
 1645SOL    HW216395   2.137   3.767  16.752  0.1011  0.6527  0.8595
 1646SOL     OW16396   2.395   0.884   6.672  0.4228  0.2721  0.2813
 1646SOL    HW116397   2.460   0.813   6.667 -1.9813 -1.9975  1.2605
 1646SOL    HW216398   2.449   0.957   6.702  0.0006  0.0673  1.5367
 1647SOL     OW16399   1.210   0.747   8.773  0.0085  0.5066 -0.1118
 1647SOL    HW116400   1.167   0.750   8.859  0.7655 -1.9282  0.3541
 1647SOL    HW216401   1.136   0.738   8.712  0.5956 -0.3359 -0.6933
 1648SOL     OW16402   1.629   4.613   3.114  0.5428 -0.2326  0.6399
 1648SOL    HW116403   1.553   4.670   3.098  0.4290  0.0416  2.1121
 1648SOL    HW216404   1.693   4.659   3.060  0.6500 -0.6945  0.3751
 1649SOL     OW16405   0.154   4.077   6.687  0.0165  0.6130 -0.1992
 1649SOL    HW116406   0.198   4.041   6.765 -0.9640  1.1239  0.5950
 1649SOL    HW216407   0.086   4.121   6.737 -1.2423  0.4850 -1.8267
 1650SOL     OW16408   0.863   0.554  15.877  0.4909  0.4396  0.7144
 1650SOL    HW116409   0.792   0.502  15.916  2.6863 -2.8251  0.3498
 1650SOL    HW216410   0.938   0.511  15.918 -0.2006 -0.7268  0.7600
 1651SOL     OW16411   1.877   0.969   3.751 -0.3267  0.1422 -0.5006
 1651SOL    HW116412   1.905   0.995   3.839 -3.3727  0.1814  0.4690
 1651SOL    HW216413   1.903   1.045   3.700 -1.8352  0.6360 -0.5201
 1652SOL     OW16414   3.935   1.307  13.208 -0.0935  0.5057 -0.1428
 1652SOL    HW116415   3.915   1.312  13.301  0.5752  3.7265 -0.1633
 1652SOL    HW216416   3.860   1.321  13.151 -1.3720 -2.8278  0.7570
 1653SOL     OW16417   1.295   3.551   0.566 -0.0152 -0.4467 -0.2565
 1653SOL    HW116418   1.314   3.564   0.473 -0.7520  0.6519 -0.2572
 1653SOL    HW216419   1.219   3.607   0.580 -0.5209 -0.9716 -0.9238
 1654SOL     OW16420   4.674   2.074   3.352  0.5233  0.0603  0.5033
 1654SOL    HW116421   4.614   2.131   3.400 -2.0317 -1.1609 -1.2740
 1654SOL    HW216422   0.005   2.044   3.424 -0.1601 -0.6891  0.7058
 1655SOL     OW16423   3.756   4.318   7.514  0.0230 -0.1393  0.2448
 1655SOL    HW116424   3.747   4.291   7.606 -0.1480  2.1765  0.9101
 1655SOL    HW216425   3.767   4.413   7.518  0.6681 -0.1714 -0.8449
 1656SOL     OW16426   3.338   1.976   6.037  0.8013 -0.0211  1.1256
 1656SOL    HW116427   3.263   1.926   6.070  0.0329  1.1302  1.1225
 1656SOL    HW216428   3.407   1.913   6.060 -0.2132 -2.1598 -1.7447
 1657SOL     OW16429   2.755   4.174   5.942  0.2877  0.1859  0.8415
 1657SOL    HW116430   2.805   4.093   5.947  0.1016 -0.1068 -2.0869
 1657SOL    HW216431   2.809   4.223   5.880 -1.8441  0.9009 -0.4385
 1658SOL     OW16432   2.688   2.798   4.521 -0.0023 -0.4422 -0.1868
 1658SOL    HW116433   2.695   2.893   4.530  3.0602 -0.6855  0.0327
 1658SOL    HW216434   2.599   2.793   4.555  0.6545  1.2271  1.8285
 1659SOL     OW16435   0.002   0.859   1.956  0.0918  0.3966 -0.9299
 1659SOL    HW116436   4.674   0.930   1.917  2.3492  1.0778 -2.6509
 1659SOL    HW216437   0.006   0.790   1.890 -1.6904 -1.5996  1.0448
 1660SOL     OW16438   1.660   2.206   0.461  0.7639  0.8433 -0.8111
 1660SOL    HW116439   1.649   2.171   0.373 -0.2675 -0.5006 -0.1373
 1660SOL    HW216440   1.754   2.225   0.468  0.6807  0.5088  1.0362
 1661SOL     OW16441   0.103   1.160  11.047  0.6689  0.1578 -0.3785
 1661SOL    HW116442   0.135   1.148  10.958 -2.6551 -2.0218 -1.2930
 1661SOL    HW216443   0.025   1.213  11.031  0.0901 -0.4086  0.5718
 1662SOL     OW16444   2.425   1.234   8.905 -0.5315  0.4017  0.2472
 1662SOL    HW116445   2.519   1.240   8.885 -0.5442 -0.5296 -0.0620
 1662SOL    HW216446   2.412   1.292   8.980 -0.9291  0.4343  0.1515
 1663SOL     OW16447   1.212   0.096   9.230 -0.0340 -0.7519  0.2816
 1663SOL    HW116448   1.135   0.065   9.182 -0.1030 -0.1495 -0.0029
 1663SOL    HW216449   1.185   0.066   9.317  1.1297 -2.3468  0.0833
 1664SOL     OW16450   1.536   1.037   3.416 -0.8907 -0.0451 -0.0913
 1664SOL    HW116451   1.568   1.074   3.334 -0.9643  0.8663  0.2976
 1664SOL    HW216452   1.604   0.972   3.434 -2.0269 -1.0018  0.6986
 1665SOL     OW16453   3.863   2.543   2.159 -0.3554  0.2363 -0.2072
 1665SOL    HW116454   3.847   2.479   2.229  0.4382 -0.0998 -0.3281
 1665SOL    HW216455   3.932   2.508   2.102 -1.0822  0.8335 -1.4339
 1666SOL     OW16456   1.106   2.420   6.751 -0.0107  0.2474 -0.5419
 1666SOL    HW116457   1.103   2.486   6.820  0.2521 -1.1877  0.8649
 1666SOL    HW216458   1.141   2.343   6.796 -0.9571 -0.6327 -1.3279
 1667SOL     OW16459   1.651   1.416  17.328 -0.4178 -0.0483 -0.6730
 1667SOL    HW116460   1.706   1.404  17.406  0.2521 -0.0402 -1.1449
 1667SOL    HW216461   1.615   1.327  17.329  1.2772 -0.6954  4.1920
 1668SOL     OW16462   3.872   3.198   8.675  0.3352  0.0397  0.4884
 1668SOL    HW116463   3.866   3.287   8.709 -1.8044  0.4824 -1.0839
 1668SOL    HW216464   3.964   3.210   8.649 -0.4211  0.2539 -2.0819
 1669SOL     OW16465   3.139   4.582   8.241 -0.1978 -0.3845  0.2082
 1669SOL    HW116466   3.200   4.598   8.168  0.2962  0.3710  0.7807
 1669SOL    HW216467   3.094   4.503   8.211 -1.1067  0.6652 -1.1822
 1670SOL     OW16468   1.953   4.708   1.652  0.8113 -0.3183 -0.3297
 1670SOL    HW116469   1.961   0.029   1.737  0.2693  0.1342 -0.5160
 1670SOL    HW216470   1.942   4.619   1.685  2.3718  0.4609  2.3171
 1671SOL     OW16471   4.122   0.877   9.310 -0.4502  0.1861  0.6591
 1671SOL    HW116472   4.127   0.805   9.372 -1.0148 -1.8149 -1.6208
 1671SOL    HW216473   4.086   0.945   9.367  0.7648 -0.8901  2.6933
 1672SOL     OW16474   3.989   0.063   7.420 -0.4931  0.2562  0.3241
 1672SOL    HW116475   3.924   4.717   7.430  0.1571 -0.0550  2.3241
 1672SOL    HW216476   4.071   0.019   7.396  0.0659  0.2255  2.2716
 1673SOL     OW16477   4.471   3.641  15.701  0.0052 -0.3369  0.1290
 1673SOL    HW116478   4.502   3.688  15.778  2.1348  0.0989 -0.9891
 1673SOL    HW216479   4.427   3.571  15.749 -0.9393  1.4742  1.9131
 1674SOL     OW16480   3.355   2.087  10.097 -0.0091 -0.0386  0.4407
 1674SOL    HW116481   3.327   2.172  10.061 -0.0414 -0.0107  0.5329
 1674SOL    HW216482   3.275   2.056  10.139  0.2678 -2.6867 -1.0005
 1675SOL     OW16483   1.220   2.869   5.802  0.0424 -0.1942 -0.1518
 1675SOL    HW116484   1.170   2.872   5.883  0.0379 -0.5881 -0.1406
 1675SOL    HW216485   1.239   2.963   5.792  2.0221 -0.6479 -0.5883
 1676SOL     OW16486   2.353   2.002   8.039 -0.3304 -0.3729  0.5916
 1676SOL    HW116487   2.279   2.062   8.034  0.5427  0.7629  1.1072
 1676SOL    HW216488   2.410   2.055   8.095 -2.3011  0.9795  1.3102
 1677SOL     OW16489   0.799   0.204  12.318  0.1001  0.1410  0.2882
 1677SOL    HW116490   0.757   0.162  12.394  2.4212 -0.7595  1.0504
 1677SOL    HW216491   0.866   0.256  12.361 -0.5694  1.4830 -0.2788
 1678SOL     OW16492   3.966   4.454  14.358 -0.2480 -0.1622  0.1031
 1678SOL    HW116493   4.023   4.384  14.390  0.1790  0.7518  1.3475
 1678SOL    HW216494   4.015   4.526  14.398 -0.6715  0.8221 -1.1531
 1679SOL     OW16495   3.151   4.251   9.946 -0.3319  0.3692 -0.0427
 1679SOL    HW116496   3.182   4.191   9.879 -2.0972 -0.4270 -0.1573
 1679SOL    HW216497   3.132   4.318   9.881 -0.2894 -0.6104 -1.0575
 1680SOL     OW16498   4.564   1.149   1.481 -0.1060  0.7211 -0.5435
 1680SOL    HW116499   4.615   1.221   1.517  0.8127 -0.3346  0.2710
 1680SOL    HW216500   4.581   1.085   1.551  0.7880 -0.4884 -1.8550
 1681SOL     OW16501   4.650   3.248   5.914  0.3084 -0.0355 -0.1531
 1681SOL    HW116502   4.621   3.162   5.946 -0.3896 -0.7379 -2.6501
 1681SOL    HW216503   4.561   3.277   5.892  0.5024 -0.3472 -1.3657
 1682SOL     OW16504   2.874   0.942  13.621  0.2775  0.0342  0.8229
 1682SOL    HW116505   2.890   0.977  13.533  3.1220 -1.3081  0.8206
 1682SOL    HW216506   2.894   1.022  13.671  1.8589  0.9244 -1.2432
 1683SOL     OW16507   3.038   1.660  11.565  0.3499  0.2992  0.0477
 1683SOL    HW116508   3.065   1.743  11.526 -0.2233  1.5410  2.3569
 1683SOL    HW216509   3.019   1.692  11.653  0.7639 -0.2062  0.3208
 1684SOL     OW16510   0.559   4.405  11.252 -0.2110 -0.0546 -0.6159
 1684SOL    HW116511   0.612   4.474  11.212  0.1022 -0.2680 -0.5641
 1684SOL    HW216512   0.489   4.453  11.296  1.2274  0.3922  1.1743
 1685SOL     OW16513   1.286   2.614  14.654 -0.7320  0.1656 -0.3810
 1685SOL    HW116514   1.230   2.539  14.634  0.2552 -1.0463  1.4934
 1685SOL    HW216515   1.229   2.668  14.708  0.6028  1.0364  0.1609
 1686SOL     OW16516   2.881   0.057   6.633  0.1125 -0.1040 -0.1176
 1686SOL    HW116517   2.903   4.687   6.634 -1.4594 -0.4747 -0.3149
 1686SOL    HW216518   2.956   0.079   6.577 -0.2473  2.2901  0.3671
 1687SOL     OW16519   3.704   0.326  11.807  0.5159 -0.0408  0.4558
 1687SOL    HW116520   3.767   0.353  11.873  0.7914 -0.3737  0.3292
 1687SOL    HW216521   3.643   0.400  11.810  1.7392  1.0854 -1.9019
 1688SOL     OW16522   0.473   4.244  15.014  0.1413 -0.3329  1.1748
 1688SOL    HW116523   0.433   4.237  14.928  1.0776  0.1720  0.6934
 1688SOL    HW216524   0.544   4.307  15.002  0.1909 -0.2807  1.7251
 1689SOL     OW16525   4.642   2.885   3.370  0.3541  0.0848  0.3170
 1689SOL    HW116526   4.624   2.799   3.409 -0.3862  0.5061  0.8966
 1689SOL    HW216527   4.668   2.938   3.446  0.8294 -0.7246  0.7237
 1690SOL     OW16528   0.330   0.106   8.271  0.2622  0.6747 -0.1007
 1690SOL    HW116529   0.301   0.185   8.226 -0.8431  1.1586  1.4826
 1690SOL    HW216530   0.273   0.047   8.221 -0.7480  0.9382  0.7520
 1691SOL     OW16531   4.497   0.374   2.660 -0.1599 -0.6564 -0.0459
 1691SOL    HW116532   4.481   0.280   2.654  1.0442 -1.0035  2.1079
 1691SOL    HW216533   4.409   0.399   2.689 -0.4185 -0.5152 -0.9665
 1692SOL     OW16534   1.306   4.021   1.750  0.7795  0.1731 -0.6328
 1692SOL    HW116535   1.387   3.970   1.746  0.2645 -0.9117  2.4966
 1692SOL    HW216536   1.249   3.968   1.695  0.3935 -0.9822  0.8695
 1693SOL     OW16537   2.106   4.701   7.337 -0.9221  0.3336  0.4561
 1693SOL    HW116538   2.197   4.686   7.361  0.0677  2.3252 -2.2153
 1693SOL    HW216539   2.086   0.056   7.390  2.6860  0.4362  1.6811
 1694SOL     OW16540   1.904   0.835  15.500  0.1691  0.4176  0.2562
 1694SOL    HW116541   1.936   0.831  15.410 -1.0264 -1.5480 -0.0721
 1694SOL    HW216542   1.844   0.909  15.500 -1.5323 -0.9596 -2.4645
 1695SOL     OW16543   1.474   1.800   6.183  0.0364  0.4044 -0.2669
 1695SOL    HW116544   1.490   1.779   6.275  0.3756  0.2209 -0.3673
 1695SOL    HW216545   1.414   1.727   6.168  0.2311  0.7155 -2.4931
 1696SOL     OW16546   4.363   2.939  16.932 -0.2300 -0.6234 -0.3338
 1696SOL    HW116547   4.320   2.861  16.897  3.1820 -2.2737 -0.8551
 1696SOL    HW216548   4.354   3.001  16.860 -0.4722 -0.1553  0.1056
 1697SOL     OW16549   2.013   3.249   6.197 -0.4820  0.2392  0.6544
 1697SOL    HW116550   1.998   3.169   6.247 -1.3730 -1.7768 -2.8317
 1697SOL    HW216551   2.108   3.256   6.207 -0.7071  1.4565  1.9011
 1698SOL     OW16552   1.356   4.454  12.634 -0.1371 -0.0799 -0.5124
 1698SOL    HW116553   1.400   4.371  12.617  2.2212  0.9563  0.4339
 1698SOL    HW216554   1.332   4.500  12.554  1.3185 -0.8919 -1.4040
 1699SOL     OW16555   3.107   3.736   3.836  0.2232 -0.1066 -0.0352
 1699SOL    HW116556   3.188   3.783   3.814 -0.5566  0.7044 -1.1557
 1699SOL    HW216557   3.148   3.657   3.871  2.3980  0.7437 -0.6219
 1700SOL     OW16558   1.866   1.976   2.642  0.0501 -0.2955  0.7387
 1700SOL    HW116559   1.958   1.986   2.667  0.3238  0.8716 -0.7333
 1700SOL    HW216560   1.869   1.992   2.547  2.6471 -0.8351  0.7350
 1701SOL     OW16561   0.994   0.071   0.655  0.3151  0.5355  0.8999
 1701SOL    HW116562   0.975   0.143   0.596 -0.2470 -1.9477 -1.9348
 1701SOL    HW216563   1.072   0.110   0.695  0.6488  1.0324 -0.2569
 1702SOL     OW16564   3.811   2.305   6.288 -0.3923 -0.3967 -0.1145
 1702SOL    HW116565   3.807   2.383   6.233 -0.6634  0.4734  1.1240
 1702SOL    HW216566   3.864   2.317   6.367 -1.0657 -1.9778  0.5848
 1703SOL     OW16567   4.191   4.132   1.397  0.0550 -0.3652  0.4715
 1703SOL    HW116568   4.161   4.043   1.376  1.4652 -0.6640 -0.3111
 1703SOL    HW216569   4.281   4.137   1.365 -0.2759  3.7576  0.2105
 1704SOL     OW16570   1.363   3.755   3.715  0.3517  0.2736  0.5458
 1704SOL    HW116571   1.447   3.717   3.742  0.7882  0.8440 -0.0009
 1704SOL    HW216572   1.359   3.727   3.624  1.3998 -0.7870  0.8287
 1705SOL     OW16573   1.256   4.592   5.247 -0.2594 -0.3313  0.3095
 1705SOL    HW116574   1.309   4.541   5.308  1.5369 -0.3229 -1.2427
 1705SOL    HW216575   1.282   4.549   5.165  0.7451 -0.5370  0.7304
 1706SOL     OW16576   0.523   4.049   3.341  0.5232 -0.5004 -0.2636
 1706SOL    HW116577   0.570   3.966   3.335  0.2526 -0.6481 -0.3372
 1706SOL    HW216578   0.446   4.035   3.286  0.0389  0.2567  0.2186
 1707SOL     OW16579   3.524   0.721   7.844 -0.2529  0.7157  0.0940
 1707SOL    HW116580   3.601   0.754   7.890  0.8089 -1.0659 -0.4052
 1707SOL    HW216581   3.542   0.758   7.758 -0.2957 -1.8262 -1.0150
 1708SOL     OW16582   3.259   4.137  16.569  0.0913 -0.5221 -0.2513
 1708SOL    HW116583   3.340   4.110  16.613 -0.3537 -1.5724 -0.0690
 1708SOL    HW216584   3.284   4.227  16.547 -0.1936 -0.8604 -1.9879
 1709SOL     OW16585   2.022   0.729  15.741  0.1665 -0.1367 -0.3978
 1709SOL    HW116586   1.954   0.699  15.800  1.0771 -1.8759 -0.2407
 1709SOL    HW216587   1.977   0.759  15.662  0.3026  0.4016 -0.2740
 1710SOL     OW16588   3.071   3.736   8.623  0.1105 -1.1365  0.0009
 1710SOL    HW116589   3.004   3.680   8.584  1.6162 -3.0044  0.1201
 1710SOL    HW216590   3.113   3.662   8.668  3.6834 -0.0982 -1.6381
 1711SOL     OW16591   2.392   0.907   1.781  0.5118 -0.1797  0.5652
 1711SOL    HW116592   2.333   0.979   1.802  0.8941  0.8370 -1.8532
 1711SOL    HW216593   2.396   0.856   1.862 -0.5453 -0.9435  0.1377
 1712SOL     OW16594   3.396   4.429   4.781  0.3097 -0.3361  0.3417
 1712SOL    HW116595   3.350   4.346   4.794 -0.5673 -0.0699 -1.0646
 1712SOL    HW216596   3.373   4.444   4.689 -0.5600 -0.7058  0.4981
 1713SOL     OW16597   0.526   1.953  14.425  0.2465  0.2041 -0.0365
 1713SOL    HW116598   0.545   2.032  14.376  0.4197  0.4500  0.4319
 1713SOL    HW216599   0.433   1.947  14.402 -0.5310  0.1436  3.0616
 1714SOL     OW16600   0.525   4.250  10.814 -0.1340  0.6850 -0.1591
 1714SOL    HW116601   0.475   4.320  10.856 -0.4271  0.5949 -0.3570
 1714SOL    HW216602   0.483   4.171  10.847 -0.9598  0.5746 -1.4521
 1715SOL     OW16603   1.573   3.129  10.624  0.1605 -0.6359  0.0955
 1715SOL    HW116604   1.662   3.161  10.640 -0.4871  1.4926 -0.5125
 1715SOL    HW216605   1.541   3.140  10.714  0.4162  0.3023  0.0773
 1716SOL     OW16606   3.804   1.516  11.760  0.7055  0.2188 -0.1090
 1716SOL    HW116607   3.882   1.531  11.706  2.1371 -0.7988  1.6765
 1716SOL    HW216608   3.785   1.607  11.785  2.4213  0.6938 -0.4837
 1717SOL     OW16609   2.971   0.153   0.828 -0.1367 -0.1703 -0.0207
 1717SOL    HW116610   3.064   0.136   0.815 -0.1275 -0.9110  1.0374
 1717SOL    HW216611   2.969   0.249   0.836 -1.5658 -0.2039  0.0160
 1718SOL     OW16612   1.287   1.942   4.488 -0.0026  0.2921 -0.1925
 1718SOL    HW116613   1.344   1.984   4.424 -1.5223  1.9231 -0.4816
 1718SOL    HW216614   1.218   2.008   4.495  0.4549  1.1061 -3.1316
 1719SOL     OW16615   0.277   1.669  17.272  0.4812  0.1491  0.1868
 1719SOL    HW116616   0.308   1.697  17.186  0.8113  0.5153  0.4254
 1719SOL    HW216617   0.354   1.660  17.328 -0.4013  1.1611  1.5867
 1720SOL     OW16618   4.240   2.073  10.713 -0.2269 -0.1274  0.0300
 1720SOL    HW116619   4.252   2.057  10.806  1.9415 -2.0115 -0.5594
 1720SOL    HW216620   4.318   2.025  10.684 -0.2039  0.6314 -1.1716
 1721SOL     OW16621   0.004   3.743   6.745  0.2167 -0.4355  0.3369
 1721SOL    HW116622   0.033   3.802   6.675 -0.4004  0.3381  0.7332
 1721SOL    HW216623   0.088   3.712   6.781  0.2621 -0.6852  0.0145
 1722SOL     OW16624   1.373   3.976   6.461 -0.2582  0.3615 -0.6755
 1722SOL    HW116625   1.332   3.989   6.547  2.5900  0.0184  0.7620
 1722SOL    HW216626   1.312   4.017   6.400  0.0661 -0.9043 -1.8500
 1723SOL     OW16627   1.555   2.770  13.125  0.3421  0.6307 -0.1147
 1723SOL    HW116628   1.637   2.771  13.173 -0.6466 -0.7316  1.6193
 1723SOL    HW216629   1.518   2.683  13.140 -1.3068  1.0974 -1.3949
 1724SOL     OW16630   4.125   2.951   6.160  0.1021  0.2210 -0.0184
 1724SOL    HW116631   4.159   3.037   6.184 -0.4105  0.6001 -0.6359
 1724SOL    HW216632   4.167   2.929   6.076 -1.5769 -0.3825 -0.6913
 1725SOL     OW16633   0.072   4.176   1.497 -0.2250 -0.5669 -0.8319
 1725SOL    HW116634   0.165   4.155   1.509 -0.1717 -0.6324 -1.3561
 1725SOL    HW216635   0.055   4.250   1.555 -1.8194 -1.9689  0.4837
 1726SOL     OW16636   1.132   4.624   2.792  0.0817 -0.5017  0.3377
 1726SOL    HW116637   1.147   4.623   2.887  2.2684 -1.9402 -0.0138
 1726SOL    HW216638   1.091   4.538   2.789  2.9434 -1.9503  2.3068
 1727SOL     OW16639   2.377   1.863  12.449  0.1782 -0.0652  0.0886
 1727SOL    HW116640   2.370   1.784  12.503 -1.6286 -1.6927 -2.5238
 1727SOL    HW216641   2.287   1.866  12.416  0.5664 -0.5845 -1.0119
 1728SOL     OW16642   3.232   0.916   8.937 -0.7649  0.3671  0.2353
 1728SOL    HW116643   3.263   0.827   8.953 -1.7654 -0.1522 -0.7433
 1728SOL    HW216644   3.231   0.950   9.026  0.2201  0.1184  0.3461
 1729SOL     OW16645   3.322   1.604  14.818  0.4701  0.1643 -0.0587
 1729SOL    HW116646   3.401   1.548  14.824 -1.4010 -2.5120 -0.2713
 1729SOL    HW216647   3.360   1.688  14.844  1.0062  0.5852 -2.2610
 1730SOL     OW16648   3.317   3.623  16.111 -0.6375  0.4319 -0.5110
 1730SOL    HW116649   3.373   3.618  16.033 -0.2529 -2.6128 -0.0518
 1730SOL    HW216650   3.244   3.676  16.078  0.6210  0.5647 -3.0851
 1731SOL     OW16651   2.401   2.690   8.861  0.4484  0.2582 -0.0694
 1731SOL    HW116652   2.452   2.695   8.942  0.5872 -2.4431  0.0094
 1731SOL    HW216653   2.351   2.772   8.863  3.7568  2.2953  0.1920
 1732SOL     OW16654   2.461   1.592   3.724  0.0517  0.0693  0.8233
 1732SOL    HW116655   2.538   1.543   3.753  0.8185  0.2000 -1.0140
 1732SOL    HW216656   2.512   1.632   3.654 -0.4461 -2.1448 -0.8059
 1733SOL     OW16657   1.287   1.337   9.248  0.2841  0.6746 -0.4005
 1733SOL    HW116658   1.378   1.327   9.218  0.2719 -0.7331  0.0265
 1733SOL    HW216659   1.239   1.316   9.169 -3.4547  1.4740  1.6708
 1734SOL     OW16660   2.544   0.413   7.463  0.0514 -0.0929  0.3975
 1734SOL    HW116661   2.629   0.381   7.432  0.0422 -0.3750  0.6648
 1734SOL    HW216662   2.544   0.383   7.554 -0.5250  0.2730  0.5209
 1735SOL     OW16663   3.443   2.820   8.981 -0.2110 -0.2212 -0.2170
 1735SOL    HW116664   3.415   2.840   8.891 -0.7210  1.2030  0.2490
 1735SOL    HW216665   3.358   2.790   9.015  0.4173  0.1529  1.6812
 1736SOL     OW16666   1.765   2.954  16.440 -0.6365 -0.0269 -0.1114
 1736SOL    HW116667   1.791   2.882  16.383 -2.5731  1.4438 -2.8276
 1736SOL    HW216668   1.676   2.942  16.472 -0.8143  0.4593 -0.4300
 1737SOL     OW16669   3.856   0.161  12.163 -0.2880 -0.2350 -0.1417
 1737SOL    HW116670   3.762   0.175  12.158 -0.3355  0.1571  1.7233
 1737SOL    HW216671   3.866   0.158  12.258 -0.5403 -1.8660 -0.1645
 1738SOL     OW16672   1.161   0.341   3.971 -0.0705  0.3553 -0.9867
 1738SOL    HW116673   1.221   0.388   3.913 -2.5075  0.3257 -3.5302
 1738SOL    HW216674   1.104   0.412   4.002  0.7149  0.5383  0.0323
 1739SOL     OW16675   1.117   4.262   0.283 -0.5631 -0.4106  1.0132
 1739SOL    HW116676   1.191   4.302   0.329 -1.0850  1.3140  0.3780
 1739SOL    HW216677   1.046   4.322   0.309 -0.2318  1.3053 -2.0614
 1740SOL     OW16678   3.805   4.071  12.972 -0.2340 -0.4175  0.4040
 1740SOL    HW116679   3.900   4.065  12.986  0.0581  0.7182 -1.1606
 1740SOL    HW216680   3.801   4.033  12.884  1.0270 -0.9405  0.5717
 1741SOL     OW16681   2.701   1.966   1.097 -0.3224  0.3215  0.4740
 1741SOL    HW116682   2.775   1.944   1.039 -0.1887 -1.6595  1.3706
 1741SOL    HW216683   2.754   2.010   1.163  0.8012  0.6867 -0.6569
 1742SOL     OW16684   4.433   0.663  16.913 -0.0580  0.3728  0.3831
 1742SOL    HW116685   4.486   0.588  16.943  0.0513  1.0214  1.8297
 1742SOL    HW216686   4.480   0.739  16.947  0.2982  0.3199  0.0085
 1743SOL     OW16687   1.641   4.616   8.571 -0.3295 -0.2805  0.1006
 1743SOL    HW116688   1.577   4.629   8.641 -0.3905 -0.2636  0.0408
 1743SOL    HW216689   1.591   4.636   8.492  0.8350 -0.1991 -0.6112
 1744SOL     OW16690   2.133   0.993   5.161 -0.1303 -0.4205  0.2046
 1744SOL    HW116691   2.048   0.977   5.119 -0.1916  1.4213 -0.3710
 1744SOL    HW216692   2.195   0.951   5.101 -0.0466  0.5861 -0.4273
 1745SOL     OW16693   0.876   1.821   8.594  0.1089  0.2136  0.0545
 1745SOL    HW116694   0.836   1.796   8.511 -0.0417  1.5436 -0.2814
 1745SOL    HW216695   0.910   1.735   8.617  0.3977  0.2257 -0.3459
 1746SOL     OW16696   2.855   2.624   6.133  0.9088 -0.0809 -0.0381
 1746SOL    HW116697   2.884   2.588   6.049 -1.7352  0.2635 -1.0859
 1746SOL    HW216698   2.859   2.547   6.190  1.2160 -0.9336 -1.2253
 1747SOL     OW16699   3.315   3.666  15.611  0.1596  0.0203 -0.4318
 1747SOL    HW116700   3.343   3.590  15.561  0.7911  1.0144 -1.5894
 1747SOL    HW216701   3.257   3.623  15.674 -2.2694  2.1188 -1.2022
 1748SOL     OW16702   4.325   2.331   4.095  0.2602 -0.3291  0.7262
 1748SOL    HW116703   4.372   2.254   4.064 -0.5921  0.7489 -3.3025
 1748SOL    HW216704   4.336   2.326   4.190  2.3650 -1.6250  0.4076
 1749SOL     OW16705   2.963   3.026   2.821 -0.2157  0.0177 -0.4546
 1749SOL    HW116706   2.880   3.020   2.773 -0.4383 -1.6400  0.1587
 1749SOL    HW216707   3.017   3.006   2.744  0.2546 -0.6437  0.0528
 1750SOL     OW16708   4.077   2.082   4.979 -0.6852  0.6297  0.5487
 1750SOL    HW116709   4.056   1.991   4.998 -3.5591  1.0415 -0.6371
 1750SOL    HW216710   4.133   2.075   4.902 -2.4733 -1.2119 -0.5708
 1751SOL     OW16711   0.010   0.271   9.117 -0.3902 -0.2353  0.1398
 1751SOL    HW116712   0.099   0.263   9.082 -0.8436 -0.8351 -0.8600
 1751SOL    HW216713   4.685   0.317   9.049 -0.6223  1.6339  1.5685
 1752SOL     OW16714   0.391   1.560   9.552  0.0262  0.4713  0.4527
 1752SOL    HW116715   0.445   1.484   9.530  0.9549  1.1711  0.3139
 1752SOL    HW216716   0.324   1.547   9.484  1.2863 -1.8730 -0.3211
 1753SOL     OW16717   2.092   2.098   7.413  0.3152 -0.3112  0.5095
 1753SOL    HW116718   1.998   2.118   7.419  0.3756 -0.7250  2.9985
 1753SOL    HW216719   2.102   2.038   7.487 -0.9684  1.2845  1.9818
 1754SOL     OW16720   4.608   1.295   7.827  0.1164  0.0442 -0.7461
 1754SOL    HW116721   4.625   1.208   7.791  1.6300  1.1035 -2.5689
 1754SOL    HW216722   4.569   1.270   7.911  0.1911 -0.7236 -0.9421
 1755SOL     OW16723   3.335   0.581   8.009 -0.3479 -0.2728  0.4997
 1755SOL    HW116724   3.342   0.503   8.063 -2.1522 -0.2239  0.7997
 1755SOL    HW216725   3.378   0.550   7.929 -2.7576  2.1972 -1.7753
 1756SOL     OW16726   4.253   2.061  16.810 -0.6603 -0.4761  0.1807
 1756SOL    HW116727   4.260   2.083  16.903 -0.7001 -3.2097  0.8254
 1756SOL    HW216728   4.281   1.970  16.810  0.1983 -0.2083  1.0321
 1757SOL     OW16729   2.444   2.801   4.691 -0.0625  0.2343  0.2647
 1757SOL    HW116730   2.405   2.835   4.771  0.1130 -2.2201  1.4010
 1757SOL    HW216731   2.367   2.812   4.636  0.5829  0.0187 -0.6755
 1758SOL     OW16732   4.580   1.825   4.007  0.7049  0.2691  0.3275
 1758SOL    HW116733   4.567   1.739   4.048 -0.9520 -0.1120 -0.9824
 1758SOL    HW216734   4.560   1.792   3.919 -0.7000 -0.8823  1.0668
 1759SOL     OW16735   2.337   1.213   5.540 -0.0169 -0.3030  0.1009
 1759SOL    HW116736   2.382   1.149   5.594  1.1927 -0.5525 -1.2254
 1759SOL    HW216737   2.328   1.172   5.454  0.1391 -1.2613  0.5465
 1760SOL     OW16738   3.423   2.306   6.269  0.2551  0.6621 -0.1330
 1760SOL    HW116739   3.390   2.321   6.181  1.5666  0.4434 -0.6619
 1760SOL    HW216740   3.483   2.232   6.264 -1.4687 -0.6574 -0.9443
 1761SOL     OW16741   4.440   4.084   6.775 -0.1770 -0.1907 -0.1945
 1761SOL    HW116742   4.450   4.116   6.686  0.3820  1.1957  0.3651
 1761SOL    HW216743   4.409   4.168   6.808 -1.7694 -1.9201  2.7792
 1762SOL     OW16744   2.177   1.179  10.891 -0.0531 -0.0963 -0.5939
 1762SOL    HW116745   2.185   1.161  10.797 -0.9594 -0.4971 -0.5973
 1762SOL    HW216746   2.082   1.173  10.900 -0.2126  2.3879 -0.6003
 1763SOL     OW16747   1.816   1.955  11.994 -0.7853  0.0117  0.3726
 1763SOL    HW116748   1.875   2.022  12.029 -2.6071  1.6536  0.2900
 1763SOL    HW216749   1.743   1.976  12.053 -2.0044  1.5159 -1.6778
 1764SOL     OW16750   3.986   2.603  16.388 -0.1098 -0.2167 -0.3782
 1764SOL    HW116751   3.908   2.550  16.407  0.1200  0.2478  1.8233
 1764SOL    HW216752   4.054   2.537  16.372 -0.7839 -1.3847  1.4764
 1765SOL     OW16753   1.333   0.655   4.129 -0.4475  0.0077  0.2355
 1765SOL    HW116754   1.387   0.734   4.125 -0.1162 -0.3039 -1.4820
 1765SOL    HW216755   1.264   0.669   4.065 -1.2908 -0.3644  1.0563
 1766SOL     OW16756   2.819   2.870   8.205  0.0584  0.4565  0.1785
 1766SOL    HW116757   2.851   2.927   8.135  2.2265 -1.4815 -0.4141
 1766SOL    HW216758   2.880   2.795   8.203 -3.1795 -2.1184 -1.7720
 1767SOL     OW16759   2.095   3.056  15.466 -0.1504 -0.3930 -0.1869
 1767SOL    HW116760   2.017   3.022  15.424 -0.5436 -1.1166  1.1286
 1767SOL    HW216761   2.165   3.034  15.405  1.6685 -0.0730  1.7608
 1768SOL     OW16762   1.947   3.504   2.683 -0.2810  0.0214 -0.4719
 1768SOL    HW116763   1.915   3.562   2.751  0.0874 -0.4683  0.1232
 1768SOL    HW216764   1.890   3.427   2.680  1.7067 -1.4676 -0.4040
 1769SOL     OW16765   2.122   0.240   8.157 -0.2043 -0.0084 -0.1625
 1769SOL    HW116766   2.096   0.202   8.073 -0.9374 -1.5417  0.7483
 1769SOL    HW216767   2.036   0.230   8.199  1.1105 -0.2592  2.4279
 1770SOL     OW16768   0.774   4.359  10.750 -0.3960  0.4743 -0.0538
 1770SOL    HW116769   0.808   4.353  10.661 -0.9415 -0.4190 -0.2116
 1770SOL    HW216770   0.694   4.306  10.746  0.8646 -1.3544 -1.2053
 1771SOL     OW16771   2.543   2.206  16.023 -0.1598 -0.1372 -0.0145
 1771SOL    HW116772   2.487   2.220  15.947 -1.0017  2.4360  1.0536
 1771SOL    HW216773   2.527   2.114  16.041  0.0240  0.0662  1.2302
 1772SOL     OW16774   1.714   2.412   6.168 -0.6143  0.1515 -0.2078
 1772SOL    HW116775   1.766   2.452   6.238  0.8078  0.5482 -1.4844
 1772SOL    HW216776   1.746   2.462   6.093 -4.1333  0.8259 -1.2699
 1773SOL     OW16777   0.634   2.341  11.473  0.3797  0.4603  0.3331
 1773SOL    HW116778   0.647   2.249  11.452  2.7103  1.4997 -2.6504
 1773SOL    HW216779   0.653   2.384  11.390 -1.1728 -1.2491 -0.8772
 1774SOL     OW16780   3.861   3.330  17.065 -0.3556  0.2714  0.3377
 1774SOL    HW116781   3.908   3.318  16.982 -0.4342  0.2859  0.2908
 1774SOL    HW216782   3.936   3.346  17.123 -0.1426 -0.7779  0.3491
 1775SOL     OW16783   2.779   4.577   5.764  0.5955  0.2882  0.2058
 1775SOL    HW116784   2.833   4.501   5.744  0.5680  0.7079 -1.4400
 1775SOL    HW216785   2.706   4.568   5.702  0.0956 -0.9833  0.9851
 1776SOL     OW16786   0.635   0.871  13.699  0.3491 -0.3193 -0.2055
 1776SOL    HW116787   0.546   0.844  13.676 -0.3569  1.3061  0.6031
 1776SOL    HW216788   0.672   0.893  13.613 -0.1643 -0.5235 -0.4799
 1777SOL     OW16789   0.127   1.630   4.067  0.5108  0.0050  0.1127
 1777SOL    HW116790   0.185   1.705   4.074  2.4910 -1.5014 -0.1848
 1777SOL    HW216791   0.110   1.626   3.972 -1.4651 -1.1522  0.5094
 1778SOL     OW16792   4.685   2.098   7.276  0.7421 -0.0008  0.6099
 1778SOL    HW116793   4.679   2.037   7.202 -3.5018 -0.2482  1.1436
 1778SOL    HW216794   4.631   2.167   7.238 -0.3834 -2.3882 -2.1546
 1779SOL     OW16795   3.721   3.185   7.736  0.0733 -0.2417  0.4094
 1779SOL    HW116796   3.803   3.171   7.688  0.4968  1.4649  0.6486
 1779SOL    HW216797   3.725   3.278   7.759 -0.2986 -0.8633  2.8968
 1780SOL     OW16798   3.312   2.219  13.227 -0.1702  0.2109  0.0053
 1780SOL    HW116799   3.341   2.135  13.192 -0.4867  0.4993 -0.9367
 1780SOL    HW216800   3.376   2.226  13.298 -0.4533 -0.1462  0.2953
 1781SOL     OW16801   0.085   3.344  14.063 -0.3521 -0.1610  0.0416
 1781SOL    HW116802   0.064   3.257  14.030 -0.9298  0.6512 -1.7303
 1781SOL    HW216803   0.003   3.394  14.064  0.5366  1.3384 -2.2815
 1782SOL     OW16804   2.421   3.772   7.135  0.6982  1.0829  0.7023
 1782SOL    HW116805   2.351   3.811   7.186 -0.7879  1.0057 -1.2797
 1782SOL    HW216806   2.451   3.704   7.196  0.1885 -2.2935 -2.7993
 1783SOL     OW16807   2.180   3.291   7.356 -0.6244 -0.1142 -0.4479
 1783SOL    HW116808   2.124   3.334   7.292 -2.6463  1.4327  2.3576
 1783SOL    HW216809   2.248   3.249   7.304 -0.0769 -2.8057  2.3977
 1784SOL     OW16810   0.394   4.488   3.875  0.2621  0.1606 -0.2658
 1784SOL    HW116811   0.326   4.511   3.812 -0.7936 -1.0173  0.4489
 1784SOL    HW216812   0.415   4.402   3.839 -0.2040 -1.0092  2.2195
 1785SOL     OW16813   0.673   0.770   4.544 -0.6859  0.1708 -0.0465
 1785SOL    HW116814   0.768   0.770   4.533 -0.5928  1.6440  0.6969
 1785SOL    HW216815   0.657   0.676   4.538 -1.1566  0.2943 -0.7649
 1786SOL     OW16816   0.567   0.330   7.868  0.3386 -0.5935 -0.5057
 1786SOL    HW116817   0.534   0.414   7.901  3.3834 -0.2320  1.5374
 1786SOL    HW216818   0.487   0.289   7.835  0.9321 -1.3474 -0.9913
 1787SOL     OW16819   3.601   4.653   4.640 -0.5744  0.5551 -0.2409
 1787SOL    HW116820   3.515   4.689   4.617 -0.1465 -0.0121 -2.6818
 1787SOL    HW216821   3.590   4.636   4.734  3.1579  1.2774  0.2885
 1788SOL     OW16822   4.455   0.444  13.959  0.8393 -0.3984 -0.1332
 1788SOL    HW116823   4.457   0.492  13.877 -1.5979 -0.1570 -0.0630
 1788SOL    HW216824   4.360   0.433  13.970  0.7578 -0.8356 -1.2936
 1789SOL     OW16825   0.162   0.828  10.212  0.4221  0.0758  0.5702
 1789SOL    HW116826   0.180   0.876  10.131  0.3760  0.7161  0.9418
 1789SOL    HW216827   0.135   0.740  10.185 -0.3144 -0.2909  2.4980
 1790SOL     OW16828   2.319   4.223   6.960  0.2671 -0.7509  0.6458
 1790SOL    HW116829   2.231   4.201   6.930 -0.1039 -0.1373  1.2988
 1790SOL    HW216830   2.358   4.138   6.938 -0.9655 -0.8051 -1.2934
 1791SOL     OW16831   3.060   2.041   9.446  0.0690  0.3997 -0.0952
 1791SOL    HW116832   3.147   2.075   9.468  0.4935 -1.5460  1.1860
 1791SOL    HW216833   3.009   2.079   9.517 -0.8380 -0.0702 -0.4994
 1792SOL     OW16834   3.283   2.166   9.538  0.5574 -0.6397  0.6745
 1792SOL    HW116835   3.306   2.251   9.501  1.9933 -1.4808 -0.3579
 1792SOL    HW216836   3.282   2.194   9.629 -2.6684  0.7780  0.1823
 1793SOL     OW16837   3.693   1.872   8.439 -0.2864  0.2143 -0.0916
 1793SOL    HW116838   3.600   1.879   8.461 -0.6628 -0.5921 -1.4179
 1793SOL    HW216839   3.700   1.909   8.351  1.6722 -2.2248 -0.9731
 1794SOL     OW16840   3.124   1.281   3.955 -0.0909 -0.2281 -0.3925
 1794SOL    HW116841   3.149   1.226   4.028 -1.5596  1.0166  1.0647
 1794SOL    HW216842   3.127   1.218   3.883  0.6117 -0.2785 -0.3205
 1795SOL     OW16843   4.355   3.546   2.510  0.2355 -0.0176  0.0731
 1795SOL    HW116844   4.382   3.477   2.569  1.9499 -2.6603 -3.8067
 1795SOL    HW216845   4.436   3.588   2.482  0.1179 -0.7843 -1.3993
 1796SOL     OW16846   0.401   2.295   1.875 -0.2664 -0.0080  0.8071
 1796SOL    HW116847   0.454   2.321   1.951 -0.2218 -1.1130  1.1517
 1796SOL    HW216848   0.338   2.229   1.900  1.0560 -0.9785  1.5704
 1797SOL     OW16849   3.508   3.843   3.294 -0.2116  0.4447 -0.1022
 1797SOL    HW116850   3.420   3.880   3.300 -0.7186 -1.1281  2.2598
 1797SOL    HW216851   3.571   3.915   3.285  1.5113 -1.1365 -0.8259
 1798SOL     OW16852   0.065   3.789   5.626 -0.0574 -0.4433  0.7711
 1798SOL    HW116853   0.098   3.717   5.572  3.5316 -0.1890  2.6255
 1798SOL    HW216854   4.696   3.766   5.637 -0.6737  2.0162  0.7398
 1799SOL     OW16855   3.985   4.260   8.461 -0.2005 -0.7068  0.2590
 1799SOL    HW116856   3.937   4.277   8.543  0.0952 -0.9210  0.4767
 1799SOL    HW216857   4.046   4.333   8.470 -0.9317  0.1788 -2.1777
 1800SOL     OW16858   0.363   2.143   8.072 -0.3390  0.1389  0.2265
 1800SOL    HW116859   0.389   2.157   8.163  0.8280 -2.3177  0.2665
 1800SOL    HW216860   0.298   2.211   8.055 -0.7333 -0.1933  0.4149
 1801SOL     OW16861   0.889   1.272   6.036  0.0387 -0.3184 -0.0839
 1801SOL    HW116862   0.886   1.307   5.947 -0.0393  0.8995  0.4019
 1801SOL    HW216863   0.895   1.178   6.020 -0.4123 -0.5559  1.1670
 1802SOL     OW16864   2.543   4.568   6.895  0.0256 -0.1264 -0.0573
 1802SOL    HW116865   2.511   4.517   6.970 -1.3402 -0.6539 -0.9796
 1802SOL    HW216866   2.465   4.622   6.880  1.7117  1.7793 -2.0657
 1803SOL     OW16867   3.443   3.126   6.535 -0.2879 -0.0624 -0.2071
 1803SOL    HW116868   3.465   3.203   6.482  1.0047 -0.3349 -0.0458
 1803SOL    HW216869   3.440   3.167   6.621  1.9429  1.2489 -0.7529
 1804SOL     OW16870   4.479   0.625  13.758  0.5413  0.5804 -0.4961
 1804SOL    HW116871   4.449   0.614  13.668 -2.2806  2.9102  0.1641
 1804SOL    HW216872   4.550   0.688  13.757 -1.2216  2.4629 -4.8577
 1805SOL     OW16873   4.200   2.345   3.863  0.1066 -0.6379 -0.2809
 1805SOL    HW116874   4.243   2.344   3.949 -3.0155 -0.7593  1.3118
 1805SOL    HW216875   4.252   2.282   3.814  0.1877 -1.4811  0.8754
 1806SOL     OW16876   0.619   3.995   3.801 -0.1521 -0.1553  0.0008
 1806SOL    HW116877   0.530   4.012   3.831  0.6287 -1.6938  3.0931
 1806SOL    HW216878   0.663   3.966   3.880 -1.1453 -1.4955  0.0507
 1807SOL     OW16879   1.689   3.681  14.108  0.3367 -0.0964  0.5008
 1807SOL    HW116880   1.676   3.603  14.054  1.3226 -0.6156  1.0082
 1807SOL    HW216881   1.698   3.746  14.039 -0.4347  0.0958  0.5862
 1808SOL     OW16882   1.841   4.453   4.921 -0.0477  0.4423 -0.3853
 1808SOL    HW116883   1.761   4.499   4.945 -0.4826 -0.2029 -0.6131
 1808SOL    HW216884   1.873   4.510   4.851 -3.7253  0.6772 -1.8461
 1809SOL     OW16885   4.523   0.003   5.797  0.0536 -0.2239  0.6296
 1809SOL    HW116886   4.481   0.050   5.725  2.3901 -0.1022 -0.6367
 1809SOL    HW216887   4.552   0.075   5.853 -0.1140  0.5575 -0.2845
 1810SOL     OW16888   2.310   4.208   2.668  0.2473  0.6613 -0.3940
 1810SOL    HW116889   2.309   4.172   2.580 -0.6141  0.3893 -0.2665
 1810SOL    HW216890   2.361   4.138   2.708  0.8420 -0.4254 -3.0810
 1811SOL     OW16891   2.692   2.475   4.671 -0.4330  0.0881  0.0453
 1811SOL    HW116892   2.710   2.382   4.683 -0.6090  0.0055 -0.3306
 1811SOL    HW216893   2.693   2.472   4.575 -1.0737 -2.2024  0.1139
 1812SOL     OW16894   4.629   3.594   1.329 -0.1247  0.3052  0.4534
 1812SOL    HW116895   4.554   3.653   1.338  1.8611  2.9975 -0.8592
 1812SOL    HW216896   4.651   3.553   1.412 -0.1745  2.8360  1.7127
 1813SOL     OW16897   3.335   3.892  12.018 -0.7636 -0.1193 -0.1574
 1813SOL    HW116898   3.350   3.867  11.927 -1.0559  0.0952 -0.2620
 1813SOL    HW216899   3.264   3.956  12.007 -1.4689 -0.8841 -0.0110
 1814SOL     OW16900   0.245   0.529  17.674  0.1365  0.8875 -0.1397
 1814SOL    HW116901   0.330   0.488  17.687 -0.3214  0.2172  0.7587
 1814SOL    HW216902   0.259   0.605   0.034 -0.2458  0.4037  0.6339
 1815SOL     OW16903   1.598   0.254   8.800  0.6475 -0.0571  0.1984
 1815SOL    HW116904   1.570   0.168   8.830 -0.1979  0.2559  0.3041
 1815SOL    HW216905   1.527   0.279   8.741  1.8453  2.2019 -0.2884
 1816SOL     OW16906   2.132   1.831   3.413  0.4474 -0.9953  0.4747
 1816SOL    HW116907   2.186   1.758   3.383 -0.9636 -2.5166  1.6726
 1816SOL    HW216908   2.111   1.870   3.328  0.0791  0.6560  1.3083
 1817SOL     OW16909   4.255   2.253   0.493 -0.1554  0.0208  0.2695
 1817SOL    HW116910   4.164   2.255   0.463 -0.0853  2.2017  0.2227
 1817SOL    HW216911   4.304   2.245   0.411 -1.4268 -0.7824 -0.4150
 1818SOL     OW16912   4.535   3.004  14.854  0.2172 -0.1235  0.6916
 1818SOL    HW116913   4.552   3.098  14.859 -1.4955  0.2596 -0.7850
 1818SOL    HW216914   4.611   2.978  14.802 -0.1995  0.1905 -0.0712
 1819SOL     OW16915   2.976   1.572  15.522 -0.0848 -0.1451  0.3742
 1819SOL    HW116916   3.034   1.621  15.465 -0.4537 -0.4828 -0.2867
 1819SOL    HW216917   3.039   1.521  15.574 -1.4350 -0.5673  1.6005
 1820SOL     OW16918   1.195   4.163  15.407 -0.0368  0.6440 -0.0354
 1820SOL    HW116919   1.179   4.249  15.446  2.0217  1.1046 -0.1920
 1820SOL    HW216920   1.286   4.152  15.436 -0.0114  2.4412  0.5586
 1821SOL     OW16921   1.859   3.941   1.352 -0.0149  0.7663  0.3266
 1821SOL    HW116922   1.773   3.982   1.348 -0.7406 -0.6577  1.2920
 1821SOL    HW216923   1.872   3.960   1.445  0.2447 -3.1427  1.1268
 1822SOL     OW16924   1.661   4.056   0.149  0.7152 -0.0101  0.1783
 1822SOL    HW116925   1.731   4.001   0.182  0.7635  1.6414  2.8437
 1822SOL    HW216926   1.673   4.040   0.056 -0.3232 -0.1034  0.0549
 1823SOL     OW16927   1.672   2.039   5.431  0.0243 -0.0625  0.2125
 1823SOL    HW116928   1.625   2.027   5.348  2.2954 -0.5586 -1.0170
 1823SOL    HW216929   1.753   1.998   5.398  0.3634  0.1566  0.7720
 1824SOL     OW16930   1.931   0.680   6.061 -0.2250  0.0661 -0.0785
 1824SOL    HW116931   1.987   0.729   6.122 -0.4265  2.7250 -2.0461
 1824SOL    HW216932   2.000   0.628   6.020  0.5525  1.6570 -0.8178
 1825SOL     OW16933   1.831   0.380   2.295 -0.3800 -0.2998 -0.2654
 1825SOL    HW116934   1.767   0.321   2.336 -0.6066  0.2542  0.1732
 1825SOL    HW216935   1.776   0.420   2.227 -0.0791  0.4971 -0.0339
 1826SOL     OW16936   1.063   2.926   9.357  0.5971  0.4324  0.0232
 1826SOL    HW116937   1.061   3.017   9.331 -0.8068 -0.1765 -1.9361
 1826SOL    HW216938   0.971   2.903   9.347  0.7175 -0.5881  1.1376
 1827SOL     OW16939   1.034   0.393   8.759 -0.4103 -0.1104  0.4651
 1827SOL    HW116940   0.942   0.380   8.782 -0.0821 -0.8554  1.3493
 1827SOL    HW216941   1.035   0.334   8.683  0.8486  1.7525 -0.9504
 1828SOL     OW16942   0.064   0.219   6.783 -0.1066  0.0773  0.2003
 1828SOL    HW116943   0.013   0.188   6.858 -1.2471  3.2083  0.7584
 1828SOL    HW216944   0.003   0.231   6.710 -1.1007  1.7425  1.2929
 1829SOL     OW16945   0.998   1.737   9.188 -0.5856  0.5588  0.1192
 1829SOL    HW116946   0.937   1.666   9.209 -2.2689  2.4560  1.5946
 1829SOL    HW216947   0.972   1.805   9.249  0.4054 -0.3559  1.5671
 1830SOL     OW16948   1.519   3.579   2.744  0.1414 -0.1876  0.3881
 1830SOL    HW116949   1.461   3.564   2.819  1.6399 -2.9293  1.0339
 1830SOL    HW216950   1.496   3.506   2.686  0.0803 -0.2437  0.4826
 1831SOL     OW16951   3.677   2.257   8.563  0.2311 -0.4024  0.1468
 1831SOL    HW116952   3.693   2.180   8.618  3.0977  0.7927  0.9389
 1831SOL    HW216953   3.648   2.310   8.637 -1.1086 -0.1504 -0.5538
 1832SOL     OW16954   1.154   0.610   7.728  0.2267 -0.0030  0.4769
 1832SOL    HW116955   1.093   0.661   7.782  0.3464  1.8544 -1.1311
 1832SOL    HW216956   1.213   0.565   7.789  0.5063  0.2169  0.3704
 1833SOL     OW16957   3.198   2.983   6.644  0.2240 -0.0713  0.4912
 1833SOL    HW116958   3.233   2.983   6.555  0.8913 -1.5867  0.7530
 1833SOL    HW216959   3.277   2.973   6.696 -0.6837 -0.6933  1.7497
 1834SOL     OW16960   0.889   3.091  11.641 -0.5506  0.4546 -0.1542
 1834SOL    HW116961   0.898   3.038  11.562 -1.5231  0.4509 -0.2601
 1834SOL    HW216962   0.852   3.168  11.598 -0.9048  0.1219 -0.4353
 1835SOL     OW16963   0.713   2.381  14.126 -0.2821 -0.4779 -0.3152
 1835SOL    HW116964   0.799   2.398  14.087 -0.7254 -0.5072 -1.3030
 1835SOL    HW216965   0.671   2.467  14.124  1.2714  0.2878  0.1661
 1836SOL     OW16966   3.440   3.139   7.546  0.2362  0.2169  0.5364
 1836SOL    HW116967   3.373   3.097   7.491  1.5095  0.4949 -1.2217
 1836SOL    HW216968   3.429   3.225   7.506  0.2672 -0.7625 -1.5556
 1837SOL     OW16969   2.600   2.706   6.395 -0.2237  0.2841  0.1347
 1837SOL    HW116970   2.512   2.745   6.398 -0.3447  0.2991 -3.4442
 1837SOL    HW216971   2.636   2.752   6.319  2.7355 -1.1285  0.6934
 1838SOL     OW16972   0.860   1.617  15.233 -0.4371 -0.2314  0.0383
 1838SOL    HW116973   0.953   1.612  15.255 -0.0077 -0.2193 -1.7205
 1838SOL    HW216974   0.850   1.712  15.225  1.4836 -0.0758 -0.6014
 1839SOL     OW16975   2.976   3.034  16.543  0.6951 -0.0269 -0.4022
 1839SOL    HW116976   2.991   3.009  16.634  0.9789 -0.2912 -0.5196
 1839SOL    HW216977   2.881   3.036  16.555  0.8388  0.4524  0.6566
 1840SOL     OW16978   1.863   3.455   4.346 -0.0914  1.0532  0.4309
 1840SOL    HW116979   1.806   3.493   4.414 -1.5000  0.2428 -0.2953
 1840SOL    HW216980   1.842   3.513   4.273  0.3851 -0.4198 -0.8615
 1841SOL     OW16981   1.322   3.511   5.309  0.4825 -0.0912 -0.5376
 1841SOL    HW116982   1.324   3.429   5.260  1.0583  1.5062 -3.2008
 1841SOL    HW216983   1.357   3.571   5.244  0.2267 -1.0750 -1.5798
 1842SOL     OW16984   1.201   0.436  12.434 -0.1721  0.5031 -0.4225
 1842SOL    HW116985   1.246   0.457  12.353 -0.5452  3.4494  0.1497
 1842SOL    HW216986   1.193   0.522  12.476 -0.1004 -0.0359  0.7135
 1843SOL     OW16987   0.107   3.843   8.237  0.5031 -0.3840 -0.2170
 1843SOL    HW116988   0.180   3.791   8.204  1.9495  0.5390  1.5008
 1843SOL    HW216989   0.053   3.765   8.249 -0.9597  0.5764 -0.5281
 1844SOL     OW16990   3.355   1.532  15.583  0.1816 -0.3262  0.2976
 1844SOL    HW116991   3.276   1.478  15.577  0.8564 -1.3380  0.5196
 1844SOL    HW216992   3.418   1.479  15.535 -0.5678 -0.8717 -0.0827
 1845SOL     OW16993   2.339   1.902   5.110  0.1749 -0.3786 -0.3815
 1845SOL    HW116994   2.329   1.859   5.025  1.4363  0.4256 -0.9248
 1845SOL    HW216995   2.418   1.856   5.137  0.3598  0.3460  0.3320
 1846SOL     OW16996   4.333   0.645   5.514  0.2265 -0.1299 -0.3994
 1846SOL    HW116997   4.422   0.616   5.498  0.9074  2.2153 -0.8721
 1846SOL    HW216998   4.351   0.685   5.599  2.9848 -0.0499 -1.0488
 1847SOL     OW16999   4.234   1.580   6.987  0.0604 -0.9338  0.1359
 1847SOL    HW117000   4.257   1.654   6.931 -3.0337 -0.3401 -0.3545
 1847SOL    HW217001   4.204   1.517   6.922 -2.3013  0.7004 -0.3641
 1848SOL     OW17002   1.850   2.234   0.161  0.5725  0.4809  0.1721
 1848SOL    HW117003   1.852   2.290   0.238 -0.6393 -0.2341  0.7321
 1848SOL    HW217004   1.756   2.214   0.163  1.3626 -3.5406 -3.6954
 1849SOL     OW17005   3.219   0.212  16.542 -0.5218 -0.2779 -0.4046
 1849SOL    HW117006   3.308   0.241  16.560 -0.5549 -0.5169  0.1292
 1849SOL    HW217007   3.158   0.284  16.556  2.3125  1.8638  0.8849
 1850SOL     OW17008   2.580   4.022   2.133 -1.0525  0.0602 -0.5495
 1850SOL    HW117009   2.511   4.088   2.146 -2.4207 -1.5592  0.3971
 1850SOL    HW217010   2.567   3.985   2.046 -0.1664 -0.8468 -0.2915
 1851SOL     OW17011   2.486   4.222   5.269 -0.0238 -0.5347 -0.6365
 1851SOL    HW117012   2.447   4.305   5.296  2.2154  0.7089 -1.2853
 1851SOL    HW217013   2.470   4.164   5.344 -1.9351  0.9842  0.1484
 1852SOL     OW17014   3.375   2.005   6.642 -0.2320 -0.0518  0.2227
 1852SOL    HW117015   3.451   1.987   6.588  0.5131  0.5325  1.0744
 1852SOL    HW217016   3.371   2.101   6.640  3.5258  0.1033  0.8192
 1853SOL     OW17017   2.739   3.786   6.182  0.2346 -0.1282  0.4975
 1853SOL    HW117018   2.681   3.757   6.112  0.1071 -2.8445  1.7448
 1853SOL    HW217019   2.696   3.738   6.253 -0.3065 -1.9709 -1.0771
 1854SOL     OW17020   4.554   3.902   3.912 -0.3292 -0.7072  0.5104
 1854SOL    HW117021   4.587   3.966   3.850  1.3246 -2.3088 -0.2553
 1854SOL    HW217022   4.478   3.951   3.942 -0.4207 -1.8347  2.1198
 1855SOL     OW17023   4.649   2.823  15.590 -0.7095  0.0896  0.3208
 1855SOL    HW117024   4.660   2.833  15.496  0.9996 -0.2854  0.4713
 1855SOL    HW217025   4.561   2.859  15.596 -1.1025 -1.0067  1.1332
 1856SOL     OW17026   3.536   2.956   5.318  0.3072 -0.2896  0.6022
 1856SOL    HW117027   3.496   2.875   5.285  0.7028 -0.9387  1.7135
 1856SOL    HW217028   3.577   2.997   5.241  0.2242  0.7277  1.1041
 1857SOL     OW17029   3.653   1.892  15.893 -0.0013  0.2872  0.3777
 1857SOL    HW117030   3.638   1.808  15.849 -0.3587  0.1801  0.7018
 1857SOL    HW217031   3.597   1.938  15.831  0.0853 -0.0581  0.0445
 1858SOL     OW17032   3.492   4.211   9.767  0.3562  0.3618 -0.9071
 1858SOL    HW117033   3.492   4.218   9.671 -0.3599  3.4739 -0.6856
 1858SOL    HW217034   3.413   4.160   9.783  2.3530 -2.0787  0.9680
 1859SOL     OW17035   3.521   2.932   8.159  0.3093 -0.0510  0.3369
 1859SOL    HW117036   3.612   2.906   8.169 -0.3180 -1.7171  1.8869
 1859SOL    HW217037   3.490   2.910   8.247 -0.3393 -0.3921  0.0216
 1860SOL     OW17038   1.705   3.358   5.157  0.2316  0.0120  0.2057
 1860SOL    HW117039   1.733   3.345   5.248 -2.1132  0.5410  0.9986
 1860SOL    HW217040   1.650   3.437   5.155  0.2033 -0.0721 -2.2227
 1861SOL     OW17041   4.266   3.246   7.436 -0.0179 -0.2269 -0.1446
 1861SOL    HW117042   4.357   3.248   7.409  0.6754 -0.1508  2.1832
 1861SOL    HW217043   4.217   3.204   7.365  0.3260 -0.2678 -0.3536
 1862SOL     OW17044   1.177   4.118   6.348 -0.3372 -0.0349  0.5337
 1862SOL    HW117045   1.111   4.172   6.391 -1.6587 -0.3044 -1.1385
 1862SOL    HW217046   1.129   4.041   6.317 -0.8459 -0.2178  1.7753
 1863SOL     OW17047   0.788   3.382  14.622  0.1361 -0.0115 -0.7160
 1863SOL    HW117048   0.730   3.430  14.680  0.5102 -1.3954  0.7918
 1863SOL    HW217049   0.727   3.321  14.579 -1.9799  0.2065  1.9782
 1864SOL     OW17050   0.111   1.379   6.877  0.3208  0.1630 -0.2672
 1864SOL    HW117051   0.100   1.474   6.883 -1.2880 -0.1950  2.7593
 1864SOL    HW217052   0.058   1.350   6.803  0.6400  3.3623 -1.7334
 1865SOL     OW17053   4.548   3.343   2.361 -0.2160  0.0530  0.2829
 1865SOL    HW117054   4.538   3.292   2.442 -0.6466  2.4711  1.7654
 1865SOL    HW217055   4.643   3.345   2.350 -0.1337 -0.4023  0.8560
 1866SOL     OW17056   3.922   1.818   0.171 -0.2506 -0.1308 -0.4319
 1866SOL    HW117057   3.917   1.776   0.085 -1.0521  1.0982 -0.9950
 1866SOL    HW217058   3.978   1.761   0.223 -0.1636 -0.3153 -0.7318
 1867SOL     OW17059   0.943   1.807  16.538 -0.1903  0.0383  0.5952
 1867SOL    HW117060   0.927   1.867  16.465 -0.5328  2.0438  2.3109
 1867SOL    HW217061   1.031   1.777  16.514 -1.2669 -1.4161 -1.5739
 1868SOL     OW17062   3.617   0.056   3.348 -0.2049  1.0179 -0.3506
 1868SOL    HW117063   3.653   0.078   3.434 -0.8322 -1.6642  0.6256
 1868SOL    HW217064   3.584   4.693   3.377 -0.0060  1.5090  1.3381
 1869SOL     OW17065   2.965   0.456  15.513  0.4781  0.1246  0.4339
 1869SOL    HW117066   3.060   0.449  15.522  0.5284 -0.6533 -0.7584
 1869SOL    HW217067   2.943   0.405  15.435 -0.3255  1.3733 -0.1503
 1870SOL     OW17068   2.975   2.773  11.482 -0.1192 -0.0448  0.7009
 1870SOL    HW117069   3.058   2.815  11.507 -0.7054  2.2354 -1.1818
 1870SOL    HW217070   2.992   2.683  11.509 -2.4992 -0.4834  0.6963
 1871SOL     OW17071   2.446   2.702  13.277  0.4559 -0.1741  0.0870
 1871SOL    HW117072   2.370   2.660  13.318  1.0415 -0.2448  1.1087
 1871SOL    HW217073   2.449   2.780  13.334 -0.4554  0.7136 -1.0792
 1872SOL     OW17074   0.602   4.355  12.760 -0.4252 -0.5144  0.0675
 1872SOL    HW117075   0.575   4.286  12.822 -0.0355 -2.0855 -1.5242
 1872SOL    HW217076   0.648   4.303  12.695  0.9207 -1.2934  1.6391
 1873SOL     OW17077   2.231   2.362  12.051 -0.2327 -0.0004 -0.2978
 1873SOL    HW117078   2.219   2.320  12.136 -2.2445  0.0005 -0.5669
 1873SOL    HW217079   2.193   2.289  12.002  2.6814 -1.2110 -0.7136
 1874SOL     OW17080   2.162   3.248   7.630  0.5499 -0.3130 -0.5328
 1874SOL    HW117081   2.188   3.243   7.538  0.4746 -0.6812 -0.5335
 1874SOL    HW217082   2.245   3.254   7.677  1.2223  1.2972 -1.9397
 1875SOL     OW17083   2.115   0.289   2.238 -0.5990 -0.2134 -0.0983
 1875SOL    HW117084   2.125   0.201   2.274 -1.2463 -0.7355 -1.1876
 1875SOL    HW217085   2.023   0.307   2.259 -0.4720 -0.9917  1.0798
 1876SOL     OW17086   2.857   4.700   4.740  0.3387 -0.4917  0.7954
 1876SOL    HW117087   2.768   4.700   4.705  0.1050  0.7733  1.3974
 1876SOL    HW217088   2.839   0.000   4.831  0.2565 -0.2688  0.7208
 1877SOL     OW17089   0.685   0.080   2.277  0.1398  0.3987 -0.4286
 1877SOL    HW117090   0.658   0.112   2.191 -2.7919  0.7775  0.6180
 1877SOL    HW217091   0.774   0.114   2.274 -0.1332  1.3284  2.1605
 1878SOL     OW17092   3.962   3.613   4.791 -0.0266  0.1676 -0.0464
 1878SOL    HW117093   3.985   3.565   4.711  1.2312  3.7354 -1.8681
 1878SOL    HW217094   3.866   3.607   4.785 -0.0074 -0.2289  0.0471
 1879SOL     OW17095   3.709   1.575   4.539  0.0575  0.0965 -0.2694
 1879SOL    HW117096   3.615   1.576   4.523 -0.3262 -0.6262  2.0122
 1879SOL    HW217097   3.731   1.482   4.528 -0.9403 -0.3943  1.8669
 1880SOL     OW17098   1.501   1.784  15.993 -0.8131 -0.4204  0.2474
 1880SOL    HW117099   1.479   1.876  16.008 -0.9729 -0.5291  0.6731
 1880SOL    HW217100   1.520   1.786  15.899  0.3114  2.6653  0.5455
 1881SOL     OW17101   4.200   2.455   3.177  0.3182  0.8091 -0.0221
 1881SOL    HW117102   4.166   2.485   3.092 -0.2068  2.2133  0.6873
 1881SOL    HW217103   4.218   2.365   3.149  0.1058  0.8270 -0.2273
 1882SOL     OW17104   2.053   4.074   6.917 -0.1080  0.1945 -0.5220
 1882SOL    HW117105   1.980   4.075   6.978  1.1333 -0.4815  0.9635
 1882SOL    HW217106   2.099   3.991   6.932 -1.6867 -0.2276  1.9997
 1883SOL     OW17107   0.258   2.138   2.999  0.1192  0.0764  0.0611
 1883SOL    HW117108   0.210   2.059   2.974 -1.7549  1.7896 -1.7192
 1883SOL    HW217109   0.206   2.192   2.940 -0.1239  0.1576  0.3506
 1884SOL     OW17110   1.419   4.322   2.452  0.4535  0.2758  0.2968
 1884SOL    HW117111   1.359   4.367   2.393 -1.2130  0.7295  2.3513
 1884SOL    HW217112   1.503   4.353   2.419 -0.5857  0.0930 -2.5542
 1885SOL     OW17113   1.376   3.277  16.823  0.3298 -0.5527 -0.1106
 1885SOL    HW117114   1.329   3.271  16.740  1.4240  1.7557 -0.9014
 1885SOL    HW217115   1.395   3.187  16.849  0.5425 -1.0516 -2.0194
 1886SOL     OW17116   3.860   1.406  10.853 -0.7496  0.5869  0.5657
 1886SOL    HW117117   3.836   1.487  10.808  1.9631  0.8278 -0.4824
 1886SOL    HW217118   3.783   1.357  10.824 -0.0526 -0.3942  0.3475
 1887SOL     OW17119   3.998   3.970   8.714  0.1013  0.1934 -0.4114
 1887SOL    HW117120   4.027   4.060   8.730 -0.1124  0.2864 -0.5582
 1887SOL    HW217121   3.904   3.986   8.725 -0.1207 -0.8214 -0.8733
 1888SOL     OW17122   0.977   4.415   2.868  0.0678 -0.2200  0.6560
 1888SOL    HW117123   0.882   4.425   2.875 -0.2661 -1.3724 -2.1722
 1888SOL    HW217124   0.996   4.386   2.957  0.8223  0.1863  0.6236
 1889SOL     OW17125   1.070   1.022   2.732 -0.0847 -0.2577 -0.6548
 1889SOL    HW117126   1.144   1.026   2.672 -0.5099 -0.4581 -1.1986
 1889SOL    HW217127   1.006   1.065   2.675 -1.6096  0.1206  1.3442
 1890SOL     OW17128   3.079   0.713   0.877 -0.7630 -0.2284 -0.1844
 1890SOL    HW117129   3.080   0.729   0.971 -1.9527  0.5686 -0.3107
 1890SOL    HW217130   3.071   0.804   0.848  0.5581 -0.5961 -1.7196
 1891SOL     OW17131   2.116   1.540   4.053  0.0853 -0.1881  0.2996
 1891SOL    HW117132   2.178   1.495   3.996  1.4633  0.1035  1.5734
 1891SOL    HW217133   2.164   1.558   4.134 -1.0059  0.7503  0.7292
 1892SOL     OW17134   3.739   3.221   3.172  0.1717 -0.7329 -0.8499
 1892SOL    HW117135   3.734   3.304   3.221  0.8038 -0.4572 -1.2614
 1892SOL    HW217136   3.759   3.246   3.082  0.4249  0.2968 -0.5078
 1893SOL     OW17137   1.996   2.686   1.336 -0.1953 -0.1162 -0.1412
 1893SOL    HW117138   2.009   2.780   1.349  0.9195 -0.3365  0.2908
 1893SOL    HW217139   1.949   2.672   1.418 -0.3341 -1.1591 -0.4014
 1894SOL     OW17140   2.118   1.533   7.590  0.1131 -0.2890 -0.1194
 1894SOL    HW117141   2.054   1.533   7.519  0.6510  0.9281 -0.5986
 1894SOL    HW217142   2.186   1.587   7.550  1.1483 -0.8540  0.8751
 1895SOL     OW17143   3.481   1.940  13.176  0.2353  0.1863  0.3064
 1895SOL    HW117144   3.572   1.966  13.161  1.2737 -2.2878  2.1172
 1895SOL    HW217145   3.441   1.960  13.092  0.9296 -0.8557 -0.2718
 1896SOL     OW17146   2.966   1.448   7.381  0.3015 -0.1995 -0.0908
 1896SOL    HW117147   3.058   1.438   7.404  1.4034 -0.2897 -4.5258
 1896SOL    HW217148   2.929   1.380   7.437 -0.4656  0.6279  0.4263
 1897SOL     OW17149   3.628   2.196   3.577  0.1260 -0.1159 -0.1949
 1897SOL    HW117150   3.648   2.202   3.671  1.4582  2.2748 -0.6298
 1897SOL    HW217151   3.687   2.267   3.553  0.2461  0.5101  1.9316
 1898SOL     OW17152   0.259   0.839  17.327 -0.6849  0.3210 -0.3699
 1898SOL    HW117153   0.203   0.879  17.261 -0.5149  0.0715 -0.6604
 1898SOL    HW217154   0.199   0.773  17.361  0.6741 -0.4310  0.5755
 1899SOL     OW17155   2.897   1.013   2.765  0.2523  0.1659 -0.1174
 1899SOL    HW117156   2.834   1.022   2.694 -0.7945  0.4470  0.8409
 1899SOL    HW217157   2.874   0.923   2.790  1.1049 -0.0217 -0.0004
 1900SOL     OW17158   3.486   1.710   6.488  0.3013 -0.3897  0.0299
 1900SOL    HW117159   3.541   1.771   6.438 -1.4313  0.3999 -0.8985
 1900SOL    HW217160   3.545   1.636   6.475  0.6465 -0.1983  0.4725
 1901SOL     OW17161   0.085   1.811   6.588 -0.2841 -0.4945 -0.3508
 1901SOL    HW117162   0.177   1.829   6.609 -0.8723 -0.9381  2.6123
 1901SOL    HW217163   0.075   1.807   6.493  0.6591  1.7030 -0.5338
 1902SOL     OW17164   4.014   2.598   1.811  0.1941  0.3185  1.0451
 1902SOL    HW117165   4.021   2.531   1.878  2.1580 -1.4750 -0.9445
 1902SOL    HW217166   4.049   2.546   1.738 -1.8811  1.0782 -0.4922
 1903SOL     OW17167   1.695   4.534   9.962 -0.3004  0.2596 -0.0249
 1903SOL    HW117168   1.706   4.574  10.048 -1.2695 -0.0210  0.2333
 1903SOL    HW217169   1.711   4.600   9.894  2.6937  1.2409  1.6381
 1904SOL     OW17170   0.104   3.664   1.779  0.2844  0.0738 -0.1262
 1904SOL    HW117171   0.187   3.693   1.817 -0.3567  0.9986  0.5559
 1904SOL    HW217172   0.119   3.570   1.767  0.9363  0.1186  0.3180
 1905SOL     OW17173   3.287   2.943  14.575 -0.5108  0.0876 -0.7023
 1905SOL    HW117174   3.356   2.877  14.585 -0.6904  0.2280  1.4268
 1905SOL    HW217175   3.345   3.018  14.563 -0.0535  0.0327  1.2649
 1906SOL     OW17176   0.026   4.032  13.381  0.0263 -0.2966  0.1074
 1906SOL    HW117177   0.025   4.052  13.474 -2.1882 -0.5873  0.1510
 1906SOL    HW217178   0.059   3.942  13.376 -0.1522 -0.4171  1.2285
 1907SOL     OW17179   1.142   3.874   7.844 -0.8186  0.5757 -0.2808
 1907SOL    HW117180   1.203   3.814   7.801 -0.6661 -0.7174  1.7540
 1907SOL    HW217181   1.111   3.806   7.904  0.1848  0.8903  0.6036
 1908SOL     OW17182   2.807   3.961   3.044 -0.3605  0.9085 -0.2670
 1908SOL    HW117183   2.746   3.909   2.991 -0.5275  0.8402 -0.0034
 1908SOL    HW217184   2.869   3.891   3.066 -1.3894  0.7870  2.2073
 1909SOL     OW17185   0.846   3.096   6.091 -0.2002 -0.5333  0.2169
 1909SOL    HW117186   0.893   3.156   6.148 -2.2402 -1.4432  2.8303
 1909SOL    HW217187   0.861   3.010   6.130 -0.5710 -0.4158  0.6150
 1910SOL     OW17188   2.344   0.464  15.676 -0.1558  0.0602 -0.1191
 1910SOL    HW117189   2.285   0.391  15.659 -1.2976  0.5898  1.5963
 1910SOL    HW217190   2.408   0.466  15.605 -0.3092  0.7500 -0.2347
 1911SOL     OW17191   0.787   3.103  11.905  0.5591 -0.2617  0.1941
 1911SOL    HW117192   0.822   3.083  11.818  1.2819 -3.1198  1.1342
 1911SOL    HW217193   0.791   3.017  11.947 -2.5633 -1.0472 -1.0968
 1912SOL     OW17194   3.335   0.966   6.447  0.5924  0.4400 -0.4999
 1912SOL    HW117195   3.421   0.951   6.488  0.6324  1.0816 -0.3463
 1912SOL    HW217196   3.288   1.006   6.521  5.5939  2.0257  1.8478
 1913SOL     OW17197   3.936   3.885   0.103 -0.2419 -0.6558  0.0189
 1913SOL    HW117198   3.889   3.908   0.183 -0.3306  2.1153 -0.8333
 1913SOL    HW217199   3.980   3.802   0.123 -1.7256 -1.0677  1.5962
 1914SOL     OW17200   2.975   4.512   6.602 -0.1638  0.3860  0.2398
 1914SOL    HW117201   3.032   4.493   6.528  0.6379 -0.9895  1.2121
 1914SOL    HW217202   2.916   4.437   6.592  1.1399 -0.9741  2.7367
 1915SOL     OW17203   4.003   0.039   4.878 -0.5474 -0.4980  0.2576
 1915SOL    HW117204   3.939   4.722   4.819 -1.0750  0.6555  0.0515
 1915SOL    HW217205   4.074   0.036   4.815 -1.4208 -0.9118 -0.7009
 1916SOL     OW17206   3.528   2.463   4.670 -0.6973 -0.3574  0.1777
 1916SOL    HW117207   3.621   2.469   4.695 -0.0852 -1.8507 -1.7214
 1916SOL    HW217208   3.530   2.476   4.575  0.7127  0.1183  0.2738
 1917SOL     OW17209   0.627   4.491   1.452  0.8853 -0.3752 -0.4636
 1917SOL    HW117210   0.568   4.416   1.448  0.1532  0.2254 -0.8564
 1917SOL    HW217211   0.620   4.521   1.542  1.1147 -1.4695 -0.0905
 1918SOL     OW17212   0.466   3.371   3.042  0.1066  0.5003  0.1383
 1918SOL    HW117213   0.448   3.315   2.966 -0.1758  1.8156 -0.7670
 1918SOL    HW217214   0.403   3.330   3.101  2.1717 -1.6825  0.8291
 1919SOL     OW17215   3.090   3.095   5.722  0.2592  0.1058  0.0891
 1919SOL    HW117216   3.080   3.171   5.664 -0.8479 -1.4860 -1.8196
 1919SOL    HW217217   3.102   3.137   5.807 -1.5322  0.3491  0.2332
 1920SOL     OW17218   2.726   0.999   7.641  0.0995  0.1546  0.0529
 1920SOL    HW117219   2.804   0.957   7.604  0.3416  1.0714 -0.4763
 1920SOL    HW217220   2.646   0.959   7.608 -1.5015  3.7417 -0.3612
 1921SOL     OW17221   3.625   2.958  15.219  0.6530  0.6585 -0.1221
 1921SOL    HW117222   3.668   2.884  15.262  1.8136  2.3424  1.6106
 1921SOL    HW217223   3.531   2.946  15.231  0.9790 -0.7163  1.0909
 1922SOL     OW17224   0.553   3.200  10.550 -0.0972 -0.5869 -0.4115
 1922SOL    HW117225   0.536   3.148  10.472  1.8651  0.3151 -1.4288
 1922SOL    HW217226   0.482   3.264  10.542  1.0991  0.7742 -0.3145
 1923SOL     OW17227   2.901   3.514   0.619 -0.2907  0.1607 -0.1236
 1923SOL    HW117228   2.822   3.565   0.603  0.2533  0.9453 -0.3035
 1923SOL    HW217229   2.863   3.445   0.674  0.8738 -0.8685 -0.6156
 1924SOL     OW17230   2.590   1.186   2.783 -0.0692 -0.2163  0.2644
 1924SOL    HW117231   2.582   1.091   2.775  1.6966 -0.1876 -1.9336
 1924SOL    HW217232   2.668   1.201   2.729 -0.4235  2.9981  0.6587
 1925SOL     OW17233   3.511   4.170   8.616  0.7670 -0.1008 -0.3518
 1925SOL    HW117234   3.428   4.154   8.570  0.2117 -3.2773  1.7810
 1925SOL    HW217235   3.521   4.265   8.608  1.9681 -0.2552 -0.7347
 1926SOL     OW17236   0.147   4.624   8.867 -0.3723  0.2160  0.5229
 1926SOL    HW117237   0.173   4.532   8.863 -3.2555 -0.5247 -0.8696
 1926SOL    HW217238   0.196   4.649   8.946  0.0804 -2.8822  1.2369
 1927SOL     OW17239   3.464   1.717   5.831  0.2317  0.1630 -0.1657
 1927SOL    HW117240   3.465   1.626   5.802 -1.0085  0.1823 -0.2309
 1927SOL    HW217241   3.378   1.720   5.871  0.0960 -2.4194 -0.2450
 1928SOL     OW17242   4.149   3.126   9.048 -0.0078  0.3975  0.1224
 1928SOL    HW117243   4.057   3.117   9.021  0.0758 -1.5334  0.4328
 1928SOL    HW217244   4.165   3.034   9.071  1.3387  0.0978 -2.0144
 1929SOL     OW17245   4.133   4.035   9.776 -0.2565  0.2247 -0.2660
 1929SOL    HW117246   4.075   4.102   9.741  0.3357  1.1345  0.5113
 1929SOL    HW217247   4.133   3.973   9.703 -1.6900 -2.2716  1.8689
 1930SOL     OW17248   2.714   0.997  14.799 -0.0059 -0.3349  0.0462
 1930SOL    HW117249   2.716   1.048  14.718  3.3980 -0.3354  0.1261
 1930SOL    HW217250   2.808   0.983  14.808  0.3427  2.5429  0.6698
 1931SOL     OW17251   4.154   1.820   6.838 -0.2034  0.2202  0.5862
 1931SOL    HW117252   4.071   1.844   6.878 -0.1180 -1.8681  1.9899
 1931SOL    HW217253   4.208   1.889   6.876 -1.4203  1.5607 -0.1225
 1932SOL     OW17254   3.622   1.926   3.645  0.0782  0.2531  0.1045
 1932SOL    HW117255   3.527   1.918   3.641  0.0416  1.2218 -1.1015
 1932SOL    HW217256   3.625   2.020   3.625 -0.0028  0.8594  3.0446
 1933SOL     OW17257   3.819   3.144  16.395 -0.0468  0.0018  0.9370
 1933SOL    HW117258   3.800   3.125  16.303  0.5396 -0.8861  1.0015
 1933SOL    HW217259   3.852   3.060  16.428 -2.2132 -1.1512  0.1710
 1934SOL     OW17260   2.374   4.507   4.171 -0.4666 -0.6596 -0.5254
 1934SOL    HW117261   2.333   4.463   4.097 -2.1371  2.5039 -1.4678
 1934SOL    HW217262   2.295   4.542   4.212  1.2825  2.0186  0.5588
 1935SOL     OW17263   1.964   2.094   3.728 -0.0729 -0.0771 -0.5714
 1935SOL    HW117264   1.930   2.183   3.732 -1.7347 -0.7386 -0.3310
 1935SOL    HW217265   2.037   2.096   3.790  0.4111  1.0446 -1.1730
 1936SOL     OW17266   2.538   3.358   2.657 -0.7221 -0.4783 -0.3312
 1936SOL    HW117267   2.523   3.450   2.681 -2.4591 -0.6349 -0.7763
 1936SOL    HW217268   2.613   3.338   2.712 -1.3626  2.3323  1.6002
 1937SOL     OW17269   3.848   0.704   0.796  0.5047  0.5105  0.3065
 1937SOL    HW117270   3.821   0.612   0.806  0.6995  0.5170  0.9026
 1937SOL    HW217271   3.854   0.730   0.888 -0.4808 -0.4462  0.6459
 1938SOL     OW17272   1.821   1.612  16.418 -0.1611 -0.1785  0.0150
 1938SOL    HW117273   1.771   1.537  16.387  0.4897 -0.6304  0.0657
 1938SOL    HW217274   1.800   1.673  16.347  1.9329 -0.3260 -0.7247
 1939SOL     OW17275   1.808   2.743   1.911  0.2754  0.7103 -0.5350
 1939SOL    HW117276   1.898   2.739   1.945 -0.4158  0.8331  1.3122
 1939SOL    HW217277   1.808   2.818   1.852 -2.0506  1.7756  0.8228
 1940SOL     OW17278   2.241   4.583   5.501 -0.2208  0.6992 -0.3768
 1940SOL    HW117279   2.270   4.674   5.493  0.8580  0.4010  0.0634
 1940SOL    HW217280   2.321   4.541   5.467 -1.5803 -0.9911 -1.4762
 1941SOL     OW17281   0.672   3.776  13.471  1.2666 -0.1495 -0.2461
 1941SOL    HW117282   0.717   3.790  13.554 -0.1625  2.1442  0.1552
 1941SOL    HW217283   0.654   3.683  13.489  2.5714 -0.2274  0.6187
 1942SOL     OW17284   2.093   0.644   4.601 -0.0649 -0.4918 -0.0232
 1942SOL    HW117285   2.011   0.615   4.564  0.2768  0.3616 -1.4473
 1942SOL    HW217286   2.085   0.651   4.697  1.1103 -0.5641  0.0820
 1943SOL     OW17287   1.452   1.929  15.597 -0.3764  0.2130  0.0910
 1943SOL    HW117288   1.498   1.846  15.606 -3.5023 -1.2425  2.3757
 1943SOL    HW217289   1.513   1.996  15.565  1.3778 -1.2316  0.3986
 1944SOL     OW17290   1.155   4.142   2.609  0.0810 -0.1993  0.1016
 1944SOL    HW117291   1.068   4.184   2.605  0.2474  0.0317 -1.2073
 1944SOL    HW217292   1.190   4.186   2.687 -0.3197 -0.7023  0.5660
 1945SOL     OW17293   3.065   4.349   4.574 -0.2838  0.3896 -0.1218
 1945SOL    HW117294   3.137   4.401   4.538 -0.8168 -0.0591 -1.8623
 1945SOL    HW217295   3.117   4.296   4.634 -1.3490 -1.1181 -0.5229
 1946SOL     OW17296   0.227   0.901   9.482 -0.2668  0.5089  0.2321
 1946SOL    HW117297   0.189   0.983   9.515 -0.3373  0.1772  0.9626
 1946SOL    HW217298   0.315   0.926   9.511  0.0294 -1.1133  0.6904
 1947SOL     OW17299   2.535   1.910   9.527  0.6664  0.6581 -0.0153
 1947SOL    HW117300   2.508   1.822   9.552  1.9077  0.2707 -0.0488
 1947SOL    HW217301   2.574   1.895   9.441  0.2784 -0.2569 -0.0277
 1948SOL     OW17302   3.897   2.228  15.102 -0.1452 -0.2105 -0.3250
 1948SOL    HW117303   3.919   2.142  15.066 -2.5154 -1.4456  1.2140
 1948SOL    HW217304   3.901   2.288  15.028 -0.5162  1.0771  0.6888
 1949SOL     OW17305   2.920   2.468   8.760 -0.0343  0.5683 -0.1229
 1949SOL    HW117306   2.860   2.466   8.835  1.2662  0.5147  0.9120
 1949SOL    HW217307   2.999   2.425   8.793 -1.4606 -2.0611 -0.0893
 1950SOL     OW17308   0.540   4.010   7.801  0.2342 -0.1735  0.1737
 1950SOL    HW117309   0.448   3.996   7.826  0.0708  1.4742  0.4933
 1950SOL    HW217310   0.527   4.096   7.762  0.7072 -1.0381 -1.8859
 1951SOL     OW17311   2.713   1.981   7.287 -0.0103  0.0898 -0.1943
 1951SOL    HW117312   2.805   2.005   7.290  0.1026 -0.2798 -0.7510
 1951SOL    HW217313   2.690   2.009   7.375  0.5575 -1.1963  0.3708
 1952SOL     OW17314   2.180   3.063  12.711 -0.5013 -0.1041 -0.5974
 1952SOL    HW117315   2.111   3.001  12.687 -1.8701  0.9907  0.4766
 1952SOL    HW217316   2.183   3.108  12.626  0.9551 -0.0556 -0.5119
 1953SOL     OW17317   4.321   1.506   9.357  0.5440  0.5555 -0.2908
 1953SOL    HW117318   4.288   1.533   9.443  0.4267  1.9938 -0.7729
 1953SOL    HW217319   4.256   1.550   9.302 -1.4022  0.5761  2.0179
 1954SOL     OW17320   0.622   3.184   7.495  0.0217 -0.5581 -0.0798
 1954SOL    HW117321   0.578   3.253   7.544  0.5374 -0.2885 -0.0052
 1954SOL    HW217322   0.697   3.237   7.469 -0.7160 -0.7535 -2.6191
 1955SOL     OW17323   3.544   3.473   8.977  0.5550 -0.2733 -0.1653
 1955SOL    HW117324   3.509   3.463   9.065  1.3824 -0.4829  0.1391
 1955SOL    HW217325   3.603   3.398   8.975 -0.6954 -1.2975  1.7987
 1956SOL     OW17326   1.723   4.445  16.304 -0.4955  0.0512 -0.4825
 1956SOL    HW117327   1.683   4.407  16.382  3.5424 -1.1093  1.0144
 1956SOL    HW217328   1.642   4.483  16.268 -1.9713 -2.0627  0.6227
 1957SOL     OW17329   1.039   3.114  12.031  0.1107  0.6017 -0.5078
 1957SOL    HW117330   1.015   3.064  12.110  0.2083 -0.7886 -1.3619
 1957SOL    HW217331   0.951   3.119  11.993 -0.5208 -0.0232  0.8606
 1958SOL     OW17332   4.384   4.032  15.556 -0.3052 -0.1763  0.5795
 1958SOL    HW117333   4.431   3.949  15.566  0.9789  0.5787  0.8014
 1958SOL    HW217334   4.421   4.062  15.473 -0.1706 -1.1572  0.2830
 1959SOL     OW17335   1.267   4.023   5.807  0.1050  0.1352 -0.7321
 1959SOL    HW117336   1.176   3.995   5.802  0.3150 -0.3752 -1.8674
 1959SOL    HW217337   1.278   4.031   5.901  1.7790 -0.1085 -0.9062
 1960SOL     OW17338   3.250   4.649   1.148 -0.1889 -0.0494 -0.3319
 1960SOL    HW117339   3.190   4.677   1.078  1.5161 -1.4961 -2.3612
 1960SOL    HW217340   3.188   4.648   1.221  0.3824  0.0795  0.1522
 1961SOL     OW17341   1.761   0.249   0.440 -0.2697 -0.4520 -0.0179
 1961SOL    HW117342   1.856   0.262   0.444  0.1605 -3.4487 -1.0985
 1961SOL    HW217343   1.756   0.155   0.428  0.4274 -0.6180  0.9862
 1962SOL     OW17344   2.481   2.955   7.032  0.0858  0.1137  0.3962
 1962SOL    HW117345   2.420   2.915   6.970 -0.3398 -0.7876  1.3925
 1962SOL    HW217346   2.564   2.947   6.986  0.5497  1.3574  1.0089
 1963SOL     OW17347   3.351   0.444   5.899 -0.0474  0.2228 -0.0931
 1963SOL    HW117348   3.344   0.531   5.939 -0.0659 -0.2228  0.8837
 1963SOL    HW217349   3.368   0.460   5.806 -3.5474 -0.2451 -0.8318
 1964SOL     OW17350   2.978   0.117   9.534  0.4736  0.6093  0.5086
 1964SOL    HW117351   2.908   0.159   9.485 -0.5877  0.4620  1.8988
 1964SOL    HW217352   2.991   0.181   9.604  1.8208 -1.0393  1.7698
 1965SOL     OW17353   1.004   3.932   5.649  0.2554 -0.4028 -0.7563
 1965SOL    HW117354   0.942   3.867   5.616 -0.5105  1.1094 -2.3312
 1965SOL    HW217355   1.059   3.946   5.571  0.4778  2.7144 -0.0382
 1966SOL     OW17356   2.121   4.005  13.859 -0.6380  0.2325 -0.4803
 1966SOL    HW117357   2.103   4.082  13.805 -1.8074  0.1756 -0.1749
 1966SOL    HW217358   2.102   3.933  13.799  0.8470 -1.3982  0.9901
 1967SOL     OW17359   4.472   2.214  12.761 -0.8625 -0.1090  0.0922
 1967SOL    HW117360   4.387   2.215  12.717 -0.6668 -0.6714 -0.3042
 1967SOL    HW217361   4.446   2.230  12.852 -2.4044  0.8191 -0.5071
 1968SOL     OW17362   0.616   2.578  12.707  0.5523  0.9826  0.0005
 1968SOL    HW117363   0.614   2.591  12.802  2.1245  1.5562 -0.0494
 1968SOL    HW217364   0.535   2.626  12.685 -0.3146 -0.5902 -0.2133
 1969SOL     OW17365   0.967   3.235   4.284 -0.1247 -0.1933  0.1134
 1969SOL    HW117366   0.985   3.208   4.195  1.0703  0.6185  0.1021
 1969SOL    HW217367   1.052   3.223   4.326 -0.1408  0.8238  0.4501
 1970SOL     OW17368   0.531   2.254   0.112 -0.5268 -0.5922  0.3683
 1970SOL    HW117369   0.510   2.342   0.143 -1.4311 -0.2656 -1.1596
 1970SOL    HW217370   0.539   2.201   0.192  1.7953  1.7409  1.6536
 1971SOL     OW17371   3.208   1.443   7.511 -0.4205  0.2283 -0.0173
 1971SOL    HW117372   3.276   1.426   7.576  0.8378  2.3504 -0.7852
 1971SOL    HW217373   3.271   1.491   7.458  0.1945  0.5501  0.9900
 1972SOL     OW17374   0.493   1.141   2.383 -0.4160 -0.1793 -0.5569
 1972SOL    HW117375   0.443   1.085   2.443 -0.7151  1.6507  0.8839
 1972SOL    HW217376   0.440   1.220   2.375 -0.0638  0.0200 -0.9397
 1973SOL     OW17377   3.935   2.559   3.151  0.4853 -0.1305  0.0938
 1973SOL    HW117378   3.929   2.636   3.207 -1.6315  0.7808 -1.4098
 1973SOL    HW217379   4.016   2.518   3.182 -0.2044 -1.6687 -0.1392
 1974SOL     OW17380   1.867   1.361  16.004 -0.4706 -0.0907 -0.1021
 1974SOL    HW117381   1.837   1.276  15.972 -1.0478 -0.6261  1.8544
 1974SOL    HW217382   1.962   1.355  16.007 -0.3890  0.0998 -2.0637
 1975SOL     OW17383   0.992   0.198   3.816  0.2817  0.0758  0.3987
 1975SOL    HW117384   1.051   0.123   3.828 -2.0586 -1.7558  0.5349
 1975SOL    HW217385   1.031   0.256   3.881  1.1221  0.7947 -0.7525
 1976SOL     OW17386   3.853   4.625   8.624  0.5259 -0.0009 -0.5582
 1976SOL    HW117387   3.859   4.534   8.652 -0.0620  0.0720 -0.1987
 1976SOL    HW217388   3.947   4.645   8.628  1.2885 -3.7491  0.1979
 1977SOL     OW17389   0.906   3.674   9.789 -0.0896  0.1962  0.0252
 1977SOL    HW117390   0.903   3.740   9.720  0.6738 -0.6986 -0.8705
 1977SOL    HW217391   0.841   3.610   9.761 -0.9534  1.3812 -0.6002
 1978SOL     OW17392   0.925   1.308  10.793 -0.1029 -0.7624 -0.0860
 1978SOL    HW117393   0.992   1.258  10.747 -0.8475 -2.1584  0.3272
 1978SOL    HW217394   0.887   1.243  10.852 -1.8673  2.2918  2.1749
 1979SOL     OW17395   4.233   2.913  10.857  0.4101  0.2715  0.1262
 1979SOL    HW117396   4.249   2.928  10.764 -3.4613  3.1411 -0.0558
 1979SOL    HW217397   4.311   2.947  10.899  1.7854 -0.4109 -1.8695
 1980SOL     OW17398   1.650   3.867   1.766  0.3968 -0.7001 -0.1467
 1980SOL    HW117399   1.671   3.827   1.851 -2.8744 -0.5066  0.7547
 1980SOL    HW217400   1.624   3.786   1.722 -1.4315  0.2653 -0.8145
 1981SOL     OW17401   3.753   1.771   6.373 -0.0478 -0.0760 -0.4407
 1981SOL    HW117402   3.822   1.824   6.334 -0.9029  0.4204 -1.2682
 1981SOL    HW217403   3.804   1.706   6.421 -0.2446  0.7396  0.8878
 1982SOL     OW17404   3.273   0.504  12.829  0.0690 -0.4445  0.3095
 1982SOL    HW117405   3.361   0.519  12.793  0.3962  0.9654  1.7110
 1982SOL    HW217406   3.282   0.424  12.882  1.9038  1.2121  2.4822
 1983SOL     OW17407   3.651   1.530  16.868  0.6959 -0.0816 -0.1206
 1983SOL    HW117408   3.609   1.455  16.909 -0.2585  0.6016  0.1654
 1983SOL    HW217409   3.591   1.599  16.897 -0.1492 -1.0510  0.4261
 1984SOL     OW17410   3.528   0.704   3.554  0.1145 -0.0921 -0.1901
 1984SOL    HW117411   3.487   0.630   3.510 -0.9389 -0.0885  0.7894
 1984SOL    HW217412   3.576   0.751   3.485 -0.6966 -0.9957 -1.3580
 1985SOL     OW17413   1.104   0.129   2.018 -0.2188 -0.0523  0.2615
 1985SOL    HW117414   1.124   0.219   2.044 -0.9623  0.6560 -1.6208
 1985SOL    HW217415   1.178   0.099   1.965  0.4647 -0.2311  1.3101
 1986SOL     OW17416   3.897   3.107   4.431  0.3018  0.1598  0.0429
 1986SOL    HW117417   3.866   3.067   4.512 -0.8956 -0.7134 -0.8544
 1986SOL    HW217418   3.957   3.041   4.397 -0.8422 -0.3893 -0.8850
 1987SOL     OW17419   4.108   1.809   8.476 -0.5780  0.0874 -0.3886
 1987SOL    HW117420   4.173   1.835   8.410 -0.6898 -1.9209 -1.2782
 1987SOL    HW217421   4.128   1.716   8.489  3.1644  0.9419 -0.1364
 1988SOL     OW17422   3.097   4.446   6.880  0.1293 -0.0340 -0.2499
 1988SOL    HW117423   3.112   4.364   6.833  0.4093 -0.5496  0.7325
 1988SOL    HW217424   3.034   4.486   6.820  2.0988  0.3676 -2.0671
 1989SOL     OW17425   3.312   0.163   8.367 -0.3523 -0.8275  0.5575
 1989SOL    HW117426   3.335   0.231   8.304 -0.5167  0.4402  1.8489
 1989SOL    HW217427   3.247   0.205   8.424  3.3268  4.7957  0.6161
 1990SOL     OW17428   1.521   4.018  14.962 -0.0597  0.0362  0.4232
 1990SOL    HW117429   1.536   4.088  15.026 -1.6292 -0.7976  1.6882
 1990SOL    HW217430   1.459   4.057  14.900  0.2682 -0.8119 -0.4466
 1991SOL     OW17431   1.544   2.214   4.708  0.5948 -0.8146  0.3146
 1991SOL    HW117432   1.464   2.238   4.755  1.1471  1.9632 -0.1572
 1991SOL    HW217433   1.605   2.210   4.781 -1.8518  1.7860  2.4783
 1992SOL     OW17434   0.011   0.111   2.587  0.4757 -0.5420  0.5786
 1992SOL    HW117435   4.655   0.056   2.588  0.7933 -1.0297 -0.4531
 1992SOL    HW217436   0.036   0.117   2.495 -2.0982 -2.7348 -0.2751
 1993SOL     OW17437   2.238   4.530  11.537 -0.6014 -0.4069 -0.8969
 1993SOL    HW117438   2.172   4.549  11.470 -2.0279  2.6533  1.3676
 1993SOL    HW217439   2.307   4.590  11.507 -0.6112  0.9521  1.8216
 1994SOL     OW17440   3.292   3.873   7.306 -0.1509  0.5241 -0.0728
 1994SOL    HW117441   3.240   3.947   7.339  2.7971  0.9939  3.5604
 1994SOL    HW217442   3.263   3.807   7.369  0.7107  2.2351  2.1248
 1995SOL     OW17443   3.682   3.721   8.676  0.4208  0.1064  0.2539
 1995SOL    HW117444   3.668   3.672   8.595  0.4662 -0.9250  0.8720
 1995SOL    HW217445   3.628   3.798   8.659  0.4514  0.3847  1.4121
 1996SOL     OW17446   2.674   2.441   7.523 -0.1017  0.1200  0.4089
 1996SOL    HW117447   2.643   2.354   7.548  3.0102 -1.0815  0.0232
 1996SOL    HW217448   2.601   2.468   7.467 -1.1517  0.0216  1.7229
 1997SOL     OW17449   4.070   3.503   6.978  0.2807 -0.4784  0.1920
 1997SOL    HW117450   4.154   3.494   7.024  1.0107  1.1754 -0.8222
 1997SOL    HW217451   4.089   3.555   6.900  0.6549  0.1743  0.7117
 1998SOL     OW17452   4.582   4.262  15.982 -0.6597  0.5423  0.1598
 1998SOL    HW117453   4.515   4.257  16.051 -2.1016  0.9598 -1.2003
 1998SOL    HW217454   4.565   4.179  15.937  0.7261  0.5850 -0.4354
 1999SOL     OW17455   4.135   1.362   8.208 -1.1807 -0.3650 -0.1541
 1999SOL    HW117456   4.092   1.408   8.279  1.6306  1.7771  0.1676
 1999SOL    HW217457   4.218   1.379   8.252 -1.6434  3.8997 -0.9611
 2000SOL     OW17458   3.092   4.615   3.482 -0.9800 -0.0053  0.1546
 2000SOL    HW117459   3.165   4.557   3.501 -0.5499  0.7285  0.7449
 2000SOL    HW217460   3.067   4.645   3.569  2.1530  1.4785  0.5131
 2001SOL     OW17461   3.541   3.735   7.222  0.1110  0.0175  0.1798
 2001SOL    HW117462   3.477   3.791   7.265  1.8893  0.6340  2.0085
 2001SOL    HW217463   3.481   3.686   7.165  0.8993 -0.2095 -0.4554
 2002SOL     OW17464   0.974   0.224   3.347 -0.5469 -0.5549  0.2651
 2002SOL    HW117465   0.918   0.231   3.270 -2.1640 -1.5012  1.3660
 2002SOL    HW217466   0.950   0.301   3.399 -1.4199 -1.1117  0.6791
 2003SOL     OW17467   3.996   1.530   1.263 -0.3009 -0.1912  0.1020
 2003SOL    HW117468   3.957   1.453   1.304 -0.4474 -0.1720 -0.0019
 2003SOL    HW217469   4.078   1.489   1.236  0.1656  0.9715 -0.2031
 2004SOL     OW17470   2.922   4.279   5.761 -0.4128  0.5336  0.0019
 2004SOL    HW117471   2.993   4.344   5.760  1.7793 -1.8669 -1.4822
 2004SOL    HW217472   2.918   4.257   5.668  0.1424  1.0110 -0.1411
 2005SOL     OW17473   2.794   1.287   2.640 -0.3640  0.0847  0.3236
 2005SOL    HW117474   2.793   1.331   2.555 -1.1688  2.6331  1.6532
 2005SOL    HW217475   2.886   1.295   2.667 -0.1941  0.2319 -0.2860
 2006SOL     OW17476   4.564   1.665   5.402  0.4164 -0.2959  0.1671
 2006SOL    HW117477   4.628   1.727   5.367 -0.0432 -0.6683 -1.3324
 2006SOL    HW217478   4.540   1.706   5.485 -2.5152 -2.4086  0.3673
 2007SOL     OW17479   0.480   4.284   2.873  0.2145 -0.2411 -0.2321
 2007SOL    HW117480   0.470   4.190   2.862  2.0239 -0.0658 -3.4534
 2007SOL    HW217481   0.445   4.296   2.961 -0.6781 -2.0729 -0.3441
 2008SOL     OW17482   3.338   2.521   3.587 -0.2598 -0.4147 -0.1422
 2008SOL    HW117483   3.310   2.573   3.663 -1.7213 -1.7250  0.1947
 2008SOL    HW217484   3.264   2.462   3.578 -1.5834  1.1011  0.9332
 2009SOL     OW17485   2.036   3.409   7.991 -0.4128  0.1424  0.2519
 2009SOL    HW117486   2.062   3.320   8.013  0.6603  0.5218  0.5063
 2009SOL    HW217487   2.080   3.459   8.061  1.7319 -1.2661 -0.0953
 2010SOL     OW17488   0.603   3.756  10.494  0.1215  0.4265 -0.2146
 2010SOL    HW117489   0.578   3.758  10.586 -0.6012 -0.4701 -0.3969
 2010SOL    HW217490   0.544   3.691  10.457 -2.8299  2.1822  1.4221
 2011SOL     OW17491   0.531   3.290   7.886  0.6326  0.3624 -0.4377
 2011SOL    HW117492   0.611   3.291   7.939 -0.0143  0.7951  0.5283
 2011SOL    HW217493   0.567   3.324   7.804  0.7993  1.0082 -0.0982
 2012SOL     OW17494   1.314   4.481  13.450 -0.2123  0.1214  0.2438
 2012SOL    HW117495   1.247   4.512  13.388 -0.5412 -0.8618  0.1082
 2012SOL    HW217496   1.281   4.391  13.458 -0.8453  0.1767 -1.8006
 2013SOL     OW17497   2.783   2.349   8.085  0.1286 -0.2851  0.3519
 2013SOL    HW117498   2.767   2.263   8.047 -1.6896 -0.4775  1.5783
 2013SOL    HW217499   2.729   2.408   8.033 -2.2730 -0.5789  2.5307
 2014SOL     OW17500   3.333   3.782  12.266  0.0083 -0.2652  0.0955
 2014SOL    HW117501   3.334   3.808  12.173  1.4276 -1.7091 -0.3066
 2014SOL    HW217502   3.289   3.861  12.297  2.6243  1.1382  0.1891
 2015SOL     OW17503   0.398   2.917   2.260 -0.3613  0.0313 -0.5874
 2015SOL    HW117504   0.330   2.914   2.327 -0.9484  0.2487 -1.1728
 2015SOL    HW217505   0.440   2.841   2.299 -0.6093  0.3506  0.2900
 2016SOL     OW17506   2.027   1.367  14.136 -0.7981  0.3214  0.5183
 2016SOL    HW117507   2.018   1.331  14.224  1.5225  1.1113  1.0542
 2016SOL    HW217508   1.933   1.377  14.116 -0.8117  1.8065  1.3173
 2017SOL     OW17509   1.280   1.139   8.103  0.1760  0.3075 -0.2515
 2017SOL    HW117510   1.360   1.162   8.056  1.0527 -1.5742  0.3047
 2017SOL    HW217511   1.249   1.060   8.059  0.2655  0.1733 -0.0728
 2018SOL     OW17512   4.081   1.433  12.716  0.2031 -0.7560 -0.5997
 2018SOL    HW117513   4.145   1.374  12.676  1.6731 -0.8227  1.8217
 2018SOL    HW217514   4.126   1.499  12.769 -0.2038  1.6075 -3.2200
 2019SOL     OW17515   1.022   0.416   9.546 -0.2527  0.1521 -0.4589
 2019SOL    HW117516   0.988   0.333   9.514  0.5816 -0.2284 -0.3505
 2019SOL    HW217517   1.001   0.418   9.640  1.2937  1.4564 -0.1339
 2020SOL     OW17518   3.519   0.398   5.688  0.0666 -0.1980  0.2291
 2020SOL    HW117519   3.604   0.399   5.732  1.5529  3.0555 -2.7203
 2020SOL    HW217520   3.512   0.308   5.656  2.4372 -0.8236  1.4779
 2021SOL     OW17521   2.977   4.125   7.171 -0.2775  0.4838 -0.2412
 2021SOL    HW117522   2.900   4.180   7.184 -0.9818 -0.3407 -0.8389
 2021SOL    HW217523   2.956   4.065   7.243  1.3810 -0.7499 -0.7852
 2022SOL     OW17524   1.612   1.944   9.623 -0.3285 -0.1164  0.0997
 2022SOL    HW117525   1.600   1.950   9.528 -1.2535  2.3699  0.3953
 2022SOL    HW217526   1.590   2.035   9.642  0.4397  0.3156 -1.0716
 2023SOL     OW17527   2.735   1.234   2.336  0.3715  0.4389  0.0570
 2023SOL    HW117528   2.768   1.323   2.339  1.5765 -0.0105  0.0425
 2023SOL    HW217529   2.718   1.219   2.243 -1.6015  3.2982 -0.0351
 2024SOL     OW17530   1.981   0.239   3.247  0.2933  0.4043  0.3937
 2024SOL    HW117531   1.892   0.209   3.267  0.3416  0.2537  0.3807
 2024SOL    HW217532   1.967   0.289   3.166 -0.7520  0.7934  0.8151
 2025SOL     OW17533   0.413   2.264   2.802  0.2296 -0.3994 -0.0289
 2025SOL    HW117534   0.354   2.209   2.853  0.0318 -0.0370  0.1336
 2025SOL    HW217535   0.357   2.286   2.727 -0.8215  0.0836  0.9028
 2026SOL     OW17536   1.039   1.110  15.641  0.3594 -0.0456 -0.2781
 2026SOL    HW117537   1.031   1.199  15.606 -0.0972 -0.0041 -0.0848
 2026SOL    HW217538   0.963   1.103  15.699 -1.2845  0.6734 -2.3485
 2027SOL     OW17539   4.611   3.017  17.077 -0.0006  0.1046 -0.6206
 2027SOL    HW117540   4.640   3.108  17.063 -2.0645  0.7706 -0.6013
 2027SOL    HW217541   4.518   3.012  17.053  0.1617  3.5479 -1.9623
 2028SOL     OW17542   3.926   0.710   1.328 -0.2773 -0.2009  0.1668
 2028SOL    HW117543   3.938   0.620   1.358  1.5792  0.4864  1.5018
 2028SOL    HW217544   4.008   0.758   1.343 -2.1295  3.1205 -0.4383
 2029SOL     OW17545   0.301   2.918   7.061  0.3088  0.6737 -0.1526
 2029SOL    HW117546   0.236   2.929   6.991 -0.5365  0.7796  0.6472
 2029SOL    HW217547   0.270   2.993   7.112  0.9650  1.7058 -1.2703
 2030SOL     OW17548   1.832   2.123   7.311  0.1425  0.1018 -0.2769
 2030SOL    HW117549   1.778   2.158   7.381  1.5085 -0.9651  1.3197
 2030SOL    HW217550   1.776   2.052   7.280 -0.8955  0.6850  0.2835
 2031SOL     OW17551   0.790   3.058   4.650  0.0151  0.2070 -0.0992
 2031SOL    HW117552   0.786   3.063   4.555 -1.5257 -1.3566 -0.1278
 2031SOL    HW217553   0.867   3.112   4.669  0.1161 -0.5258  1.6755
 2032SOL     OW17554   2.733   1.610   6.090 -0.6699 -0.1861 -0.2713
 2032SOL    HW117555   2.754   1.616   6.183 -0.1011 -1.1820 -0.3326
 2032SOL    HW217556   2.637   1.618   6.091 -0.7506 -1.1494 -0.1860
 2033SOL     OW17557   2.928   4.337   7.602 -0.0971  0.2754 -0.2654
 2033SOL    HW117558   2.994   4.359   7.536 -0.7661  0.3104 -0.9199
 2033SOL    HW217559   2.865   4.296   7.543  1.3753  1.2889 -2.5469
 2034SOL     OW17560   1.693   4.358   2.704 -0.0716 -0.3921  0.4088
 2034SOL    HW117561   1.616   4.321   2.747 -1.3054  2.2055  0.4195
 2034SOL    HW217562   1.656   4.397   2.625  1.0758  0.0897  0.1185
 2035SOL     OW17563   3.105   4.498  16.073 -0.2532  0.1177  0.8640
 2035SOL    HW117564   3.051   4.448  16.135 -1.0446 -0.1336 -0.0417
 2035SOL    HW217565   3.157   4.424  16.043 -1.2419 -0.0274 -0.4573
 2036SOL     OW17566   0.458   4.300   3.221  0.0302  0.1697  0.1795
 2036SOL    HW117567   0.449   4.227   3.282 -2.7114 -0.4983 -1.0368
 2036SOL    HW217568   0.374   4.307   3.176  1.2018  0.1027 -2.0393
 2037SOL     OW17569   3.044   3.697   8.937 -0.0577  0.1686  0.0345
 2037SOL    HW117570   3.128   3.741   8.924 -0.6206  1.3629  0.4476
 2037SOL    HW217571   3.072   3.605   8.931  1.2909  0.4576  1.9496
 2038SOL     OW17572   3.944   2.435   8.603  0.1970  0.5075 -0.5666
 2038SOL    HW117573   3.930   2.407   8.512  0.6908  0.3218 -0.5834
 2038SOL    HW217574   3.930   2.353   8.651 -0.5883  0.5201 -0.7682
 2039SOL     OW17575   3.465   3.232  15.105 -0.0595  0.0667  0.3335
 2039SOL    HW117576   3.509   3.259  15.186 -0.7057 -0.4706  0.8609
 2039SOL    HW217577   3.381   3.268  15.132 -0.5369  0.1594 -1.2941
 2040SOL     OW17578   2.084   2.543   5.440 -0.1309 -0.1229 -0.4368
 2040SOL    HW117579   2.172   2.506   5.432 -0.1003 -0.2812  0.5574
 2040SOL    HW217580   2.106   2.626   5.482  0.5806 -1.2605  1.4658
 2041SOL     OW17581   1.983   4.500   7.471 -0.0453  0.3407 -0.2093
 2041SOL    HW117582   2.042   4.430   7.442 -1.4563 -0.9947  0.1567
 2041SOL    HW217583   2.016   4.569   7.413  0.0673  1.3580  1.0569
 2042SOL     OW17584   4.226   4.643   8.060 -0.1599  0.0874 -0.1997
 2042SOL    HW117585   4.157   4.591   8.018 -0.2377 -1.1054  1.3927
 2042SOL    HW217586   4.295   4.581   8.084  1.4442  1.4664 -1.2475
 2043SOL     OW17587   3.080   2.358   8.122  0.2919 -0.8679 -0.1155
 2043SOL    HW117588   3.129   2.387   8.046 -1.9890  2.7555 -0.1919
 2043SOL    HW217589   2.991   2.369   8.088  0.4063  1.3012  0.2966
 2044SOL     OW17590   1.443   3.691   5.132  0.1878 -0.6560  0.3419
 2044SOL    HW117591   1.539   3.691   5.129  0.1701  0.2768 -0.1542
 2044SOL    HW217592   1.427   3.688   5.038 -0.6307  1.9371  0.3784
 2045SOL     OW17593   0.320   3.225   5.623  0.0203 -0.7808  0.0473
 2045SOL    HW117594   0.305   3.313   5.589  1.8202 -0.2557  0.6112
 2045SOL    HW217595   0.235   3.187   5.644 -1.4250  1.6038 -1.4929
 2046SOL     OW17596   1.039   3.170   1.514  0.7123 -0.1946  0.6741
 2046SOL    HW117597   1.101   3.102   1.539  1.6274  0.4626  0.1723
 2046SOL    HW217598   1.062   3.231   1.584  0.9439 -2.4579  2.5944
 2047SOL     OW17599   4.232   4.088  11.085 -0.3579 -0.4249  0.2925
 2047SOL    HW117600   4.218   4.102  11.178  3.3470  2.1145  0.4800
 2047SOL    HW217601   4.291   4.157  11.054 -1.0535 -0.8441 -2.0008
 2048SOL     OW17602   3.843   2.232   2.797  0.5803  0.0672 -0.4491
 2048SOL    HW117603   3.754   2.204   2.776 -0.3213  1.7406  1.0609
 2048SOL    HW217604   3.826   2.315   2.842  0.4665 -0.1005 -0.1860
 2049SOL     OW17605   0.391   1.929   7.659 -0.1178  0.1559  0.7611
 2049SOL    HW117606   0.322   1.940   7.724 -1.1587  1.5910 -0.5821
 2049SOL    HW217607   0.350   1.949   7.574  0.7905 -1.3368 -0.0280
 2050SOL     OW17608   3.206   0.414  13.951 -0.3953 -0.4153 -0.2250
 2050SOL    HW117609   3.151   0.455  13.884 -1.0119 -0.9026 -0.0144
 2050SOL    HW217610   3.162   0.453  14.027 -0.9592 -0.4841 -0.5198
 2051SOL     OW17611   3.319   2.389   9.411 -0.1171  0.4631 -0.1900
 2051SOL    HW117612   3.355   2.438   9.337 -0.2387 -1.8832 -1.7909
 2051SOL    HW217613   3.256   2.451   9.447 -2.1890 -1.1711 -1.0536
 2052SOL     OW17614   4.677   4.418   3.161  0.5151  0.0847 -0.1256
 2052SOL    HW117615   4.722   4.368   3.229  2.4756 -0.9046 -2.1749
 2052SOL    HW217616   4.717   4.502   3.182  0.0421  0.1970  0.3337
 2053SOL     OW17617   1.350   3.878   8.626  0.3310 -0.1575  0.0441
 2053SOL    HW117618   1.398   3.805   8.587  0.3779 -0.8748  1.4687
 2053SOL    HW217619   1.419   3.924   8.674 -0.3329 -1.5588  2.3152
 2054SOL     OW17620   4.660   3.134   7.974  0.4781  0.0789  0.2776
 2054SOL    HW117621   4.620   3.049   7.959 -2.4170  1.6281 -0.9694
 2054SOL    HW217622   0.027   3.107   7.959  0.2638 -1.5791  1.9903
 2055SOL     OW17623   0.926   0.672   5.716 -0.4117  0.4611 -0.3865
 2055SOL    HW117624   0.902   0.688   5.807 -0.0420  1.2888 -0.4337
 2055SOL    HW217625   0.962   0.584   5.723  0.4108  0.7209 -1.2894
 2056SOL     OW17626   1.138   0.943   7.160  0.1547 -0.2251 -0.5885
 2056SOL    HW117627   1.087   0.909   7.086  0.2421  0.9431 -1.1848
 2056SOL    HW217628   1.206   1.003   7.128 -0.7940  1.0674 -0.1520
 2057SOL     OW17629   2.421   2.104  11.973  0.1130  0.3327  0.1131
 2057SOL    HW117630   2.438   2.081  12.064 -0.4257 -0.5294 -0.0054
 2057SOL    HW217631   2.327   2.111  11.957  0.0872  1.4755  0.8137
 2058SOL     OW17632   1.908   3.306   7.663  0.0549  0.1041  0.3979
 2058SOL    HW117633   2.000   3.307   7.634 -0.0360  2.6744  0.1729
 2058SOL    HW217634   1.934   3.329   7.752  0.7833 -0.9068  0.4511
 2059SOL     OW17635   4.435   4.081  14.461  0.5180  0.7884  0.1357
 2059SOL    HW117636   4.355   4.045  14.500  0.1054  1.7240  0.1451
 2059SOL    HW217637   4.418   4.175  14.457  0.1582  0.6569 -1.3885
 2060SOL     OW17638   1.897   3.905   4.438 -0.1894  0.2937  0.2394
 2060SOL    HW117639   1.906   3.931   4.530  0.1746  1.5597 -0.1511
 2060SOL    HW217640   1.820   3.958   4.418  0.9469  2.0876  0.6176
 2061SOL     OW17641   2.129   2.298   4.176  0.3635  0.5105 -0.7974
 2061SOL    HW117642   2.218   2.332   4.180  1.4673 -2.6593  1.4426
 2061SOL    HW217643   2.145   2.211   4.212 -1.2321  0.6183  0.1743
 2062SOL     OW17644   0.266   2.119  11.448  0.4964  0.5755 -0.0065
 2062SOL    HW117645   0.221   2.057  11.390 -1.8242  0.9921  1.3390
 2062SOL    HW217646   0.337   2.066  11.484  0.5914  0.5350 -0.2530
 2063SOL     OW17647   1.086   0.069   5.161 -0.0820 -0.1914 -0.0901
 2063SOL    HW117648   1.130   4.713   5.192 -0.8633  0.6606  3.1777
 2063SOL    HW217649   1.079   0.047   5.068 -1.1911  1.1102 -0.3141
 2064SOL     OW17650   0.454   4.126  13.746  0.1182 -0.2772  0.0075
 2064SOL    HW117651   0.388   4.068  13.707  1.0173 -0.2934 -1.4833
 2064SOL    HW217652   0.445   4.108  13.839  2.9423 -2.8149 -0.2416
 2065SOL     OW17653   0.901   4.257   8.631  0.1517 -0.6555 -0.5684
 2065SOL    HW117654   0.873   4.279   8.720  0.5730  0.8288 -0.8000
 2065SOL    HW217655   0.827   4.292   8.581 -1.3682 -1.3895  1.1606
 2066SOL     OW17656   0.769   2.287  13.723 -0.3356  0.1684 -0.3869
 2066SOL    HW117657   0.686   2.316  13.760 -0.7489  0.4141 -1.5024
 2066SOL    HW217658   0.824   2.297  13.800 -2.0591 -2.3582  1.1819
 2067SOL     OW17659   1.609   0.761   4.790  0.7745  0.1870 -0.3780
 2067SOL    HW117660   1.561   0.755   4.708  1.7804  1.8685 -1.1146
 2067SOL    HW217661   1.534   0.758   4.849  1.3250 -1.1478  0.2406
 2068SOL     OW17662   3.203   3.747  12.632  0.1724  0.1111 -0.2511
 2068SOL    HW117663   3.255   3.827  12.644  3.0088 -1.4807 -1.9227
 2068SOL    HW217664   3.232   3.700  12.710  0.1814 -1.2115 -1.0516
 2069SOL     OW17665   0.247   2.626  14.127 -0.0625  0.5108 -0.0428
 2069SOL    HW117666   0.226   2.563  14.196  0.7143  0.3597  0.0535
 2069SOL    HW217667   0.342   2.626  14.132 -0.0624 -2.0513 -0.4184
 2070SOL     OW17668   2.748   3.266   4.111 -0.1579  0.3898  0.5606
 2070SOL    HW117669   2.797   3.200   4.160 -0.8653  0.5469  1.4653
 2070SOL    HW217670   2.666   3.276   4.158 -0.9796 -0.6754 -0.6429
 2071SOL     OW17671   3.731   0.619  15.883 -0.2551 -0.3693  0.1764
 2071SOL    HW117672   3.654   0.570  15.854 -0.4529  0.2139 -0.2890
 2071SOL    HW217673   3.779   0.544  15.918  2.2653  0.7908 -0.7443
 2072SOL     OW17674   0.998   4.696   3.491 -0.1444  0.0626 -0.7793
 2072SOL    HW117675   0.917   4.659   3.455 -0.9242  1.9604 -0.9357
 2072SOL    HW217676   0.992   0.045   3.429 -1.5815 -0.3154 -1.0927
 2073SOL     OW17677   0.137   1.735  11.906 -0.2721  0.1190  0.0398
 2073SOL    HW117678   0.127   1.709  11.998  0.3960 -0.1195  0.0452
 2073SOL    HW217679   0.231   1.722  11.897  0.1063  3.3685 -0.5597
 2074SOL     OW17680   1.816   2.700   7.887 -0.6939 -0.3543 -0.1236
 2074SOL    HW117681   1.740   2.665   7.934  0.9171 -3.3369  0.2537
 2074SOL    HW217682   1.817   2.635   7.816 -1.8582 -0.2137 -0.2747
 2075SOL     OW17683   1.345   3.444  14.965 -0.5159  0.6045  0.1394
 2075SOL    HW117684   1.385   3.526  14.934  0.7816 -0.5722 -1.3077
 2075SOL    HW217685   1.323   3.477  15.052 -1.1175 -0.6924  0.4836
 2076SOL     OW17686   4.148   0.222   3.721 -0.1699 -0.5392 -0.1755
 2076SOL    HW117687   4.141   0.242   3.628  2.0342  0.9958 -0.0001
 2076SOL    HW217688   4.100   0.139   3.720  0.3395 -0.8120 -1.6646
 2077SOL     OW17689   3.062   0.841   7.978 -0.2679 -0.0497  0.2989
 2077SOL    HW117690   3.072   0.859   8.072  2.3425 -0.0009  0.0060
 2077SOL    HW217691   3.082   0.927   7.942 -2.6631 -0.0572 -1.0214
 2078SOL     OW17692   3.660   0.861   7.612 -0.3031  0.0949 -0.2129
 2078SOL    HW117693   3.754   0.843   7.614 -0.3858 -0.1832  1.2434
 2078SOL    HW217694   3.662   0.952   7.585 -0.8776  0.0509 -0.3965
 2079SOL     OW17695   2.533   2.281   5.452  0.2097  0.0844  0.5713
 2079SOL    HW117696   2.559   2.225   5.379 -0.6254  0.8460 -0.2989
 2079SOL    HW217697   2.483   2.343   5.399 -0.6561 -1.8168 -0.8654
 2080SOL     OW17698   3.082   1.621   6.732  0.3878 -0.4498  0.0072
 2080SOL    HW117699   3.159   1.607   6.677  0.1642 -0.3461 -0.3285
 2080SOL    HW217700   3.117   1.650   6.816 -1.3105 -1.9090  1.2165
 2081SOL     OW17701   4.213   0.499  11.404  0.2933 -0.5528  0.1529
 2081SOL    HW117702   4.187   0.572  11.460 -0.7331  0.0963 -1.1601
 2081SOL    HW217703   4.177   0.534  11.322  1.0201 -1.4045 -0.5302
 2082SOL     OW17704   3.837   3.973   6.990 -0.0845 -0.3861  0.4124
 2082SOL    HW117705   3.807   3.905   7.050 -0.6039 -0.0711  0.5089
 2082SOL    HW217706   3.798   4.049   7.034 -0.2578  0.4746 -1.2418
 2083SOL     OW17707   4.004   0.624   8.873 -0.1342  0.8672  0.3264
 2083SOL    HW117708   4.082   0.678   8.882  0.2280  0.5804 -1.0642
 2083SOL    HW217709   4.006   0.594   8.782 -0.6168  1.6332  0.0664
 2084SOL     OW17710   3.759   3.483  16.698 -0.2644  0.3432 -0.2769
 2084SOL    HW117711   3.710   3.416  16.650 -1.9370  2.7431 -1.9539
 2084SOL    HW217712   3.692   3.541  16.734 -0.5414 -0.6713  0.8459
 2085SOL     OW17713   0.605   3.506   7.328  0.4263  0.2290  0.3987
 2085SOL    HW117714   0.684   3.462   7.360  0.8402  0.1071 -0.7778
 2085SOL    HW217715   0.632   3.575   7.266 -0.8803  1.6543  1.4180
 2086SOL     OW17716   1.697   4.478   6.096  0.4916 -0.0913 -0.7645
 2086SOL    HW117717   1.680   4.541   6.166  0.5477  0.2607 -1.0641
 2086SOL    HW217718   1.715   4.402   6.151 -0.5727 -0.9749 -1.6462
 2087SOL     OW17719   3.884   4.092   9.387  0.3773  0.2675  0.1607
 2087SOL    HW117720   3.950   4.065   9.450  1.6270  1.0415 -0.8318
 2087SOL    HW217721   3.851   4.173   9.427  0.1976 -0.8367  2.2288
 2088SOL     OW17722   3.483   1.575  13.079  0.2332 -0.1944  0.2362
 2088SOL    HW117723   3.482   1.535  13.165 -2.7271  0.6916  0.6139
 2088SOL    HW217724   3.437   1.655  13.105 -0.9829 -0.5270 -0.9020
 2089SOL     OW17725   2.154   0.387  16.959  0.0178 -0.6269 -1.1034
 2089SOL    HW117726   2.081   0.416  16.903  0.2102  1.2657 -0.3706
 2089SOL    HW217727   2.103   0.320  17.004  0.8135 -1.1727 -1.0195
 2090SOL     OW17728   0.819   4.140   0.200  0.2698  0.1193  0.6561
 2090SOL    HW117729   0.827   4.045   0.202 -0.8608  0.0048 -0.6866
 2090SOL    HW217730   0.752   4.162   0.265  0.6743 -0.5950  1.3178
 2091SOL     OW17731   1.540   3.310  11.833 -0.2812  0.1042  0.3178
 2091SOL    HW117732   1.572   3.279  11.748  0.3349 -1.3584  1.0891
 2091SOL    HW217733   1.447   3.291  11.818 -0.0050  0.2611 -1.6207
 2092SOL     OW17734   2.217   2.838   3.226 -0.3701  0.3130 -0.3586
 2092SOL    HW117735   2.249   2.814   3.313 -0.2670  0.4544 -0.3585
 2092SOL    HW217736   2.257   2.768   3.174  0.0784  0.0560  0.3388
 2093SOL     OW17737   1.655   3.980   5.009 -0.3936  0.2971  0.3148
 2093SOL    HW117738   1.582   4.007   5.065 -0.1965  0.0262  0.7095
 2093SOL    HW217739   1.678   4.062   4.965 -0.9266  1.5032  2.2556
 2094SOL     OW17740   4.676   1.254   9.610  0.1497 -0.7357 -0.3262
 2094SOL    HW117741   4.631   1.325   9.565 -1.1042 -1.1363  0.2765
 2094SOL    HW217742   4.598   1.227   9.660  0.8216 -1.6590  0.2282
 2095SOL     OW17743   0.474   3.982   4.366  0.5046 -0.4958 -0.4715
 2095SOL    HW117744   0.472   4.054   4.429 -0.3442 -2.3252  1.6139
 2095SOL    HW217745   0.475   4.029   4.283 -0.0537  0.9132  0.3244
 2096SOL     OW17746   2.751   2.266   8.372 -0.4273  0.2791 -0.1730
 2096SOL    HW117747   2.778   2.354   8.399 -0.1354 -0.3726  1.6629
 2096SOL    HW217748   2.770   2.271   8.278 -1.5275 -0.5049 -0.4390
 2097SOL     OW17749   1.371   2.748   8.010 -0.4802 -0.0355  0.4183
 2097SOL    HW117750   1.315   2.731   8.086  0.4041 -0.2380  1.0198
 2097SOL    HW217751   1.304   2.788   7.954  1.3319  1.1412 -0.9084
 2098SOL     OW17752   3.897   1.632   6.128 -0.4458 -0.0136  0.3167
 2098SOL    HW117753   3.893   1.607   6.220 -1.8393  0.8203  0.4758
 2098SOL    HW217754   3.882   1.547   6.086 -0.9045 -0.0877  0.6337
 2099SOL     OW17755   0.772   4.044   8.817 -0.3021 -0.2021  0.0814
 2099SOL    HW117756   0.857   4.089   8.817 -1.5957  2.3013  1.9680
 2099SOL    HW217757   0.766   4.047   8.913 -0.8254 -1.3773  0.0783
 2100SOL     OW17758   0.234   3.909   1.570 -0.2845 -0.6169 -0.3282
 2100SOL    HW117759   0.146   3.905   1.607 -1.1679  3.8892 -1.9230
 2100SOL    HW217760   0.226   3.818   1.543 -1.4741 -0.8349  0.7827
 2101SOL     OW17761   2.087   1.927  12.371  0.1557 -0.3449 -0.0610
 2101SOL    HW117762   2.120   1.845  12.337  2.1400  0.0949  0.8122
 2101SOL    HW217763   2.105   1.911  12.464  1.3358 -0.5514 -0.3304
 2102SOL     OW17764   3.169   0.691   4.526  0.0860  0.3313 -0.2396
 2102SOL    HW117765   3.148   0.705   4.619 -0.7867 -0.4337 -0.3154
 2102SOL    HW217766   3.197   0.780   4.505 -0.9731  1.4302  2.9083
 2103SOL     OW17767   3.844   2.779   1.947 -0.3499 -0.3295  0.0277
 2103SOL    HW117768   3.902   2.710   1.915  1.0968  0.4470  0.9843
 2103SOL    HW217769   3.879   2.785   2.035 -1.1445  2.0794  0.1657
 2104SOL     OW17770   3.600   3.058   9.470 -0.1709  0.1719  0.1768
 2104SOL    HW117771   3.548   3.100   9.401  0.3799 -0.8520 -0.8617
 2104SOL    HW217772   3.633   3.140   9.507 -0.5593  1.1453 -1.6333
 2105SOL     OW17773   1.630   4.165  14.194 -0.0543  0.2453 -0.3932
 2105SOL    HW117774   1.643   4.138  14.103  0.8791 -0.2919 -0.0958
 2105SOL    HW217775   1.534   4.162  14.193  0.0297 -3.1410  2.9890
 2106SOL     OW17776   2.955   1.783   6.975 -0.0156  0.4750 -0.6385
 2106SOL    HW117777   2.869   1.742   6.963 -0.1852  1.7121 -3.5954
 2106SOL    HW217778   2.989   1.735   7.050  0.6655  1.0312 -0.5875
 2107SOL     OW17779   0.562   1.165   5.310 -0.0649 -0.1078 -0.6044
 2107SOL    HW117780   0.590   1.255   5.297 -1.5722  0.1093 -2.3446
 2107SOL    HW217781   0.565   1.126   5.223 -0.7921 -0.2461 -0.5691
 2108SOL     OW17782   1.375   1.234   6.037 -0.2412  0.1602 -0.3372
 2108SOL    HW117783   1.371   1.150   5.991  2.0358 -1.4748  2.4483
 2108SOL    HW217784   1.458   1.262   5.999 -0.1090 -0.7649 -0.7194
 2109SOL     OW17785   1.145   3.320   5.597  0.3680 -0.3512 -0.0052
 2109SOL    HW117786   1.074   3.384   5.586  0.2413 -0.8123 -1.9160
 2109SOL    HW217787   1.093   3.239   5.596  0.4489 -0.3804 -2.5863
 2110SOL     OW17788   0.546   1.158   7.516  0.0756  0.3093  0.1680
 2110SOL    HW117789   0.592   1.237   7.486  0.0161 -0.0507 -0.8627
 2110SOL    HW217790   0.480   1.196   7.575  0.4918  1.2619  0.0175
 2111SOL     OW17791   0.191   2.347   7.984 -0.6378  0.5849  0.0866
 2111SOL    HW117792   0.242   2.403   8.043 -0.5046 -0.3594  0.8707
 2111SOL    HW217793   0.228   2.381   7.903  2.0869  1.4299  1.7071
 2112SOL     OW17794   1.217   4.702   1.803 -0.1187 -0.2182 -0.1455
 2112SOL    HW117795   1.298   4.656   1.827 -0.9294 -1.1530  0.7849
 2112SOL    HW217796   1.247   0.033   1.730 -0.4241 -0.3682 -0.3804
 2113SOL     OW17797   2.304   3.980   0.384 -0.0954 -0.0170  0.3219
 2113SOL    HW117798   2.321   4.001   0.292 -0.4110  0.5380  0.3915
 2113SOL    HW217799   2.221   3.933   0.379  0.4644 -0.6975 -2.8032
 2114SOL     OW17800   4.147   2.713  12.739 -0.3675  0.4610  0.9106
 2114SOL    HW117801   4.164   2.619  12.732  0.4256  0.6185  0.7010
 2114SOL    HW217802   4.225   2.746  12.784 -0.5491  0.3634  1.2929
 2115SOL     OW17803   4.353   2.368   0.703  0.0442  0.7573  0.1205
 2115SOL    HW117804   4.432   2.359   0.651 -0.1806  0.9229 -0.2515
 2115SOL    HW217805   4.304   2.300   0.658  0.9926  0.8512 -1.0242
 2116SOL     OW17806   0.001   2.362  14.921 -0.1609  0.1970 -0.0688
 2116SOL    HW117807   4.672   2.353  15.001 -4.4826  0.9212 -2.7626
 2116SOL    HW217808   4.718   2.455  14.898 -1.7431  0.5384  1.7349
 2117SOL     OW17809   1.257   3.858  17.520 -0.7498  0.4245 -0.3519
 2117SOL    HW117810   1.212   3.900  17.593  1.4682  3.2052 -0.5791
 2117SOL    HW217811   1.328   3.816  17.568  0.4472  2.3660 -0.4323
 2118SOL     OW17812   3.901   1.210  16.042  0.3674  0.0539 -0.1958
 2118SOL    HW117813   3.955   1.241  15.969 -0.7499  1.7350 -0.3230
 2118SOL    HW217814   3.819   1.208  15.992  0.9836 -1.7443 -1.1410
 2119SOL     OW17815   2.277   4.349   3.978 -0.5180  0.0789 -0.4164
 2119SOL    HW117816   2.332   4.345   3.900 -2.1509  2.4042 -1.6791
 2119SOL    HW217817   2.192   4.329   3.938 -0.9911 -1.1651  1.2249
 2120SOL     OW17818   0.699   4.086   6.610  0.3110 -0.2244  0.0292
 2120SOL    HW117819   0.787   4.062   6.583 -0.6572 -1.4367 -2.0869
 2120SOL    HW217820   0.710   4.104   6.703 -0.7370 -1.0889  0.3241
 2121SOL     OW17821   2.682   2.469  13.687 -0.0313 -0.2397  0.3040
 2121SOL    HW117822   2.704   2.413  13.761 -1.1077  0.9979  1.5579
 2121SOL    HW217823   2.716   2.415  13.615  3.4411  1.5698  0.5824
 2122SOL     OW17824   3.340   3.924  10.610  0.2050 -0.4453 -1.0689
 2122SOL    HW117825   3.427   3.887  10.595  0.8856  0.9867 -0.6318
 2122SOL    HW217826   3.336   3.996  10.547  0.2618 -0.1598 -0.7455
 2123SOL     OW17827   0.573   0.396   7.217 -0.0385  0.0950 -0.4338
 2123SOL    HW117828   0.660   0.418   7.250 -0.0085  0.1474 -0.5493
 2123SOL    HW217829   0.580   0.304   7.194  0.1552 -0.4414  1.7420
 2124SOL     OW17830   3.758   1.834   3.915  0.2774 -0.5293  0.6913
 2124SOL    HW117831   3.852   1.852   3.926  0.1245 -0.2997  1.5928
 2124SOL    HW217832   3.740   1.842   3.822  0.0225  1.1525  0.8950
 2125SOL     OW17833   3.683   3.047   7.456 -0.2012  0.7558 -0.4323
 2125SOL    HW117834   3.745   3.115   7.432  0.1139  1.0927  1.3899
 2125SOL    HW217835   3.618   3.087   7.514 -0.1919 -0.5715  0.5016
 2126SOL     OW17836   1.912   0.647  10.208  0.8154 -0.2630 -0.1720
 2126SOL    HW117837   1.929   0.724  10.262 -1.2496  0.1537 -0.1120
 2126SOL    HW217838   1.859   0.592  10.266 -0.6803 -1.4888 -2.7161
 2127SOL     OW17839   1.650   1.514   4.912 -0.0497 -0.9921  0.0820
 2127SOL    HW117840   1.650   1.419   4.924  3.5076 -0.9914 -0.0644
 2127SOL    HW217841   1.576   1.538   4.969  0.3214 -0.1031  0.1844
 2128SOL     OW17842   4.036   1.980  12.175  0.0012 -0.7001  0.6736
 2128SOL    HW117843   4.132   1.972  12.178  0.2754  2.3083 -1.1880
 2128SOL    HW217844   4.034   2.075  12.186 -0.2873 -0.6192 -0.0728
 2129SOL     OW17845   4.604   2.519   6.074 -0.1115 -0.1948 -0.7084
 2129SOL    HW117846   4.658   2.440   6.079 -1.2150 -0.8205  1.2615
 2129SOL    HW217847   4.606   2.562   6.159  0.8605  0.4116 -1.0420
 2130SOL     OW17848   3.939   1.832   7.348  0.1927  0.3809 -0.3993
 2130SOL    HW117849   3.940   1.902   7.413 -1.4064  1.1700 -1.2064
 2130SOL    HW217850   3.846   1.810   7.333 -0.2580  0.7888  1.8608
 2131SOL     OW17851   2.161   3.247   3.317  0.0537 -0.3104  0.3582
 2131SOL    HW117852   2.073   3.236   3.353 -0.4045 -0.2744 -0.7456
 2131SOL    HW217853   2.219   3.224   3.389  1.5943  2.8521  0.1244
 2132SOL     OW17854   4.583   0.070   8.088 -0.0036  0.0697 -1.3163
 2132SOL    HW117855   4.519   0.109   8.028 -1.0043  0.4073 -0.0270
 2132SOL    HW217856   4.559   4.701   8.093  0.2815  0.0604 -0.2142
 2133SOL     OW17857   1.424   3.389   2.577  0.2272 -0.4415  0.2484
 2133SOL    HW117858   1.419   3.311   2.522  0.2979 -1.2019  1.3196
 2133SOL    HW217859   1.385   3.449   2.514 -0.4012  0.9120  1.9520
 2134SOL     OW17860   2.807   0.477  10.777 -0.0848  0.0114  0.6800
 2134SOL    HW117861   2.809   0.419  10.701 -0.7340  0.4832  0.3075
 2134SOL    HW217862   2.726   0.456  10.825 -0.7637  0.6818 -0.1769
 2135SOL     OW17863   3.265   3.616  12.871 -0.1050 -0.0854 -0.1148
 2135SOL    HW117864   3.237   3.573  12.951  2.9748  1.5132  1.7998
 2135SOL    HW217865   3.356   3.587  12.867 -0.2384 -0.6143  0.7116
 2136SOL     OW17866   0.370   3.751  11.647 -0.0061 -0.0557 -0.0986
 2136SOL    HW117867   0.298   3.807  11.678  0.8368  2.1339 -2.1183
 2136SOL    HW217868   0.348   3.667  11.687 -0.4959  0.3644  0.5293
 2137SOL     OW17869   3.698   1.590  12.742  0.1387  0.2623  0.6831
 2137SOL    HW117870   3.743   1.560  12.821  2.1566  1.4894  0.0156
 2137SOL    HW217871   3.760   1.657  12.713  1.1854  0.3393  3.0884
 2138SOL     OW17872   1.423   4.549   1.837 -0.3836  0.3649  0.9205
 2138SOL    HW117873   1.501   4.554   1.782 -0.3944 -1.3838  0.7567
 2138SOL    HW217874   1.441   4.494   1.914 -0.6286 -0.4380  0.3948
 2139SOL     OW17875   2.164   3.171   3.770 -0.2519  0.5791 -0.1361
 2139SOL    HW117876   2.071   3.195   3.774  0.2717  2.3468  1.1869
 2139SOL    HW217877   2.169   3.077   3.789 -1.9391 -0.0633 -2.8117
 2140SOL     OW17878   1.392   0.099  14.929  0.4947 -0.6844  0.5002
 2140SOL    HW117879   1.300   0.126  14.933  1.4331  2.8691 -2.5849
 2140SOL    HW217880   1.401   0.060  14.842 -0.1832  1.3432 -0.4669
 2141SOL     OW17881   3.692   1.554   8.157 -0.2588 -0.1423 -0.3432
 2141SOL    HW117882   3.717   1.638   8.195  2.0783 -0.8634 -0.2501
 2141SOL    HW217883   3.602   1.552   8.190  1.4823 -3.3477  4.2066
 2142SOL     OW17884   1.551   3.479   5.528  0.0185 -0.7287 -0.1497
 2142SOL    HW117885   1.469   3.519   5.557  0.2106  0.7030 -1.5351
 2142SOL    HW217886   1.534   3.388   5.549  0.4426 -0.4099  1.5688
 2143SOL     OW17887   0.547   2.017   7.261  0.2213  0.0058  0.0725
 2143SOL    HW117888   0.488   2.092   7.245 -0.3019 -0.0913  1.5841
 2143SOL    HW217889   0.490   1.945   7.287 -0.8788 -0.3613 -3.2962
 2144SOL     OW17890   4.250   2.803  11.188 -0.1782  0.4597 -0.0623
 2144SOL    HW117891   4.258   2.821  11.282 -1.1354 -1.9458  0.4912
 2144SOL    HW217892   4.331   2.833  11.147 -0.1382  0.0094 -0.3192
 2145SOL     OW17893   4.290   2.617   8.389  0.2958 -0.1545 -0.7557
 2145SOL    HW117894   4.315   2.702   8.425 -1.8555 -0.1258  0.7211
 2145SOL    HW217895   4.195   2.625   8.377  0.0121 -2.0991  0.1724
 2146SOL     OW17896   2.844   0.884   6.715 -0.3633  0.2310 -0.0722
 2146SOL    HW117897   2.807   0.972   6.718  0.1547  0.4527 -0.2100
 2146SOL    HW217898   2.789   0.843   6.649  1.0464 -1.4175 -0.2239
 2147SOL     OW17899   1.569   3.244   4.239 -0.1355  0.1518 -0.1556
 2147SOL    HW117900   1.485   3.252   4.194  0.0977 -0.7324 -0.7350
 2147SOL    HW217901   1.583   3.327   4.286 -1.5072  0.5061 -0.3758
 2148SOL     OW17902   2.435   0.881   3.406  0.1773  0.0798  0.0607
 2148SOL    HW117903   2.349   0.886   3.364  1.0337  3.0759 -1.2654
 2148SOL    HW217904   2.484   0.868   3.325  2.2779  2.0952  1.0261
 2149SOL     OW17905   1.440   3.819  15.150 -0.5124 -0.1328 -0.4668
 2149SOL    HW117906   1.360   3.859  15.185 -0.2261 -2.0780  2.4186
 2149SOL    HW217907   1.472   3.886  15.090 -2.4272  1.9600  0.8381
 2150SOL     OW17908   4.140   1.822   1.413 -0.0763 -0.6845  0.3022
 2150SOL    HW117909   4.206   1.891   1.410 -0.6233 -0.1282  0.9892
 2150SOL    HW217910   4.189   1.740   1.410  0.8513 -0.1633  1.4475
 2151SOL     OW17911   2.312   3.877  17.610 -0.1429 -0.7363  0.1541
 2151SOL    HW117912   2.344   3.814  17.545  0.7501  1.4566 -1.5084
 2151SOL    HW217913   2.239   3.829  17.648 -0.4419 -0.0250  0.4818
 2152SOL     OW17914   3.175   3.548   6.765 -0.7450 -0.3076 -0.0913
 2152SOL    HW117915   3.131   3.615   6.711  0.8533  0.2645 -0.6683
 2152SOL    HW217916   3.101   3.490   6.781 -0.2921 -0.4241  1.6112
 2153SOL     OW17917   2.664   4.674  10.376  0.7272  0.1766  0.2004
 2153SOL    HW117918   2.751   4.664  10.416 -0.2539 -2.6423  1.6187
 2153SOL    HW217919   2.633   4.587  10.400  0.8809  0.6891  2.2746
 2154SOL     OW17920   4.101   2.015  13.564  0.1145 -0.7074 -0.1452
 2154SOL    HW117921   4.039   1.953  13.602  1.4103 -1.6018  0.5141
 2154SOL    HW217922   4.062   2.095  13.599 -1.4355 -1.5047 -0.0427
 2155SOL     OW17923   0.750   2.404   6.943 -0.1044 -0.0045  0.7020
 2155SOL    HW117924   0.762   2.435   6.853  0.6656 -0.4195  0.6573
 2155SOL    HW217925   0.693   2.329   6.930  2.0032 -1.0798 -2.6138
 2156SOL     OW17926   0.854   2.180   5.145 -0.0235  0.5345  0.3290
 2156SOL    HW117927   0.824   2.134   5.223  1.5200 -0.4497  0.3344
 2156SOL    HW217928   0.897   2.109   5.097 -0.8540 -0.2700  0.7701
 2157SOL     OW17929   1.601   2.720  14.190  0.3871  0.0993 -0.3721
 2157SOL    HW117930   1.609   2.657  14.118 -0.1390  0.6455 -0.9095
 2157SOL    HW217931   1.582   2.672  14.271 -1.3834  0.1646 -0.7607
 2158SOL     OW17932   1.313   1.950  11.462 -0.0803  0.5124  0.4801
 2158SOL    HW117933   1.353   1.908  11.539  1.7589  2.4534  0.5811
 2158SOL    HW217934   1.239   1.890  11.461  0.7926 -0.5900  1.8975
 2159SOL     OW17935   3.815   0.694   7.094 -0.6769  0.1521 -0.8174
 2159SOL    HW117936   3.724   0.724   7.100 -1.0522 -1.1782  0.0902
 2159SOL    HW217937   3.851   0.781   7.076  2.3869 -1.0395 -0.5132
 2160SOL     OW17938   0.187   0.554   6.227 -0.1612 -0.4631  0.2589
 2160SOL    HW117939   0.092   0.538   6.230 -0.0548 -1.0406  0.5004
 2160SOL    HW217940   0.198   0.617   6.299  0.1785  0.5146 -0.6422
 2161SOL     OW17941   3.966   0.445   9.693 -0.4040 -0.0548 -0.2638
 2161SOL    HW117942   3.937   0.529   9.657 -1.4530 -0.7857 -1.1283
 2161SOL    HW217943   4.056   0.437   9.664 -0.9119 -0.6605 -1.6657
 2162SOL     OW17944   4.003   0.989  11.168 -0.3865 -0.2070 -0.6941
 2162SOL    HW117945   4.023   0.990  11.262  2.4812 -1.1993 -1.2882
 2162SOL    HW217946   4.043   1.068  11.130  0.5863  1.6416  4.1998
 2163SOL     OW17947   0.822   1.130   6.978  0.3824 -0.0053  0.2882
 2163SOL    HW117948   0.745   1.112   6.924  0.0761  0.3020  0.6261
 2163SOL    HW217949   0.783   1.184   7.047 -3.0884 -1.4021 -0.5548
 2164SOL     OW17950   0.388   2.629   1.940 -0.0527 -0.1852  0.3005
 2164SOL    HW117951   0.323   2.649   1.873  0.5888 -1.1513 -0.6309
 2164SOL    HW217952   0.416   2.541   1.914 -0.1525 -0.3235  0.6669
 2165SOL     OW17953   2.942   0.773   2.528  0.4017  0.0947  0.2445
 2165SOL    HW117954   2.953   0.866   2.508 -1.0094 -0.1353 -1.6476
 2165SOL    HW217955   2.908   0.730   2.449  0.8009 -1.4032  0.8823
 2166SOL     OW17956   3.901   2.246   8.397 -0.4482 -0.0876  0.3427
 2166SOL    HW117957   3.915   2.162   8.440  3.2500  0.5514  0.4236
 2166SOL    HW217958   3.809   2.255   8.419 -0.7320 -1.5479 -0.2591
 2167SOL     OW17959   3.497   3.456  12.909 -0.0533 -0.2603 -0.1600
 2167SOL    HW117960   3.572   3.474  12.852  0.4286  0.8836  0.8505
 2167SOL    HW217961   3.474   3.370  12.871 -2.6589  1.0619 -1.5678
 2168SOL     OW17962   1.161   3.756   3.308 -0.0924 -0.2530  0.7034
 2168SOL    HW117963   1.246   3.734   3.346  0.3740 -3.2523 -2.1042
 2168SOL    HW217964   1.168   3.849   3.288 -0.5011 -0.6376 -1.2129
 2169SOL     OW17965   3.578   2.012  16.844 -0.0074 -0.2048  0.2540
 2169SOL    HW117966   3.523   2.089  16.861  0.0216 -0.9370  3.6053
 2169SOL    HW217967   3.592   2.024  16.750  0.2949 -0.7586  0.2320
 2170SOL     OW17968   0.363   2.310   8.599  0.1366  0.1234  0.1414
 2170SOL    HW117969   0.391   2.222   8.624  0.4988 -0.1391 -1.1434
 2170SOL    HW217970   0.365   2.360   8.680 -0.7311  0.7020 -0.1992
 2171SOL     OW17971   3.869   1.308  15.206 -0.0677 -0.4688 -0.0611
 2171SOL    HW117972   3.894   1.245  15.138  1.4059  1.5074 -1.3548
 2171SOL    HW217973   3.788   1.269  15.240  0.5562 -0.8731  0.9429
 2172SOL     OW17974   2.868   3.630   0.216  0.6509 -0.5346  0.5075
 2172SOL    HW117975   2.884   3.542   0.249  1.2473 -0.0752  1.4163
 2172SOL    HW217976   2.956   3.668   0.212  0.0924  0.4206 -3.6724
 2173SOL     OW17977   0.842   3.615   1.380 -0.0446 -0.1975  0.1170
 2173SOL    HW117978   0.794   3.698   1.384 -2.0005 -1.2878 -1.0061
 2173SOL    HW217979   0.769   3.563   1.414  0.4118 -1.1213 -0.3028
 2174SOL     OW17980   1.817   1.064   4.115 -0.0714  0.1176  0.0665
 2174SOL    HW117981   1.762   1.068   4.193 -0.7158  1.6174 -0.4728
 2174SOL    HW217982   1.830   1.156   4.094  1.3325  0.1225  0.9652
 2175SOL     OW17983   2.677   1.224   7.776 -0.1386 -0.1232 -0.3657
 2175SOL    HW117984   2.617   1.265   7.713 -0.7074 -0.0738  0.2070
 2175SOL    HW217985   2.680   1.135   7.739 -0.8631  0.0201 -0.7790
 2176SOL     OW17986   3.712   2.343  14.506 -0.5413 -0.1160 -0.7765
 2176SOL    HW117987   3.673   2.389  14.432  0.6335  0.4558 -1.0503
 2176SOL    HW217988   3.761   2.269  14.471  0.6052  0.8471 -1.2107
 2177SOL     OW17989   1.198   1.441   6.598  0.1644 -0.1269 -0.0673
 2177SOL    HW117990   1.287   1.449   6.563 -0.0007  1.9913 -0.0053
 2177SOL    HW217991   1.203   1.361   6.651  0.5455 -2.0771 -3.0495
 2178SOL     OW17992   4.552   0.029   3.578  0.4760 -0.0021  0.4578
 2178SOL    HW117993   4.515   0.118   3.584 -1.5006 -0.7991  0.1436
 2178SOL    HW217994   4.499   4.718   3.506  0.8032 -3.4713  1.8559
 2179SOL     OW17995   1.800   0.083   3.428 -0.3213  0.3384  0.1734
 2179SOL    HW117996   1.812   4.722   3.383 -1.3576  0.1784  0.2037
 2179SOL    HW217997   1.862   0.073   3.500 -2.5914 -0.1370  2.0332
 2180SOL     OW17998   3.340   2.793   9.523  0.0964  0.2342 -0.0588
 2180SOL    HW117999   3.424   2.809   9.480  0.3305 -1.9845 -0.4393
 2180SOL    HW218000   3.366   2.791   9.615 -0.7098  1.2301  0.1943
 2181SOL     OW18001   2.449   3.071  16.480  0.1529  0.9330 -0.3233
 2181SOL    HW118002   2.431   3.024  16.399  0.6037 -0.0053  0.1156
 2181SOL    HW218003   2.366   3.117  16.488 -1.8525 -3.2308  2.2727
 2182SOL     OW18004   4.336   3.290  14.738  0.3725 -0.7077  0.6312
 2182SOL    HW118005   4.375   3.258  14.820  2.7126 -1.9694 -0.9454
 2182SOL    HW218006   4.266   3.225  14.737 -0.9727  0.7945 -1.3917
 2183SOL     OW18007   4.109   2.294   7.915  0.2007  0.3863  0.2167
 2183SOL    HW118008   4.074   2.306   7.827  0.1195 -0.0107  0.1947
 2183SOL    HW218009   4.120   2.381   7.953  0.2880  0.4789 -0.0181
 2184SOL     OW18010   1.577   1.701   9.750 -0.5943  0.2043  0.0025
 2184SOL    HW118011   1.486   1.692   9.723 -0.5105  0.7790 -0.4972
 2184SOL    HW218012   1.603   1.770   9.688 -0.7610 -1.6931 -2.1540
 2185SOL     OW18013   1.358   2.840  14.104  0.5587 -0.4025 -0.0423
 2185SOL    HW118014   1.352   2.935  14.095 -1.5932 -0.3435  1.6496
 2185SOL    HW218015   1.448   2.814  14.125  0.4664 -0.9009 -0.2541
 2186SOL     OW18016   1.773   0.936   9.512  0.4941  0.3131 -0.3873
 2186SOL    HW118017   1.756   1.007   9.574 -1.6343 -1.4979  1.0711
 2186SOL    HW218018   1.824   0.876   9.566 -0.0451  0.0034 -0.2254
 2187SOL     OW18019   4.031   4.153   6.518  0.4007 -0.1072  0.3027
 2187SOL    HW118020   3.948   4.115   6.488 -0.5400  0.5144  2.1434
 2187SOL    HW218021   3.994   4.192   6.597  1.0113  3.0284 -0.9728
 2188SOL     OW18022   0.871   4.250  10.479  0.1660  0.4050 -0.3181
 2188SOL    HW118023   0.821   4.289  10.408 -1.7974 -0.3670  0.6309
 2188SOL    HW218024   0.959   4.256  10.442  0.5821 -0.2546  0.5567
 2189SOL     OW18025   0.228   0.181   9.403 -0.5224  0.6994 -0.1585
 2189SOL    HW118026   0.139   0.216   9.393 -0.9616  0.1426  1.8035
 2189SOL    HW218027   0.236   0.179   9.498 -1.0688 -0.8677 -0.1472
 2190SOL     OW18028   2.055   2.118  12.774  0.1000  0.0483 -0.3478
 2190SOL    HW118029   2.130   2.165  12.810  0.7752 -1.0044 -0.3955
 2190SOL    HW218030   2.001   2.188  12.738 -1.3324 -1.4787 -1.1671
 2191SOL     OW18031   0.171   1.512  16.855  0.5886  0.4948 -0.1671
 2191SOL    HW118032   0.206   1.508  16.765 -0.4751 -1.6086 -0.4949
 2191SOL    HW218033   0.087   1.544  16.823  0.9460  1.9394  0.3640
 2192SOL     OW18034   1.772   4.105   3.373  0.3664 -0.0949  0.0708
 2192SOL    HW118035   1.694   4.160   3.383 -0.2129 -0.6174 -1.4965
 2192SOL    HW218036   1.814   4.134   3.292 -0.0737  0.3583  0.0059
 2193SOL     OW18037   2.196   0.265  16.487  0.5202 -0.4525 -0.0494
 2193SOL    HW118038   2.130   0.333  16.502  0.4094 -0.2654 -1.4518
 2193SOL    HW218039   2.186   0.225  16.401 -2.9843 -0.5270  0.3962
 2194SOL     OW18040   1.396   0.367   8.595 -0.4597  0.0635  0.4172
 2194SOL    HW118041   1.433   0.310   8.528 -1.3226  0.0326 -0.0279
 2194SOL    HW218042   1.342   0.308   8.648 -0.2119 -0.4437  0.1017
 2195SOL     OW18043   1.403   1.501   6.202  0.4131  0.4279 -0.1247
 2195SOL    HW118044   1.464   1.487   6.274  1.5232 -0.7808 -1.3148
 2195SOL    HW218045   1.365   1.415   6.184  0.2052  0.5325 -0.1833
 2196SOL     OW18046   2.196   1.058   8.798  0.3727  0.0755  0.6543
 2196SOL    HW118047   2.262   1.124   8.820 -0.5602  0.7375  1.4767
 2196SOL    HW218048   2.198   1.008   8.879 -0.4857  0.4239  0.8895
 2197SOL     OW18049   1.841   1.455   1.691  0.3673 -0.7548 -0.0230
 2197SOL    HW118050   1.921   1.476   1.644  0.3962 -1.6146 -0.3559
 2197SOL    HW218051   1.823   1.364   1.668 -2.7732 -0.0011 -0.6520
 2198SOL     OW18052   3.903   0.387   3.561 -0.1692 -0.4089  0.1982
 2198SOL    HW118053   3.819   0.413   3.599 -0.1506 -0.0013 -0.0359
 2198SOL    HW218054   3.955   0.443   3.619 -0.3129  1.0925 -1.1390
 2199SOL     OW18055   2.043   4.539  17.623 -0.1952 -0.8275 -0.1384
 2199SOL    HW118056   1.958   4.529  17.580 -0.2692 -1.0182  0.0547
 2199SOL    HW218057   2.097   4.521  17.546 -0.7045 -2.5658 -0.0908
 2200SOL     OW18058   4.576   0.260   8.892  0.8031  0.0614  0.1876
 2200SOL    HW118059   4.585   0.301   8.806  1.2729  2.5812  1.4483
 2200SOL    HW218060   4.481   0.254   8.899  0.6784  0.1719 -1.4462
 2201SOL     OW18061   2.962   2.927  14.252  0.5832 -0.4063  0.5699
 2201SOL    HW118062   3.050   2.911  14.220 -0.0935 -1.2602 -0.8903
 2201SOL    HW218063   2.915   2.924  14.168 -2.2184 -3.0072  2.2007
 2202SOL     OW18064   0.499   1.362   3.738 -0.4612 -0.6593 -0.3364
 2202SOL    HW118065   0.538   1.449   3.735  0.7593 -1.1981 -0.2085
 2202SOL    HW218066   0.520   1.349   3.831 -0.0473  1.4568 -0.1415
 2203SOL     OW18067   0.925   4.561  11.273  0.0426 -0.1163 -0.1507
 2203SOL    HW118068   0.951   4.651  11.253 -0.1663  0.1820  0.9154
 2203SOL    HW218069   0.915   4.520  11.187 -1.5134  1.0402 -0.5129
 2204SOL     OW18070   3.452   1.238  16.231  0.4178 -0.0315 -0.0764
 2204SOL    HW118071   3.401   1.314  16.257  1.1324  0.6189 -0.5931
 2204SOL    HW218072   3.542   1.263  16.247  0.0771  2.1775 -1.6002
 2205SOL     OW18073   2.272   0.810   5.555  0.2202 -0.5995 -0.2573
 2205SOL    HW118074   2.322   0.872   5.609 -0.0752 -0.3758 -0.2436
 2205SOL    HW218075   2.261   0.868   5.480 -0.3922 -1.2713 -0.6867
 2206SOL     OW18076   0.092   0.743   4.110 -0.2658  0.0499 -0.0709
 2206SOL    HW118077   0.026   0.719   4.045  0.7958 -1.5325 -0.5604
 2206SOL    HW218078   0.146   0.798   4.053 -0.6818 -1.4390 -1.8878
 2207SOL     OW18079   4.715   4.180   7.530 -0.2388  0.4447  0.2185
 2207SOL    HW118080   0.021   4.256   7.580 -1.0901  0.6310  0.4283
 2207SOL    HW218081   4.650   4.155   7.595 -0.3240  0.9649  0.3394
 2208SOL     OW18082   2.774   3.800   3.511  0.6779 -0.2474 -1.0941
 2208SOL    HW118083   2.736   3.721   3.473  0.6768 -1.5556  1.6107
 2208SOL    HW218084   2.786   3.782   3.604 -0.7098  0.1189 -0.8386
 2209SOL     OW18085   4.436   0.613  10.529 -0.1438 -0.1721  0.4308
 2209SOL    HW118086   4.481   0.609  10.445 -0.9166  2.5916 -0.0962
 2209SOL    HW218087   4.432   0.518  10.544  2.2139 -0.2760  0.3527
 2210SOL     OW18088   1.321   4.679   1.315 -0.7263  0.1580  0.6472
 2210SOL    HW118089   1.327   4.714   1.227  0.0974 -1.7251 -0.0457
 2210SOL    HW218090   1.241   4.717   1.351 -0.4155 -1.2499  2.8710
 2211SOL     OW18091   2.184   3.101   6.482  0.1827 -0.3429  0.0786
 2211SOL    HW118092   2.095   3.079   6.509 -1.2353  1.6366 -2.9958
 2211SOL    HW218093   2.176   3.195   6.466  1.2386 -0.4751 -1.2319
 2212SOL     OW18094   0.059   4.459   2.056 -0.1352  0.5157  0.7545
 2212SOL    HW118095   0.013   4.455   2.140 -2.1488 -0.0881 -0.3506
 2212SOL    HW218096   4.713   4.406   2.016  0.5904 -1.2364  1.8559
 2213SOL     OW18097   4.416   3.525   3.621 -0.1457 -0.2120 -0.2371
 2213SOL    HW118098   4.397   3.465   3.693 -1.7439  0.3079 -0.2141
 2213SOL    HW218099   4.381   3.605   3.661  0.1949  0.9135 -2.1512
 2214SOL     OW18100   0.259   4.411   4.107 -0.6544 -0.4755 -0.2030
 2214SOL    HW118101   0.184   4.440   4.159 -1.6794 -2.1808 -0.7158
 2214SOL    HW218102   0.241   4.470   4.033 -2.3938  1.1642  1.5177
 2215SOL     OW18103   0.761   2.483   6.344  0.0493  0.6066  0.2926
 2215SOL    HW118104   0.706   2.561   6.351 -1.4808 -0.6341  2.2186
 2215SOL    HW218105   0.835   2.502   6.402 -1.6474 -0.3755  2.7801
 2216SOL     OW18106   3.859   1.987   5.860  0.0425 -0.3086 -0.2754
 2216SOL    HW118107   3.836   1.894   5.866 -2.1578  0.2024 -0.8262
 2216SOL    HW218108   3.777   2.036   5.857  0.6452  0.5755 -2.8496
 2217SOL     OW18109   2.884   1.471   5.650 -0.4699 -0.2162  0.4322
 2217SOL    HW118110   2.902   1.395   5.706  1.3364  1.4911  2.1597
 2217SOL    HW218111   2.852   1.528   5.720  2.4032  1.7472  0.1381
 2218SOL     OW18112   3.323   1.676   8.864  0.2006 -0.2170 -0.5270
 2218SOL    HW118113   3.399   1.706   8.814 -0.1728  0.7389 -0.5316
 2218SOL    HW218114   3.329   1.580   8.866 -1.2374 -0.3258 -1.1741
 2219SOL     OW18115   2.632   4.436   4.640  0.5269  0.0515 -0.1010
 2219SOL    HW118116   2.644   4.433   4.545 -1.7497  1.0232 -0.4046
 2219SOL    HW218117   2.601   4.525   4.652  0.5697 -0.0291  0.6154
 2220SOL     OW18118   3.800   0.778  13.918  0.0800 -0.4406 -0.4194
 2220SOL    HW118119   3.742   0.712  13.954  0.0155 -0.3723 -0.3974
 2220SOL    HW218120   3.782   0.779  13.824  1.4365 -1.6085 -0.6862
 2221SOL     OW18121   1.007   2.493   5.287  0.5975  0.3815 -0.0440
 2221SOL    HW118122   0.969   2.467   5.204  0.3556 -0.2353  0.2577
 2221SOL    HW218123   0.926   2.500   5.338 -1.7911  1.9369 -4.0767
 2222SOL     OW18124   3.197   0.409   1.048 -0.8919 -0.4982 -0.1634
 2222SOL    HW118125   3.231   0.482   0.997 -2.8505  0.1452 -0.5763
 2222SOL    HW218126   3.118   0.443   1.090 -0.1366  2.0980 -0.8866
 2223SOL     OW18127   2.644   3.045   8.334 -0.1364 -0.0607  0.1362
 2223SOL    HW118128   2.558   3.021   8.299 -0.1631  0.9851 -0.5123
 2223SOL    HW218129   2.698   2.971   8.305  0.9069  0.4560  0.7622
 2224SOL     OW18130   1.784   1.208  13.967  0.1808 -0.6432  0.6590
 2224SOL    HW118131   1.795   1.303  13.979 -1.2974 -0.5262  1.0174
 2224SOL    HW218132   1.731   1.207  13.887 -0.6891 -1.2050  1.2575
 2225SOL     OW18133   3.431   1.894  11.733 -0.4615 -0.1827  0.5262
 2225SOL    HW118134   3.379   1.870  11.656 -1.2373  2.9081  0.0919
 2225SOL    HW218135   3.483   1.814  11.738 -1.4655 -0.9223 -0.8123
 2226SOL     OW18136   4.245   1.374   5.267 -0.2618 -0.3596 -0.6671
 2226SOL    HW118137   4.281   1.417   5.345  0.3605  0.6392 -1.5131
 2226SOL    HW218138   4.282   1.426   5.196 -1.7851  1.9509  0.2488
 2227SOL     OW18139   2.739   0.182  17.576 -0.0310  0.3264  0.1893
 2227SOL    HW118140   2.807   0.246  17.599 -0.8748 -0.3044  4.4752
 2227SOL    HW218141   2.790   0.104  17.555 -0.5857 -0.3621  1.3879
 2228SOL     OW18142   3.942   2.560  11.669  0.4904  0.9401  0.1957
 2228SOL    HW118143   4.012   2.531  11.612  0.2222  0.2081  0.2430
 2228SOL    HW218144   3.974   2.650  11.678  2.4967  0.1886  0.6068
 2229SOL     OW18145   3.153   3.264   3.676 -0.0827  0.1089  0.8765
 2229SOL    HW118146   3.177   3.174   3.698  0.2053  0.4222  1.8481
 2229SOL    HW218147   3.135   3.261   3.582  0.6508 -1.5908  0.7742
 2230SOL     OW18148   3.310   4.488  13.948 -0.6233 -0.3226  0.0642
 2230SOL    HW118149   3.370   4.487  14.022 -0.8137 -0.4381  0.2154
 2230SOL    HW218150   3.328   4.409  13.897 -1.5429  0.6267 -1.7346
 2231SOL     OW18151   1.209   1.310  13.789 -0.0955 -0.0484 -0.4682
 2231SOL    HW118152   1.165   1.370  13.851  0.5013  0.0576 -0.1478
 2231SOL    HW218153   1.284   1.279  13.839  0.3856 -1.1172 -1.8837
 2232SOL     OW18154   2.930   2.134  17.234  0.2576  0.2588  0.2821
 2232SOL    HW118155   2.906   2.127  17.142  1.5771  0.4412 -0.0769
 2232SOL    HW218156   2.879   2.213  17.251  0.2025 -0.1289  1.9152
 2233SOL     OW18157   2.740   1.188   4.478  0.2684 -0.3919  0.2119
 2233SOL    HW118158   2.744   1.108   4.426 -1.4696 -0.8755  0.7980
 2233SOL    HW218159   2.693   1.156   4.555  0.6577  3.0137  1.8453
 2234SOL     OW18160   4.651   4.197   1.081 -0.3439 -0.2506 -0.3712
 2234SOL    HW118161   0.004   4.252   1.062 -0.4955  0.4042  0.9514
 2234SOL    HW218162   4.607   4.197   0.996  0.7254 -0.6568 -0.9349
 2235SOL     OW18163   3.179   0.975   7.353  0.6607  0.5909  0.3117
 2235SOL    HW118164   3.236   1.002   7.424 -1.0432  1.2899  1.4274
 2235SOL    HW218165   3.192   0.880   7.359 -0.7250  0.3435 -0.4990
 2236SOL     OW18166   1.928   2.377   4.343 -0.3848 -0.4093 -0.8461
 2236SOL    HW118167   1.880   2.298   4.368  0.4895 -0.3712  0.9654
 2236SOL    HW218168   2.000   2.333   4.297  0.1380  0.8271 -1.2096
 2237SOL     OW18169   4.443   1.298   5.989  0.3535  0.5651  0.1978
 2237SOL    HW118170   4.493   1.229   5.944  0.2661  0.2050  0.6502
 2237SOL    HW218171   4.453   1.280   6.082  1.6710 -2.3567 -0.4911
 2238SOL     OW18172   0.733   3.270   8.584 -0.1825 -0.3664  0.0153
 2238SOL    HW118173   0.652   3.233   8.549  0.9256 -4.2606  1.5393
 2238SOL    HW218174   0.717   3.262   8.679 -0.8422 -1.7146 -0.2024
 2239SOL     OW18175   0.055   3.161   1.454 -0.6588  0.0328  0.1331
 2239SOL    HW118176   0.011   3.195   1.376  0.9143 -1.1979 -1.3039
 2239SOL    HW218177   4.714   3.093   1.474  0.2722 -0.7735  0.4190
 2240SOL     OW18178   2.280   2.494   2.333  0.3042  0.4128 -0.0038
 2240SOL    HW118179   2.255   2.411   2.374  2.2733 -0.5542 -0.7790
 2240SOL    HW218180   2.240   2.559   2.390 -2.5101 -0.2872 -1.1895
 2241SOL     OW18181   2.900   3.167   1.503  0.5635 -0.5424 -0.2324
 2241SOL    HW118182   2.895   3.098   1.569  2.4451  2.4517  3.0480
 2241SOL    HW218183   2.876   3.237   1.563 -0.7080 -0.8086 -0.4376
 2242SOL     OW18184   1.120   4.637   2.180 -0.0177 -0.1403 -0.2321
 2242SOL    HW118185   1.113   4.692   2.101  2.8173 -1.9446 -1.7122
 2242SOL    HW218186   1.088   4.704   2.240  0.4140 -1.0681  1.0171
 2243SOL     OW18187   1.819   2.408   5.103  0.4768 -0.0402  0.1919
 2243SOL    HW118188   1.824   2.498   5.135  1.7487 -0.5130  1.3384
 2243SOL    HW218189   1.905   2.390   5.141 -0.7118 -0.7874  2.4593
 2244SOL     OW18190   0.886   4.407   8.878  0.2588 -0.0625 -0.5743
 2244SOL    HW118191   0.971   4.373   8.908  0.6212  0.5966 -0.8682
 2244SOL    HW218192   0.864   4.470   8.947  1.6276  0.3872 -0.5506
 2245SOL     OW18193   0.814   2.705   3.689 -0.1184 -0.1141  0.2534
 2245SOL    HW118194   0.878   2.670   3.751 -1.3986  0.3600  1.8486
 2245SOL    HW218195   0.867   2.772   3.647  0.1702 -1.2316 -1.1523
 2246SOL     OW18196   1.240   1.806  15.470 -0.4640 -0.2024  0.2303
 2246SOL    HW118197   1.325   1.831  15.507 -0.9462 -0.7594  1.7063
 2246SOL    HW218198   1.220   1.880  15.412  1.3150 -0.6989 -1.0340
 2247SOL     OW18199   0.883   1.956   4.528 -0.3947 -0.5710 -0.1983
 2247SOL    HW118200   0.816   2.000   4.475 -0.3349  0.0654  0.2566
 2247SOL    HW218201   0.920   1.901   4.459 -0.0563  0.1002 -0.5474
 2248SOL     OW18202   4.697   3.989   8.044  0.6924  0.1866  0.3746
 2248SOL    HW118203   4.603   3.976   8.036  0.6609  1.4824 -1.3309
 2248SOL    HW218204   4.719   3.938   8.122  0.3898 -1.2610 -0.4980
 2249SOL     OW18205   0.145   2.497  10.650  0.5975  0.0134 -0.3827
 2249SOL    HW118206   0.145   2.412  10.608  0.6054 -0.4227  0.4951
 2249SOL    HW218207   0.094   2.478  10.729 -1.2244 -0.1090 -1.5986
 2250SOL     OW18208   3.481   0.777   7.398  0.7196 -0.8307  0.3815
 2250SOL    HW118209   3.426   0.704   7.430  0.9680 -2.0487 -1.9789
 2250SOL    HW218210   3.531   0.801   7.476  1.0566 -1.5331  0.3808
 2251SOL     OW18211   2.890   1.935   6.306 -0.1708  0.0692 -0.5083
 2251SOL    HW118212   2.938   1.910   6.227 -0.1704  0.2095 -0.5533
 2251SOL    HW218213   2.948   1.906   6.376 -0.8160 -0.1008 -0.0468
 2252SOL     OW18214   1.054   4.085   8.797  0.2488 -0.2612 -0.4915
 2252SOL    HW118215   1.004   4.155   8.756  0.4091 -0.4973 -1.0929
 2252SOL    HW218216   1.072   4.012   8.739 -1.3821 -0.0042 -1.3272
 2253SOL     OW18217   0.087   0.203   8.440  0.5077  0.2819  0.6477
 2253SOL    HW118218   0.013   0.198   8.379 -0.2791  0.9566  1.5672
 2253SOL    HW218219   0.152   0.241   8.381 -0.5322 -0.8569 -1.2310
 2254SOL     OW18220   4.634   0.583   1.370  0.1273 -0.1960 -0.3048
 2254SOL    HW118221   0.001   0.585   1.401 -0.3398  0.5930  1.0108
 2254SOL    HW218222   4.621   0.490   1.351 -1.5969 -0.1941  0.9165
 2255SOL     OW18223   1.842   0.873   4.781 -0.0174 -0.2007 -0.4434
 2255SOL    HW118224   1.857   0.799   4.840  1.0290 -0.4592 -1.0193
 2255SOL    HW218225   1.759   0.846   4.741 -0.3241  0.7434 -0.4410
 2256SOL     OW18226   0.474   0.571   1.215 -0.4508 -0.4245 -0.0837
 2256SOL    HW118227   0.482   0.652   1.266 -0.1372 -0.0165 -0.7865
 2256SOL    HW218228   0.391   0.536   1.249 -1.5026  0.2418 -1.9518
 2257SOL     OW18229   1.616   0.977  11.383 -0.1439 -0.1674 -0.3833
 2257SOL    HW118230   1.624   0.968  11.288  1.0437  0.6244 -0.3712
 2257SOL    HW218231   1.587   1.068  11.375 -1.9863 -0.6995  0.2374
 2258SOL     OW18232   2.860   0.705   8.419  0.3956  0.3294  1.1698
 2258SOL    HW118233   2.778   0.658   8.408 -0.2699  1.3347  1.8378
 2258SOL    HW218234   2.880   0.671   8.506  1.6280  0.2944  0.8832
 2259SOL     OW18235   1.335   4.488  15.263  0.3283  0.0984  0.0932
 2259SOL    HW118236   1.302   4.577  15.249 -0.6975 -0.1051  1.1637
 2259SOL    HW218237   1.396   4.478  15.189 -0.2291  2.2319 -0.6648
 2260SOL     OW18238   2.223   2.465   2.926 -0.9410 -0.4029  0.1937
 2260SOL    HW118239   2.128   2.450   2.922 -0.8379 -1.4148  1.5437
 2260SOL    HW218240   2.255   2.395   2.869 -1.0975 -0.8375  0.6355
 2261SOL     OW18241   0.104   1.269   0.921  0.0736  0.2549  0.2297
 2261SOL    HW118242   0.171   1.253   0.987  1.0381  0.3944 -0.7254
 2261SOL    HW218243   0.116   1.364   0.912 -0.2876  0.3375  0.5972
 2262SOL     OW18244   4.158   4.468   6.962  0.3999  0.3202 -0.2311
 2262SOL    HW118245   4.146   4.552   7.008 -0.9378  0.0075 -0.0089
 2262SOL    HW218246   4.076   4.422   6.983  0.1675  0.8185 -0.0387
 2263SOL     OW18247   0.981   0.895   6.940  0.1437  0.2631 -0.2045
 2263SOL    HW118248   0.912   0.958   6.960  0.2742  0.7630 -1.3015
 2263SOL    HW218249   0.942   0.809   6.951 -2.0736  1.5197  1.8277
 2264SOL     OW18250   3.288   2.376   6.943  0.0354  0.2178 -0.1727
 2264SOL    HW118251   3.374   2.398   6.908 -1.0804  1.8953 -1.9157
 2264SOL    HW218252   3.301   2.361   7.037  1.0983  0.4017 -0.2917
 2265SOL     OW18253   1.307   3.730   6.713  0.5986  0.6083 -0.4184
 2265SOL    HW118254   1.387   3.707   6.665  0.5337  0.3517 -0.4068
 2265SOL    HW218255   1.307   3.824   6.698  0.4872  0.8778  1.2638
 2266SOL     OW18256   0.618   0.170   7.062  0.5292  0.7551  0.1493
 2266SOL    HW118257   0.710   0.146   7.056  1.0670  2.5565  1.2135
 2266SOL    HW218258   0.611   0.209   6.974 -0.5671 -0.5164 -0.3400
 2267SOL     OW18259   0.068   2.905   9.111  0.4652  0.6673 -0.1469
 2267SOL    HW118260   0.001   2.973   9.118 -1.9293 -1.8744  1.3893
 2267SOL    HW218261   0.050   2.845   9.183 -1.6840  1.2973 -0.1601
 2268SOL     OW18262   4.150   1.721   3.605 -0.0098 -0.6068 -0.5427
 2268SOL    HW118263   4.232   1.694   3.563 -0.8076 -3.2884 -0.3687
 2268SOL    HW218264   4.180   1.798   3.654 -0.5618  0.3518 -1.7131
 2269SOL     OW18265   3.191   2.469  16.039 -0.4615 -0.0673 -0.2735
 2269SOL    HW118266   3.130   2.416  16.092 -1.3047  0.4365 -0.7352
 2269SOL    HW218267   3.145   2.486  15.956 -0.7479  2.0198  0.3164
 2270SOL     OW18268   4.193   2.046   1.714  0.3883  0.3377  0.3069
 2270SOL    HW118269   4.221   1.955   1.706 -0.4064 -0.0023  1.2970
 2270SOL    HW218270   4.249   2.064   1.789  0.2800 -0.3276  0.5508
 2271SOL     OW18271   0.253   1.030  12.541  0.5305  0.0742 -0.1305
 2271SOL    HW118272   0.293   1.011  12.456 -0.8656  2.5903 -1.3598
 2271SOL    HW218273   0.271   1.123  12.557  1.2727 -0.0569 -0.1903
 2272SOL     OW18274   2.189   3.578   3.991 -0.1517 -0.2027 -0.8171
 2272SOL    HW118275   2.235   3.506   4.035  0.4238 -0.3632 -1.6759
 2272SOL    HW218276   2.197   3.641   4.063 -0.8647 -1.4910  0.3990
 2273SOL     OW18277   3.036   2.857   3.909 -0.6965 -0.0099  0.9064
 2273SOL    HW118278   2.959   2.804   3.933 -0.9238 -0.7775 -1.5219
 2273SOL    HW218279   3.082   2.848   3.993 -0.2132 -0.3532  0.6039
 2274SOL     OW18280   2.100   3.975   4.020 -0.5232  0.0431 -0.1221
 2274SOL    HW118281   2.187   3.949   3.991 -1.1153 -2.0136 -0.0846
 2274SOL    HW218282   2.121   4.005   4.109  1.9929  1.4726 -1.2164
 2275SOL     OW18283   4.076   4.117   4.427  0.1856 -0.0796  0.3995
 2275SOL    HW118284   4.047   4.036   4.470  1.3284 -0.6442  0.0994
 2275SOL    HW218285   4.044   4.172   4.498 -0.4149 -0.9182  0.7829
 2276SOL     OW18286   0.567   0.765  16.750  0.0337  0.4253 -0.0070
 2276SOL    HW118287   0.517   0.843  16.776  1.7294  0.6779  2.4814
 2276SOL    HW218288   0.531   0.746  16.663 -1.6292 -0.2599  0.8491
 2277SOL     OW18289   2.967   3.789   2.761  0.2873 -0.2126  0.4382
 2277SOL    HW118290   2.872   3.789   2.750  0.3635 -1.5105 -0.2746
 2277SOL    HW218291   2.987   3.819   2.672 -0.8032  1.2402  0.6831
 2278SOL     OW18292   0.654   2.071  11.361  0.5973  0.7504 -0.5803
 2278SOL    HW118293   0.599   2.072  11.283  0.4153 -1.5232 -0.4751
 2278SOL    HW218294   0.664   1.977  11.373  1.1272  0.6791 -1.6159
 2279SOL     OW18295   3.278   4.256  16.896 -0.8297  0.0136  0.0632
 2279SOL    HW118296   3.272   4.249  16.991 -0.6999  0.3648  0.0962
 2279SOL    HW218297   3.191   4.278  16.863 -1.2606 -0.1746  1.0982
 2280SOL     OW18298   4.645   0.507  16.935  0.3733  0.3147 -0.0051
 2280SOL    HW118299   4.701   0.526  16.860  0.4617  0.1042  0.0104
 2280SOL    HW218300   4.630   0.414  16.950  1.7328 -0.4291 -3.1244
 2281SOL     OW18301   1.323   4.514   6.897 -0.0961 -0.4939 -0.2481
 2281SOL    HW118302   1.374   4.528   6.977  1.2048 -0.9050 -1.0110
 2281SOL    HW218303   1.328   4.418   6.899 -1.0754 -0.5359  0.4797
 2282SOL     OW18304   4.620   2.076   5.697  0.2252  0.5376 -0.4625
 2282SOL    HW118305   4.551   2.115   5.644  1.1981  0.3548 -1.8500
 2282SOL    HW218306   4.564   2.040   5.766  1.9295  0.5128  0.9049
 2283SOL     OW18307   2.342   2.803  10.008 -0.3820  0.7768 -0.2684
 2283SOL    HW118308   2.310   2.770  10.092 -2.3795  0.9547 -0.9491
 2283SOL    HW218309   2.402   2.872  10.038  1.4620 -0.7022 -0.5755
 2284SOL     OW18310   4.237   1.161   7.066  0.1049 -0.4609 -0.2443
 2284SOL    HW118311   4.151   1.196   7.045 -0.1744 -1.3857 -0.6334
 2284SOL    HW218312   4.263   1.135   6.978 -3.9913 -1.6342 -1.1146
 2285SOL     OW18313   3.952   2.052   9.841  0.0146  0.3678 -0.6612
 2285SOL    HW118314   3.868   2.028   9.881 -1.1922  1.3568 -2.6349
 2285SOL    HW218315   3.925   2.140   9.817  0.8428  0.2595 -1.9580
 2286SOL     OW18316   1.584   2.920   7.959  0.6284 -0.6034 -0.5998
 2286SOL    HW118317   1.669   2.893   7.994  0.8943  2.1171  0.9434
 2286SOL    HW218318   1.526   2.870   8.017 -1.2027  0.9000 -1.1205
 2287SOL     OW18319   1.758   0.147   8.543 -0.0623 -0.2204 -0.1883
 2287SOL    HW118320   1.718   0.198   8.613 -2.6447  0.3552 -2.0502
 2287SOL    HW218321   1.704   0.068   8.545  0.7431 -0.7122  2.0073
 2288SOL     OW18322   3.873   4.107   4.871 -0.3222 -0.4395 -0.1288
 2288SOL    HW118323   3.916   4.022   4.865 -0.8135 -0.5607 -2.0821
 2288SOL    HW218324   3.929   4.148   4.936 -1.7507 -0.1587  0.9149
 2289SOL     OW18325   4.282   3.193   4.443  0.9451  0.2245  0.2542
 2289SOL    HW118326   4.313   3.229   4.526  0.1870  1.4442  0.0182
 2289SOL    HW218327   4.332   3.112   4.436 -1.3205 -1.2547  1.1167
 2290SOL     OW18328   4.707   0.116  12.077  0.2321  0.1758  0.1190
 2290SOL    HW118329   4.619   0.083  12.058  0.0769  1.6123 -1.6516
 2290SOL    HW218330   0.002   0.170  12.000 -1.1313  0.3269 -0.0921
 2291SOL     OW18331   0.068   2.368  17.187 -0.3993  0.4512  0.7962
 2291SOL    HW118332   4.723   2.433  17.168  1.7075  1.9154 -1.8108
 2291SOL    HW218333   0.023   2.298  17.233  2.4498 -1.6269  0.3942
 2292SOL     OW18334   3.974   1.361   3.574 -0.4687  0.2412  0.0051
 2292SOL    HW118335   3.901   1.409   3.614 -0.2364 -0.0872  0.8134
 2292SOL    HW218336   3.927   1.326   3.499 -1.7995 -2.1317  1.9490
 2293SOL     OW18337   4.042   3.369   8.280 -1.0702 -0.0314  0.1954
 2293SOL    HW118338   3.995   3.428   8.339  0.6935  1.7684 -0.2265
 2293SOL    HW218339   4.130   3.405   8.289 -1.8094  1.9913 -0.6301
 2294SOL     OW18340   1.889   4.060   4.669 -0.3035  0.0065 -0.2645
 2294SOL    HW118341   1.821   4.127   4.658 -0.0230  0.0286 -1.9740
 2294SOL    HW218342   1.957   4.110   4.623  0.8569 -0.3462  1.0819
 2295SOL     OW18343   1.395   3.567   2.372 -0.3193  0.3745  0.4413
 2295SOL    HW118344   1.445   3.548   2.293 -1.3383 -0.2619 -0.0405
 2295SOL    HW218345   1.453   3.633   2.412 -0.1537  0.6676 -0.2839
 2296SOL     OW18346   1.066   0.461   6.449 -0.0206 -0.5059 -0.4395
 2296SOL    HW118347   1.016   0.541   6.467 -2.3524 -2.2118  0.7867
 2296SOL    HW218348   0.994   0.398   6.441  1.0138 -1.7768  0.2909
 2297SOL     OW18349   4.253   1.253  17.212  0.7100 -0.3621 -0.7216
 2297SOL    HW118350   4.207   1.219  17.136 -0.2109  0.3212 -0.4678
 2297SOL    HW218351   4.345   1.230  17.198  0.5219 -0.9276 -1.0317
 2298SOL     OW18352   0.225   0.630  16.357 -0.4632  0.7562 -0.1981
 2298SOL    HW118353   0.172   0.557  16.388 -1.6314  2.2128  1.2613
 2298SOL    HW218354   0.160   0.686  16.313 -1.6844  0.2504  0.9511
 2299SOL     OW18355   2.718   1.178   5.772  0.1151  0.0112  0.2455
 2299SOL    HW118356   2.788   1.222   5.820  1.0926 -0.1879 -0.9858
 2299SOL    HW218357   2.653   1.167   5.842 -0.0166 -0.7432  0.0084
 2300SOL     OW18358   3.201   2.854  10.613 -0.0978 -0.2430  0.1877
 2300SOL    HW118359   3.163   2.775  10.653  0.5697 -0.6415  0.0260
 2300SOL    HW218360   3.122   2.903  10.590  0.1584  0.0874  0.0213
 2301SOL     OW18361   3.828   0.440   0.802  0.3255  0.0693 -0.0386
 2301SOL    HW118362   3.900   0.377   0.814  0.1269 -0.5975 -2.3186
 2301SOL    HW218363   3.834   0.446   0.706 -0.9828  0.1777 -0.1097
 2302SOL     OW18364   0.716   3.995  10.388  0.1136  0.3270 -0.2883
 2302SOL    HW118365   0.774   4.014  10.462 -0.3066 -1.8593  0.6071
 2302SOL    HW218366   0.657   3.940  10.439  0.0671 -0.0380 -0.7289
 2303SOL     OW18367   3.517   3.071   2.180 -0.3099  0.0282  0.4238
 2303SOL    HW118368   3.527   3.134   2.252  1.6397 -0.9287  0.9829
 2303SOL    HW218369   3.588   3.013   2.207 -1.8366 -1.0153  2.1982
 2304SOL     OW18370   1.512   2.835   0.713  0.1937 -0.5949 -0.0997
 2304SOL    HW118371   1.604   2.810   0.713  0.6089  0.9619  0.5310
 2304SOL    HW218372   1.521   2.923   0.676  0.7497 -0.2700  0.8093
 2305SOL     OW18373   2.925   0.309  12.033 -0.2102 -0.4859 -0.4447
 2305SOL    HW118374   3.017   0.331  12.044 -0.4355  0.0264  0.3624
 2305SOL    HW218375   2.900   0.345  11.948  1.9191 -0.0344 -0.8788
 2306SOL     OW18376   2.437   3.729   0.448 -0.1336  0.2535  0.4461
 2306SOL    HW118377   2.510   3.732   0.386 -2.3212  0.2582 -2.1506
 2306SOL    HW218378   2.428   3.822   0.470 -1.9779 -0.1810  1.5192
 2307SOL     OW18379   2.147   4.407   7.909  0.6224 -0.0281 -0.2946
 2307SOL    HW118380   2.213   4.404   7.840  0.4165  1.2801 -0.5413
 2307SOL    HW218381   2.063   4.403   7.863  0.2187  0.8811  0.3486
 2308SOL     OW18382   1.546   1.009   6.865  0.1704  0.3103 -0.5951
 2308SOL    HW118383   1.549   0.995   6.959 -2.7794  1.0232 -0.3681
 2308SOL    HW218384   1.464   0.967   6.839  0.5836 -0.4713 -0.6125
 2309SOL     OW18385   4.152   0.344   7.304  0.2737  0.4388 -0.2032
 2309SOL    HW118386   4.121   0.296   7.227 -2.0216 -0.5394  1.3314
 2309SOL    HW218387   4.211   0.275   7.336  1.1079 -0.7251 -4.1549
 2310SOL     OW18388   3.888   1.335  12.550 -0.5497 -0.3241  0.1751
 2310SOL    HW118389   3.796   1.363  12.556 -0.3811  0.3499 -0.3996
 2310SOL    HW218390   3.932   1.385  12.618 -0.7013 -0.2824  0.2431
 2311SOL     OW18391   4.175   0.606   7.628  0.2164  0.0691  0.2516
 2311SOL    HW118392   4.204   0.607   7.536  0.5113  0.9586  0.3503
 2311SOL    HW218393   4.261   0.624   7.666 -0.8935  2.8275  1.4546
 2312SOL     OW18394   2.848   3.483   7.632  0.6833 -0.4490  0.5704
 2312SOL    HW118395   2.937   3.457   7.656  0.0547 -3.3395 -0.1129
 2312SOL    HW218396   2.862   3.576   7.648 -1.6973 -0.3633  2.0239
 2313SOL     OW18397   0.487   2.099   0.343 -0.2489 -0.4137 -0.3039
 2313SOL    HW118398   0.405   2.061   0.373  0.6476 -2.5683 -0.5819
 2313SOL    HW218399   0.548   2.033   0.376  1.4531  1.1330 -0.3495
 2314SOL     OW18400   1.079   3.553   7.049 -0.5387  0.1438  0.2335
 2314SOL    HW118401   0.999   3.510   7.020  1.3779 -1.5975 -2.5067
 2314SOL    HW218402   1.064   3.537   7.143 -0.6451 -0.0175  0.1888
 2315SOL     OW18403   1.639   1.187   7.568  0.9614  0.1252 -0.7801
 2315SOL    HW118404   1.593   1.237   7.500 -2.6294 -1.6037  0.3621
 2315SOL    HW218405   1.732   1.193   7.546  0.6918  2.5430 -1.2142
 2316SOL     OW18406   3.485   0.617   0.349  0.5466  0.2400 -0.2406
 2316SOL    HW118407   3.561   0.666   0.382 -0.8636  1.9532  0.4965
 2316SOL    HW218408   3.487   0.638   0.256  1.8240 -2.6244 -0.8536
 2317SOL     OW18409   1.300   3.203   8.349  0.3444  0.5945  0.1382
 2317SOL    HW118410   1.227   3.264   8.339 -0.4763 -0.2663  0.8341
 2317SOL    HW218411   1.271   3.158   8.429 -1.9992 -0.9514 -1.5690
 2318SOL     OW18412   3.518   4.436   8.530 -0.3347 -0.7403 -0.2137
 2318SOL    HW118413   3.591   4.488   8.498 -0.0529 -1.5437 -0.8402
 2318SOL    HW218414   3.448   4.496   8.502  1.6596  0.0745 -3.4423
 2319SOL     OW18415   3.649   3.270   0.829  0.0310 -0.4096  0.2435
 2319SOL    HW118416   3.564   3.228   0.844 -0.3662 -0.2279 -1.4231
 2319SOL    HW218417   3.654   3.324   0.908 -0.3940  0.7828 -0.5417
 2320SOL     OW18418   0.694   2.842   5.383  0.2229 -0.1035 -0.0230
 2320SOL    HW118419   0.656   2.922   5.419 -2.1188 -0.7461 -1.0202
 2320SOL    HW218420   0.642   2.778   5.432 -0.2464  0.9471  0.8570
 2321SOL     OW18421   3.487   0.285  10.249  0.1023  0.0966 -0.1510
 2321SOL    HW118422   3.461   0.352  10.186  1.7827  0.0477 -0.8916
 2321SOL    HW218423   3.566   0.247  10.210 -0.9548 -1.0197 -1.1929
 2322SOL     OW18424   0.698   0.217   2.666  0.6042 -0.3654  0.4252
 2322SOL    HW118425   0.634   0.163   2.618  0.0972  1.2633 -0.7359
 2322SOL    HW218426   0.781   0.181   2.634  1.0042 -0.2965  1.4086
 2323SOL     OW18427   3.447   1.262  15.861  0.3290  0.6659  0.0386
 2323SOL    HW118428   3.425   1.183  15.910  0.6966  0.3256 -0.3550
 2323SOL    HW218429   3.439   1.239  15.769 -0.9383  2.5677 -0.3247
 2324SOL     OW18430   1.403   2.597   5.974 -0.1408 -0.3600 -1.0020
 2324SOL    HW118431   1.490   2.585   5.936 -1.1623 -1.9678 -2.8193
 2324SOL    HW218432   1.355   2.633   5.900  0.6179 -0.7312 -1.6669
 2325SOL     OW18433   1.523   2.653   2.472 -0.1833  0.1158  0.4089
 2325SOL    HW118434   1.587   2.619   2.409 -0.3551  2.1916 -0.8674
 2325SOL    HW218435   1.536   2.602   2.552 -0.8876  0.4882  0.7571
 2326SOL     OW18436   3.188   3.158   5.143 -0.1163 -0.2257 -0.3371
 2326SOL    HW118437   3.239   3.091   5.097  0.5038 -1.1924  1.7186
 2326SOL    HW218438   3.097   3.136   5.127 -0.5000  0.5249  0.7655
 2327SOL     OW18439   0.291   1.878   8.747 -0.0312  0.1128  0.5108
 2327SOL    HW118440   0.249   1.809   8.799  0.5693 -1.2083 -0.7308
 2327SOL    HW218441   0.215   1.935   8.733 -0.3920 -0.5233 -0.1664
 2328SOL     OW18442   1.163   4.105   9.721 -0.1461  0.5741  0.2846
 2328SOL    HW118443   1.184   4.163   9.648  1.9801 -0.1948  0.2690
 2328SOL    HW218444   1.074   4.131   9.747  0.5304  1.5446  1.6394
 2329SOL     OW18445   3.816   0.792   1.062  1.2643 -0.5394 -0.4973
 2329SOL    HW118446   3.723   0.783   1.082  0.4323  3.3882 -2.5055
 2329SOL    HW218447   3.857   0.744   1.133  1.6938 -0.2167 -0.5278
 2330SOL     OW18448   2.942   0.983   5.080  0.4335 -0.7357  0.3481
 2330SOL    HW118449   2.900   1.063   5.051  1.0786  0.6898  3.3787
 2330SOL    HW218450   3.035   1.005   5.090  0.3095 -0.1175  0.1475
 2331SOL     OW18451   2.536   0.968  15.227  0.2424  0.5320 -0.5793
 2331SOL    HW118452   2.445   0.996  15.221 -0.2059 -0.5181  1.2559
 2331SOL    HW218453   2.576   1.031  15.287 -0.5407  0.1122  0.3984
 2332SOL     OW18454   0.153   0.673  13.084  0.1453  0.3255  0.1205
 2332SOL    HW118455   0.203   0.669  13.002 -0.6212  0.4356 -0.3475
 2332SOL    HW218456   0.217   0.620  13.132  1.1658 -0.2097 -1.8368
 2333SOL     OW18457   4.713   2.538  11.288  0.1079 -0.2042 -0.6820
 2333SOL    HW118458   0.051   2.584  11.229 -0.4154 -1.0001 -1.8473
 2333SOL    HW218459   4.703   2.611  11.349  2.0308 -0.6944  0.2374
 2334SOL     OW18460   3.219   3.337   6.411  0.5011  0.4665  0.6203
 2334SOL    HW118461   3.155   3.311   6.477 -0.1626 -0.3504 -0.3426
 2334SOL    HW218462   3.299   3.344   6.463  0.9576  1.4493 -0.2167
 2335SOL     OW18463   0.593   4.570   7.749 -0.4447  0.4659 -0.1682
 2335SOL    HW118464   0.522   4.612   7.701  0.2682  0.4757 -1.2118
 2335SOL    HW218465   0.672   4.614   7.716  2.4489 -3.7120  1.2526
 2336SOL     OW18466   2.138   3.258   8.655  0.5976 -0.3319  0.2186
 2336SOL    HW118467   2.119   3.350   8.673  1.1352 -0.3569  0.8869
 2336SOL    HW218468   2.173   3.261   8.565  1.6385 -0.5400  0.6199
 2337SOL     OW18469   2.081   2.557   3.662 -0.3073 -0.6563  0.7660
 2337SOL    HW118470   2.042   2.585   3.745  0.7591  0.6964  0.8008
 2337SOL    HW218471   2.029   2.612   3.603 -1.8491 -0.5910  2.1579
 2338SOL     OW18472   4.098   2.329   6.093 -0.4120 -0.1608 -0.1646
 2338SOL    HW118473   4.014   2.373   6.080  0.4623  2.1279  1.7732
 2338SOL    HW218474   4.153   2.400   6.128 -0.0143 -0.5311 -0.0400
 2339SOL     OW18475   0.283   0.096  13.384  0.2194  0.2201  0.6606
 2339SOL    HW118476   0.357   0.157  13.388  2.3952 -2.5174  2.4753
 2339SOL    HW218477   0.316   0.037  13.451  1.4662 -0.6017 -0.6698
 2340SOL     OW18478   0.920   4.454  11.003 -0.0547 -0.2323 -0.0192
 2340SOL    HW118479   1.007   4.415  10.994 -0.0299 -0.0648 -0.4916
 2340SOL    HW218480   0.875   4.406  10.933 -2.1684  1.2780  0.2975
 2341SOL     OW18481   2.534   0.596  17.240 -0.6096  0.1069 -0.0772
 2341SOL    HW118482   2.547   0.673  17.295 -2.3745  1.1496 -1.1103
 2341SOL    HW218483   2.603   0.543  17.280 -1.4256  0.7836  2.2029
 2342SOL     OW18484   4.670   1.908   7.097  0.3665 -0.5455  0.0867
 2342SOL    HW118485   4.700   1.979   7.040  0.2216  1.0640  2.0226
 2342SOL    HW218486   4.591   1.870   7.056  0.2530 -1.0258  0.7431
 2343SOL     OW18487   4.218   2.384  12.398  0.3050  0.3564 -0.1101
 2343SOL    HW118488   4.302   2.353  12.364 -0.6305  0.0686 -2.1844
 2343SOL    HW218489   4.241   2.472  12.427 -0.7468  0.3423  0.7861
 2344SOL     OW18490   0.409   0.188   4.594  0.2836 -0.4846 -0.3880
 2344SOL    HW118491   0.384   0.112   4.541  1.8219 -0.9454 -0.4699
 2344SOL    HW218492   0.427   0.142   4.677 -2.0518  0.1159  0.4623
 2345SOL     OW18493   3.162   2.029  11.993  0.1408  0.4238 -0.0578
 2345SOL    HW118494   3.257   2.022  11.988  0.0271 -0.6654 -0.5859
 2345SOL    HW218495   3.155   2.121  12.018 -2.5427  0.3734 -0.6111
 2346SOL     OW18496   0.617   4.167   2.057 -0.0986 -0.2862  0.6509
 2346SOL    HW118497   0.653   4.127   1.978 -1.1060  1.4177 -0.6801
 2346SOL    HW218498   0.686   4.221   2.097 -0.3115  0.3910  0.0998
 2347SOL     OW18499   0.407   1.527   6.928  0.3531  0.1524  0.4121
 2347SOL    HW118500   0.444   1.602   6.882  0.5406  0.0021  0.3222
 2347SOL    HW218501   0.317   1.560   6.926  0.9396  1.7080 -1.0219
 2348SOL     OW18502   3.457   2.869   2.822  0.4953  0.1420  0.6404
 2348SOL    HW118503   3.417   2.903   2.742  2.0930  0.7814  0.0989
 2348SOL    HW218504   3.410   2.926   2.882  0.0491 -0.0234  0.4440
 2349SOL     OW18505   0.245   1.277   7.278 -0.1042  0.2103 -0.0143
 2349SOL    HW118506   0.322   1.302   7.226  1.1602 -0.5961  1.4621
 2349SOL    HW218507   0.268   1.189   7.305  1.0000  1.8289  4.3508
 2350SOL     OW18508   2.603   1.794   4.395 -0.0554  0.1913  0.0849
 2350SOL    HW118509   2.563   1.726   4.340  1.1799 -1.4558  1.2073
 2350SOL    HW218510   2.693   1.771   4.373 -0.7151 -2.2174 -0.1137
 2351SOL     OW18511   1.056   0.008   9.432 -0.2261 -0.8246  0.2251
 2351SOL    HW118512   1.033   0.028   9.522  0.2177  0.3122  0.0825
 2351SOL    HW218513   1.011   4.647   9.431 -0.7128 -0.5646  1.0160
 2352SOL     OW18514   2.966   3.053   3.237 -0.3324 -0.2831 -0.5876
 2352SOL    HW118515   2.999   2.973   3.196  1.8675 -0.1442  0.9088
 2352SOL    HW218516   2.874   3.026   3.236  0.2858 -2.3789 -0.6527
 2353SOL     OW18517   4.621   4.167   9.351 -0.1214  0.4953  0.3732
 2353SOL    HW118518   4.684   4.224   9.395  1.4927 -0.0287 -1.2778
 2353SOL    HW218519   4.669   4.138   9.274 -1.4759  2.0449 -1.0372
 2354SOL     OW18520   1.713   1.084   1.984  0.1864 -0.4658  0.0059
 2354SOL    HW118521   1.620   1.102   2.000  0.2006  1.2935 -1.8933
 2354SOL    HW218522   1.748   1.121   2.065 -0.1554 -2.0520  0.8625
 2355SOL     OW18523   2.515   0.788  15.476 -0.0886  0.8123  0.4699
 2355SOL    HW118524   2.579   0.729  15.435 -0.5585  1.2591 -0.9274
 2355SOL    HW218525   2.514   0.857  15.409 -2.6211  1.9712  1.7097
 2356SOL     OW18526   2.731   2.008  12.773  0.0786 -0.1306  0.2908
 2356SOL    HW118527   2.787   2.029  12.848  0.9921  1.8636 -0.9465
 2356SOL    HW218528   2.686   2.092  12.768  1.7854  0.8433  1.1838
 2357SOL     OW18529   0.299   3.641   8.201 -0.7178 -0.1461 -0.5095
 2357SOL    HW118530   0.276   3.549   8.187 -2.8143  0.1274  1.1302
 2357SOL    HW218531   0.391   3.631   8.227 -0.9380  0.9225  0.7210
 2358SOL     OW18532   4.286   1.441   7.870 -0.0853 -0.2240 -0.3669
 2358SOL    HW118533   4.332   1.499   7.930  0.2121  0.6003 -1.4006
 2358SOL    HW218534   4.346   1.419   7.799 -1.1794  1.9333 -1.9553
 2359SOL     OW18535   4.496   2.655   8.704 -0.4171 -0.7109  0.0247
 2359SOL    HW118536   4.481   2.566   8.671  0.3810 -1.6925  2.3109
 2359SOL    HW218537   4.413   2.701   8.696 -1.4597 -2.3205  1.8433
 2360SOL     OW18538   3.155   1.299  14.112  0.0083 -0.2219 -0.6086
 2360SOL    HW118539   3.110   1.289  14.196 -0.4591  3.5788 -0.4325
 2360SOL    HW218540   3.080   1.288  14.054 -0.5535  0.3311  0.0110
 2361SOL     OW18541   3.458   2.111   5.494 -0.0046  0.5472  0.0828
 2361SOL    HW118542   3.457   2.032   5.441 -0.6154  1.5259 -1.3561
 2361SOL    HW218543   3.440   2.182   5.432  0.7815  0.7307  0.0632
 2362SOL     OW18544   0.322   3.535   3.925  0.1725  0.4894 -0.5648
 2362SOL    HW118545   0.415   3.535   3.944 -0.4565  2.5730  2.5217
 2362SOL    HW218546   0.313   3.445   3.957  0.8520  1.1137  1.3770
 2363SOL     OW18547   4.421   3.791   9.454 -0.1604  0.1942 -0.3484
 2363SOL    HW118548   4.330   3.769   9.474  0.2345  0.9009  2.2269
 2363SOL    HW218549   4.428   3.882   9.481  1.4528  0.1243 -0.5509
 2364SOL     OW18550   4.365   2.372  11.631  0.2648 -0.1914 -0.3642
 2364SOL    HW118551   4.342   2.428  11.705 -0.3787 -0.5234 -0.3124
 2364SOL    HW218552   4.421   2.309  11.675  1.3372 -0.0962 -1.6053
 2365SOL     OW18553   3.498   4.605   2.623  0.2072 -0.2698 -0.1166
 2365SOL    HW118554   3.501   4.701   2.629  2.2655 -0.4082  1.1745
 2365SOL    HW218555   3.518   4.576   2.711  1.4025  1.4008  0.1806
 2366SOL     OW18556   1.613   2.735   8.515  0.4560 -0.3366  0.0835
 2366SOL    HW118557   1.613   2.780   8.430 -1.2217 -1.2918 -0.4354
 2366SOL    HW218558   1.584   2.810   8.567  1.8253 -0.6467  1.2751
 2367SOL     OW18559   4.219   1.882   9.456 -0.1031 -0.0533  0.0639
 2367SOL    HW118560   4.145   1.923   9.502  0.0019  0.4191 -0.1908
 2367SOL    HW218561   4.178   1.825   9.391  2.2743 -2.3338  0.5716
 2368SOL     OW18562   2.902   4.073   8.641  0.5088 -0.3102 -0.1492
 2368SOL    HW118563   2.986   4.051   8.682  0.5263  0.9722  0.5253
 2368SOL    HW218564   2.942   4.142   8.588 -3.2556  1.1391 -1.0770
 2369SOL     OW18565   2.733   4.048   6.550 -0.4646  0.2691  0.1659
 2369SOL    HW118566   2.748   4.111   6.620  1.2875  1.4902 -1.2983
 2369SOL    HW218567   2.820   4.008   6.548 -1.0796 -1.0093 -1.5681
 2370SOL     OW18568   4.383   1.384   7.601 -0.1610  0.1503  0.0899
 2370SOL    HW118569   4.469   1.421   7.579 -0.3494  0.8751  0.5635
 2370SOL    HW218570   4.337   1.389   7.518 -0.1106  0.9052  0.1129
 2371SOL     OW18571   1.577   2.141   9.361 -0.1352  0.0645  0.4486
 2371SOL    HW118572   1.519   2.212   9.389 -1.5339 -0.3781 -1.3854
 2371SOL    HW218573   1.540   2.116   9.277  0.2778  0.5369  0.1314
 2372SOL     OW18574   3.567   2.332   0.797  0.0454 -0.0359  1.5164
 2372SOL    HW118575   3.596   2.375   0.717 -0.9750 -0.7556  0.7533
 2372SOL    HW218576   3.630   2.260   0.798 -0.6603 -0.7414 -2.6224
 2373SOL     OW18577   1.655   1.610  14.890 -0.3976  1.3202  0.6085
 2373SOL    HW118578   1.636   1.682  14.831 -1.6453 -0.1828 -0.8004
 2373SOL    HW218579   1.570   1.582  14.923  0.0059 -0.6013  0.0667
 2374SOL     OW18580   1.797   4.128  12.838 -0.2330  0.0382  0.2201
 2374SOL    HW118581   1.796   4.096  12.929  0.6761  0.3892  0.3589
 2374SOL    HW218582   1.879   4.089  12.806 -0.2620  0.0961  0.0792
 2375SOL     OW18583   2.211   2.177  12.273 -0.2653  0.0968 -0.0526
 2375SOL    HW118584   2.197   2.224  12.355  0.3377 -3.1312  1.9270
 2375SOL    HW218585   2.169   2.093  12.294  2.3843 -1.3970 -0.8054
 2376SOL     OW18586   1.322   3.931   9.891 -0.1065  0.3181  0.5096
 2376SOL    HW118587   1.293   3.946   9.981 -1.1267  0.9483  0.0744
 2376SOL    HW218588   1.273   3.999   9.844 -0.3758 -1.2996 -1.5283
 2377SOL     OW18589   4.471   0.343   0.115  0.0609  0.0360 -0.2959
 2377SOL    HW118590   4.544   0.371   0.061  0.3011  0.0686  0.0466
 2377SOL    HW218591   4.500   0.361   0.205 -0.4058  0.0402 -0.1444
 2378SOL     OW18592   1.495   0.014  14.679 -0.0207 -0.8942 -0.6843
 2378SOL    HW118593   1.574   4.690  14.704 -0.0059  1.2224  3.3241
 2378SOL    HW218594   1.504   4.699  14.592 -1.0271 -1.0114 -0.7385
 2379SOL     OW18595   0.524   2.080  13.981 -0.4326 -0.4547  0.1367
 2379SOL    HW118596   0.544   2.146  13.915  0.0618  0.8618  1.5975
 2379SOL    HW218597   0.451   2.032  13.941 -0.7093  0.8915 -0.9790
 2380SOL     OW18598   4.614   1.938  17.650 -0.3785 -0.4208  0.0324
 2380SOL    HW118599   4.607   2.033  17.653 -1.2697 -0.5094  0.4819
 2380SOL    HW218600   4.707   1.929  17.626 -0.2464 -1.0168  0.8011
 2381SOL     OW18601   4.518   0.554  10.240 -0.2655  0.0385  0.5424
 2381SOL    HW118602   4.554   0.639  10.216  1.7204 -1.0202 -0.2389
 2381SOL    HW218603   4.542   0.494  10.170  2.0941  1.9963 -0.2765
 2382SOL     OW18604   2.238   1.138   4.438 -0.3969 -0.2880  0.2499
 2382SOL    HW118605   2.205   1.176   4.357 -0.5741 -0.7838  0.0919
 2382SOL    HW218606   2.170   1.071   4.446 -0.0757 -0.4864  1.2995
 2383SOL     OW18607   4.604   0.922   8.825 -0.3079  0.5801  0.2052
 2383SOL    HW118608   4.600   0.841   8.774 -2.1908 -0.5325  2.1081
 2383SOL    HW218609   4.521   0.958   8.795 -0.9661  1.0368  2.5724
 2384SOL     OW18610   4.010   1.148   0.631  0.7220  0.1351  0.2261
 2384SOL    HW118611   4.057   1.230   0.648  2.1252 -1.3626  3.5706
 2384SOL    HW218612   4.081   1.089   0.658 -0.0723 -0.3706  1.2170
 2385SOL     OW18613   4.485   3.620  16.804  0.0070 -0.4683 -0.3857
 2385SOL    HW118614   4.473   3.667  16.887  0.5479  0.4609 -0.8263
 2385SOL    HW218615   4.396   3.596  16.777  0.1303 -2.0892  0.6830
 2386SOL     OW18616   1.230   1.827  11.061 -0.3038  0.3310 -0.1861
 2386SOL    HW118617   1.280   1.853  10.984 -1.7031 -0.2167 -1.2735
 2386SOL    HW218618   1.149   1.869  11.035 -1.4860 -2.1444 -0.4981
 2387SOL     OW18619   3.531   0.716   8.489  0.1411 -0.5285 -0.3054
 2387SOL    HW118620   3.495   0.632   8.515  0.7305 -0.6607  0.0899
 2387SOL    HW218621   3.476   0.743   8.415  0.9591 -1.7095 -1.3508
 2388SOL     OW18622   3.636   3.707   6.736 -0.0389  0.0532  0.1127
 2388SOL    HW118623   3.710   3.762   6.709  1.2220 -1.7677 -0.1190
 2388SOL    HW218624   3.680   3.637   6.785  0.1155  0.6052  0.7781
 2389SOL     OW18625   1.271   3.662  10.867 -0.3693  0.6034  0.4927
 2389SOL    HW118626   1.335   3.733  10.864  0.5058 -0.2885 -1.7351
 2389SOL    HW218627   1.203   3.693  10.807 -1.2915 -1.5283  0.4538
 2390SOL     OW18628   1.254   3.482   1.346 -1.4156 -0.1938 -0.4167
 2390SOL    HW118629   1.267   3.574   1.326  0.8303 -0.1980  0.9842
 2390SOL    HW218630   1.209   3.489   1.430  0.6126 -0.4188  0.6852
 2391SOL     OW18631   3.056   4.676   2.334  0.2514  0.4822 -0.0299
 2391SOL    HW118632   3.037   4.622   2.257  0.8077  0.3863 -0.0954
 2391SOL    HW218633   3.078   0.041   2.305 -1.0336  1.5929  2.3723
 2392SOL     OW18634   2.668   1.529   4.291  0.3067 -0.3484  0.5615
 2392SOL    HW118635   2.718   1.450   4.272  2.5273  0.8545  1.3847
 2392SOL    HW218636   2.742   1.586   4.269 -0.5974  0.2635 -0.9769
 2393SOL     OW18637   2.151   2.857   3.892  0.4755 -0.3651  0.4024
 2393SOL    HW118638   2.189   2.770   3.901  0.2888 -0.3622  1.1981
 2393SOL    HW218639   2.132   2.845   3.799 -2.4643 -0.3633  1.0145
 2394SOL     OW18640   4.677   3.995   4.642 -0.9542 -0.2521 -0.6636
 2394SOL    HW118641   4.640   4.065   4.588 -1.9421  0.3164  0.7242
 2394SOL    HW218642   4.603   3.936   4.658 -0.4134 -1.1289 -1.3967
 2395SOL     OW18643   2.350   0.991   2.722  0.4048 -0.1632  0.3355
 2395SOL    HW118644   2.366   0.924   2.656 -0.2457  0.3222 -0.3115
 2395SOL    HW218645   2.431   0.975   2.771  0.2941 -1.3295  0.1369
 2396SOL     OW18646   3.974   2.703   4.838 -0.4023 -0.4612 -0.3677
 2396SOL    HW118647   3.933   2.781   4.874  0.8016  0.2037 -0.4443
 2396SOL    HW218648   4.037   2.742   4.778 -0.5813  4.3770  2.5787
 2397SOL     OW18649   1.177   0.214   3.179  0.3044  0.2599 -1.0144
 2397SOL    HW118650   1.123   0.209   3.100 -3.1069  0.1778  1.2865
 2397SOL    HW218651   1.109   0.195   3.244 -0.2912  2.1538 -1.0884
 2398SOL     OW18652   3.503   2.237   1.149 -0.0292  0.1749 -0.0493
 2398SOL    HW118653   3.447   2.159   1.138 -1.8720  1.3761  0.8719
 2398SOL    HW218654   3.549   2.217   1.231  0.4841  1.0085 -0.1356
 2399SOL     OW18655   2.038   4.523   9.523 -0.1329 -0.2786  0.7040
 2399SOL    HW118656   1.963   4.579   9.546  0.7044  1.0254  0.2603
 2399SOL    HW218657   2.100   4.596   9.531 -1.7187  1.0159  1.2849
 2400SOL     OW18658   3.245   3.400   8.991 -0.4431  0.6388  0.5717
 2400SOL    HW118659   3.316   3.340   8.969 -0.6258  1.6580 -2.8275
 2400SOL    HW218660   3.261   3.435   9.079  0.7048  1.1392  0.1663
 2401SOL     OW18661   2.439   0.982   7.158  0.1504  0.0551  0.7410
 2401SOL    HW118662   2.530   1.012   7.166  0.0039  0.5235  0.6568
 2401SOL    HW218663   2.408   1.019   7.240 -1.2665 -1.0174  0.6778
 2402SOL     OW18664   1.350   3.108   7.898  0.2714 -0.5412 -0.1318
 2402SOL    HW118665   1.407   3.147   7.964 -1.2760 -0.0376  0.9045
 2402SOL    HW218666   1.313   3.032   7.943 -0.6670  0.0841  0.1584
 2403SOL     OW18667   3.678   3.391   5.347  0.0998 -0.0399  1.2031
 2403SOL    HW118668   3.676   3.480   5.382  1.1119  0.5232 -0.1171
 2403SOL    HW218669   3.589   3.388   5.311  0.2053 -0.1335  0.9449
 2404SOL     OW18670   2.251   0.773  15.483  0.0642 -0.2206 -0.6328
 2404SOL    HW118671   2.252   0.732  15.569  1.9873  1.3794  0.1095
 2404SOL    HW218672   2.343   0.764  15.459  0.1572 -2.3385  0.5423
 2405SOL     OW18673   0.119   2.622  15.623  0.2355 -0.0703 -0.1321
 2405SOL    HW118674   0.095   2.597  15.534 -1.2089  1.3281 -0.1399
 2405SOL    HW218675   0.087   2.712  15.618 -0.6240 -0.5379 -3.1576
 2406SOL     OW18676   2.566   1.725   6.720 -0.5249  0.3241  0.4510
 2406SOL    HW118677   2.547   1.651   6.777  0.2661  1.0022  1.5797
 2406SOL    HW218678   2.661   1.720   6.716 -0.4472  1.0949  1.4712
 2407SOL     OW18679   4.161   2.307   5.643 -0.0971  0.0915 -0.5704
 2407SOL    HW118680   4.071   2.289   5.671  0.8915 -3.5865  0.1983
 2407SOL    HW218681   4.151   2.402   5.631  0.1998  0.5109  2.3184
 2408SOL     OW18682   0.180   2.873   2.427  0.0773 -0.1490 -0.0628
 2408SOL    HW118683   0.098   2.910   2.394  0.1649  0.1249  0.0236
 2408SOL    HW218684   0.151   2.792   2.469  1.8666 -0.5106  0.4738
 2409SOL     OW18685   3.213   0.890   8.501  0.2741 -0.1192 -0.5162
 2409SOL    HW118686   3.208   0.800   8.534  0.3172 -0.4080 -1.2890
 2409SOL    HW218687   3.178   0.937   8.576 -1.0050  1.3128 -2.0477
 2410SOL     OW18688   3.429   0.747   8.200  0.5563  0.2664 -0.0153
 2410SOL    HW118689   3.503   0.720   8.146 -0.0824 -0.5585 -0.4762
 2410SOL    HW218690   3.354   0.719   8.148  1.2181 -1.1908 -0.1656
 2411SOL     OW18691   1.740   4.356   3.778 -0.1268 -1.0418 -0.0128
 2411SOL    HW118692   1.745   4.451   3.768  1.1658 -0.8468  2.7045
 2411SOL    HW218693   1.695   4.365   3.862 -3.1042  2.5786 -1.9481
 2412SOL     OW18694   3.929   1.014   1.356  0.0108  0.0247 -0.0995
 2412SOL    HW118695   4.013   0.970   1.347  0.5771  0.6841  1.8229
 2412SOL    HW218696   3.874   0.937   1.364  1.3605 -0.8269  0.9732
 2413SOL     OW18697   4.178   4.693   2.895  0.0144  0.2022  0.1455
 2413SOL    HW118698   4.125   0.030   2.947  0.2969  0.3788  0.2251
 2413SOL    HW218699   4.126   4.675   2.816 -0.4686 -1.4235  0.8254
 2414SOL     OW18700   2.626   4.574   4.290  0.6135  0.0892 -0.6315
 2414SOL    HW118701   2.708   4.534   4.320 -1.1261 -1.8953  1.5482
 2414SOL    HW218702   2.579   4.496   4.260  0.3228  0.3425 -0.8367
 2415SOL     OW18703   0.190   4.537  16.523 -0.7135 -0.2384 -0.7129
 2415SOL    HW118704   0.095   4.533  16.525 -0.7138 -0.4918 -1.2469
 2415SOL    HW218705   0.211   4.628  16.503  0.2472 -0.6071 -1.3960
 2416SOL     OW18706   4.100   0.881  16.320  0.4476  0.0009 -0.3764
 2416SOL    HW118707   4.132   0.966  16.290  0.4617 -0.2327 -1.0138
 2416SOL    HW218708   4.071   0.919  16.403 -0.6009 -1.1121 -0.2286
 2417SOL     OW18709   3.119   0.720   2.732  0.0550  0.1605  0.3194
 2417SOL    HW118710   3.045   0.732   2.672  1.1340  0.3453 -0.9821
 2417SOL    HW218711   3.087   0.641   2.775 -1.0158  0.5818  0.2976
 2418SOL     OW18712   0.083   1.450   0.545 -0.3444 -0.4194 -0.2405
 2418SOL    HW118713   0.167   1.406   0.530 -0.0882 -0.1662  0.4437
 2418SOL    HW218714   0.036   1.433   0.464  1.0771 -1.8747 -0.7590
 2419SOL     OW18715   0.165   1.506   9.368  0.5106 -0.9647  0.5111
 2419SOL    HW118716   0.175   1.567   9.295 -2.2075 -1.4271 -0.2753
 2419SOL    HW218717   0.070   1.502   9.377  0.4345 -0.5103 -0.0661
 2420SOL     OW18718   1.991   2.895  16.605  0.7347 -0.3258 -0.2973
 2420SOL    HW118719   1.903   2.901  16.567  0.9192  2.5601 -0.2011
 2420SOL    HW218720   2.036   2.968  16.562  0.5050  0.3280  0.5823
 2421SOL     OW18721   3.007   1.895  12.205 -0.3765  0.4635  0.3438
 2421SOL    HW118722   3.088   1.880  12.254  0.8314  2.7162 -0.9843
 2421SOL    HW218723   3.041   1.947  12.132 -0.6523 -0.2387 -0.2838
 2422SOL     OW18724   2.033   2.250   3.403 -0.2329  0.0049  0.8207
 2422SOL    HW118725   2.002   2.163   3.430 -0.4668 -0.5895 -1.3913
 2422SOL    HW218726   2.098   2.211   3.345  1.4752  2.3582  1.1963
 2423SOL     OW18727   2.270   1.650   7.176  1.2003 -0.5630 -0.4889
 2423SOL    HW118728   2.287   1.733   7.220  1.7844 -0.3094 -1.1966
 2423SOL    HW218729   2.344   1.598   7.208  0.6151 -1.0559  0.0693
 2424SOL     OW18730   2.995   3.390  15.615  0.1615 -0.1495 -0.2831
 2424SOL    HW118731   2.956   3.304  15.634  1.4894 -0.9699 -1.2596
 2424SOL    HW218732   3.060   3.404  15.685  1.0038 -0.8292 -0.9227
 2425SOL     OW18733   0.903   2.732   5.177 -0.1128  0.0976 -0.4898
 2425SOL    HW118734   0.860   2.757   5.259  1.0272  2.6211 -0.6963
 2425SOL    HW218735   0.962   2.661   5.203  1.0533 -0.0236 -3.5196
 2426SOL     OW18736   2.421   0.779   6.144  0.3625 -0.1367 -0.0171
 2426SOL    HW118737   2.368   0.787   6.065  0.0843  0.4066  0.2244
 2426SOL    HW218738   2.509   0.755   6.116  1.5035  1.1705  2.4846
 2427SOL     OW18739   0.021   1.618   5.156  0.1632 -0.6340  0.0784
 2427SOL    HW118740   4.667   1.609   5.100  0.6252 -1.0214 -0.4956
 2427SOL    HW218741   4.720   1.703   5.192 -0.5516 -0.6526 -0.3504
 2428SOL     OW18742   0.071   3.138  12.567 -0.1630 -0.1454  0.1807
 2428SOL    HW118743   0.002   3.102  12.623 -0.7472 -2.8352 -2.3210
 2428SOL    HW218744   0.150   3.131  12.621  0.6470  0.2703 -0.9448
 2429SOL     OW18745   1.007   2.813   2.988 -0.1366 -0.2266 -0.0910
 2429SOL    HW118746   0.969   2.898   3.009  0.3456  0.1459 -0.7368
 2429SOL    HW218747   0.933   2.753   2.980 -0.6548  0.3821  0.1660
 2430SOL     OW18748   3.059   0.144  17.505  0.1255 -0.4691 -0.4596
 2430SOL    HW118749   3.152   0.154  17.525  0.3127 -0.2838 -1.4097
 2430SOL    HW218750   3.014   0.223  17.533 -0.4674 -1.6968  2.0233
 2431SOL     OW18751   3.247   3.041   2.109 -0.2779 -0.1827 -0.6153
 2431SOL    HW118752   3.342   3.048   2.117 -0.3920  0.5121  0.1402
 2431SOL    HW218753   3.234   2.953   2.146 -0.2253 -0.8011 -2.0639
 2432SOL     OW18754   1.287   3.600  11.128  0.0244  0.0705 -1.3570
 2432SOL    HW118755   1.229   3.525  11.143  3.1660 -1.8230  1.3401
 2432SOL    HW218756   1.268   3.633  11.041 -0.0366 -0.0527 -1.3913
 2433SOL     OW18757   2.737   0.682   4.484 -0.3089  0.1308 -0.3263
 2433SOL    HW118758   2.799   0.633   4.431  0.7575  1.0665  0.0414
 2433SOL    HW218759   2.794   0.693   4.560  0.2996 -2.1407 -0.4428
 2434SOL     OW18760   2.765   0.267   2.805  0.5264 -0.2498 -0.2983
 2434SOL    HW118761   2.778   0.211   2.728 -0.2491  0.7800 -1.1833
 2434SOL    HW218762   2.680   0.306   2.785  1.1542  0.8831 -0.7455
 2435SOL     OW18763   0.534   2.528   7.234 -0.4727 -0.5527  0.2258
 2435SOL    HW118764   0.530   2.610   7.283 -1.1621  0.4703 -1.5079
 2435SOL    HW218765   0.606   2.482   7.276 -1.0167  0.0869  1.8625
 2436SOL     OW18766   1.094   2.456  12.927  0.1806 -0.1459  0.2055
 2436SOL    HW118767   1.111   2.381  12.871 -1.8992  1.6837 -2.8490
 2436SOL    HW218768   1.106   2.421  13.015 -1.9017  2.9784  1.7314
 2437SOL     OW18769   1.109   3.010   8.100 -0.6879  0.2358  0.0385
 2437SOL    HW118770   1.019   2.978   8.100 -0.7016  0.2712 -0.0839
 2437SOL    HW218771   1.097   3.105   8.113 -2.6502 -0.4140  3.0424
 2438SOL     OW18772   4.664   2.547   5.572  0.3774  0.1077 -0.1132
 2438SOL    HW118773   4.652   2.585   5.659 -2.4105 -3.8728  1.2173
 2438SOL    HW218774   4.577   2.535   5.533  0.2212 -1.1211  0.6259
 2439SOL     OW18775   0.183   0.637  14.442  0.0522  0.9233  0.3589
 2439SOL    HW118776   0.154   0.648  14.351 -0.1633  0.6704  0.3961
 2439SOL    HW218777   0.271   0.600  14.433  0.5070  1.7794  1.3471
 2440SOL     OW18778   2.052   3.135   8.014 -0.8923  0.4609  0.4632
 2440SOL    HW118779   2.076   3.072   8.081  0.0731 -0.1364 -0.4547
 2440SOL    HW218780   2.050   3.091   7.929  1.6000  0.6698  0.3083
 2441SOL     OW18781   0.716   3.460  10.620  0.0643  0.2812  0.2280
 2441SOL    HW118782   0.671   3.376  10.614  1.2881 -0.2250 -2.1981
 2441SOL    HW218783   0.718   3.485  10.712 -2.7243  2.2182 -0.2259
 2442SOL     OW18784   0.367   0.531   6.615 -0.1914  0.4507  0.3086
 2442SOL    HW118785   0.350   0.493   6.701 -0.3413 -1.5284 -0.5921
 2442SOL    HW218786   0.297   0.596   6.629  0.5832  1.4242 -0.3181
 2443SOL     OW18787   1.425   2.895   2.722 -0.5898 -0.1077 -0.7321
 2443SOL    HW118788   1.386   2.841   2.653 -0.3492  1.1749 -1.8795
 2443SOL    HW218789   1.354   2.894   2.786 -1.1617  1.0929 -1.3355
 2444SOL     OW18790   0.639   0.536   4.395 -0.3871 -0.0483  0.0266
 2444SOL    HW118791   0.650   0.558   4.302 -1.1111 -2.1977 -0.5675
 2444SOL    HW218792   0.562   0.480   4.388  0.2034 -0.8003 -0.6077
 2445SOL     OW18793   0.292   1.494   2.618 -0.1296 -0.2081  0.2300
 2445SOL    HW118794   0.340   1.450   2.548  1.6390 -1.0348  1.9355
 2445SOL    HW218795   0.203   1.512   2.590 -0.4866  0.1886  1.6062
 2446SOL     OW18796   2.006   0.710  11.534 -0.3372 -0.2726 -0.0191
 2446SOL    HW118797   1.925   0.660  11.549  0.4527 -1.9705 -1.4319
 2446SOL    HW218798   2.074   0.643  11.537  3.6063  3.6752 -2.8816
 2447SOL     OW18799   1.429   3.970  11.928 -0.0349  0.4408  0.0283
 2447SOL    HW118800   1.479   3.920  11.864 -1.4326 -0.1181 -0.6414
 2447SOL    HW218801   1.361   4.005  11.870 -1.3026 -1.7533  0.1787
 2448SOL     OW18802   0.039   0.812   5.134 -0.7449  0.1312 -0.7746
 2448SOL    HW118803   4.688   0.848   5.085  0.0428  2.3276 -0.3413
 2448SOL    HW218804   0.103   0.883   5.145 -0.8028  0.0220  0.3159
 2449SOL     OW18805   0.658   4.473   7.420  0.0513  0.4850  0.3100
 2449SOL    HW118806   0.569   4.446   7.442 -1.1376  2.3273 -2.1340
 2449SOL    HW218807   0.693   4.451   7.506 -2.2774 -0.4377  1.0207
 2450SOL     OW18808   0.657   3.061   2.253  0.0856  0.3254 -0.0471
 2450SOL    HW118809   0.675   3.071   2.347  2.1227 -0.3869 -0.3457
 2450SOL    HW218810   0.583   3.001   2.255 -0.1002  0.5187 -1.2554
 2451SOL     OW18811   4.177   3.550   5.188  0.1716 -0.5926  0.7752
 2451SOL    HW118812   4.237   3.576   5.258 -1.2951  1.3142  1.3193
 2451SOL    HW218813   4.150   3.638   5.160  0.3593 -0.7514  0.0876
 2452SOL     OW18814   0.614   1.709   9.462 -0.3619  0.5626 -0.2686
 2452SOL    HW118815   0.520   1.706   9.483 -0.0582 -2.2745  0.7037
 2452SOL    HW218816   0.660   1.723   9.544  1.2078  1.7903 -1.3704
 2453SOL     OW18817   2.834   3.690   3.772 -0.0044  0.3202  0.2120
 2453SOL    HW118818   2.921   3.727   3.763  0.7934 -1.6583 -0.2655
 2453SOL    HW218819   2.844   3.609   3.823 -1.7995  0.1611  0.3158
 2454SOL     OW18820   1.974   3.635   3.250  0.3223 -0.4614 -0.3956
 2454SOL    HW118821   1.980   3.616   3.343  0.2365  1.8317  0.0598
 2454SOL    HW218822   2.052   3.686   3.229 -1.2559  3.0769  2.5583
 2455SOL     OW18823   0.974   2.232  13.356  0.2411  0.2025  0.8227
 2455SOL    HW118824   0.879   2.243  13.354  0.2032 -0.4190 -0.8944
 2455SOL    HW218825   0.989   2.142  13.329  0.1224  0.1660  0.8775
 2456SOL     OW18826   3.493   0.879   8.754 -0.2205 -0.6650 -0.0094
 2456SOL    HW118827   3.417   0.832   8.721 -0.5645  1.3844 -2.1724
 2456SOL    HW218828   3.556   0.809   8.770  1.7969  1.5371  1.6561
 2457SOL     OW18829   4.292   0.537   2.346  0.5966  0.0222 -0.2992
 2457SOL    HW118830   4.292   0.442   2.347  0.8366  0.0185 -0.5190
 2457SOL    HW218831   4.262   0.550   2.436  1.3772 -0.8760  0.0895
 2458SOL     OW18832   1.446   3.160   6.929 -0.4490 -0.8451  0.0201
 2458SOL    HW118833   1.427   3.215   6.853 -1.6137 -1.8211 -0.4023
 2458SOL    HW218834   1.387   3.204   6.990  1.2359  1.6182 -0.0909
 2459SOL     OW18835   3.488   2.808   5.868 -0.0691 -0.8101  0.1900
 2459SOL    HW118836   3.510   2.855   5.788 -2.2480 -0.4984 -0.2208
 2459SOL    HW218837   3.394   2.794   5.856  0.0041 -0.9764 -0.1956
 2460SOL     OW18838   0.132   0.611  17.391  0.0900  0.3767 -0.5535
 2460SOL    HW118839   0.144   0.583  17.482  0.6917  0.7173 -0.5309
 2460SOL    HW218840   0.091   0.540  17.341 -0.0367  0.1553 -0.1389
 2461SOL     OW18841   3.579   0.110   8.437 -0.5674 -0.0503  0.3471
 2461SOL    HW118842   3.628   0.189   8.412 -1.4373  0.8079  1.3591
 2461SOL    HW218843   3.487   0.139   8.435 -0.5451 -0.1361 -1.7712
 2462SOL     OW18844   0.288   2.560   2.184 -0.2222  0.4089  0.4024
 2462SOL    HW118845   0.303   2.599   2.098 -2.8845  2.8626  1.0320
 2462SOL    HW218846   0.370   2.513   2.194  0.3391  0.7912 -2.5411
 2463SOL     OW18847   0.432   1.901   0.834 -0.3897  0.7844  0.3727
 2463SOL    HW118848   0.498   1.941   0.891  1.6236 -0.2902 -1.1897
 2463SOL    HW218849   0.413   1.977   0.779  0.7566  0.6130 -0.2651
 2464SOL     OW18850   4.702   3.219   6.761 -0.1171 -0.3426  0.2681
 2464SOL    HW118851   0.018   3.303   6.787 -0.4995  0.1548 -0.7829
 2464SOL    HW218852   4.702   3.236   6.667 -1.8521  0.7725  0.4611
 2465SOL     OW18853   1.858   2.635   7.145 -0.5943  0.3279 -0.0535
 2465SOL    HW118854   1.952   2.620   7.155  0.0452  3.5952 -1.0789
 2465SOL    HW218855   1.852   2.719   7.099  0.4003  0.5607  0.2367
 2466SOL     OW18856   4.572   3.682   6.106  0.3412 -0.1701 -0.4528
 2466SOL    HW118857   4.657   3.721   6.125  0.5168 -0.6657 -0.2062
 2466SOL    HW218858   4.581   3.593   6.141 -1.7635  0.0544  0.6721
 2467SOL     OW18859   2.839   3.029   9.868  0.4270 -0.3948  0.0916
 2467SOL    HW118860   2.764   3.065   9.915  1.0355 -0.5756  1.1866
 2467SOL    HW218861   2.825   2.935   9.876 -0.4024 -0.1914  0.9412
 2468SOL     OW18862   2.043   2.952   1.375 -0.5398  0.1561 -0.0357
 2468SOL    HW118863   2.033   3.020   1.442  0.1250  0.7191 -0.5154
 2468SOL    HW218864   2.036   3.015   1.303 -0.9491  0.4244  0.2348
 2469SOL     OW18865   0.752   2.055   5.873  0.1307 -0.8004  0.0894
 2469SOL    HW118866   0.727   1.967   5.901 -1.1500 -0.4319  0.0877
 2469SOL    HW218867   0.836   2.054   5.918  0.7158 -0.2785 -0.9864
 2470SOL     OW18868   1.629   0.377   9.811 -0.2203 -0.1741 -0.1481
 2470SOL    HW118869   1.666   0.310   9.869  1.1429  0.4530 -0.2939
 2470SOL    HW218870   1.535   0.369   9.829 -0.8453  1.7857 -2.5102
 2471SOL     OW18871   3.576   3.343   5.927 -0.2473 -0.1856 -0.3413
 2471SOL    HW118872   3.485   3.317   5.939  0.0418 -0.4246  1.3008
 2471SOL    HW218873   3.610   3.294   6.002  0.8583  1.1715  0.0449
 2472SOL     OW18874   0.759   4.571   9.251 -0.6465  0.1547  0.1068
 2472SOL    HW118875   0.688   4.573   9.188  0.1698 -0.7337 -0.8334
 2472SOL    HW218876   0.734   4.647   9.304 -1.6640  0.3838 -0.7054
 2473SOL     OW18877   2.173   4.128   5.222 -0.0673 -0.2384 -0.3566
 2473SOL    HW118878   2.116   4.199   5.192 -0.9694 -0.5782  0.5602
 2473SOL    HW218879   2.237   4.136   5.151 -0.5142 -1.0457 -0.8615
 2474SOL     OW18880   1.725   1.860   7.241 -0.2157 -0.9546 -0.0386
 2474SOL    HW118881   1.667   1.789   7.213  0.9945 -0.8224 -2.8562
 2474SOL    HW218882   1.802   1.818   7.280  0.8750  2.1691  1.1319
 2475SOL     OW18883   3.788   3.995   5.481  0.0365  0.6521 -0.1851
 2475SOL    HW118884   3.798   4.009   5.575  0.4704  1.2223 -0.3158
 2475SOL    HW218885   3.873   3.968   5.446 -0.1513  0.3133 -0.3878
 2476SOL     OW18886   4.175   1.938  14.216 -0.0693 -0.2018  0.1467
 2476SOL    HW118887   4.242   2.005  14.227  0.3777 -0.7501  0.6938
 2476SOL    HW218888   4.140   1.921  14.303 -1.6158  4.3806  0.4246
 2477SOL     OW18889   3.448   1.701  14.284  0.5137 -0.1587 -0.2371
 2477SOL    HW118890   3.366   1.750  14.290  0.1885 -0.6047 -0.9759
 2477SOL    HW218891   3.417   1.610  14.290 -0.8839  0.4259  1.4078
 2478SOL     OW18892   1.118   3.864   4.306 -0.6780  0.2745 -0.6399
 2478SOL    HW118893   1.032   3.847   4.269 -0.6503 -1.4952  0.1156
 2478SOL    HW218894   1.122   3.825   4.393 -0.5367  2.7371  0.4745
 2479SOL     OW18895   1.401   0.726   4.958 -0.2023 -0.0827  0.3912
 2479SOL    HW118896   1.333   0.659   4.961  2.2332 -2.5323  0.8690
 2479SOL    HW218897   1.353   0.803   4.929  1.4722  1.4164  1.5880
 2480SOL     OW18898   1.718   4.180   8.891  0.1145  0.0594  0.6208
 2480SOL    HW118899   1.674   4.264   8.881  0.8208  0.6519  2.4387
 2480SOL    HW218900   1.762   4.195   8.975 -0.2125  1.7165  0.4970
 2481SOL     OW18901   2.230   3.118   5.339  0.4188  0.0962  0.1095
 2481SOL    HW118902   2.269   3.205   5.350  0.4149 -0.1969  2.5019
 2481SOL    HW218903   2.270   3.103   5.254 -0.3054 -3.1192  0.3495
 2482SOL     OW18904   1.309   4.185   5.317 -0.3537  0.2398  0.3573
 2482SOL    HW118905   1.325   4.186   5.223  0.2605  0.6182  0.4704
 2482SOL    HW218906   1.397   4.192   5.353 -0.7537 -0.7633  1.5426
 2483SOL     OW18907   4.578   0.790  10.133  0.6154 -0.2561 -0.0879
 2483SOL    HW118908   4.597   0.864  10.191 -0.0848 -1.0787  1.1877
 2483SOL    HW218909   4.615   0.818  10.049  0.3540  1.1338  0.2447
 2484SOL     OW18910   0.363   0.503   6.018 -0.4116  0.0532  0.0369
 2484SOL    HW118911   0.423   0.576   6.036 -0.8907  0.1197  1.3306
 2484SOL    HW218912   0.313   0.496   6.099 -0.0516 -0.5471  0.2089
 2485SOL     OW18913   4.232   4.194  11.364 -0.5593 -0.8728 -0.0077
 2485SOL    HW118914   4.306   4.233  11.411  0.1398 -1.4822 -0.5968
 2485SOL    HW218915   4.191   4.155  11.441 -1.1921  0.4035  0.3048
 2486SOL     OW18916   1.184   1.543  11.522  0.0495 -0.2553  0.0515
 2486SOL    HW118917   1.173   1.608  11.452  1.0808 -0.3875 -0.2241
 2486SOL    HW218918   1.237   1.478  11.477 -0.1985 -1.1479  1.0604
 2487SOL     OW18919   1.707   2.301  12.206  0.3117 -0.6136 -0.1165
 2487SOL    HW118920   1.777   2.266  12.261  1.0061 -1.0259 -1.2614
 2487SOL    HW218921   1.662   2.357  12.268 -0.7263 -0.1086 -1.3220
 2488SOL     OW18922   3.023   4.518   7.133  0.0351 -0.4404 -0.3884
 2488SOL    HW118923   2.985   4.435   7.164  1.2135 -1.1383 -0.8209
 2488SOL    HW218924   3.035   4.498   7.040  0.9941  2.9610 -0.9843
 2489SOL     OW18925   2.924   1.135   8.237 -0.6020  0.8343  0.1976
 2489SOL    HW118926   2.894   1.181   8.158  0.0198  0.2926 -0.3628
 2489SOL    HW218927   3.014   1.121   8.208 -0.6005 -0.0711  0.6531
 2490SOL     OW18928   4.396   0.863  15.199 -0.7533 -0.0829 -0.3339
 2490SOL    HW118929   4.447   0.783  15.209  0.1213  0.4248 -0.7855
 2490SOL    HW218930   4.470   0.917  15.171  0.3155 -0.7765  1.1280
 2491SOL     OW18931   0.904   3.873   0.205  0.1386 -0.4051  0.1870
 2491SOL    HW118932   0.908   3.785   0.167 -1.1176 -0.1368 -0.5974
 2491SOL    HW218933   0.997   3.890   0.218  0.2335  0.0755 -1.1657
 2492SOL     OW18934   2.906   1.668  12.039 -0.5319 -0.0231  0.7268
 2492SOL    HW118935   2.864   1.610  12.102  1.2316 -0.1714  1.7759
 2492SOL    HW218936   2.901   1.747  12.093 -0.3877 -0.0386  0.7641
 2493SOL     OW18937   2.699   2.553  12.479  0.1173 -0.2755 -0.5181
 2493SOL    HW118938   2.622   2.555  12.421 -0.3833 -1.0564  0.1184
 2493SOL    HW218939   2.729   2.641  12.456  0.1289  0.0609  0.7750
 2494SOL     OW18940   3.687   3.183  11.471  0.0241 -0.4315  0.4042
 2494SOL    HW118941   3.752   3.252  11.483 -0.5933  0.4340 -1.2132
 2494SOL    HW218942   3.739   3.103  11.470 -3.1458 -2.4993  2.1996
 2495SOL     OW18943   2.783   3.760   8.854 -0.7435 -0.0531 -0.2064
 2495SOL    HW118944   2.871   3.724   8.866 -2.0846 -2.5461  2.1060
 2495SOL    HW218945   2.737   3.680   8.827  0.1314 -1.1797  1.6322
 2496SOL     OW18946   0.983   2.174   7.645 -0.2152  0.0665  0.0296
 2496SOL    HW118947   1.029   2.099   7.682 -2.0667 -0.0991  1.9320
 2496SOL    HW218948   0.946   2.141   7.563 -0.3517 -0.3547  0.2622
 2497SOL     OW18949   2.851   2.111   3.296  0.0602  0.0445  0.6264
 2497SOL    HW118950   2.913   2.160   3.243  1.7064 -1.1335  1.4839
 2497SOL    HW218951   2.795   2.184   3.321  1.1426  0.5653  1.5021
 2498SOL     OW18952   4.619   0.246  17.026 -0.2554 -1.1349 -0.3475
 2498SOL    HW118953   4.545   0.211  17.075 -1.1674 -2.1483 -2.4618
 2498SOL    HW218954   4.662   0.166  16.996 -0.3283 -1.1595 -0.3869
 2499SOL     OW18955   1.014   4.163   6.817 -0.3508 -0.1334 -0.3761
 2499SOL    HW118956   0.987   4.073   6.828 -0.6433 -0.2253 -1.8131
 2499SOL    HW218957   1.082   4.166   6.884  1.4948  0.4937 -2.2356
 2500SOL     OW18958   1.850   4.338   5.351 -0.0857 -0.1744 -0.1080
 2500SOL    HW118959   1.776   4.277   5.351 -0.3848  0.2031 -3.1084
 2500SOL    HW218960   1.881   4.328   5.262  0.4387  0.8991 -0.0406
 2501SOL     OW18961   3.041   3.348   0.955 -0.3566 -0.3460 -0.1013
 2501SOL    HW118962   3.024   3.383   1.043 -0.9362 -1.5706  0.2692
 2501SOL    HW218963   3.108   3.286   0.984 -1.0661 -0.7705  0.6274
 2502SOL     OW18964   2.809   3.707  12.639  0.0853 -0.1720 -0.2014
 2502SOL    HW118965   2.764   3.788  12.660  1.3932  0.1050  1.4825
 2502SOL    HW218966   2.833   3.683  12.728  5.2122 -0.5102 -1.6321
 2503SOL     OW18967   1.420   3.549   2.996 -0.1097  0.5713 -0.0035
 2503SOL    HW118968   1.452   3.464   3.028 -3.3174 -0.6678 -0.0984
 2503SOL    HW218969   1.333   3.568   3.030  0.3073  1.1010  0.7903
 2504SOL     OW18970   0.642   4.222   0.418 -0.7295 -0.1890 -0.4717
 2504SOL    HW118971   0.712   4.202   0.480 -0.6201  4.0238  0.7947
 2504SOL    HW218972   0.608   4.306   0.449 -0.1420  0.0366 -0.4449
 2505SOL     OW18973   4.008   0.302   7.699  0.3047 -0.3295 -0.1220
 2505SOL    HW118974   4.010   0.388   7.741 -0.4203 -0.6971  0.6779
 2505SOL    HW218975   3.939   0.306   7.633  0.1811  0.5145  0.0683
 2506SOL     OW18976   2.080   4.471   8.363  0.1885  0.1431  0.1810
 2506SOL    HW118977   1.996   4.473   8.318 -0.2896 -1.9546  0.9593
 2506SOL    HW218978   2.117   4.408   8.302 -0.1292  0.2569 -0.1296
 2507SOL     OW18979   4.675   2.638   9.619  0.2180  0.1700 -0.2774
 2507SOL    HW118980   4.659   2.586   9.540 -1.5356  1.5897 -0.8447
 2507SOL    HW218981   0.046   2.632   9.638  0.2402  0.3692 -0.3180
 2508SOL     OW18982   3.967   2.207   6.881  0.2801  0.0636 -0.0047
 2508SOL    HW118983   3.954   2.301   6.892  0.6457 -0.0382  1.3001
 2508SOL    HW218984   3.889   2.181   6.930  0.3269 -0.3262 -0.1406
 2509SOL     OW18985   1.261   2.409  12.417 -0.1174  0.1785 -0.2249
 2509SOL    HW118986   1.216   2.337  12.461  0.9493 -0.3541  0.0038
 2509SOL    HW218987   1.219   2.401  12.331  0.5658  0.0685 -0.5447
 2510SOL     OW18988   0.927   4.289   2.638  0.1492 -0.2856 -0.0110
 2510SOL    HW118989   0.938   4.334   2.722  4.9273 -0.9936 -0.2719
 2510SOL    HW218990   0.834   4.305   2.620  0.3020  1.8578  1.1345
 2511SOL     OW18991   2.769   2.465   9.009  0.0720  0.1147  0.4376
 2511SOL    HW118992   2.691   2.480   9.063 -0.2856 -0.6391  0.1298
 2511SOL    HW218993   2.803   2.382   9.044 -1.0056 -0.0987  0.9931
 2512SOL     OW18994   0.437   2.155   1.162 -0.0639 -0.4414 -0.1625
 2512SOL    HW118995   0.503   2.127   1.099  1.9563  0.6588  1.4647
 2512SOL    HW218996   0.386   2.215   1.109 -1.0883 -1.8797 -0.8267
 2513SOL     OW18997   3.002   0.291  13.652 -0.3982  0.3567  0.1063
 2513SOL    HW118998   2.955   0.224  13.702 -0.1501 -0.4916 -0.7912
 2513SOL    HW218999   2.986   0.365  13.710  0.6803  0.4351  0.3033
 2514SOL     OW19000   3.078   0.053   9.898  0.4009 -0.0181 -0.4565
 2514SOL    HW119001   3.149   4.723   9.863 -0.5395 -0.7608 -1.2190
 2514SOL    HW219002   3.131   0.122   9.938  0.8731 -0.5523 -0.1549
 2515SOL     OW19003   0.788   0.277  10.873 -0.1515 -0.5058  0.9399
 2515SOL    HW119004   0.711   0.220  10.879 -0.6002  0.0902  0.8019
 2515SOL    HW219005   0.853   0.207  10.883 -1.2380 -1.7142 -0.5401
 2516SOL     OW19006   0.937   2.572   2.491  0.3265  0.2486  0.3132
 2516SOL    HW119007   0.848   2.539   2.500  1.5777 -3.0609  0.6890
 2516SOL    HW219008   0.954   2.638   2.557  1.6260  0.6667 -0.4361
 2517SOL     OW19009   0.939   1.642   9.671  0.4759 -0.1758  0.1095
 2517SOL    HW119010   0.901   1.729   9.667  1.5175  0.3281  1.0988
 2517SOL    HW219011   0.868   1.592   9.711 -0.3920 -0.3911 -1.7327
 2518SOL     OW19012   2.862   4.149   5.515 -0.0277 -0.1627  0.4427
 2518SOL    HW119013   2.855   4.237   5.479 -0.2953 -1.1686 -1.9761
 2518SOL    HW219014   2.773   4.135   5.546 -1.6042 -1.6545 -4.8919
 2519SOL     OW19015   2.668   4.059  12.224  0.0454  0.3073 -0.5600
 2519SOL    HW119016   2.686   4.067  12.318 -0.0631  0.6635 -0.5708
 2519SOL    HW219017   2.687   3.966  12.212 -1.0356  0.2756 -2.0818
 2520SOL     OW19018   0.380   1.115   9.302 -0.3041  0.2237 -0.6798
 2520SOL    HW119019   0.433   1.175   9.249 -3.2372  2.5616 -1.0026
 2520SOL    HW219020   0.320   1.171   9.352  1.0474  1.2251 -0.1704
 2521SOL     OW19021   1.312   0.995  16.791 -0.1720 -0.2124  0.1488
 2521SOL    HW119022   1.331   1.012  16.699  1.1515 -0.2574  0.4116
 2521SOL    HW219023   1.233   0.942  16.785 -1.5948  1.6913  2.0321
 2522SOL     OW19024   3.789   4.083  17.262 -0.2632 -0.1141  0.0354
 2522SOL    HW119025   3.809   4.154  17.323  2.6881 -1.3112  0.4923
 2522SOL    HW219026   3.762   4.013  17.321 -0.4902 -0.5328 -0.5704
 2523SOL     OW19027   3.041   3.436   2.735 -0.3179 -0.2614 -0.1641
 2523SOL    HW119028   3.097   3.420   2.658  0.4933 -0.2661  0.4234
 2523SOL    HW219029   2.965   3.467   2.685  0.9494  2.6159 -0.2661
 2524SOL     OW19030   3.523   1.643  15.206  0.0947  0.0719  0.4211
 2524SOL    HW119031   3.562   1.702  15.270  1.0750  0.1627 -0.2564
 2524SOL    HW219032   3.491   1.573  15.263  1.9366 -1.9038 -0.9924
 2525SOL     OW19033   4.258   2.306  10.233  0.2395 -0.0656 -0.3780
 2525SOL    HW119034   4.241   2.229  10.180  0.2382  0.8544 -1.7137
 2525SOL    HW219035   4.263   2.275  10.323 -1.6930 -0.6264 -0.4799
 2526SOL     OW19036   3.816   0.608  17.511 -0.5423  0.4493 -0.3565
 2526SOL    HW119037   3.776   0.549  17.446 -0.2054 -0.7182  0.4979
 2526SOL    HW219038   3.907   0.579  17.515 -0.1709  2.0550  2.4915
 2527SOL     OW19039   4.048   2.047   7.469  0.1414 -0.1486 -0.1144
 2527SOL    HW119040   4.023   2.058   7.561  1.7140  1.6613  0.1097
 2527SOL    HW219041   4.138   2.015   7.482 -0.6373 -2.4805 -0.6794
 2528SOL     OW19042   3.962   4.572   3.081 -0.1831 -0.1165  0.4229
 2528SOL    HW119043   4.017   4.648   3.063  0.4038 -0.2330  1.7426
 2528SOL    HW219044   4.023   4.501   3.100  2.0212  1.3273 -1.2822
 2529SOL     OW19045   4.045   0.767   1.623 -0.3178  0.2812  0.1131
 2529SOL    HW119046   4.123   0.725   1.587 -0.8126 -0.5546  0.0239
 2529SOL    HW219047   4.048   0.736   1.713 -3.3964  2.4338  0.9747
 2530SOL     OW19048   0.782   3.901   3.263  0.0099  0.5146  0.0682
 2530SOL    HW119049   0.786   3.962   3.337 -0.5552 -0.0084  0.5303
 2530SOL    HW219050   0.806   3.818   3.305 -1.9055 -0.4450 -0.7593
 2531SOL     OW19051   1.938   3.682   7.423  0.2903 -0.4771 -0.3632
 2531SOL    HW119052   1.902   3.714   7.341 -0.4588 -2.4702 -0.8353
 2531SOL    HW219053   1.872   3.715   7.484  2.0781  2.3574  0.0232
 2532SOL     OW19054   2.817   0.763   7.864 -0.2173 -0.2161 -0.3645
 2532SOL    HW119055   2.879   0.758   7.937  1.2327  0.6739 -1.5452
 2532SOL    HW219056   2.868   0.814   7.802  0.1064  1.2466  1.0969
 2533SOL     OW19057   1.262   1.388   2.615 -0.3288  0.3785  0.7561
 2533SOL    HW119058   1.187   1.414   2.561  0.0302  1.5014  0.7929
 2533SOL    HW219059   1.285   1.305   2.574  1.6674  0.9609  0.7077
 2534SOL     OW19060   4.114   4.702   8.741 -0.0117 -0.3226  0.6213
 2534SOL    HW119061   4.053   0.034   8.789 -0.8802 -1.0509  0.3518
 2534SOL    HW219062   4.188   4.703   8.802  2.1368 -1.0643 -1.9388
 2535SOL     OW19063   0.808   3.446   4.427 -0.1756 -0.1038  0.0769
 2535SOL    HW119064   0.715   3.438   4.405 -0.0771  0.8722 -0.7397
 2535SOL    HW219065   0.841   3.371   4.377 -0.1549  0.1492 -0.2876
 2536SOL     OW19066   2.485   3.663   6.111 -0.3296 -0.0882 -0.4888
 2536SOL    HW119067   2.444   3.612   6.181 -3.2212 -0.0337 -2.1483
 2536SOL    HW219068   2.440   3.745   6.130 -0.0929 -0.6604  2.4938
 2537SOL     OW19069   3.015   1.137   5.505  0.4240 -0.2957 -0.0694
 2537SOL    HW119070   3.082   1.181   5.452 -2.0400  0.6943 -2.3595
 2537SOL    HW219071   3.071   1.078   5.556 -0.6873 -1.7201 -0.5043
 2538SOL     OW19072   4.200   1.587   4.031  0.0625 -0.6026 -0.1579
 2538SOL    HW119073   4.200   1.554   3.942  2.1169  0.6990 -0.6179
 2538SOL    HW219074   4.272   1.547   4.081  1.1048 -1.4218 -2.3513
 2539SOL     OW19075   2.066   1.193  17.691 -0.3942 -0.0148 -0.2550
 2539SOL    HW119076   2.104   1.147  17.617  0.1199  1.2108 -0.7551
 2539SOL    HW219077   2.127   1.264   0.016 -2.6263  1.7299  0.3546
 2540SOL     OW19078   2.345   0.345  15.228  0.4372 -0.2847 -0.3708
 2540SOL    HW119079   2.426   0.363  15.276  0.9203  1.6123 -1.9041
 2540SOL    HW219080   2.286   0.367  15.300  1.6667  1.4171  0.1229
 2541SOL     OW19081   3.044   0.380   6.550 -0.0040 -0.5583 -0.1404
 2541SOL    HW119082   2.958   0.397   6.511  0.1078  2.8395  1.0417
 2541SOL    HW219083   3.020   0.377   6.643 -1.8367  0.1806 -0.5891
 2542SOL     OW19084   0.510   4.288   6.493  0.0608  0.6005 -0.4788
 2542SOL    HW119085   0.517   4.197   6.521 -0.6822  1.1041  1.3279
 2542SOL    HW219086   0.499   4.334   6.576  0.9048 -0.4128  0.1960
 2543SOL     OW19087   1.704   0.877   1.309  0.0406 -0.4010  0.0794
 2543SOL    HW119088   1.726   0.913   1.223 -1.3000  0.7357  0.2213
 2543SOL    HW219089   1.792   0.851   1.338  0.2950 -1.1384 -1.3347
 2544SOL     OW19090   4.026   2.237   1.592  0.1052 -0.8268  0.1930
 2544SOL    HW119091   4.076   2.166   1.631  0.2741 -0.0449  1.4203
 2544SOL    HW219092   3.934   2.223   1.616  0.2090 -2.3278 -0.3161
 2545SOL     OW19093   3.018   1.588   4.683  0.0484  0.3416  0.5025
 2545SOL    HW119094   2.946   1.525   4.679  1.0558 -0.6818 -1.6785
 2545SOL    HW219095   3.086   1.522   4.699 -2.4556 -2.4518 -0.5138
 2546SOL     OW19096   2.879   0.301   7.860  0.3905  0.0922  0.0585
 2546SOL    HW119097   2.851   0.392   7.867  0.2098 -0.0857  1.6694
 2546SOL    HW219098   2.801   0.247   7.873  1.7699 -0.8446  4.5410
 2547SOL     OW19099   3.726   2.955   4.626  0.1474 -0.5736  0.7464
 2547SOL    HW119100   3.753   3.028   4.681  1.7152  0.3687 -1.2895
 2547SOL    HW219101   3.789   2.892   4.659  0.5383 -0.2425  0.6243
 2548SOL     OW19102   4.470   1.904   0.182 -0.2277  0.4728  0.5556
 2548SOL    HW119103   4.518   1.822   0.197  1.8162  1.7051  0.7392
 2548SOL    HW219104   4.493   1.907   0.089 -1.3635  0.2236  0.2695
 2549SOL     OW19105   3.775   0.965   8.606 -0.4370  0.2585  0.4743
 2549SOL    HW119106   3.780   1.041   8.664  1.6056 -0.3663  1.1352
 2549SOL    HW219107   3.691   0.931   8.638 -0.3706  0.9819  1.4105
 2550SOL     OW19108   4.251   1.376   3.524 -0.1882 -0.9915 -0.3088
 2550SOL    HW119109   4.167   1.331   3.535  0.2219 -1.3821  1.1846
 2550SOL    HW219110   4.232   1.448   3.464 -0.4492 -0.9861 -0.2191
 2551SOL     OW19111   0.189   4.645   2.694 -0.5422 -0.0394 -0.0267
 2551SOL    HW119112   0.137   4.614   2.768  1.0872 -0.1400  1.0757
 2551SOL    HW219113   0.138   4.719   2.662  0.5590  0.8171  0.1884
 2552SOL     OW19114   0.173   0.317  16.758  0.6361 -0.1295 -0.1602
 2552SOL    HW119115   0.252   0.265  16.774 -1.1958 -2.6413  0.7151
 2552SOL    HW219116   0.194   0.406  16.788  0.1183 -0.6348  1.7197
 2553SOL     OW19117   2.060   4.266   1.227  0.1304  0.5354  0.1671
 2553SOL    HW119118   2.096   4.336   1.172  1.0309 -0.3870 -0.4233
 2553SOL    HW219119   2.134   4.205   1.231 -1.4062 -1.3687 -0.8752
 2554SOL     OW19120   3.691   0.634   5.373 -0.2413 -0.3020  0.0030
 2554SOL    HW119121   3.727   0.557   5.330 -0.5542 -0.8818  0.7637
 2554SOL    HW219122   3.711   0.705   5.312  0.7488 -1.6047 -1.1622
 2555SOL     OW19123   1.417   0.843  12.172  0.1721  0.1335  0.4252
 2555SOL    HW119124   1.371   0.893  12.105  0.0932  1.5023  1.5113
 2555SOL    HW219125   1.479   0.910  12.200  0.1424  0.9027 -1.3246
 2556SOL     OW19126   1.454   0.443   2.472  0.1438 -0.2524 -0.0692
 2556SOL    HW119127   1.429   0.524   2.517  1.3459 -0.4853  1.0027
 2556SOL    HW219128   1.499   0.394   2.540  0.3255 -1.3068 -0.9589
 2557SOL     OW19129   4.118   2.711   2.509  0.0382 -0.5967 -0.0603
 2557SOL    HW119130   4.121   2.672   2.597 -1.2127  1.4982  0.9039
 2557SOL    HW219131   4.209   2.702   2.480  0.8116 -1.0516  2.5088
 2558SOL     OW19132   0.052   0.467   5.916  0.1660 -0.1290  0.0048
 2558SOL    HW119133   0.139   0.472   5.955  1.0376  2.1487 -2.2239
 2558SOL    HW219134   0.000   0.522   5.975 -0.2274  0.3668 -0.8159
 2559SOL     OW19135   4.628   2.734   9.280 -0.0127  0.7733 -0.0702
 2559SOL    HW119136   4.534   2.720   9.288  0.1665 -0.5156 -0.1265
 2559SOL    HW219137   4.631   2.813   9.333 -0.0591 -0.1042  1.2448
 2560SOL     OW19138   3.686   4.414   3.735  0.7991 -0.5197  0.5879
 2560SOL    HW119139   3.675   4.469   3.657 -3.2620 -0.1454  1.3988
 2560SOL    HW219140   3.620   4.346   3.723 -0.4190  0.7464  0.1070
 2561SOL     OW19141   4.033   3.259  11.556 -0.1594 -1.0021 -0.2162
 2561SOL    HW119142   4.058   3.325  11.493 -2.2051  0.5453  0.5921
 2561SOL    HW219143   4.044   3.183  11.499 -0.8357 -0.3122 -1.2504
 2562SOL     OW19144   4.671   0.664  15.810  0.1944 -0.1816  0.1176
 2562SOL    HW119145   4.643   0.614  15.734 -1.6079 -0.6331  1.1055
 2562SOL    HW219146   4.678   0.600  15.880  1.1182  0.0151  0.2093
 2563SOL     OW19147   3.537   3.264   3.432 -0.6864  0.2485 -0.8804
 2563SOL    HW119148   3.593   3.189   3.452 -0.5608  0.0782 -1.8777
 2563SOL    HW219149   3.503   3.271   3.521  0.2115 -1.5851 -0.3929
 2564SOL     OW19150   3.126   3.431   3.905  0.0722  0.1152  0.5669
 2564SOL    HW119151   3.157   3.367   3.841  1.0608  0.0234  1.1366
 2564SOL    HW219152   3.205   3.431   3.959  0.4656 -0.6336 -0.0138
 2565SOL     OW19153   2.575   2.716   8.202  0.0987  0.8768 -0.2965
 2565SOL    HW119154   2.659   2.760   8.218 -0.1434  1.4339 -0.5658
 2565SOL    HW219155   2.588   2.709   8.107  0.4264 -0.1888 -0.1747
 2566SOL     OW19156   0.615   2.627   7.697 -0.0735 -0.4973  0.3858
 2566SOL    HW119157   0.640   2.718   7.681  0.4581 -0.9735 -1.4963
 2566SOL    HW219158   0.668   2.577   7.635 -0.0352 -0.1762  0.1591
 2567SOL     OW19159   2.088   0.112  12.909  0.0240  0.9862  0.0459
 2567SOL    HW119160   2.166   0.058  12.924  0.2847  1.8398  1.7698
 2567SOL    HW219161   2.067   0.074  12.824  1.8096 -1.7042  0.8294
 2568SOL     OW19162   0.030   2.759   4.935  0.2596  0.5010 -0.1961
 2568SOL    HW119163   0.013   2.819   5.008  2.7773 -0.0116  0.8103
 2568SOL    HW219164   0.125   2.764   4.929  0.3900 -1.9860 -0.1060
 2569SOL     OW19165   0.369   4.638   9.442 -0.6308 -0.1581  0.1050
 2569SOL    HW119166   0.284   4.680   9.429  0.7226  2.9302  1.1787
 2569SOL    HW219167   0.346   4.550   9.414  1.2584  0.1549 -2.3709
 2570SOL     OW19168   0.976   4.465   0.398 -0.5349 -0.1493  0.0261
 2570SOL    HW119169   0.917   4.517   0.453  0.7938  2.1263 -0.7298
 2570SOL    HW219170   1.017   4.523   0.334 -3.5305  2.5417  0.5214
 2571SOL     OW19171   3.364   0.447  11.405  0.2155 -0.0964  0.1381
 2571SOL    HW119172   3.385   0.537  11.381  0.6988  0.0314  1.0322
 2571SOL    HW219173   3.449   0.408  11.424  0.7036  0.7325 -0.3250
 2572SOL     OW19174   1.323   0.314   6.437 -0.5563  0.2763  0.4546
 2572SOL    HW119175   1.270   0.237   6.416  0.1802  0.5648 -2.4072
 2572SOL    HW219176   1.258   0.384   6.425 -1.6355 -0.5485  1.4633
 2573SOL     OW19177   1.261   0.506   3.219  0.5395 -0.5944  0.6065
 2573SOL    HW119178   1.234   0.431   3.167  1.6890  0.5270 -1.6210
 2573SOL    HW219179   1.351   0.514   3.187  0.4084 -1.1268  0.1012
 2574SOL     OW19180   0.801   1.988   2.545 -0.1601 -0.2185  0.2375
 2574SOL    HW119181   0.863   2.025   2.608  0.8278 -0.0146 -0.8657
 2574SOL    HW219182   0.722   2.003   2.597 -0.8625 -0.8984 -0.6268
 2575SOL     OW19183   0.940   1.675  16.763  0.0388 -0.0144 -0.0132
 2575SOL    HW119184   0.928   1.715  16.677  3.7223 -0.4708 -0.7070
 2575SOL    HW219185   0.926   1.748  16.824 -0.5836  0.2599 -0.4877
 2576SOL     OW19186   0.297   2.049  12.480 -0.2032 -0.6798 -0.0467
 2576SOL    HW119187   0.343   2.080  12.402  1.1255 -1.9214  0.2466
 2576SOL    HW219188   0.246   2.126  12.506  2.0896  1.0331 -0.6519
 2577SOL     OW19189   1.374   1.052   2.866  0.3647 -0.2147 -0.3987
 2577SOL    HW119190   1.339   0.991   2.932  2.4321 -0.5378  0.4060
 2577SOL    HW219191   1.294   1.093   2.833 -0.5943 -0.0490  2.0436
 2578SOL     OW19192   1.225   1.485   4.162 -0.3765 -0.5409 -0.0286
 2578SOL    HW119193   1.284   1.493   4.086 -1.5397  1.4490 -0.7138
 2578SOL    HW219194   1.150   1.444   4.120  1.5416 -3.5226 -0.5786
 2579SOL     OW19195   2.655   0.950   6.042 -0.6756 -0.3130  0.1840
 2579SOL    HW119196   2.727   1.010   6.060  0.0646 -0.7246 -1.4402
 2579SOL    HW219197   2.588   1.014   6.018 -0.5539 -0.2612 -0.0136
 2580SOL     OW19198   0.791   2.889   0.463 -0.5231  0.4787 -0.3752
 2580SOL    HW119199   0.843   2.809   0.470 -0.3164  0.7934  1.8204
 2580SOL    HW219200   0.857   2.957   0.479 -0.6385 -0.3358  3.6514
 2581SOL     OW19201   0.355   0.289   2.129 -0.7132 -0.1297  0.0118
 2581SOL    HW119202   0.323   0.203   2.157 -0.4686  0.0180  0.7671
 2581SOL    HW219203   0.391   0.267   2.043  0.3368 -0.5292  0.5494
 2582SOL     OW19204   3.357   1.094   7.542  0.0669 -0.0633 -0.3720
 2582SOL    HW119205   3.369   1.184   7.511 -2.1992  0.7435  1.0388
 2582SOL    HW219206   3.448   1.065   7.550  1.6828  5.7682  3.0436
 2583SOL     OW19207   4.112   4.175  10.283  0.3407 -0.3610  0.0502
 2583SOL    HW119208   4.201   4.169  10.317  0.6394  0.5894 -0.5529
 2583SOL    HW219209   4.129   4.144  10.194 -0.3938  0.4222 -0.3670
 2584SOL     OW19210   1.440   1.260   6.768 -0.6262 -0.2299 -0.2625
 2584SOL    HW119211   1.493   1.260   6.688 -1.1615 -0.9120 -0.6077
 2584SOL    HW219212   1.405   1.171   6.768  1.2313 -0.9703 -0.7788
 2585SOL     OW19213   3.492   0.477   9.063  0.1414  0.6502 -0.1514
 2585SOL    HW119214   3.453   0.398   9.026  1.8828  1.1664 -3.0591
 2585SOL    HW219215   3.532   0.437   9.140  2.4868  0.1672 -1.6053
 2586SOL     OW19216   3.879   0.090   6.725  0.1672  0.1583  0.2856
 2586SOL    HW119217   3.861   0.182   6.744 -1.4236  0.1795 -1.3336
 2586SOL    HW219218   3.882   0.081   6.629 -2.4988  1.1840  0.1298
 2587SOL     OW19219   1.528   2.713   4.237 -0.0029 -0.6627 -0.3698
 2587SOL    HW119220   1.582   2.646   4.277  2.0386  0.1072 -1.8342
 2587SOL    HW219221   1.514   2.679   4.148  0.4494 -0.2605 -0.5978
 2588SOL     OW19222   1.299   4.292  14.412  0.0812 -0.1647  0.1602
 2588SOL    HW119223   1.264   4.279  14.324 -0.8201  0.1917  0.4683
 2588SOL    HW219224   1.223   4.273  14.468  2.0925 -2.8626  1.9742
 2589SOL     OW19225   1.074   3.430   6.457  0.1350  0.1616  0.0456
 2589SOL    HW119226   1.092   3.354   6.513 -2.0137  0.3760  1.0156
 2589SOL    HW219227   1.159   3.454   6.419 -0.9595  2.6068 -0.8139
 2590SOL     OW19228   1.582   2.807   8.233 -0.0179  0.7587  0.1000
 2590SOL    HW119229   1.587   2.712   8.220  0.0097  1.0363 -1.9616
 2590SOL    HW219230   1.669   2.839   8.208  1.3832 -0.7168  3.0564
 2591SOL     OW19231   3.133   4.425  15.065  0.1883 -0.1687  0.5717
 2591SOL    HW119232   3.196   4.428  14.993  1.3126 -2.0831  1.4783
 2591SOL    HW219233   3.203   4.445  15.128  1.0074  0.6676 -0.6043
 2592SOL     OW19234   0.829   2.947   7.871  0.1819 -0.5855 -0.0284
 2592SOL    HW119235   0.755   2.887   7.865 -0.6247  0.2293  1.7741
 2592SOL    HW219236   0.897   2.886   7.901  0.5344  0.6145  1.6438
 2593SOL     OW19237   4.035   2.888   9.063  0.4615  0.0454 -0.1422
 2593SOL    HW119238   4.078   2.811   9.101 -0.9915 -0.0199  1.3410
 2593SOL    HW219239   4.001   2.854   8.980  1.0652  0.1016 -0.4137
 2594SOL     OW19240   1.753   1.837   3.925  0.0298  0.2591  0.2205
 2594SOL    HW119241   1.781   1.926   3.943 -0.5492  0.2566  1.1571
 2594SOL    HW219242   1.835   1.792   3.943  1.0394  1.5114 -1.2547
 2595SOL     OW19243   4.328   4.281   7.841  0.0171  0.2430 -0.2397
 2595SOL    HW119244   4.325   4.187   7.826  0.3994  0.0598  0.8547
 2595SOL    HW219245   4.379   4.312   7.766 -0.1138 -0.0597 -0.4545
 2596SOL     OW19246   3.842   0.761   3.925 -0.6794  0.3074 -0.0084
 2596SOL    HW119247   3.926   0.735   3.962 -1.5305 -1.2749  0.7990
 2596SOL    HW219248   3.793   0.681   3.909  3.6665 -2.4208  0.2878
 2597SOL     OW19249   0.209   0.263   8.927  0.3342 -0.4047 -0.8834
 2597SOL    HW119250   0.127   0.260   8.879 -1.0503 -0.0307  1.4431
 2597SOL    HW219251   0.272   0.247   8.857  1.2526 -1.3106  0.1559
 2598SOL     OW19252   2.201   0.649   5.112 -0.0667  0.3201  0.1504
 2598SOL    HW119253   2.134   0.672   5.176  3.0295  0.5653  3.3269
 2598SOL    HW219254   2.181   0.555   5.109  0.8436  0.1297 -0.2043
 2599SOL     OW19255   3.550   0.293   1.560  0.0185  0.1784 -0.7183
 2599SOL    HW119256   3.522   0.203   1.549  1.0293 -0.5644  2.8774
 2599SOL    HW219257   3.556   0.295   1.655  1.1990  0.9508 -0.7979
 2600SOL     OW19258   1.473   2.437   2.149 -0.2679  0.2639 -0.5691
 2600SOL    HW119259   1.545   2.447   2.087 -0.1090 -0.8279 -0.5556
 2600SOL    HW219260   1.436   2.526   2.145  1.4968  1.0965  1.6526
 2601SOL     OW19261   4.126   2.943   6.790  0.3474  0.1720 -0.0176
 2601SOL    HW119262   4.072   2.976   6.862  0.5332 -0.7357  0.5309
 2601SOL    HW219263   4.123   3.013   6.725  0.8061  0.4726  0.2821
 2602SOL     OW19264   1.626   2.085  10.445  0.2332 -0.1773 -0.4503
 2602SOL    HW119265   1.722   2.075  10.443  0.3077  0.4407  0.0020
 2602SOL    HW219266   1.592   2.007  10.487 -0.6562  0.0575 -0.7391
 2603SOL     OW19267   1.429   3.544   7.047 -0.6107 -0.3654 -0.0518
 2603SOL    HW119268   1.389   3.468   7.088  0.2783 -0.3618  0.8372
 2603SOL    HW219269   1.404   3.521   6.957 -3.1454 -0.3270  0.6605
 2604SOL     OW19270   0.684   1.440   4.886 -0.0085 -0.1010  0.6112
 2604SOL    HW119271   0.762   1.443   4.831 -1.5302 -0.6562 -1.5579
 2604SOL    HW219272   0.709   1.370   4.947  1.0669  0.2367  0.5523
 2605SOL     OW19273   2.265   4.351  10.240  0.5973 -0.1777 -0.1470
 2605SOL    HW119274   2.299   4.268  10.272 -1.0608 -1.7084 -2.3764
 2605SOL    HW219275   2.242   4.387  10.325  1.3068 -0.8537  0.3331
 2606SOL     OW19276   4.407   1.849   7.064 -0.5336 -0.0882  0.2728
 2606SOL    HW119277   4.384   1.913   6.997 -0.5906  1.4656  1.7860
 2606SOL    HW219278   4.355   1.888   7.134 -1.6524  1.0493 -1.1833
 2607SOL     OW19279   0.298   4.061   3.546 -0.2950  0.0320 -0.0458
 2607SOL    HW119280   0.216   4.061   3.496 -0.2352  0.2120 -0.1444
 2607SOL    HW219281   0.357   4.101   3.482 -1.5211  0.5606 -0.8486
 2608SOL     OW19282   4.172   4.079   6.155 -0.1883 -0.0654 -0.4291
 2608SOL    HW119283   4.254   4.038   6.128 -0.9314 -1.2659 -0.8949
 2608SOL    HW219284   4.109   4.032   6.099  1.0575 -0.8546 -1.1678
 2609SOL     OW19285   3.832   0.173   9.622 -0.3100 -0.3680 -0.2448
 2609SOL    HW119286   3.774   0.172   9.697 -1.0863  0.4168 -0.8410
 2609SOL    HW219287   3.859   0.265   9.622  0.7641 -0.6781 -0.6139
 2610SOL     OW19288   1.158   3.867   0.297 -0.1949  0.0798 -0.3121
 2610SOL    HW119289   1.195   3.782   0.273 -2.6734 -1.3714  0.9404
 2610SOL    HW219290   1.211   3.911   0.231 -0.0921  0.7326  0.2088
 2611SOL     OW19291   1.421   4.280   4.591 -0.3341 -0.2548  0.3045
 2611SOL    HW119292   1.351   4.295   4.528  1.2935 -1.3830 -1.7737
 2611SOL    HW219293   1.415   4.361   4.642 -2.1957 -0.7175  0.8146
 2612SOL     OW19294   1.397   1.258   3.755  0.9184  0.3097 -0.3512
 2612SOL    HW119295   1.468   1.280   3.695  0.9217 -0.6586 -0.6952
 2612SOL    HW219296   1.347   1.191   3.709 -0.2734  0.8325  0.1539
 2613SOL     OW19297   3.734   1.846  12.590  0.0423 -0.2043 -0.3399
 2613SOL    HW119298   3.709   1.938  12.598  0.0600 -0.2461  0.1784
 2613SOL    HW219299   3.821   1.858  12.553  0.6924  0.9106  1.5680
 2614SOL     OW19300   0.001   4.035   7.185  0.5350  0.0295 -0.0981
 2614SOL    HW119301   0.024   4.070   7.099  1.5799 -0.3928  0.0110
 2614SOL    HW219302   0.076   3.978   7.202  0.7559  0.5001  0.5140
 2615SOL     OW19303   2.860   3.460   3.946 -0.4951 -0.1203  0.0699
 2615SOL    HW119304   2.951   3.439   3.927 -0.2937  0.4207  0.4165
 2615SOL    HW219305   2.834   3.378   3.987 -0.9326 -0.8632 -1.7106
 2616SOL     OW19306   1.162   4.517   3.648  0.5781  0.6398 -0.8423
 2616SOL    HW119307   1.238   4.531   3.591 -1.3866  0.1127 -3.5378
 2616SOL    HW219308   1.110   4.593   3.623  0.4532  0.7090 -0.3733
 2617SOL     OW19309   2.694   1.284  15.713 -0.0494 -0.2682 -0.3936
 2617SOL    HW119310   2.750   1.278  15.791  1.3238  2.3665 -1.1702
 2617SOL    HW219311   2.635   1.209  15.715 -0.2659 -0.0589  0.9247
 2618SOL     OW19312   0.114   1.102   4.338 -0.0236 -0.5548 -0.0498
 2618SOL    HW119313   0.130   1.009   4.328  0.9302 -0.2382 -1.3054
 2618SOL    HW219314   0.181   1.125   4.275 -1.0158  0.8695 -0.5988
 2619SOL     OW19315   3.736   3.812   6.128  0.0777  0.0515  0.6818
 2619SOL    HW119316   3.733   3.717   6.136  0.1146  0.1899  2.4623
 2619SOL    HW219317   3.654   3.837   6.171 -0.8543  1.5190 -1.9734
 2620SOL     OW19318   1.732   3.885  14.289  0.3196  0.3713 -0.1340
 2620SOL    HW119319   1.827   3.872  14.292  0.2565 -0.4207 -1.3091
 2620SOL    HW219320   1.710   3.806  14.238 -3.2473  3.2761 -3.0649
 2621SOL     OW19321   4.490   0.459   3.898  0.3762  0.7978  0.2896
 2621SOL    HW119322   4.556   0.460   3.829 -0.7978  0.0690 -0.8487
 2621SOL    HW219323   4.454   0.539   3.860 -2.0704  0.5924  2.1917
 2622SOL     OW19324   0.091   1.867  16.212  0.2500  0.5100 -0.1447
 2622SOL    HW119325   0.129   1.788  16.175  0.6453  0.0759  1.1753
 2622SOL    HW219326   0.166   1.925  16.195  0.4904  0.9513  2.3319
 2623SOL     OW19327   0.926   1.950   9.314  0.5457  0.0705 -0.0873
 2623SOL    HW119328   0.867   2.004   9.367 -0.1637 -1.1618  0.3716
 2623SOL    HW219329   0.972   2.021   9.269  1.0735 -0.0302  0.2983
 2624SOL     OW19330   4.203   1.393   8.932 -0.0893  0.4296 -0.2462
 2624SOL    HW119331   4.131   1.342   8.895 -1.1293  0.8053  1.2454
 2624SOL    HW219332   4.166   1.390   9.020 -0.3279 -0.2506 -0.3686
 2625SOL     OW19333   2.978   0.746  13.789 -0.0451  0.1360 -0.1566
 2625SOL    HW119334   3.065   0.749  13.748 -0.3898  1.3852 -0.7756
 2625SOL    HW219335   2.941   0.823  13.746  0.0112 -0.5723 -1.5037
 2626SOL     OW19336   1.977   4.066   4.943 -0.1313 -0.5858 -0.5718
 2626SOL    HW119337   1.905   4.097   4.888 -1.0347  1.4721  1.7605
 2626SOL    HW219338   2.045   4.085   4.878  0.1208 -1.6718 -0.6252
 2627SOL     OW19339   2.789   3.609  11.327  0.2602 -0.8889 -0.0205
 2627SOL    HW119340   2.884   3.614  11.342  0.3449  1.3170 -1.4228
 2627SOL    HW219341   2.759   3.588  11.415 -0.1188 -0.1150  0.0328
 2628SOL     OW19342   0.319   0.567   9.576 -0.4185 -0.0997  0.0904
 2628SOL    HW119343   0.363   0.483   9.564 -1.5743 -0.8731  1.2743
 2628SOL    HW219344   0.326   0.605   9.488 -0.1423 -1.4063 -0.4654
 2629SOL     OW19345   0.067   2.130   7.912  0.3249  0.4706  0.3682
 2629SOL    HW119346   0.003   2.164   7.849  0.1590  0.5885  0.6001
 2629SOL    HW219347   0.111   2.211   7.940 -0.1556  1.3560 -1.4108
 2630SOL     OW19348   0.912   1.285   8.389  0.2546 -0.2304  0.0571
 2630SOL    HW119349   0.986   1.343   8.372  0.0391  0.3696  1.1696
 2630SOL    HW219350   0.852   1.340   8.439  1.3484  0.4675  0.6138
 2631SOL     OW19351   0.167   3.907  11.759 -0.4077 -0.1045  0.7113
 2631SOL    HW119352   0.164   3.866  11.845  3.2452 -0.0192  0.8758
 2631SOL    HW219353   0.230   3.974  11.786 -2.0999  2.1196 -0.8634
 2632SOL     OW19354   4.147   3.723   6.181 -0.1966 -0.0181 -0.1608
 2632SOL    HW119355   4.126   3.720   6.088  1.3871  0.2842 -0.5226
 2632SOL    HW219356   4.232   3.767   6.174 -0.2762  0.0362 -0.7915
 2633SOL     OW19357   1.019   4.368  13.225 -0.6365 -0.3745  0.2553
 2633SOL    HW119358   0.936   4.336  13.259  0.3830  0.1907  3.2961
 2633SOL    HW219359   1.023   4.324  13.141 -1.0811  0.3480 -0.1453
 2634SOL     OW19360   1.032   4.530   7.461  0.1954  0.2430  0.2525
 2634SOL    HW119361   1.047   4.604   7.402  0.6891  0.1101  0.2092
 2634SOL    HW219362   0.981   4.473   7.404 -2.8281  2.6757  0.5064
 2635SOL     OW19363   2.281   1.510   7.827 -0.3926 -0.5024 -0.1245
 2635SOL    HW119364   2.275   1.416   7.840 -1.1553 -0.6513 -1.6090
 2635SOL    HW219365   2.248   1.522   7.738  1.8244 -2.3524 -1.1919
 2636SOL     OW19366   2.474   4.180   8.386 -0.7866  0.3269 -0.4100
 2636SOL    HW119367   2.431   4.208   8.467  0.6338 -1.6755  1.0403
 2636SOL    HW219368   2.564   4.179   8.418 -0.6479  0.8578 -0.7976
 2637SOL     OW19369   2.516   0.378  16.536 -0.2986 -0.7250  0.1248
 2637SOL    HW119370   2.485   0.393  16.447 -1.3634 -0.5119  0.5285
 2637SOL    HW219371   2.514   0.467  16.569  3.4726 -1.0154  1.0940
 2638SOL     OW19372   1.321   1.390   5.189  0.0447  0.0918  0.1954
 2638SOL    HW119373   1.379   1.398   5.264  0.7373 -0.1095 -0.3160
 2638SOL    HW219374   1.302   1.296   5.188 -0.6930  0.2504 -1.5828
 2639SOL     OW19375   2.891   3.730   1.001  0.1135  0.1474 -0.2716
 2639SOL    HW119376   2.932   3.654   1.042 -1.2678  0.1752  1.1526
 2639SOL    HW219377   2.969   3.784   0.985  0.1245  0.1846 -0.0889
 2640SOL     OW19378   1.146   4.589  12.164 -0.6954  0.4018 -0.3868
 2640SOL    HW119379   1.225   4.556  12.122  0.1062 -1.2470  2.3877
 2640SOL    HW219380   1.180   4.597  12.253  0.0081 -0.2644 -0.5948
 2641SOL     OW19381   2.862   1.928   7.883  0.7599  0.1536 -0.5197
 2641SOL    HW119382   2.925   1.858   7.897  2.0430  1.8896  2.2166
 2641SOL    HW219383   2.812   1.897   7.808  0.0419 -0.2236  0.1199
 2642SOL     OW19384   0.410   1.642   2.224 -0.1033  0.1441  0.3726
 2642SOL    HW119385   0.473   1.571   2.209 -1.4284 -1.9277  4.5873
 2642SOL    HW219386   0.454   1.680   2.300  2.0912  0.7753 -1.2296
 2643SOL     OW19387   2.350   0.545   3.753  0.5800  0.1701 -0.1903
 2643SOL    HW119388   2.363   0.637   3.779 -1.3655 -0.1703  2.0215
 2643SOL    HW219389   2.331   0.559   3.661 -0.9954 -0.5069  0.0294
 2644SOL     OW19390   0.843   0.329   4.196  0.4709  0.8653  0.0685
 2644SOL    HW119391   0.777   0.279   4.243  0.2416  0.0815 -1.0643
 2644SOL    HW219392   0.923   0.312   4.245  1.1222 -0.1592 -1.3135
 2645SOL     OW19393   1.356   2.684   5.694 -0.0678  0.0727  0.4524
 2645SOL    HW119394   1.285   2.660   5.635  0.4640 -1.0650  0.2781
 2645SOL    HW219395   1.319   2.764   5.731 -0.2787  0.2784 -0.1909
 2646SOL     OW19396   0.805   0.014   5.072  0.0582 -0.6339 -0.0814
 2646SOL    HW119397   0.846   0.099   5.091 -2.7532  0.7508 -0.3213
 2646SOL    HW219398   0.873   4.679   5.107  1.1103  0.5364 -0.1661
 2647SOL     OW19399   1.297   0.968   6.228 -0.6561  0.2195  0.3975
 2647SOL    HW119400   1.378   1.000   6.266 -0.8961  0.2782  0.8652
 2647SOL    HW219401   1.330   0.963   6.138 -0.5773  0.2775  0.4236
 2648SOL     OW19402   2.707   1.031  16.362  0.0639  0.2873 -0.2650
 2648SOL    HW119403   2.679   1.073  16.281 -0.4297 -0.9460 -0.7215
 2648SOL    HW219404   2.794   1.001  16.335  0.4893 -0.0606  1.4578
 2649SOL     OW19405   1.329   2.080   8.101 -0.4812 -0.1170 -0.1092
 2649SOL    HW119406   1.346   2.034   8.019 -1.1176  0.0002 -0.3091
 2649SOL    HW219407   1.264   2.020   8.138  0.9785 -2.0202 -0.6381
 2650SOL     OW19408   1.540   0.041   7.748  0.2791 -0.1376 -0.7649
 2650SOL    HW119409   1.458   0.053   7.701  0.0877  1.8113  0.0617
 2650SOL    HW219410   1.578   4.682   7.717 -0.0030 -0.9954  1.1467
 2651SOL     OW19411   0.950   0.642   8.656 -0.0128 -0.3625 -0.1031
 2651SOL    HW119412   0.982   0.569   8.709 -1.6643 -1.5151 -0.6925
 2651SOL    HW219413   0.891   0.686   8.718  1.1237 -0.1002  0.7899
 2652SOL     OW19414   1.137   3.076   0.198 -0.6369  0.1204  0.4940
 2652SOL    HW119415   1.118   3.037   0.113 -3.6239  0.9587  0.7804
 2652SOL    HW219416   1.086   3.020   0.256  2.8067 -0.9720  2.4834
 2653SOL     OW19417   2.613   3.121   4.835  0.1364  0.4496  0.1421
 2653SOL    HW119418   2.596   3.213   4.854 -3.7222  0.1341 -1.9361
 2653SOL    HW219419   2.554   3.113   4.760 -1.4271 -1.1430  1.5490
 2654SOL     OW19420   3.674   3.585   2.505  0.1380 -0.2791 -0.4812
 2654SOL    HW119421   3.722   3.565   2.425 -1.3110  0.3188 -1.4919
 2654SOL    HW219422   3.595   3.533   2.491  0.0840  0.6768 -3.4998
 2655SOL     OW19423   2.307   1.271   8.046 -0.0801  0.1796  0.7549
 2655SOL    HW119424   2.279   1.187   8.080 -0.3331  0.4985  1.3398
 2655SOL    HW219425   2.252   1.333   8.094  0.1178  1.8277 -1.1689
 2656SOL     OW19426   0.465   0.808   3.952  0.8355 -0.6363 -0.1362
 2656SOL    HW119427   0.476   0.759   4.033  0.6544  0.0359  0.2998
 2656SOL    HW219428   0.534   0.772   3.895  0.4439  0.0390 -1.0482
 2657SOL     OW19429   3.310   0.645   4.997  0.0137  0.4677 -0.6513
 2657SOL    HW119430   3.343   0.662   5.086 -2.0724  1.5725 -0.0851
 2657SOL    HW219431   3.355   0.712   4.946 -1.2968  1.7666 -0.1101
 2658SOL     OW19432   3.038   1.573   6.247 -0.7348 -0.1789  0.4446
 2658SOL    HW119433   3.027   1.569   6.342 -1.7997 -2.6649  0.1878
 2658SOL    HW219434   3.115   1.630   6.238 -1.4619  1.3124  3.5232
 2659SOL     OW19435   0.172   1.134   9.079 -0.1150  0.1609 -0.0379
 2659SOL    HW119436   0.219   1.158   9.159  1.8404 -1.0213 -0.8242
 2659SOL    HW219437   0.105   1.202   9.071 -1.4106 -1.0508  0.5620
 2660SOL     OW19438   3.029   4.203  16.042 -0.7277  0.2582 -0.0194
 2660SOL    HW119439   3.022   4.218  16.136 -1.2627  4.2956 -0.7060
 2660SOL    HW219440   3.114   4.242  16.024 -0.6376  0.4718  0.9025
 2661SOL     OW19441   0.680   2.836   8.796  0.6720  0.1523 -0.5578
 2661SOL    HW119442   0.641   2.752   8.818 -0.7704  0.2592 -2.7142
 2661SOL    HW219443   0.635   2.898   8.854 -2.4015 -2.2902 -0.3688
 2662SOL     OW19444   0.137   0.311   1.128 -0.2687 -0.3985  0.7309
 2662SOL    HW119445   0.059   0.317   1.183 -0.1554 -0.0442  0.8587
 2662SOL    HW219446   0.200   0.348   1.190  0.7768 -0.0830 -0.5287
 2663SOL     OW19447   0.635   4.177   4.779 -0.1115  0.1333  0.1299
 2663SOL    HW119448   0.690   4.124   4.722  1.8001  0.3794  1.7522
 2663SOL    HW219449   0.555   4.126   4.767  0.0545  0.1111 -0.9146
 2664SOL     OW19450   1.082   2.751   0.779  0.1101  0.4204  0.2846
 2664SOL    HW119451   1.145   2.774   0.712  0.9140 -2.5141  0.0381
 2664SOL    HW219452   1.029   2.830   0.788 -0.1877  0.3107 -0.5138
 2665SOL     OW19453   4.327   4.480  14.147 -0.2224 -0.1020 -0.1679
 2665SOL    HW119454   4.235   4.467  14.125  0.0460 -1.0264 -0.7464
 2665SOL    HW219455   4.326   4.550  14.212 -0.1403  0.0561 -0.3362
 2666SOL     OW19456   0.191   1.444   1.865  0.3997 -0.5403  0.0547
 2666SOL    HW119457   0.257   1.390   1.908  1.3360  1.0883  0.6759
 2666SOL    HW219458   0.161   1.513   1.925  1.5201 -1.8950  2.1619
 2667SOL     OW19459   1.159   3.199   6.588  0.3008  0.0855 -0.4655
 2667SOL    HW119460   1.132   3.124   6.642  2.9293 -1.3911 -1.2278
 2667SOL    HW219461   1.254   3.187   6.589  0.2130 -0.8382 -3.4785
 2668SOL     OW19462   0.719   0.510   9.587  0.2973  0.3635 -0.2106
 2668SOL    HW119463   0.738   0.416   9.583  1.5310  0.6244 -0.7167
 2668SOL    HW219464   0.709   0.526   9.494 -0.0624 -2.1732 -0.6225
 2669SOL     OW19465   3.995   4.257   8.001  0.4162 -0.3922 -0.6764
 2669SOL    HW119466   4.036   4.234   8.084 -0.7927 -0.0774  0.0099
 2669SOL    HW219467   3.918   4.288   8.049  1.9158 -1.0707  2.1549
 2670SOL     OW19468   0.491   2.432  16.380  0.0733 -0.2122  0.7961
 2670SOL    HW119469   0.417   2.375  16.402 -1.1823  1.4298  0.8637
 2670SOL    HW219470   0.547   2.373  16.329  0.2904  1.1410 -0.5304
 2671SOL     OW19471   0.175   1.021   3.651 -0.5139  0.1465 -0.2889
 2671SOL    HW119472   0.218   0.958   3.594 -1.5639  0.3658 -1.3196
 2671SOL    HW219473   0.197   1.098   3.598 -4.0905  0.9334 -0.6593
 2672SOL     OW19474   0.327   3.431   1.976  0.0392  0.2229  0.2892
 2672SOL    HW119475   0.408   3.384   1.998 -1.3443 -2.1839  0.3187
 2672SOL    HW219476   0.362   3.516   1.951  1.0184 -0.3739 -0.3797
 2673SOL     OW19477   2.265   2.850   7.385 -0.2509 -0.0421  0.2869
 2673SOL    HW119478   2.310   2.793   7.447  1.2509  1.1336  0.2744
 2673SOL    HW219479   2.175   2.838   7.414 -0.0830 -2.0701 -0.0059
 2674SOL     OW19480   2.825   2.797   8.984  0.7990  0.0624 -0.6001
 2674SOL    HW119481   2.798   2.706   8.997 -1.4285  1.0377  1.6425
 2674SOL    HW219482   2.780   2.843   9.055 -0.1005 -0.1571 -1.0183
 2675SOL     OW19483   0.425   4.549  15.687  0.1185 -0.1356  0.2546
 2675SOL    HW119484   0.469   4.633  15.691 -0.9506  0.4539 -0.2509
 2675SOL    HW219485   0.332   4.573  15.684  0.7144  2.0163 -0.2549
 2676SOL     OW19486   3.775   0.824   5.231 -0.1878 -0.7401 -0.0493
 2676SOL    HW119487   3.870   0.834   5.230 -0.1965 -0.5542  1.0728
 2676SOL    HW219488   3.747   0.905   5.189 -0.4140 -1.4088 -1.1798
 2677SOL     OW19489   3.306   3.189   0.601 -0.1428 -0.0257  0.4949
 2677SOL    HW119490   3.349   3.206   0.685  1.4249 -0.5119 -0.2041
 2677SOL    HW219491   3.230   3.242   0.623  1.1231  0.8128  2.8923
 2678SOL     OW19492   3.458   3.617   8.782 -0.5854  0.2369  0.4496
 2678SOL    HW119493   3.537   3.655   8.745 -0.0898 -2.1398 -0.9553
 2678SOL    HW219494   3.506   3.564   8.845 -0.0095 -0.2081 -0.3676
 2679SOL     OW19495   4.458   1.054   0.786 -0.2448  0.1642  0.0828
 2679SOL    HW119496   4.494   1.028   0.871  2.2310 -3.6728 -2.1013
 2679SOL    HW219497   4.534   1.098   0.749 -1.6455  1.7784 -0.8580
 2680SOL     OW19498   2.457   1.996   3.315 -0.1136  0.3530  0.4105
 2680SOL    HW119499   2.435   2.057   3.385  2.8785  1.2231  0.6127
 2680SOL    HW219500   2.546   1.970   3.340 -0.1099  0.9525  1.0017
 2681SOL     OW19501   2.120   1.965  15.086 -0.0827  0.6020  0.1258
 2681SOL    HW119502   2.056   1.898  15.060  0.2305  0.5786 -0.5796
 2681SOL    HW219503   2.176   1.913  15.144 -0.1336  0.3497 -0.0499
 2682SOL     OW19504   2.756   3.713  12.950 -0.0868  0.0119  0.1628
 2682SOL    HW119505   2.820   3.643  12.959 -0.8060 -0.5084  1.2404
 2682SOL    HW219506   2.810   3.783  12.988 -1.4649  0.9249  0.4554
 2683SOL     OW19507   2.237   4.169   6.108 -0.7006 -0.6280 -0.2226
 2683SOL    HW119508   2.256   4.082   6.140  0.9502  1.0848  3.4020
 2683SOL    HW219509   2.141   4.167   6.110 -0.6759 -1.1506  0.1507
 2684SOL     OW19510   4.360   0.436  12.910 -0.0349 -1.1760  0.5176
 2684SOL    HW119511   4.382   0.425  12.817 -0.0451 -1.9867  0.6102
 2684SOL    HW219512   4.426   0.499  12.939  0.0651 -1.8710  1.7992
 2685SOL     OW19513   2.714   0.546   0.924  0.1652  0.2198  0.1025
 2685SOL    HW119514   2.759   0.611   0.978 -0.3342  0.7033 -0.0691
 2685SOL    HW219515   2.683   0.612   0.862 -0.8641 -1.4050 -1.1141
 2686SOL     OW19516   3.463   3.699   2.737  0.3976 -0.0741 -0.0255
 2686SOL    HW119517   3.379   3.672   2.701  0.0154  0.3037  0.5857
 2686SOL    HW219518   3.454   3.660   2.824  0.9435  2.9879  1.4120
 2687SOL     OW19519   1.626   1.079   8.530 -0.0684  0.1225  0.6275
 2687SOL    HW119520   1.572   1.049   8.604  1.0868 -1.9440  0.6256
 2687SOL    HW219521   1.652   0.996   8.491 -1.6871 -0.5282  0.9373
 2688SOL     OW19522   3.229   4.574   3.742 -0.0999 -0.0168 -0.8358
 2688SOL    HW119523   3.183   4.493   3.765 -1.0223  0.9717  0.7557
 2688SOL    HW219524   3.154   4.630   3.759 -0.8334 -0.9831 -0.9057
 2689SOL     OW19525   0.840   1.692   2.082 -0.3826 -0.4412  0.0216
 2689SOL    HW119526   0.884   1.611   2.110  0.2378  0.0016  0.3175
 2689SOL    HW219527   0.803   1.727   2.163 -1.3510 -0.3908 -0.4436
 2690SOL     OW19528   1.291   3.714  14.752  0.3546 -0.2466 -0.0815
 2690SOL    HW119529   1.323   3.675  14.670 -1.6404  1.9079 -1.8839
 2690SOL    HW219530   1.373   3.714  14.801  1.8017 -0.4613 -2.4560
 2691SOL     OW19531   4.557   1.117   9.949 -1.0310  0.1956  0.1740
 2691SOL    HW119532   4.487   1.122  10.015  0.6084  3.7694  1.6060
 2691SOL    HW219533   4.634   1.150   9.996  0.3628 -1.5158 -0.9359
 2692SOL     OW19534   0.035   1.431  10.678 -0.4165 -0.2177 -0.6355
 2692SOL    HW119535   0.079   1.353  10.710  0.8121  0.6499 -0.2222
 2692SOL    HW219536   0.098   1.499  10.701 -0.1113 -1.7156  2.9229
 2693SOL     OW19537   3.825   2.204   3.185 -0.8878  0.5406  0.4365
 2693SOL    HW119538   3.806   2.295   3.209  1.1729  1.0830  0.0387
 2693SOL    HW219539   3.903   2.186   3.238  0.6317  1.2721 -1.5492
 2694SOL     OW19540   2.223   3.984   2.152 -0.1766  0.1051  0.2662
 2694SOL    HW119541   2.282   4.056   2.171  0.1370 -0.1566  0.2775
 2694SOL    HW219542   2.242   3.931   2.230 -0.8110 -1.0709 -0.3784
 2695SOL     OW19543   4.395   4.065   9.509 -0.3139  0.0954  0.2347
 2695SOL    HW119544   4.461   4.086   9.444  1.6931  1.7603  2.8113
 2695SOL    HW219545   4.405   4.145   9.560  2.2398 -0.9731  1.4301
 2696SOL     OW19546   0.295   4.596   6.150  0.1437  0.2294  0.5251
 2696SOL    HW119547   0.348   4.618   6.227  1.2377  2.2852 -0.8363
 2696SOL    HW219548   0.208   4.601   6.189  0.2856 -0.1228  0.8915
 2697SOL     OW19549   1.365   3.798   4.733  0.0989 -0.7749 -0.3450
 2697SOL    HW119550   1.459   3.809   4.715 -0.1496 -0.6113 -1.5296
 2697SOL    HW219551   1.325   3.878   4.699  0.0349 -0.6141  0.1203
 2698SOL     OW19552   1.393   0.057   3.104 -0.5089  0.3794 -0.5166
 2698SOL    HW119553   1.326   0.002   3.061  0.0310 -1.1188  0.5402
 2698SOL    HW219554   1.334   0.121   3.144 -1.5923 -0.7670 -0.2538
 2699SOL     OW19555   3.776   3.881  16.332 -0.2931 -0.2864  0.2433
 2699SOL    HW119556   3.820   3.918  16.255  1.1194 -1.3625  0.5521
 2699SOL    HW219557   3.801   3.935  16.407  0.3291 -1.6770  1.0164
 2700SOL     OW19558   2.832   0.176  14.555  0.8390  0.7804  0.2906
 2700SOL    HW119559   2.919   0.214  14.569  0.3102  1.5513  1.4476
 2700SOL    HW219560   2.768   0.244  14.575 -2.3844 -1.4992 -2.2725
 2701SOL     OW19561   2.750   0.222   4.148  0.7171 -0.2938 -0.8621
 2701SOL    HW119562   2.813   0.229   4.220  1.9603 -0.1968 -1.9520
 2701SOL    HW219563   2.706   0.145   4.182 -1.1909  0.9319 -0.5886
 2702SOL     OW19564   1.021   2.816   0.135 -0.1335  0.1450 -0.3875
 2702SOL    HW119565   0.977   2.732   0.147 -0.0325  0.2358  0.6089
 2702SOL    HW219566   0.971   2.868   0.071 -0.0041  1.9434  0.9550
 2703SOL     OW19567   0.036   0.638   9.950 -0.5564  0.8791 -0.2610
 2703SOL    HW119568   0.096   0.645  10.024 -2.2943 -0.9816  1.2987
 2703SOL    HW219569   0.091   0.675   9.880 -0.1459 -0.4555 -0.6499
 2704SOL     OW19570   2.697   3.917   4.557 -0.5548  0.3567 -0.1062
 2704SOL    HW119571   2.659   3.935   4.471  0.1889  0.6546 -0.3728
 2704SOL    HW219572   2.679   4.001   4.600  1.1926  1.0436 -0.6956
 2705SOL     OW19573   4.610   2.574   6.362 -0.0024  0.3568  0.2970
 2705SOL    HW119574   4.682   2.577   6.425  1.0953 -0.5335 -0.9010
 2705SOL    HW219575   4.550   2.514   6.406 -0.1866 -1.8900 -3.0356
 2706SOL     OW19576   4.053   0.499   7.909  0.1928  0.2337 -0.0888
 2706SOL    HW119577   4.084   0.443   7.980 -0.2533 -0.0608 -0.1258
 2706SOL    HW219578   4.123   0.559   7.882 -0.8148  1.1810 -0.6381
 2707SOL     OW19579   2.763   0.738   6.292  0.2688  0.0327 -0.4735
 2707SOL    HW119580   2.842   0.746   6.239  0.4348  0.6237 -0.1345
 2707SOL    HW219581   2.754   0.643   6.289  0.6939 -0.0554  0.8644
 2708SOL     OW19582   0.883   1.678   7.396 -0.0133  0.2111  0.3057
 2708SOL    HW119583   0.935   1.677   7.477 -0.2087  0.9154  0.4377
 2708SOL    HW219584   0.906   1.765   7.363  0.4041 -0.4030 -1.0220
 2709SOL     OW19585   3.823   0.396   6.079  0.2627 -0.3940  0.6771
 2709SOL    HW119586   3.814   0.302   6.094 -1.8735  0.0303  1.9381
 2709SOL    HW219587   3.875   0.408   5.999 -2.5211  2.8838 -0.6029
 2710SOL     OW19588   1.308   0.591   5.519  0.0237  0.4052 -0.9067
 2710SOL    HW119589   1.214   0.600   5.507 -0.5140 -1.8941  1.5568
 2710SOL    HW219590   1.308   0.558   5.609 -0.0311 -0.7762 -1.3389
 2711SOL     OW19591   3.103   2.891   4.818 -0.0613  0.1083 -0.4086
 2711SOL    HW119592   3.043   2.960   4.844  0.4845 -0.1499  1.5854
 2711SOL    HW219593   3.046   2.824   4.781  0.7431  0.6685 -2.6584
 2712SOL     OW19594   0.978   1.771   3.581  0.1347  0.3979  0.3166
 2712SOL    HW119595   1.037   1.708   3.540  1.2262  0.8671  1.1647
 2712SOL    HW219596   1.000   1.773   3.674 -1.9835 -1.9335  0.8669
 2713SOL     OW19597   4.307   1.464   6.265  0.1476  0.0344 -0.3935
 2713SOL    HW119598   4.390   1.419   6.280 -0.6625 -1.1886  0.3933
 2713SOL    HW219599   4.252   1.399   6.307  2.3243 -1.1166  0.6832
 2714SOL     OW19600   3.553   4.307   5.642 -0.1188  0.1667  0.2089
 2714SOL    HW119601   3.471   4.350   5.667 -0.2914 -0.3306  0.5095
 2714SOL    HW219602   3.532   4.258   5.563  0.4156  1.3647 -0.6731
 2715SOL     OW19603   2.341   2.758   5.791  0.0966 -0.6895  0.3093
 2715SOL    HW119604   2.394   2.831   5.824 -1.6673  1.2894 -1.2697
 2715SOL    HW219605   2.407   2.688   5.787  2.0156  1.0508  1.1972
 2716SOL     OW19606   3.872   0.865  16.083 -0.1138  0.8612 -0.0676
 2716SOL    HW119607   3.879   0.908  16.168 -0.1166 -0.6786  0.7183
 2716SOL    HW219608   3.847   0.774  16.101 -0.5594  1.0566  0.3007
 2717SOL     OW19609   4.343   0.946   7.975  0.1300  0.2807  0.0070
 2717SOL    HW119610   4.417   0.919   7.920 -0.6677  0.4904 -1.1706
 2717SOL    HW219611   4.379   1.025   8.016  0.0992 -0.5188  1.5406
 2718SOL     OW19612   4.538   3.919   7.402 -0.4937 -0.6535 -0.2334
 2718SOL    HW119613   4.596   3.921   7.478  0.7005 -0.3620 -1.1444
 2718SOL    HW219614   4.587   3.962   7.331  0.4420 -0.5608  0.4783
 2719SOL     OW19615   2.854   2.097  13.076 -0.1601 -1.2235 -0.5668
 2719SOL    HW119616   2.913   2.162  13.114 -1.2099 -0.9739  0.6201
 2719SOL    HW219617   2.884   2.027  13.133 -0.9496  0.4460  1.8903
 2720SOL     OW19618   4.024   0.385   1.890 -0.2120 -0.4505 -0.1389
 2720SOL    HW119619   3.991   0.340   1.968  0.8831 -0.3893  0.3557
 2720SOL    HW219620   4.074   0.462   1.917  1.3784 -1.5577  0.0396
 2721SOL     OW19621   3.117   4.033   3.536  0.5533  0.3745  0.0697
 2721SOL    HW119622   3.049   3.981   3.492 -1.8554  2.1466  1.6626
 2721SOL    HW219623   3.105   4.123   3.506 -1.3557 -0.4375 -1.6698
 2722SOL     OW19624   1.204   4.488   6.409  0.7851  0.0998 -0.2301
 2722SOL    HW119625   1.146   4.423   6.447  0.0279  0.4698 -0.7412
 2722SOL    HW219626   1.270   4.497   6.478  3.1061 -1.8682 -2.1775
 2723SOL     OW19627   3.812   3.139  16.110  0.6297 -0.2754 -0.1078
 2723SOL    HW119628   3.877   3.085  16.064 -0.9720  1.3259 -4.2626
 2723SOL    HW219629   3.737   3.133  16.050  0.7481  1.5279 -0.4148
 2724SOL     OW19630   4.542   2.205  11.753  0.0328 -0.3313  0.5043
 2724SOL    HW119631   4.528   2.126  11.804 -0.8440  1.2902  2.7586
 2724SOL    HW219632   4.623   2.234  11.795  0.5807 -0.1053 -0.6880
 2725SOL     OW19633   4.480   2.030   5.134  0.1051 -0.3020 -0.3434
 2725SOL    HW119634   4.407   2.070   5.180  1.8149 -0.3776  2.4371
 2725SOL    HW219635   4.525   2.108   5.102  1.6329 -0.7179  0.8210
 2726SOL     OW19636   0.449   0.917   6.917 -0.0980 -0.2336  0.2143
 2726SOL    HW119637   0.363   0.958   6.928 -0.0607 -0.4600  1.3391
 2726SOL    HW219638   0.438   0.849   6.984 -0.7630  1.0271  1.3922
 2727SOL     OW19639   1.984   3.568  17.622  0.2745 -0.2358 -0.0004
 2727SOL    HW119640   1.946   3.487  17.655 -0.2742 -0.5158 -1.3059
 2727SOL    HW219641   1.922   3.632  17.658  1.2342  2.0141 -2.3397
 2728SOL     OW19642   4.615   0.593   5.507 -0.0911  0.5268  0.1337
 2728SOL    HW119643   4.655   0.657   5.566 -0.4419  0.7008  0.1826
 2728SOL    HW219644   4.679   0.560   5.444  0.9797 -0.7674  1.8996
 2729SOL     OW19645   3.525   1.587   0.771  0.0245  0.3511 -0.3695
 2729SOL    HW119646   3.621   1.589   0.767 -0.0204 -0.0101 -1.5752
 2729SOL    HW219647   3.493   1.612   0.685 -1.4709  3.7720  1.1796
 2730SOL     OW19648   1.366   3.713   8.327  0.2310 -0.7529 -0.4831
 2730SOL    HW119649   1.369   3.639   8.266  1.1881  0.6062 -2.0677
 2730SOL    HW219650   1.434   3.675   8.383  0.4495 -0.4017 -0.5100
 2731SOL     OW19651   1.346   1.219   8.373 -0.2251 -0.0342  0.3076
 2731SOL    HW119652   1.331   1.185   8.285  0.5369  2.4745 -0.7646
 2731SOL    HW219653   1.419   1.165   8.404 -0.0767  0.6697  1.1710
 2732SOL     OW19654   3.134   0.663   3.179  0.2071 -0.2811 -0.2404
 2732SOL    HW119655   3.111   0.570   3.180 -0.0181 -0.2368 -1.2574
 2732SOL    HW219656   3.143   0.680   3.273 -0.4407  0.3705 -0.2933
 2733SOL     OW19657   2.451   4.415   3.643  0.7506 -0.2450 -0.1539
 2733SOL    HW119658   2.451   4.325   3.612 -2.2032 -0.9052  1.6894
 2733SOL    HW219659   2.432   4.453   3.557  1.2288  0.7938  0.1978
 2734SOL     OW19660   3.462   3.258   9.773  0.1809 -0.0856 -0.3196
 2734SOL    HW119661   3.436   3.304   9.854  0.5715 -2.0347  0.9039
 2734SOL    HW219662   3.438   3.326   9.710 -1.4391 -1.5787 -1.2848
 2735SOL     OW19663   2.225   1.226   6.823 -0.2414  0.5271  0.7243
 2735SOL    HW119664   2.247   1.134   6.812 -3.2055 -0.1675  0.4449
 2735SOL    HW219665   2.296   1.256   6.879 -0.1476 -1.2196  1.5577
 2736SOL     OW19666   2.481   0.143   9.468 -0.2420 -0.2011  0.1582
 2736SOL    HW119667   2.390   0.170   9.461 -0.5164 -0.9241  0.9530
 2736SOL    HW219668   2.474   0.075   9.534  1.4773  0.4421  0.9966
 2737SOL     OW19669   3.955   0.030   7.721  0.0099 -0.2178 -0.1201
 2737SOL    HW119670   4.006   0.111   7.718  0.3769 -0.4148  0.8996
 2737SOL    HW219671   3.890   0.052   7.787 -1.2234 -1.2859 -0.9674
 2738SOL     OW19672   4.358   0.449   6.031  0.6218  0.0374  0.0505
 2738SOL    HW119673   4.386   0.383   5.967  1.1174 -0.3187  0.6325
 2738SOL    HW219674   4.330   0.401   6.109  0.8283 -0.4594 -0.1796
 2739SOL     OW19675   0.007   0.198   6.172 -0.3023 -0.3627  0.4054
 2739SOL    HW119676   0.016   0.168   6.262  0.5142  1.3139  0.8726
 2739SOL    HW219677   4.708   0.290   6.187  2.9830  0.7990 -1.6798
 2740SOL     OW19678   0.479   3.680   4.351 -0.3438 -0.0515  0.2749
 2740SOL    HW119679   0.481   3.725   4.266 -2.5995  1.3089  0.9365
 2740SOL    HW219680   0.492   3.754   4.410  0.1298  1.2105 -1.4071
 2741SOL     OW19681   4.064   3.361  17.221  0.0848 -0.0797  0.3345
 2741SOL    HW119682   4.117   3.306  17.163  0.2244  0.4941 -0.0794
 2741SOL    HW219683   4.126   3.366  17.295 -0.5899 -0.3328  0.9142
 2742SOL     OW19684   3.967   0.271   4.688  0.1565 -0.0280 -0.0269
 2742SOL    HW119685   3.880   0.257   4.651  0.5069 -0.6063 -0.6297
 2742SOL    HW219686   3.956   0.341   4.753 -0.6561 -0.8081  0.6755
 2743SOL     OW19687   1.082   0.813   6.309 -0.0383 -0.4067 -0.0365
 2743SOL    HW119688   1.151   0.879   6.300 -2.3301  1.5970 -3.1250
 2743SOL    HW219689   1.070   0.789   6.217  1.7423 -3.8251  0.6368
 2744SOL     OW19690   1.093   4.248  10.962  0.0697  0.9620 -0.3850
 2744SOL    HW119691   1.128   4.173  10.915  2.7463  1.6684  0.4740
 2744SOL    HW219692   1.030   4.210  11.023  1.3400  0.4182  0.5714
 2745SOL     OW19693   0.056   1.808   6.310 -0.1547  0.8359  0.3179
 2745SOL    HW119694   4.707   1.801   6.248 -0.4287  1.4295  0.5776
 2745SOL    HW219695   0.120   1.756   6.260 -0.8004 -2.0023  2.4498
 2746SOL     OW19696   3.042   1.645   8.811 -0.1390 -0.5955  0.6185
 2746SOL    HW119697   3.100   1.581   8.851  1.5525 -0.4738 -1.6103
 2746SOL    HW219698   3.060   1.720   8.867 -0.8337 -2.0758  2.8112
 2747SOL     OW19699   0.420   3.404  14.507  0.2766 -0.0422 -0.4292
 2747SOL    HW119700   0.333   3.366  14.492  0.4089  0.3442 -2.1652
 2747SOL    HW219701   0.482   3.351  14.458  0.3054 -1.8907  1.6387
 2748SOL     OW19702   3.273   2.632  17.475 -0.8340  0.4760 -0.0033
 2748SOL    HW119703   3.310   2.709  17.432 -2.0146  0.8767 -0.2993
 2748SOL    HW219704   3.268   2.652  17.569 -1.0689  0.7620 -0.0766
 2749SOL     OW19705   2.929   1.864  13.223  0.4042  0.2616  0.0977
 2749SOL    HW119706   2.856   1.803  13.209  0.1201  0.8106 -0.8411
 2749SOL    HW219707   3.006   1.813  13.195 -0.4295 -0.5181 -0.8066
 2750SOL     OW19708   3.609   4.351   2.156  0.2593  0.3546  0.4722
 2750SOL    HW119709   3.587   4.438   2.124  1.0134  0.3422 -0.0583
 2750SOL    HW219710   3.532   4.314   2.201  0.8880 -1.9435 -0.3347
 2751SOL     OW19711   4.230   3.210   7.858 -0.0235  0.0869  0.2898
 2751SOL    HW119712   4.281   3.251   7.928  1.2255 -0.5167 -0.2590
 2751SOL    HW219713   4.199   3.288   7.811  0.7666 -0.0024 -0.4065
 2752SOL     OW19714   3.711   0.787  16.472  1.2784  0.2527 -0.0945
 2752SOL    HW119715   3.747   0.761  16.557  1.8491  1.4988  0.0413
 2752SOL    HW219716   3.617   0.786  16.491  1.3572  0.5978  0.3138
 2753SOL     OW19717   2.032   1.253   2.511 -0.4511 -0.3787 -0.5273
 2753SOL    HW119718   2.086   1.332   2.521 -1.1694 -0.0559  0.8857
 2753SOL    HW219719   2.103   1.192   2.495  1.2220  1.1426  1.1671
 2754SOL     OW19720   2.837   0.718   2.221  0.0301 -0.1020 -0.0694
 2754SOL    HW119721   2.746   0.745   2.218  0.8667  2.6328 -0.2458
 2754SOL    HW219722   2.876   0.789   2.171  2.2732 -1.0576  0.3072
 2755SOL     OW19723   0.856   2.374   0.439  0.1694  0.2441  0.2981
 2755SOL    HW119724   0.946   2.351   0.461  0.9838  3.0276 -0.0667
 2755SOL    HW219725   0.823   2.290   0.408  0.9847 -0.1759  0.5834
 2756SOL     OW19726   1.381   3.880   5.612 -0.2183  0.4653  0.2177
 2756SOL    HW119727   1.326   3.807   5.585 -0.2628  0.7967 -0.5762
 2756SOL    HW219728   1.325   3.914   5.681 -0.9320  0.0591 -0.1610
 2757SOL     OW19729   0.474   1.409   7.932  0.3635  0.4748 -0.1491
 2757SOL    HW119730   0.528   1.333   7.912  0.1519 -0.0191  1.1653
 2757SOL    HW219731   0.488   1.463   7.854  0.9084  1.0792  0.3666
 2758SOL     OW19732   0.819   0.718  16.166 -0.6146 -0.0901 -0.1245
 2758SOL    HW119733   0.823   0.760  16.252  0.5815 -0.7957  0.1655
 2758SOL    HW219734   0.755   0.647  16.172  0.3426 -0.7439  2.1946
 2759SOL     OW19735   1.845   0.806  11.231  0.1597 -0.1583  0.6003
 2759SOL    HW119736   1.776   0.862  11.197  0.1687 -1.3334 -1.3420
 2759SOL    HW219737   1.811   0.797  11.320 -2.0577 -4.5727 -0.6932
 2760SOL     OW19738   2.846   1.479  11.847  0.0575 -0.5192  0.5087
 2760SOL    HW119739   2.850   1.566  11.887 -0.3285 -1.1216  1.8626
 2760SOL    HW219740   2.903   1.442  11.913 -0.0472 -0.8278  0.4239
 2761SOL     OW19741   4.574   2.598   7.974  0.0070  0.1692 -0.1099
 2761SOL    HW119742   4.499   2.578   7.918  0.1085 -0.3557 -0.0583
 2761SOL    HW219743   4.549   2.550   8.053 -1.4651  1.7538  0.3724
 2762SOL     OW19744   2.250   2.290   7.173  0.2844  0.0744  0.0008
 2762SOL    HW119745   2.166   2.252   7.147  0.2035 -0.2453  0.7323
 2762SOL    HW219746   2.305   2.215   7.152 -1.0477 -0.5654 -1.2024
 2763SOL     OW19747   2.399   0.965  11.948  0.2572  0.7612  0.5951
 2763SOL    HW119748   2.375   0.957  11.856 -0.3492 -0.4952  0.8578
 2763SOL    HW219749   2.381   0.877  11.982  2.3493  0.0963 -0.0578
 2764SOL     OW19750   1.870   2.282  10.589 -0.0819  0.3714 -0.3387
 2764SOL    HW119751   1.824   2.326  10.661 -0.2646 -0.2132 -0.1003
 2764SOL    HW219752   1.863   2.350  10.522  2.2219 -0.0956 -1.0463
 2765SOL     OW19753   0.343   4.599  15.170  0.5298  0.0872  0.1815
 2765SOL    HW119754   0.304   4.592  15.257 -1.3649  1.8666 -0.5382
 2765SOL    HW219755   0.294   4.674  15.136 -0.4113 -1.0896 -1.0521
 2766SOL     OW19756   1.895   4.326   6.655  0.1314 -0.3077  0.7809
 2766SOL    HW119757   1.876   4.418   6.673 -2.0218 -0.6968  0.5289
 2766SOL    HW219758   1.987   4.332   6.630 -0.7966 -0.1889 -2.6677
 2767SOL     OW19759   1.606   0.677   7.120 -0.0250 -0.0849 -0.2836
 2767SOL    HW119760   1.542   0.615   7.085 -1.8588  0.7494  1.5454
 2767SOL    HW219761   1.543   0.734   7.165  3.0025  1.8643  1.5689
 2768SOL     OW19762   3.673   4.723   5.600  0.6269 -0.8745  0.0764
 2768SOL    HW119763   3.621   4.676   5.666  0.7270  1.2857  1.6964
 2768SOL    HW219764   3.703   4.648   5.548  0.2586 -1.0826  0.1594
 2769SOL     OW19765   1.721   0.102   4.532  0.0816 -0.5779 -0.1789
 2769SOL    HW119766   1.684   0.133   4.450  1.0825 -0.9448 -0.7739
 2769SOL    HW219767   1.731   0.183   4.582  0.9234 -0.2198 -0.9081
 2770SOL     OW19768   0.456   2.753  16.730 -1.0871 -0.6005 -0.6768
 2770SOL    HW119769   0.390   2.782  16.666 -0.5882 -0.8208 -1.2905
 2770SOL    HW219770   0.514   2.829  16.740 -0.8733 -0.5978 -1.8805
 2771SOL     OW19771   0.059   0.483  15.331  0.6176 -0.1940  0.9104
 2771SOL    HW119772   0.129   0.515  15.273  1.4776 -1.2624  1.3641
 2771SOL    HW219773   0.095   0.476  15.419 -0.8174 -1.4864  1.3802
 2772SOL     OW19774   4.226   0.988   6.338 -0.2834 -0.5723 -0.2013
 2772SOL    HW119775   4.259   0.945   6.259 -0.8767 -1.6160  0.1260
 2772SOL    HW219776   4.207   0.918   6.400 -1.9252 -0.8581 -1.0154
 2773SOL     OW19777   0.903   4.146   1.497  0.4839  0.5828  0.4946
 2773SOL    HW119778   0.888   4.096   1.417 -0.0551 -0.2832  1.1486
 2773SOL    HW219779   0.845   4.218   1.472  0.9381  0.9341  0.4435
 2774SOL     OW19780   1.440   0.842   8.353  0.0011 -0.6711 -0.2540
 2774SOL    HW119781   1.351   0.877   8.351  0.3452  0.1623 -1.3508
 2774SOL    HW219782   1.430   0.780   8.425  1.3060 -0.0451  0.4701
 2775SOL     OW19783   1.991   0.026  16.911  0.6825  0.2036 -0.2073
 2775SOL    HW119784   1.909   4.701  16.923  0.3466  0.9724  0.5782
 2775SOL    HW219785   1.950   0.109  16.886 -0.9425 -0.7587 -0.7649
 2776SOL     OW19786   3.207   2.671   6.435 -0.5568 -0.1638 -1.0411
 2776SOL    HW119787   3.158   2.589   6.440 -1.7567  0.4325 -2.7207
 2776SOL    HW219788   3.148   2.738   6.398  0.6114  0.4206 -1.8239
 2777SOL     OW19789   0.999   2.553   6.017  0.2610 -0.0534 -0.0391
 2777SOL    HW119790   1.035   2.500   5.946 -0.3711  0.8205 -1.0085
 2777SOL    HW219791   1.058   2.521   6.086 -2.3301  0.7191  2.5380
 2778SOL     OW19792   0.649   1.231  13.130 -0.5473 -0.3515  0.1985
 2778SOL    HW119793   0.672   1.140  13.150  1.5587 -0.0655 -1.0069
 2778SOL    HW219794   0.556   1.240  13.153 -1.0129 -2.3342 -0.9126
 2779SOL     OW19795   1.400   1.282   1.327  0.5527  0.3361 -0.1762
 2779SOL    HW119796   1.373   1.363   1.284  1.9845  1.3438  0.8023
 2779SOL    HW219797   1.478   1.261   1.277 -0.2232 -1.5919 -0.5817
 2780SOL     OW19798   1.314   2.757   8.635 -0.5512 -0.5178  0.3323
 2780SOL    HW119799   1.270   2.727   8.715 -0.6238 -0.4197  0.3291
 2780SOL    HW219800   1.271   2.715   8.561 -3.3542  1.8999  0.5928
 2781SOL     OW19801   2.247   1.606  12.022 -0.0029  0.4805 -0.3600
 2781SOL    HW119802   2.279   1.650  11.943 -0.6575  3.0313  0.8109
 2781SOL    HW219803   2.179   1.546  11.990  0.5362 -0.8598  1.0737
 2782SOL     OW19804   1.111   2.114  17.173 -0.3188  0.7375  0.0082
 2782SOL    HW119805   1.033   2.164  17.147  0.6058  1.2891 -1.6979
 2782SOL    HW219806   1.061   2.038  17.201  0.9486  0.9247  2.8362
 2783SOL     OW19807   2.290   0.433   4.294  0.1706  0.2766 -0.3066
 2783SOL    HW119808   2.360   0.438   4.229  2.1190 -3.0138  1.5336
 2783SOL    HW219809   2.336   0.459   4.375 -0.0634 -1.0885  0.2582
 2784SOL     OW19810   2.094   1.667   1.450 -0.2952 -0.5860  0.1495
 2784SOL    HW119811   2.089   1.593   1.510 -1.3245  0.1654  0.9816
 2784SOL    HW219812   2.186   1.692   1.462 -0.4351  0.4614 -0.8573
 2785SOL     OW19813   4.584   1.085   5.900 -0.6724 -0.1748 -0.2658
 2785SOL    HW119814   4.603   1.059   5.811  0.5328 -1.6948  0.4393
 2785SOL    HW219815   4.674   1.111   5.922 -1.6806  1.5363  1.9568
 2786SOL     OW19816   2.167   3.702   0.678  0.2670  0.1363  0.5101
 2786SOL    HW119817   2.228   3.631   0.657  0.0938  0.4968 -1.2180
 2786SOL    HW219818   2.091   3.650   0.649  1.8096 -2.3966  1.0155
 2787SOL     OW19819   1.212   3.211  11.867  0.2949 -0.0455  0.1951
 2787SOL    HW119820   1.211   3.295  11.913 -1.0839 -0.3318  0.6978
 2787SOL    HW219821   1.156   3.163  11.928  0.7182 -0.6907  0.0758
 2788SOL     OW19822   3.106   0.846   5.445  0.0975  0.1403 -0.3367
 2788SOL    HW119823   3.146   0.795   5.514  1.0352  0.1988 -0.8454
 2788SOL    HW219824   3.136   0.801   5.366  2.5596  0.4539  0.4380
 2789SOL     OW19825   1.903   0.164   1.057 -0.1609 -0.4539 -0.4055
 2789SOL    HW119826   1.859   0.170   1.142 -1.5778 -2.6062 -0.9833
 2789SOL    HW219827   1.994   0.172   1.087 -0.0064  0.2672 -1.0906
 2790SOL     OW19828   0.243   0.731   8.197 -0.1494  0.2859  0.4341
 2790SOL    HW119829   0.168   0.780   8.163  2.4989  3.6579 -0.4647
 2790SOL    HW219830   0.285   0.724   8.111  1.1882 -2.6452  1.3008
 2791SOL     OW19831   0.247   2.537  12.953 -0.1106  0.2229 -0.0846
 2791SOL    HW119832   0.252   2.609  12.891 -0.8236  0.1946 -0.1739
 2791SOL    HW219833   0.341   2.522  12.958 -0.4927 -1.1960  2.5023
 2792SOL     OW19834   1.064   3.678   2.128  0.1349  0.1339  0.4357
 2792SOL    HW119835   1.012   3.698   2.205  0.7629  0.2900  0.8237
 2792SOL    HW219836   1.129   3.621   2.168 -0.7423 -1.3358 -0.2494
 2793SOL     OW19837   3.366   3.286   3.221  0.2739  0.1582  0.3176
 2793SOL    HW119838   3.426   3.277   3.295 -0.4664 -0.2606  0.8651
 2793SOL    HW219839   3.369   3.380   3.206 -0.0670 -0.0796 -1.2425
 2794SOL     OW19840   1.544   2.246  10.688 -0.3225  0.2732 -0.3734
 2794SOL    HW119841   1.620   2.230  10.744 -1.3198 -0.2281  0.8709
 2794SOL    HW219842   1.481   2.187  10.731 -2.4172  1.3140 -2.0680
 2795SOL     OW19843   1.097   1.986   7.191  0.2381  0.3585 -0.4609
 2795SOL    HW119844   1.162   2.055   7.196 -0.5690  1.2586 -2.3971
 2795SOL    HW219845   1.145   1.916   7.147 -0.7742 -1.6608  1.6518
 2796SOL     OW19846   0.664   4.177  14.044  0.3515  0.1097 -0.1095
 2796SOL    HW119847   0.704   4.260  14.022  1.6811 -0.1067  1.4852
 2796SOL    HW219848   0.574   4.194  14.014 -0.2178  0.2773  1.6842
 2797SOL     OW19849   0.872   3.672   8.777 -0.3322  0.1589  0.5423
 2797SOL    HW119850   0.927   3.745   8.746 -0.6434  1.6911  3.6186
 2797SOL    HW219851   0.870   3.617   8.698 -0.6017  1.0461 -0.0746
 2798SOL     OW19852   1.609   0.498   9.189  0.3283  0.0840 -0.3717
 2798SOL    HW119853   1.531   0.460   9.228  0.4964  0.7782  0.6474
 2798SOL    HW219854   1.614   0.584   9.231 -1.6045  0.2836 -0.5721
 2799SOL     OW19855   1.999   0.080   3.644  0.0857 -0.2518 -0.0376
 2799SOL    HW119856   2.021   4.711   3.655 -1.7246 -0.9802 -2.4879
 2799SOL    HW219857   2.000   0.106   3.736 -0.2645  2.2333 -0.7480
 2800SOL     OW19858   4.699   2.556  10.954  0.3060 -0.0111  0.1118
 2800SOL    HW119859   0.034   2.608  11.009 -0.7688  1.3114 -0.0153
 2800SOL    HW219860   0.001   2.467  10.981  0.1834  0.1864  0.8905
 2801SOL     OW19861   3.771   2.918   6.733 -0.0905 -0.2361  0.1681
 2801SOL    HW119862   3.678   2.918   6.713  0.1266 -2.0673 -0.9174
 2801SOL    HW219863   3.803   2.917   6.643 -0.3036  1.8062  0.0762
 2802SOL     OW19864   4.605   2.344  12.569  0.1805 -0.0452 -0.0103
 2802SOL    HW119865   4.560   2.285  12.508  2.1514 -0.3464 -1.1828
 2802SOL    HW219866   4.540   2.342  12.639 -0.7789 -1.0447 -0.9115
 2803SOL     OW19867   2.839   3.224   8.385  0.0452  0.6592 -0.2236
 2803SOL    HW119868   2.923   3.178   8.378  0.4276  1.6460 -2.1157
 2803SOL    HW219869   2.776   3.169   8.338  3.7153 -1.4887 -2.6194
 2804SOL     OW19870   0.709   4.557   8.731 -1.1153 -0.2068 -0.0862
 2804SOL    HW119871   0.686   4.479   8.782 -2.3919 -0.1719 -0.5977
 2804SOL    HW219872   0.665   4.537   8.649 -0.1643 -0.1415 -0.6091
 2805SOL     OW19873   3.595   4.544   4.901 -0.4754 -0.3089 -0.3496
 2805SOL    HW119874   3.560   4.598   4.973 -1.6577 -1.4822 -0.0661
 2805SOL    HW219875   3.521   4.508   4.854 -1.5020 -0.0178  1.0412
 2806SOL     OW19876   2.200   2.344  12.527 -0.9291  0.0507  0.2533
 2806SOL    HW119877   2.161   2.391  12.601 -1.8304 -2.3326  1.3247
 2806SOL    HW219878   2.263   2.283  12.567 -1.0043 -1.3007 -1.6950
 2807SOL     OW19879   0.428   0.479   0.952 -0.0169  0.3082  0.6969
 2807SOL    HW119880   0.446   0.463   1.044 -0.5899 -0.5423  0.6734
 2807SOL    HW219881   0.369   0.553   0.963 -0.8223 -0.1597 -0.4497
 2808SOL     OW19882   2.552   4.544   7.717 -0.5188  0.5561 -0.4281
 2808SOL    HW119883   2.567   4.540   7.811 -0.2806  1.6949 -0.4061
 2808SOL    HW219884   2.633   4.563   7.669  0.3496  0.7699  1.1267
 2809SOL     OW19885   3.032   2.428   4.645 -0.0760  0.0459 -0.1279
 2809SOL    HW119886   3.079   2.349   4.673 -1.0581  0.1025  1.6233
 2809SOL    HW219887   2.989   2.402   4.563  0.5959 -2.5945  0.3333
 2810SOL     OW19888   0.800   2.115   6.446  0.2331 -0.2153  0.4623
 2810SOL    HW119889   0.773   2.027   6.470 -0.8930 -1.1375 -4.0842
 2810SOL    HW219890   0.727   2.167   6.479  0.2790 -0.1995  0.5386
 2811SOL     OW19891   2.310   0.382  12.447  0.9162 -0.2711 -0.0365
 2811SOL    HW119892   2.387   0.436  12.430  0.3662  0.4988 -0.0665
 2811SOL    HW219893   2.235   0.441  12.441 -0.7961 -2.8796 -4.5072
 2812SOL     OW19894   0.480   0.561  10.010  0.2084  0.1156  0.0091
 2812SOL    HW119895   0.573   0.577  10.026  0.0837  1.9195 -1.1207
 2812SOL    HW219896   0.466   0.605   9.927 -1.0963 -0.7433 -0.2251
 2813SOL     OW19897   1.959   3.922   3.524 -0.0373 -0.2370 -0.4586
 2813SOL    HW119898   1.884   3.981   3.517  0.5178  0.3636 -1.3527
 2813SOL    HW219899   2.034   3.977   3.544 -0.2739 -0.4594  1.0710
 2814SOL     OW19900   4.159   3.656   5.918 -0.1687  0.7714  0.5531
 2814SOL    HW119901   4.088   3.697   5.869  0.5103  0.0280 -1.0546
 2814SOL    HW219902   4.239   3.664   5.866  0.4633 -2.0616  1.0992
 2815SOL     OW19903   0.912   2.104   8.503  0.2664  0.1263  0.4744
 2815SOL    HW119904   0.933   2.137   8.590  0.9868 -2.5512  1.3009
 2815SOL    HW219905   0.916   2.010   8.519  0.6280 -0.0115 -0.4265
 2816SOL     OW19906   3.965   2.703  13.364  0.1971 -0.0601  0.2291
 2816SOL    HW119907   3.989   2.776  13.421  1.0554 -1.8861  2.2266
 2816SOL    HW219908   4.050   2.682  13.326  0.1784 -1.6184  1.0525
 2817SOL     OW19909   1.142   4.645   3.057  0.7702 -0.3392  0.2596
 2817SOL    HW119910   1.181   4.559   3.068 -0.1057 -0.8406 -0.5669
 2817SOL    HW219911   1.055   4.630   3.095  1.1253  0.6204  1.4738
 2818SOL     OW19912   2.485   4.086   6.448 -0.0276 -0.3260  0.0267
 2818SOL    HW119913   2.575   4.088   6.480  0.6687  2.3916 -2.0675
 2818SOL    HW219914   2.478   4.172   6.407 -2.9871 -0.5655 -0.0263
 2819SOL     OW19915   0.520   2.726  10.426 -0.1508  0.0555  0.0797
 2819SOL    HW119916   0.455   2.790  10.459  1.6480  2.0834 -0.3054
 2819SOL    HW219917   0.463   2.680  10.364  2.1787 -1.8597 -0.6051
 2820SOL     OW19918   0.172   1.574   1.592  0.5881 -0.1886 -0.4040
 2820SOL    HW119919   0.253   1.539   1.629 -0.2603 -0.2900  1.3695
 2820SOL    HW219920   0.202   1.623   1.515  1.2439 -1.6844 -1.0989
 2821SOL     OW19921   2.127   1.138  10.618 -0.5546  0.3223 -0.2996
 2821SOL    HW119922   2.153   1.078  10.548 -0.0630 -1.0248  1.0555
 2821SOL    HW219923   2.142   1.225  10.579 -2.7287  0.6120 -0.5140
 2822SOL     OW19924   4.155   0.539   2.064  0.0130 -0.2716 -0.0566
 2822SOL    HW119925   4.226   0.597   2.093 -0.5377 -0.1615  1.0663
 2822SOL    HW219926   4.112   0.514   2.145 -0.5298  1.7599  0.2968
 2823SOL     OW19927   2.839   0.363   8.502 -0.0026  0.0418  0.1599
 2823SOL    HW119928   2.815   0.355   8.410 -0.8725 -1.1403  0.4939
 2823SOL    HW219929   2.779   0.308   8.552  0.5972 -0.6047  0.1822
 2824SOL     OW19930   0.336   2.222   7.217 -0.9064 -0.3467 -0.0909
 2824SOL    HW119931   0.288   2.223   7.135  2.8423 -2.3883 -2.2959
 2824SOL    HW219932   0.300   2.305   7.250 -1.1459  0.4029 -2.2640
 2825SOL     OW19933   4.713   0.765  17.008  0.4454 -0.1102  0.4310
 2825SOL    HW119934   0.085   0.765  17.002  0.4187 -0.5024  0.0400
 2825SOL    HW219935   4.695   0.671  17.007 -1.1121  0.1893 -0.3396
 2826SOL     OW19936   4.040   4.540   3.908  0.1823  0.1521 -0.2669
 2826SOL    HW119937   4.061   4.594   3.984 -1.2951 -0.9071  0.8918
 2826SOL    HW219938   4.129   4.519   3.879  0.0305 -1.5350  0.4746
 2827SOL     OW19939   4.147   1.075  14.474  0.5435 -0.3617 -0.1979
 2827SOL    HW119940   4.149   0.981  14.462 -1.6809 -0.4020 -0.2815
 2827SOL    HW219941   4.115   1.107  14.389  0.8900 -1.3635 -0.6960
 2828SOL     OW19942   0.388   0.432   4.891  0.2677  0.6507  0.7176
 2828SOL    HW119943   0.358   0.368   4.956  1.1890 -0.8252 -0.3101
 2828SOL    HW219944   0.323   0.501   4.903 -1.5509 -0.4750 -2.8335
 2829SOL     OW19945   1.415   3.492   8.129  0.1142 -0.2509  0.1777
 2829SOL    HW119946   1.430   3.456   8.216  0.0620 -0.1748  0.2179
 2829SOL    HW219947   1.407   3.410   8.080 -0.6489  0.9190 -1.6561
 2830SOL     OW19948   3.398   1.806   0.918  0.1779  0.3774 -0.3828
 2830SOL    HW119949   3.362   1.803   0.829 -2.2070  1.1952  0.5371
 2830SOL    HW219950   3.418   1.713   0.922  0.3939  0.4398 -0.0212
 2831SOL     OW19951   4.710   0.697   1.739  0.0633  0.0828  0.4748
 2831SOL    HW119952   4.685   0.605   1.730 -0.3838  0.3010 -0.4793
 2831SOL    HW219953   0.059   0.704   1.676  0.4475 -2.7695  0.5982
 2832SOL     OW19954   4.140   1.209  11.053  0.1461 -0.2083 -0.4792
 2832SOL    HW119955   4.192   1.231  10.976  1.2597 -1.2369 -0.0170
 2832SOL    HW219956   4.208   1.221  11.118 -0.6259 -2.9178  0.8243
 2833SOL     OW19957   4.198   4.371   5.455 -0.0652 -0.2474 -0.4867
 2833SOL    HW119958   4.281   4.365   5.407 -0.3592 -1.4883 -0.8314
 2833SOL    HW219959   4.148   4.435   5.405  0.1983  0.8083  0.6093
 2834SOL     OW19960   4.366   0.118   7.912  0.0040  0.3002 -0.1706
 2834SOL    HW119961   4.290   0.097   7.966  0.5000  3.5205  1.7639
 2834SOL    HW219962   4.343   0.073   7.831 -1.1070 -2.8073  1.8582
 2835SOL     OW19963   1.220   0.118   4.132  0.3242 -0.0242  0.1520
 2835SOL    HW119964   1.231   0.085   4.043 -0.4768 -0.9254  0.3980
 2835SOL    HW219965   1.211   0.213   4.122 -0.9281 -0.1343  0.2063
 2836SOL     OW19966   2.912   3.733   7.699  0.1969  0.2757  0.3968
 2836SOL    HW119967   2.906   3.722   7.794 -0.4985  0.5302  0.3813
 2836SOL    HW219968   3.007   3.735   7.699  0.1721  1.5283 -0.1452
 2837SOL     OW19969   4.475   2.683   3.525  0.0522  0.1027 -0.1399
 2837SOL    HW119970   4.409   2.634   3.573 -0.0829 -0.5368 -0.9847
 2837SOL    HW219971   4.456   2.665   3.433 -1.5309 -0.1524  0.2390
 2838SOL     OW19972   2.459   2.713   2.499  0.3780 -0.4647  0.3811
 2838SOL    HW119973   2.365   2.697   2.487 -0.2473  3.3607  0.0926
 2838SOL    HW219974   2.463   2.808   2.512 -0.1587 -0.3138 -0.5266
 2839SOL     OW19975   1.462   3.540   4.165  0.9661  0.7915 -0.2170
 2839SOL    HW119976   1.386   3.593   4.138 -0.8635 -2.2221 -1.0217
 2839SOL    HW219977   1.477   3.501   4.080 -0.2633 -0.6129  0.2170
 2840SOL     OW19978   2.195   2.404   0.198 -0.1319 -0.4472 -0.0925
 2840SOL    HW119979   2.195   2.455   0.278  0.7959 -2.2991  1.0977
 2840SOL    HW219980   2.121   2.440   0.149  0.4265  1.7032  0.6685
 2841SOL     OW19981   1.555   2.033   4.079  0.4172 -0.0277  0.3179
 2841SOL    HW119982   1.475   2.043   4.027  1.3888 -1.0972 -1.3982
 2841SOL    HW219983   1.572   1.942   4.054  0.8854 -0.0935  0.8683
 2842SOL     OW19984   1.506   1.244   9.104 -0.6423 -0.0594 -0.0873
 2842SOL    HW119985   1.521   1.165   9.156 -0.0614  0.8313  1.0961
 2842SOL    HW219986   1.574   1.230   9.037  0.1258 -0.3507  0.7511
 2843SOL     OW19987   2.695   0.369   7.006  0.2253 -0.6104  0.1805
 2843SOL    HW119988   2.660   0.280   6.995  0.1406 -0.3406 -1.6813
 2843SOL    HW219989   2.783   0.341   7.032  0.4554  1.0325  1.1563
 2844SOL     OW19990   4.464   1.947  14.794  0.0968 -0.0723  0.0001
 2844SOL    HW119991   4.435   1.857  14.810 -0.2079 -0.0680 -0.5030
 2844SOL    HW219992   4.556   1.936  14.771 -0.0199 -0.7941 -0.1187
 2845SOL     OW19993   0.953   4.618   1.847  0.1595  0.0875 -0.3920
 2845SOL    HW119994   0.933   4.647   1.757 -2.1268  0.4075  0.2286
 2845SOL    HW219995   1.046   4.641   1.858 -0.1833  0.4697  1.7011
 2846SOL     OW19996   1.862   4.095  14.694  0.0813 -0.5283  0.5090
 2846SOL    HW119997   1.916   4.172  14.709 -2.1073  0.7621  1.8215
 2846SOL    HW219998   1.853   4.093  14.599  1.6233  1.6736  0.3045
 2847SOL     OW19999   3.035   0.223   2.595  0.0528 -0.4960  0.3498
 2847SOL    HW120000   3.123   0.211   2.559 -0.0713 -1.4653  0.3915
 2847SOL    HW220001   3.049   0.194   2.684 -0.0801  0.4390  0.6815
 2848SOL     OW20002   1.640   2.327   3.339  0.1079  0.4549 -0.1879
 2848SOL    HW120003   1.589   2.372   3.273  1.4650  0.7518 -1.0277
 2848SOL    HW220004   1.729   2.336   3.306 -0.7675  0.3786 -2.5136
 2849SOL     OW20005   2.989   3.592   3.415  0.2618 -0.4776 -0.0856
 2849SOL    HW120006   3.005   3.547   3.332 -0.2559  1.1000 -1.0216
 2849SOL    HW220007   2.894   3.588   3.427  0.2782 -1.5520 -0.3239
 2850SOL     OW20008   1.429   1.549   6.492 -0.2421  0.2130 -0.3312
 2850SOL    HW120009   1.518   1.514   6.494  0.0384  1.0265  0.9553
 2850SOL    HW220010   1.434   1.617   6.558 -0.7851 -0.5701  0.5174
 2851SOL     OW20011   2.633   0.688   5.941  0.3089 -0.1891  0.0997
 2851SOL    HW120012   2.718   0.650   5.964 -0.5461 -0.8159  2.1216
 2851SOL    HW220013   2.650   0.782   5.944 -2.0388  0.1891  0.9446
 2852SOL     OW20014   2.509   3.495  10.005 -0.3861  0.5763 -0.2803
 2852SOL    HW120015   2.414   3.501   9.995 -0.4900 -1.8187 -0.6237
 2852SOL    HW220016   2.507   3.431  10.077  2.7135  0.3687 -0.4007
 2853SOL     OW20017   1.387   1.920   1.247 -0.3323  0.0345 -0.1058
 2853SOL    HW120018   1.359   1.994   1.194  0.4504  0.3952 -0.0036
 2853SOL    HW220019   1.392   1.841   1.193 -2.3651  0.2055 -0.5372
 2854SOL     OW20020   2.382   3.874   5.540 -0.0812  0.0473  0.0026
 2854SOL    HW120021   2.331   3.810   5.589  1.0787 -0.8441  0.0610
 2854SOL    HW220022   2.343   3.863   5.453  1.5355  0.4657 -0.7897
 2855SOL     OW20023   4.027   3.819   2.960  0.0520 -0.8603 -0.3413
 2855SOL    HW120024   4.075   3.873   2.898 -0.2599 -0.0543  0.1192
 2855SOL    HW220025   4.056   3.837   3.050 -0.9985 -5.7671  0.9638
 2856SOL     OW20026   1.038   0.297   2.833  0.1896 -0.5932 -0.4627
 2856SOL    HW120027   1.077   0.384   2.835  0.3633 -0.6418 -2.3655
 2856SOL    HW220028   1.105   0.238   2.798  1.3840  0.9982 -0.8334
 2857SOL     OW20029   3.705   4.025   3.255  0.4943  0.0378 -0.2721
 2857SOL    HW120030   3.792   4.042   3.219  0.8892  0.1366  0.7153
 2857SOL    HW220031   3.661   4.109   3.251  1.7066  0.6291 -1.2508
 2858SOL     OW20032   2.433   2.555  13.657  0.2557  0.2925 -0.1911
 2858SOL    HW120033   2.427   2.649  13.673 -0.3965  0.9206 -4.2871
 2858SOL    HW220034   2.528   2.538  13.657  0.1210 -0.4283 -1.6195
 2859SOL     OW20035   1.141   3.696  10.064 -0.0879 -0.2920 -0.4405
 2859SOL    HW120036   1.098   3.659  10.141  3.1994 -2.3365  0.3729
 2859SOL    HW220037   1.156   3.784  10.100  2.3022 -0.0034 -2.1809
 2860SOL     OW20038   2.850   0.008  17.242  0.2459  0.5749 -0.7460
 2860SOL    HW120039   2.885   0.097  17.246 -0.6927  0.8755  0.5755
 2860SOL    HW220040   2.914   4.677  17.288 -0.2171  0.0207 -0.7588
 2861SOL     OW20041   3.488   0.723   6.865  0.5498 -0.2079 -0.0062
 2861SOL    HW120042   3.393   0.735   6.863  0.5291  0.1218  2.1220
 2861SOL    HW220043   3.500   0.691   6.955 -3.5459  0.9348  0.9357
 2862SOL     OW20044   3.839   3.726  10.857  0.0856 -0.1359  0.6820
 2862SOL    HW120045   3.758   3.721  10.906  0.2756  0.2393  1.0286
 2862SOL    HW220046   3.818   3.703  10.766 -1.5953  0.8823  0.8216
 2863SOL     OW20047   2.215   3.578  14.957 -0.1111  0.4305 -0.1658
 2863SOL    HW120048   2.254   3.616  14.878 -0.1112  1.9056  0.5455
 2863SOL    HW220049   2.134   3.629  14.965 -1.3262 -1.3667 -1.0633
 2864SOL     OW20050   0.549   2.239   3.537  0.0695  0.4308  0.5129
 2864SOL    HW120051   0.531   2.333   3.536  2.0417  0.8151  1.6447
 2864SOL    HW220052   0.621   2.222   3.598  0.4658  1.7458  0.4065
 2865SOL     OW20053   1.159   2.178   6.871 -0.0664 -0.0443 -0.7830
 2865SOL    HW120054   1.188   2.095   6.833 -1.2863  0.1140 -2.0841
 2865SOL    HW220055   1.063   2.169   6.872  0.1810 -3.0233 -2.1589
 2866SOL     OW20056   0.866   3.656   6.762 -0.1386  0.1667  0.5241
 2866SOL    HW120057   0.909   3.738   6.784  1.2001 -0.8657  1.8100
 2866SOL    HW220058   0.791   3.671   6.820 -1.2634 -0.7903 -0.6930
 2867SOL     OW20059   3.463   3.823   7.630  0.1699 -0.1113 -0.1465
 2867SOL    HW120060   3.451   3.916   7.647 -0.6371 -0.3294  0.4893
 2867SOL    HW220061   3.558   3.814   7.621 -0.0519 -2.4433 -0.3328
 2868SOL     OW20062   3.337   1.779   6.799  0.1264  0.1121  0.5089
 2868SOL    HW120063   3.351   1.715   6.730  0.5533  1.6949 -0.8583
 2868SOL    HW220064   3.322   1.863   6.755 -2.6430 -0.4849  0.2962
 2869SOL     OW20065   0.742   4.126  10.913  0.1998 -0.6689  0.0827
 2869SOL    HW120066   0.783   4.083  10.838 -0.1641 -3.3113  1.4236
 2869SOL    HW220067   0.662   4.167  10.879 -0.2953 -1.8631 -0.1981
 2870SOL     OW20068   2.924   2.518   5.892 -0.4935 -0.5887  0.5075
 2870SOL    HW120069   2.866   2.494   5.820  0.2461 -0.9954  0.0501
 2870SOL    HW220070   2.994   2.546   5.833 -1.2180  0.4651  0.1489
 2871SOL     OW20071   3.877   2.698   7.958  0.5713 -0.4585  0.1768
 2871SOL    HW120072   3.877   2.785   7.918  0.9186 -0.7946 -0.5610
 2871SOL    HW220073   3.782   2.687   7.961  0.4334  1.2940  2.0027
 2872SOL     OW20074   0.376   3.884  14.429  0.2990  0.1259  0.3358
 2872SOL    HW120075   0.313   3.937  14.479  0.4432 -0.3503  1.0280
 2872SOL    HW220076   0.409   3.943  14.361 -0.3321 -0.1302 -0.1941
 2873SOL     OW20077   3.808   0.738   2.073  0.5073 -0.0082 -0.0624
 2873SOL    HW120078   3.760   0.739   2.156  0.2661  3.3191 -0.2795
 2873SOL    HW220079   3.741   0.770   2.014 -1.7366 -2.5361  1.1165
 2874SOL     OW20080   2.323   1.923  15.259  0.0828  0.2770 -0.4397
 2874SOL    HW120081   2.327   2.013  15.290  1.2646  0.2368 -0.4811
 2874SOL    HW220082   2.402   1.879  15.291 -1.5117 -0.2082  2.8155
 2875SOL     OW20083   0.753   4.620   3.369 -0.6706 -0.5119 -0.0774
 2875SOL    HW120084   0.735   4.528   3.350 -0.2427 -0.3468 -1.2713
 2875SOL    HW220085   0.763   4.648   3.278  1.4814 -1.3977 -0.1158
 2876SOL     OW20086   4.237   3.827   3.677 -0.0352  0.2998 -0.0525
 2876SOL    HW120087   4.244   3.788   3.764  3.7440 -0.2946 -0.6508
 2876SOL    HW220088   4.145   3.853   3.683  0.7581  3.0669  0.1240
 2877SOL     OW20089   1.349   3.746   1.652  0.6807  0.4302  0.1640
 2877SOL    HW120090   1.335   3.691   1.729 -2.3058  0.9280 -0.0105
 2877SOL    HW220091   1.267   3.726   1.607  0.0700  0.4562  1.2894
 2878SOL     OW20092   3.076   1.634  14.602  0.0940 -0.0222  0.2275
 2878SOL    HW120093   3.096   1.697  14.671 -0.1073 -0.9519  1.1343
 2878SOL    HW220094   3.158   1.633  14.552  0.0098  0.8541  0.0774
 2879SOL     OW20095   1.979   0.746   5.266  0.2549 -0.4650  0.1235
 2879SOL    HW120096   1.923   0.688   5.319 -1.2331 -0.4577 -1.4404
 2879SOL    HW220097   2.009   0.804   5.336 -1.3581  0.8068 -0.2401
 2880SOL     OW20098   2.971   0.825   6.116 -0.5751  0.5892 -0.4014
 2880SOL    HW120099   3.065   0.835   6.135 -0.2636  0.6465 -2.0105
 2880SOL    HW220100   2.947   0.916   6.097 -2.1865  1.3692  5.1853
 2881SOL     OW20101   4.201   1.861   4.028  0.0871 -0.1146 -1.0118
 2881SOL    HW120102   4.243   1.890   4.109  0.0996 -0.0609 -1.0380
 2881SOL    HW220103   4.201   1.766   4.042 -1.4500  0.1508  0.9479
 2882SOL     OW20104   1.730   2.183  12.804  0.3371 -0.1905 -0.3054
 2882SOL    HW120105   1.807   2.241  12.801 -0.9741  1.4676 -1.7271
 2882SOL    HW220106   1.679   2.218  12.731 -0.7520  0.6453  0.8575
 2883SOL     OW20107   3.248   3.217  14.627 -0.1416  0.7337 -0.2203
 2883SOL    HW120108   3.253   3.303  14.670 -1.3689  0.0033  1.3806
 2883SOL    HW220109   3.340   3.193  14.622 -0.7100 -1.3024 -0.8310
 2884SOL     OW20110   1.527   3.543  10.997 -0.4079 -0.3132 -0.0140
 2884SOL    HW120111   1.449   3.570  11.045 -1.6564 -1.4845 -1.3615
 2884SOL    HW220112   1.590   3.522  11.066  0.0709 -0.6074 -0.5402
 2885SOL     OW20113   2.290   3.038   5.594 -0.6308 -0.4155  0.3756
 2885SOL    HW120114   2.344   3.101   5.642 -1.0513 -0.0703  0.3951
 2885SOL    HW220115   2.263   3.103   5.529 -0.3970 -1.0721 -0.3792
 2886SOL     OW20116   1.404   4.188   4.267  0.3458 -0.3373  0.2410
 2886SOL    HW120117   1.395   4.206   4.173  0.9745 -2.1850 -0.1886
 2886SOL    HW220118   1.318   4.210   4.301 -0.2978 -1.3436 -0.7098
 2887SOL     OW20119   4.436   3.824  12.031  0.7302  0.1293 -0.1631
 2887SOL    HW120120   4.479   3.867  12.105 -1.2136  0.4618  0.7701
 2887SOL    HW220121   4.465   3.735  12.050  0.9684  0.3605  0.5872
 2888SOL     OW20122   4.317   1.540   5.451 -0.0000 -0.2994 -0.0053
 2888SOL    HW120123   4.302   1.594   5.528  0.4624  1.0154 -0.8382
 2888SOL    HW220124   4.397   1.579   5.416  0.4841  0.3960  1.8845
 2889SOL     OW20125   0.772   3.067   4.400 -0.6734  0.8376 -0.1485
 2889SOL    HW120126   0.699   3.094   4.344  0.0862 -0.0594 -1.5691
 2889SOL    HW220127   0.839   3.124   4.362  0.9307 -1.3241 -0.5459
 2890SOL     OW20128   0.099   3.342   2.651 -0.3910 -0.1118  0.0155
 2890SOL    HW120129   0.020   3.332   2.704  0.2187  0.0671  0.9557
 2890SOL    HW220130   0.138   3.415   2.698  2.0104 -1.9742  0.9116
 2891SOL     OW20131   2.734   0.495   2.308  0.1033 -0.2977  0.0680
 2891SOL    HW120132   2.780   0.562   2.257 -0.8161  0.2533 -0.0394
 2891SOL    HW220133   2.813   0.468   2.355 -1.0658 -1.0576  1.5937
 2892SOL     OW20134   4.134   1.394   4.608  0.3024  0.2633 -0.1010
 2892SOL    HW120135   4.164   1.303   4.600 -0.4019 -0.0996  1.5226
 2892SOL    HW220136   4.110   1.404   4.515  1.1410  0.1600 -0.3306
 2893SOL     OW20137   3.928   2.281   8.899 -0.5713  0.2341  0.2831
 2893SOL    HW120138   3.866   2.280   8.971 -1.8706 -2.6873 -0.8750
 2893SOL    HW220139   3.935   2.191   8.867 -0.5740  0.9669 -1.8319
 2894SOL     OW20140   3.968   2.937  10.484  0.1602  0.4111 -0.6639
 2894SOL    HW120141   4.029   3.008  10.467 -0.8654  1.0221 -1.7583
 2894SOL    HW220142   3.901   2.988  10.530 -0.3148 -0.3484 -0.5265
 2895SOL     OW20143   0.523   4.343  15.520  0.3139  0.2657  0.2599
 2895SOL    HW120144   0.497   4.260  15.560 -2.9030  1.4210  0.5949
 2895SOL    HW220145   0.502   4.400  15.594 -3.8150  0.3754 -0.9761
 2896SOL     OW20146   2.317   2.312   2.712 -0.1995 -0.2698 -0.0058
 2896SOL    HW120147   2.395   2.257   2.708 -0.6417 -1.0338  2.0503
 2896SOL    HW220148   2.294   2.318   2.619  0.9423  1.5409 -0.1786
 2897SOL     OW20149   1.970   0.972   0.103  0.0097  0.2184 -0.8771
 2897SOL    HW120150   2.022   0.907   0.056  0.4070  0.0786 -0.2410
 2897SOL    HW220151   2.005   1.055   0.071 -1.6864  1.5107  0.6240
 2898SOL     OW20152   1.217   0.922   9.520 -0.2372  0.4944  0.0738
 2898SOL    HW120153   1.144   0.864   9.541 -0.3134  0.3228 -0.6554
 2898SOL    HW220154   1.244   0.952   9.607  1.3682 -1.1770  0.1511
 2899SOL     OW20155   4.710   2.269   6.138  0.0074 -0.2552  0.2833
 2899SOL    HW120156   0.073   2.242   6.106  0.5886  0.8154  0.9284
 2899SOL    HW220157   4.669   2.185   6.159  0.4629 -0.2320  1.3021
 2900SOL     OW20158   0.287   1.913   6.101  0.7293  0.1535 -0.6090
 2900SOL    HW120159   0.250   2.001   6.111 -0.7423 -0.4449 -0.7046
 2900SOL    HW220160   0.249   1.895   6.015  2.2070  1.2983 -1.4913
 2901SOL     OW20161   2.772   4.465  12.560  0.4736 -0.3244 -0.0619
 2901SOL    HW120162   2.756   4.553  12.526  1.5173 -0.2568 -0.3618
 2901SOL    HW220163   2.696   4.426  12.518 -0.6583  3.7085 -1.7728
 2902SOL     OW20164   4.128   0.768  14.461  0.1941  0.2605 -0.6905
 2902SOL    HW120165   4.153   0.774  14.553 -0.7298  0.2814 -0.4446
 2902SOL    HW220166   4.146   0.675  14.449 -0.1687  0.5413 -3.3711
 2903SOL     OW20167   1.259   2.554   3.453  0.0036 -0.1472 -0.7436
 2903SOL    HW120168   1.248   2.579   3.544 -1.3595 -1.9381 -0.4395
 2903SOL    HW220169   1.355   2.554   3.442 -0.2020 -0.2056 -2.6521
 2904SOL     OW20170   2.195   0.646  17.076  0.7447 -0.2523  0.0655
 2904SOL    HW120171   2.107   0.669  17.106 -1.1197 -2.1274 -3.8653
 2904SOL    HW220172   2.173   0.566  17.027  3.1998 -0.5076 -0.5910
 2905SOL     OW20173   3.374   0.555  12.350  0.8430 -0.0936  0.1022
 2905SOL    HW120174   3.438   0.613  12.392  0.4525  0.5225 -0.1489
 2905SOL    HW220175   3.330   0.505  12.419 -1.0945 -0.3191 -1.3040
 2906SOL     OW20176   1.246   0.935   4.845  0.1404 -0.3533  0.1516
 2906SOL    HW120177   1.160   0.953   4.805 -0.0437 -3.8444 -1.0010
 2906SOL    HW220178   1.308   1.004   4.822 -0.6973 -0.2996 -1.9360
 2907SOL     OW20179   2.548   4.305  13.965 -0.4482  0.0624  0.1267
 2907SOL    HW120180   2.579   4.265  14.046 -1.1539 -1.8005 -0.5212
 2907SOL    HW220181   2.593   4.243  13.906 -0.5060  0.7379 -0.6270
 2908SOL     OW20182   0.715   2.406   4.302  0.1472  0.7264  0.0567
 2908SOL    HW120183   0.643   2.388   4.363  0.9059  1.6742  1.2196
 2908SOL    HW220184   0.667   2.439   4.226  2.2685 -1.7957 -2.4002
 2909SOL     OW20185   0.244   4.153   3.801 -0.2802 -0.3826 -0.2779
 2909SOL    HW120186   0.264   4.123   3.712  1.5594 -0.0133  0.0108
 2909SOL    HW220187   0.191   4.229   3.777  1.9738  1.2828  0.0023
 2910SOL     OW20188   2.790   1.059  17.046 -0.2364 -0.5100  0.6747
 2910SOL    HW120189   2.862   1.114  17.016 -1.5664  0.1459 -1.3548
 2910SOL    HW220190   2.841   0.999  17.101 -1.1801 -0.6480  1.4174
 2911SOL     OW20191   4.335   3.365   1.318 -0.2736  0.5133 -0.0341
 2911SOL    HW120192   4.292   3.432   1.371  3.2451 -0.2318  3.7889
 2911SOL    HW220193   4.267   3.298   1.316  0.2472 -0.0536  1.2998
 2912SOL     OW20194   4.581   0.220   6.612 -0.2199  0.0458  0.7576
 2912SOL    HW120195   4.533   0.300   6.588  0.2066 -0.0501 -0.4361
 2912SOL    HW220196   4.511   0.158   6.631  0.0660 -0.0821  1.3581
 2913SOL     OW20197   2.359   1.996   2.884 -0.2779 -0.1182 -0.4063
 2913SOL    HW120198   2.356   2.048   2.964 -2.2209 -1.6587  0.5354
 2913SOL    HW220199   2.449   2.013   2.856 -0.1573  2.1435  1.4064
 2914SOL     OW20200   3.378   2.073   5.016 -0.3272  0.0205  0.4718
 2914SOL    HW120201   3.365   2.162   5.048 -0.4156  0.0270  0.4196
 2914SOL    HW220202   3.285   2.053   5.001 -0.3480  0.5881 -0.1369
 2915SOL     OW20203   3.405   1.432   7.766  0.2861  0.4974 -0.2521
 2915SOL    HW120204   3.426   1.524   7.779  0.4072  0.3182  0.8074
 2915SOL    HW220205   3.357   1.424   7.849  2.3752 -2.2836  0.6971
 2916SOL     OW20206   4.369   3.179  16.720  0.2271 -0.0564 -0.0487
 2916SOL    HW120207   4.309   3.130  16.665  2.8520 -1.2749 -1.8372
 2916SOL    HW220208   4.321   3.259  16.739 -1.9868 -0.7240 -2.9027
 2917SOL     OW20209   0.707   1.757   3.547 -0.5250  0.1072  0.0065
 2917SOL    HW120210   0.802   1.746   3.541 -0.1708  2.8226  0.6175
 2917SOL    HW220211   0.682   1.789   3.461 -0.8962  0.5984  0.2957
 2918SOL     OW20212   0.612   0.473   8.434 -0.1701  0.4686 -0.7356
 2918SOL    HW120213   0.626   0.414   8.360  1.4371 -0.7989  0.5729
 2918SOL    HW220214   0.540   0.516   8.389 -0.9726 -1.5114 -1.3176
 2919SOL     OW20215   0.944   1.484   6.953 -0.3433  0.3045  0.6086
 2919SOL    HW120216   0.923   1.514   7.042 -0.5032  2.2188 -0.0713
 2919SOL    HW220217   0.852   1.467   6.933 -0.2314 -0.0812  0.4226
 2920SOL     OW20218   2.574   2.066   5.261 -0.1610 -0.4858 -0.1568
 2920SOL    HW120219   2.575   1.992   5.201 -0.3184  1.0300 -2.0505
 2920SOL    HW220220   2.667   2.090   5.270  0.3644 -3.0981  1.4267
 2921SOL     OW20221   2.661   3.004   5.083  0.1783  0.0108 -0.1210
 2921SOL    HW120222   2.634   3.069   5.019  0.2274 -2.7393 -2.9091
 2921SOL    HW220223   2.639   2.924   5.035 -0.0483  1.1379 -1.8845
 2922SOL     OW20224   2.137   0.308  10.682  0.2283 -0.1015 -0.1893
 2922SOL    HW120225   2.050   0.274  10.704  0.4435 -0.3516  0.2805
 2922SOL    HW220226   2.174   0.237  10.629 -0.5113  0.7391 -1.8314
 2923SOL     OW20227   2.420   1.212   1.954  0.0288  0.1334 -0.0743
 2923SOL    HW120228   2.455   1.286   2.003 -0.8701  1.5470 -1.5715
 2923SOL    HW220229   2.435   1.146   2.021 -3.1898  1.4165  1.9130
 2924SOL     OW20230   1.487   0.086   5.863 -0.5462 -0.0207 -0.0745
 2924SOL    HW120231   1.433   0.007   5.867  0.0035 -0.2698  2.6634
 2924SOL    HW220232   1.459   0.122   5.948  3.8400  1.3685  0.7686
 2925SOL     OW20233   0.834   4.442  14.339  0.2000  0.0280 -0.1441
 2925SOL    HW120234   0.827   4.449  14.434  0.1001 -0.5184 -0.1103
 2925SOL    HW220235   0.825   4.534  14.315 -0.7007  0.0349  0.2176
 2926SOL     OW20236   1.914   3.295   5.420  0.4327 -0.4590 -0.3146
 2926SOL    HW120237   1.994   3.307   5.471 -0.9382 -1.6520  2.0747
 2926SOL    HW220238   1.929   3.209   5.382  1.5311 -0.1989 -0.4879
 2927SOL     OW20239   4.255   2.129   6.016 -0.5465 -0.2475 -0.3263
 2927SOL    HW120240   4.213   2.084   5.943  2.5207  0.5067 -2.5547
 2927SOL    HW220241   4.186   2.190   6.043 -0.0075 -0.2421  1.0719
 2928SOL     OW20242   2.638   2.333   2.826 -0.8283  0.0529 -0.0161
 2928SOL    HW120243   2.625   2.390   2.751 -1.9021 -0.6272 -0.3454
 2928SOL    HW220244   2.607   2.397   2.891 -2.1401 -0.0052 -0.5745
 2929SOL     OW20245   3.080   3.862   2.529 -0.1605 -0.4831 -0.5890
 2929SOL    HW120246   3.141   3.788   2.533 -0.3567 -0.5287  1.3142
 2929SOL    HW220247   3.040   3.847   2.443 -1.1972  0.5362 -0.2736
 2930SOL     OW20248   1.953   2.276   6.220 -0.2362 -0.2429  0.3283
 2930SOL    HW120249   1.958   2.265   6.315 -1.4591 -0.9115  0.3145
 2930SOL    HW220250   1.908   2.197   6.193 -0.8898  0.4091 -0.5052
 2931SOL     OW20251   3.737   1.189   2.733 -0.5066 -0.3269 -0.5500
 2931SOL    HW120252   3.752   1.099   2.760  0.7329  0.4789  1.4542
 2931SOL    HW220253   3.730   1.237   2.816 -1.7821 -1.8278  0.2086
 2932SOL     OW20254   3.002   3.600  12.505  0.3604 -0.6016  0.2439
 2932SOL    HW120255   2.927   3.645  12.542  1.4076  1.2450  0.1248
 2932SOL    HW220256   3.071   3.652  12.546  1.6489 -0.9670 -1.4418
 2933SOL     OW20257   1.947   1.097   1.823 -0.1180  0.4348  0.4146
 2933SOL    HW120258   1.864   1.095   1.870 -0.1813 -1.4680  0.2251
 2933SOL    HW220259   1.922   1.139   1.741 -0.6714 -1.4648 -0.3851
 2934SOL     OW20260   4.525   1.651   3.757 -0.6053 -0.6110  0.5194
 2934SOL    HW120261   4.478   1.664   3.675 -0.2271  2.0167  0.6932
 2934SOL    HW220262   4.581   1.575   3.745  0.3917  0.1858  0.1479
 2935SOL     OW20263   1.837   3.924  11.967 -0.1290  0.3151 -0.0155
 2935SOL    HW120264   1.911   3.916  11.907  0.5520 -0.3322  0.8903
 2935SOL    HW220265   1.866   3.886  12.051 -0.2724 -0.4303 -0.3038
 2936SOL     OW20266   0.945   3.288  15.701 -0.3343 -0.1130  0.7617
 2936SOL    HW120267   0.927   3.252  15.788  0.5852 -0.2933  0.8805
 2936SOL    HW220268   0.885   3.362  15.693 -0.9723 -0.6969  0.0903
 2937SOL     OW20269   0.999   1.028   4.647  0.7596  0.0873 -0.3830
 2937SOL    HW120270   1.001   1.124   4.645 -0.9100  0.1300 -0.1843
 2937SOL    HW220271   0.917   1.006   4.602 -0.7519  1.1094  1.8139
 2938SOL     OW20272   3.445   3.318   3.683  0.3375 -0.1948 -0.1383
 2938SOL    HW120273   3.495   3.349   3.759 -0.5817  2.0868 -0.4655
 2938SOL    HW220274   3.360   3.291   3.718  1.4083 -2.5489  0.6497
 2939SOL     OW20275   3.249   0.407  13.601  0.1925  0.1202 -0.0983
 2939SOL    HW120276   3.161   0.373  13.619  0.1325  0.0636 -0.4909
 2939SOL    HW220277   3.240   0.501  13.617 -2.9711 -0.1722 -0.0970
 2940SOL     OW20278   4.565   4.124   5.623 -0.2635 -0.1638  0.7301
 2940SOL    HW120279   4.648   4.160   5.592 -1.4158  0.0029 -2.1990
 2940SOL    HW220280   4.517   4.206   5.636  0.5971  0.2453  1.3291
 2941SOL     OW20281   3.149   0.423   2.884 -0.5823  0.4416 -0.3450
 2941SOL    HW120282   3.202   0.374   2.822  1.2104  2.1741 -0.1906
 2941SOL    HW220283   3.133   0.355   2.949  2.0026  1.0678  0.9443
 2942SOL     OW20284   0.608   3.666   2.843 -0.6572 -0.1553  0.0293
 2942SOL    HW120285   0.531   3.672   2.787 -0.6297 -2.5254 -0.2605
 2942SOL    HW220286   0.587   3.743   2.896 -0.4633  0.3630 -0.6457
 2943SOL     OW20287   2.145   3.457   4.368  0.6898 -0.2841  0.1253
 2943SOL    HW120288   2.057   3.419   4.366  1.1891 -1.3362 -1.9814
 2943SOL    HW220289   2.118   3.547   4.387  0.6475 -0.7158  2.0691
 2944SOL     OW20290   0.128   1.782  10.875 -0.1745 -0.1683 -0.2329
 2944SOL    HW120291   0.038   1.815  10.869  0.0954  0.9736  2.2710
 2944SOL    HW220292   0.182   1.861  10.877  0.0295 -0.3146  0.0850
 2945SOL     OW20293   3.188   3.886   8.444  0.2641  0.3161  0.5379
 2945SOL    HW120294   3.123   3.820   8.468 -1.5347  1.4010 -1.3813
 2945SOL    HW220295   3.267   3.832   8.438  0.5757  0.8136  0.1596
 2946SOL     OW20296   0.783   1.129  16.858  0.2283  0.6290  0.1979
 2946SOL    HW120297   0.713   1.175  16.905 -1.0009  1.0013 -1.9696
 2946SOL    HW220298   0.818   1.196  16.799  2.6783  1.1463  2.2409
 2947SOL     OW20299   3.529   0.391   6.744  0.2106 -0.3382 -0.0293
 2947SOL    HW120300   3.618   0.419   6.768  0.2110  0.2166 -0.6877
 2947SOL    HW220301   3.489   0.358   6.824  0.1241 -1.2462 -0.4456
 2948SOL     OW20302   2.139   0.046  11.949 -0.3694 -0.4177 -0.2852
 2948SOL    HW120303   2.125   0.079  12.037  1.2875  0.3625 -0.3157
 2948SOL    HW220304   2.093   4.686  11.959 -0.7411 -0.3105 -1.1035
 2949SOL     OW20305   3.436   1.378   8.866 -0.0631 -0.3864  0.0168
 2949SOL    HW120306   3.341   1.372   8.857 -0.1177 -1.7671  1.5176
 2949SOL    HW220307   3.446   1.387   8.961 -1.5567  1.7062 -0.0333
 2950SOL     OW20308   0.733   4.209   4.049  0.0498  0.4142 -0.1388
 2950SOL    HW120309   0.718   4.114   4.057  1.4882  0.2308  0.5798
 2950SOL    HW220310   0.815   4.210   4.000 -0.4748 -0.3283 -1.0422
 2951SOL     OW20311   0.878   2.880   9.991 -0.2058  0.5063  0.4593
 2951SOL    HW120312   0.787   2.853  10.007 -0.1407  0.3988  0.6460
 2951SOL    HW220313   0.915   2.796   9.963 -1.2082 -0.4062  1.9179
 2952SOL     OW20314   0.061   1.239   4.592  0.2701  0.1233  0.4703
 2952SOL    HW120315   0.057   1.188   4.512 -1.6296  0.0049  0.6360
 2952SOL    HW220316   0.036   1.177   4.660  1.1790  1.7548  2.3239
 2953SOL     OW20317   1.321   3.105   5.366  0.0149 -0.2023  0.1597
 2953SOL    HW120318   1.381   3.059   5.307 -2.3166 -0.5170 -1.9704
 2953SOL    HW220319   1.248   3.043   5.368 -0.3944  0.1658 -2.8179
 2954SOL     OW20320   3.163   1.009  11.700  0.3072  0.4157 -0.6832
 2954SOL    HW120321   3.079   0.976  11.669 -0.5145  2.4696 -0.6427
 2954SOL    HW220322   3.185   0.957  11.778  0.3540  0.6995 -0.5071
 2955SOL     OW20323   3.270   1.855  17.032  0.1616 -0.3295 -0.0978
 2955SOL    HW120324   3.301   1.942  17.055  1.4210 -0.6943 -0.4112
 2955SOL    HW220325   3.244   1.819  17.116 -1.7648  3.4157  0.9188
 2956SOL     OW20326   3.675   3.956   2.812 -0.1845  0.1264  0.0966
 2956SOL    HW120327   3.621   3.911   2.877  1.1382 -0.8701  0.5101
 2956SOL    HW220328   3.671   4.047   2.841  1.0516 -0.8304  3.2030
 2957SOL     OW20329   2.297   1.468   9.042  0.2770 -0.4023 -0.3633
 2957SOL    HW120330   2.292   1.528   9.116  1.9103  0.5306 -1.0127
 2957SOL    HW220331   2.348   1.522   8.982  1.1335 -1.1594 -0.3249
 2958SOL     OW20332   0.162   4.029   5.496  0.0803  0.1606  0.7814
 2958SOL    HW120333   0.213   4.070   5.566 -1.7236  0.0835  2.1380
 2958SOL    HW220334   0.158   3.939   5.529  1.5501  0.5050  1.9484
 2959SOL     OW20335   3.089   0.391   4.007 -0.0750  0.0459 -0.1074
 2959SOL    HW120336   3.174   0.395   4.052  0.5863 -1.2287 -1.2230
 2959SOL    HW220337   3.089   0.302   3.971  0.6736 -0.0014  0.0074
 2960SOL     OW20338   4.183   3.373   5.914  0.3647  0.6698 -0.2802
 2960SOL    HW120339   4.208   3.347   6.002  1.2481 -0.7002 -0.9288
 2960SOL    HW220340   4.201   3.467   5.909 -2.2499  1.2137  0.7709
 2961SOL     OW20341   3.968   2.231  10.784 -0.3357  0.7391  0.2330
 2961SOL    HW120342   3.962   2.272  10.870  2.4535  1.2457  0.1988
 2961SOL    HW220343   3.874   2.216  10.775 -0.5099  1.2324  1.3499
 2962SOL     OW20344   1.080   3.402   9.739 -0.3048  0.0207  0.1949
 2962SOL    HW120345   1.066   3.430   9.649  0.2396  2.3681  0.8377
 2962SOL    HW220346   1.037   3.317   9.729  1.2225 -0.6152 -0.9198
 2963SOL     OW20347   1.610   3.378   4.830  0.3758  0.0144  0.2829
 2963SOL    HW120348   1.695   3.421   4.814 -0.6018  1.0959 -1.9923
 2963SOL    HW220349   1.566   3.447   4.879 -0.8222 -0.5879  0.0450
 2964SOL     OW20350   3.464   2.778   0.323  0.2389 -0.0333 -0.1384
 2964SOL    HW120351   3.384   2.727   0.333 -0.5779  1.0291 -1.2215
 2964SOL    HW220352   3.447   2.847   0.386 -1.6597 -0.2540 -0.4170
 2965SOL     OW20353   3.232   3.666   4.704  0.4439 -0.2563 -0.2248
 2965SOL    HW120354   3.166   3.678   4.772  0.9851 -1.1510  0.4576
 2965SOL    HW220355   3.188   3.712   4.632  2.1973  4.5132  1.6940
 2966SOL     OW20356   3.142   4.281   8.237  0.0011  0.3847 -0.1516
 2966SOL    HW120357   3.080   4.260   8.307 -0.5097  0.9388 -0.4439
 2966SOL    HW220358   3.220   4.239   8.273  1.3930  1.1022 -2.3229
 2967SOL     OW20359   3.167   1.150  14.759 -0.0501 -0.3870 -0.4904
 2967SOL    HW120360   3.103   1.094  14.715  0.2030 -1.5099  0.5772
 2967SOL    HW220361   3.123   1.236  14.755 -0.0045 -0.3420 -0.1008
 2968SOL     OW20362   3.772   0.374   7.914  0.0806 -0.0129  0.6828
 2968SOL    HW120363   3.727   0.424   7.845  1.1853  0.9930  0.6940
 2968SOL    HW220364   3.862   0.403   7.896  0.4665 -1.3098  0.5118
 2969SOL     OW20365   3.531   3.521   4.398  0.2528  0.2859  0.5586
 2969SOL    HW120366   3.622   3.497   4.412  0.0390 -0.6714  0.2731
 2969SOL    HW220367   3.532   3.610   4.363 -0.7425  0.6215  1.3666
 2970SOL     OW20368   1.583   0.715   5.467 -0.1198  0.4400 -0.0148
 2970SOL    HW120369   1.545   0.792   5.424  1.2144  1.5922  0.8473
 2970SOL    HW220370   1.509   0.656   5.477  0.4228 -0.2164  0.1513
 2971SOL     OW20371   3.214   1.036   5.081  0.4421 -0.0061  0.0590
 2971SOL    HW120372   3.244   1.052   4.992 -0.1045  2.1853  0.2542
 2971SOL    HW220373   3.292   1.006   5.129  0.6172  1.1028  0.4759
 2972SOL     OW20374   1.769   1.703   6.853 -0.1244  0.0120  0.1698
 2972SOL    HW120375   1.735   1.614   6.844 -2.4654  0.9148  0.0522
 2972SOL    HW220376   1.822   1.699   6.774 -0.0095 -0.7401  0.2848
 2973SOL     OW20377   3.078   2.886   3.039 -0.2209 -0.3861 -0.1667
 2973SOL    HW120378   3.034   2.944   2.976  1.3598  1.4890  0.4340
 2973SOL    HW220379   3.168   2.918   3.047 -0.0610 -1.1852  1.1081
 2974SOL     OW20380   2.428   2.845   2.070  0.4775 -0.5731  0.0337
 2974SOL    HW120381   2.496   2.887   2.121 -1.0493 -1.4079  2.7521
 2974SOL    HW220382   2.464   2.845   1.981 -1.7616 -2.2668 -0.8893
 2975SOL     OW20383   4.135   4.095   9.465  0.1139  0.0786  0.7201
 2975SOL    HW120384   4.223   4.058   9.467 -0.1690 -0.6158  0.3331
 2975SOL    HW220385   4.156   4.183   9.495 -0.5188  1.6138 -3.3538
 2976SOL     OW20386   1.460   1.991   7.844  0.5882 -0.0599  0.0705
 2976SOL    HW120387   1.438   2.072   7.798 -3.5102 -0.4063  1.4942
 2976SOL    HW220388   1.419   1.925   7.788  1.5053 -0.1799 -0.4723
 2977SOL     OW20389   1.060   1.242   6.888  0.1312 -0.0285  0.0421
 2977SOL    HW120390   0.982   1.203   6.928 -0.4947  0.2248 -0.9344
 2977SOL    HW220391   1.024   1.330   6.882 -0.7679 -0.4671 -0.7326
 2978SOL     OW20392   3.218   3.197   9.323  0.0756  0.0992  0.3133
 2978SOL    HW120393   3.196   3.147   9.401 -2.7512  0.4934 -0.2337
 2978SOL    HW220394   3.298   3.153   9.292  1.0456  0.8007  1.8163
 2979SOL     OW20395   3.065   2.676   2.553  0.1365  0.1242  0.3266
 2979SOL    HW120396   3.142   2.681   2.497 -0.2382 -1.8100 -0.3906
 2979SOL    HW220397   3.105   2.703   2.635 -0.2798  0.5041  0.3999
 2980SOL     OW20398   0.746   2.011  13.633 -0.5448 -0.0479  0.0665
 2980SOL    HW120399   0.841   2.027  13.638 -0.4564 -0.4726 -0.2430
 2980SOL    HW220400   0.730   2.101  13.663  1.2449  0.4317 -0.3972
 2981SOL     OW20401   4.410   0.683   5.774  0.4268  0.1557  0.3529
 2981SOL    HW120402   4.419   0.749   5.843  1.9592  1.2461 -0.8815
 2981SOL    HW220403   4.438   0.603   5.818 -0.9656 -1.2286 -1.2802
 2982SOL     OW20404   0.951   0.605  16.624 -0.2119 -0.3630  0.1895
 2982SOL    HW120405   0.982   0.693  16.648 -1.2030  0.0403  0.0029
 2982SOL    HW220406   1.024   0.558  16.665 -1.7493 -2.1611  0.7986
 2983SOL     OW20407   3.561   1.679   5.072  0.2951  0.5200 -0.0715
 2983SOL    HW120408   3.634   1.726   5.032  1.1096 -1.0754 -0.4486
 2983SOL    HW220409   3.493   1.717   5.017  0.2176  2.2168  1.1791
 2984SOL     OW20410   0.177   4.327  12.508 -0.5340  0.0008 -0.3417
 2984SOL    HW120411   0.094   4.319  12.554 -0.9140  1.0584 -0.8545
 2984SOL    HW220412   0.166   4.260  12.442 -1.5229  0.7212 -0.9011
 2985SOL     OW20413   2.661   0.644  15.296 -0.2086  1.2426  0.7680
 2985SOL    HW120414   2.683   0.596  15.216 -1.8431 -0.4738  1.3554
 2985SOL    HW220415   2.744   0.687  15.314  2.0533 -2.0748 -1.7269
 2986SOL     OW20416   4.567   2.221   4.112 -0.3768  0.1148 -0.3882
 2986SOL    HW120417   4.632   2.168   4.066 -0.1217 -0.8283  1.0508
 2986SOL    HW220418   4.625   2.269   4.170 -1.6987  0.8974  0.2765
 2987SOL     OW20419   0.744   3.986   4.598 -0.5349  0.1544  0.4744
 2987SOL    HW120420   0.820   3.928   4.609  0.9243  1.9522 -0.0233
 2987SOL    HW220421   0.671   3.928   4.579 -0.1174 -0.6576  1.3430
 2988SOL     OW20422   3.948   2.917   7.350 -0.0873 -0.4220  0.0880
 2988SOL    HW120423   4.013   2.847   7.345  0.7150  0.3753 -0.6787
 2988SOL    HW220424   3.884   2.896   7.418 -0.3431  2.7267  0.8013
 2989SOL     OW20425   3.394   4.336   2.346 -0.5678  0.2513 -0.1373
 2989SOL    HW120426   3.382   4.430   2.358 -0.5014  0.3909 -1.2094
 2989SOL    HW220427   3.308   4.306   2.375 -1.1411  1.8234 -0.2416
 2990SOL     OW20428   4.192   1.237   3.844  0.5991 -0.2810  0.3362
 2990SOL    HW120429   4.145   1.157   3.821 -1.2326  1.5368 -2.2413
 2990SOL    HW220430   4.130   1.282   3.901 -0.3664  0.5267 -1.3427
 2991SOL     OW20431   2.990   1.172   4.618 -0.0329  0.0832 -0.2262
 2991SOL    HW120432   2.899   1.145   4.609  0.6164 -2.0936 -0.2194
 2991SOL    HW220433   3.025   1.085   4.599  1.2916  0.3344  1.1230
 2992SOL     OW20434   3.082   1.979  13.445  0.6529  0.5623  0.3682
 2992SOL    HW120435   3.023   1.933  13.386  3.7871  1.7177 -3.6799
 2992SOL    HW220436   3.039   2.063  13.457 -2.2069 -1.3301  3.4978
 2993SOL     OW20437   0.620   1.997   8.299  0.5247  0.5789 -0.4489
 2993SOL    HW120438   0.556   2.067   8.311 -0.2587  0.0665 -1.6329
 2993SOL    HW220439   0.681   2.028   8.366 -0.3687  3.3159 -0.8816
 2994SOL     OW20440   4.160   2.097  10.090  0.0034 -0.6551 -0.7365
 2994SOL    HW120441   4.215   2.020  10.076  2.6945  0.7967  1.9638
 2994SOL    HW220442   4.114   2.099  10.005 -0.9024  1.6392 -0.1947
 2995SOL     OW20443   2.991   2.878   6.947 -0.6650  0.1585  0.0470
 2995SOL    HW120444   3.028   2.964   6.926  1.7611 -0.5846  1.2227
 2995SOL    HW220445   3.035   2.816   6.888 -3.6097 -0.6657 -1.2650
 2996SOL     OW20446   4.522   2.591   6.723  0.0620  0.0970  0.3881
 2996SOL    HW120447   4.597   2.561   6.673  0.5092 -0.2968  1.2868
 2996SOL    HW220448   4.474   2.648   6.663  0.1120  0.4869  0.7153
 2997SOL     OW20449   0.135   4.523   5.167 -0.3338 -0.0595 -0.2994
 2997SOL    HW120450   0.140   4.444   5.113  0.1569 -0.4064  0.2535
 2997SOL    HW220451   0.225   4.548   5.190 -0.3375  3.0137 -3.5682
 2998SOL     OW20452   0.763   2.538   5.395 -0.0102  0.8525  0.0217
 2998SOL    HW120453   0.672   2.517   5.415  0.8015 -0.9807  1.7528
 2998SOL    HW220454   0.786   2.552   5.486  4.0813  3.7830 -1.4894
 2999SOL     OW20455   4.415   2.903   5.180 -0.4511 -0.6989 -0.2241
 2999SOL    HW120456   4.483   2.836   5.186  1.0963  0.8371 -0.8155
 2999SOL    HW220457   4.420   2.922   5.087 -0.2823 -1.0656 -0.2888
 3000SOL     OW20458   1.723   0.353   5.542 -0.0781  0.0014  0.5961
 3000SOL    HW120459   1.741   0.404   5.620 -1.0762 -0.7081  1.2840
 3000SOL    HW220460   1.648   0.302   5.572 -1.1304  0.3306 -1.4370
 3001SOL     OW20461   3.188   1.356  13.459  0.0810  0.5507 -0.1896
 3001SOL    HW120462   3.139   1.403  13.526 -1.0118  0.3917 -0.8880
 3001SOL    HW220463   3.251   1.308  13.514 -0.7208  0.2849  0.4901
 3002SOL     OW20464   4.254   1.936   4.300  0.0275 -0.0137  0.0944
 3002SOL    HW120465   4.328   1.987   4.331  0.1272  0.1440 -0.3949
 3002SOL    HW220466   4.295   1.850   4.290  0.5013  0.2154  0.0934
 3003SOL     OW20467   1.432   1.256  13.918 -0.4519 -0.1217  0.1608
 3003SOL    HW120468   1.489   1.263  13.994 -1.2453 -0.5794  0.7944
 3003SOL    HW220469   1.491   1.252  13.842 -0.3293 -1.2442  0.3112
 3004SOL     OW20470   4.628   2.959  12.696  0.1197 -0.2031  0.1425
 3004SOL    HW120471   4.550   2.930  12.743  0.6331  0.2908  1.2992
 3004SOL    HW220472   4.596   2.957  12.606 -0.8562 -0.0634  0.4866
 3005SOL     OW20473   4.391   4.505  10.338 -0.3247 -0.7270  0.5497
 3005SOL    HW120474   4.451   4.574  10.366 -1.1650  0.5553 -0.8599
 3005SOL    HW220475   4.318   4.529  10.396  0.4403 -0.3918  1.3811
 3006SOL     OW20476   3.996   0.341   3.921  0.4667  0.1478 -0.1396
 3006SOL    HW120477   4.086   0.371   3.908  0.3349 -0.2278 -1.9046
 3006SOL    HW220478   3.989   0.279   3.849 -1.1880  0.1516  0.0031
 3007SOL     OW20479   3.277   1.405  12.678 -0.1528  0.0010 -0.3451
 3007SOL    HW120480   3.285   1.492  12.639  0.7937 -0.3390 -0.8891
 3007SOL    HW220481   3.186   1.415  12.708  0.9596 -0.0435  2.9976
 3008SOL     OW20482   3.944   2.185   1.156  0.1831  0.2491  0.3274
 3008SOL    HW120483   3.898   2.159   1.076  0.5779 -0.2174  0.2475
 3008SOL    HW220484   3.929   2.100   1.199  0.2947  0.1732  0.2177
 3009SOL     OW20485   3.133   4.408   5.331 -0.2539  0.1389 -0.1846
 3009SOL    HW120486   3.156   4.333   5.386 -1.0315  0.2638  0.3048
 3009SOL    HW220487   3.222   4.414   5.295 -0.1672  2.4476  0.4252
 3010SOL     OW20488   1.715   2.186   1.882  0.0101  0.7783 -0.3225
 3010SOL    HW120489   1.773   2.260   1.867 -2.1802  2.0440 -2.5507
 3010SOL    HW220490   1.782   2.134   1.925 -0.5685  0.3282  0.0285
 3011SOL     OW20491   4.359   4.040   5.824 -0.0536 -0.6611 -0.3238
 3011SOL    HW120492   4.424   4.002   5.884 -0.5425  0.0497  0.6530
 3011SOL    HW220493   4.391   3.993   5.747 -0.8422 -2.2836  0.3234
 3012SOL     OW20494   1.189   2.787   1.191  0.0078  0.2699 -0.0378
 3012SOL    HW120495   1.277   2.760   1.164 -0.2563  0.3961 -1.0337
 3012SOL    HW220496   1.134   2.725   1.144 -1.5827  1.0720  0.7852
 3013SOL     OW20497   2.241   0.968   7.821  0.1264  0.3150  0.5979
 3013SOL    HW120498   2.252   0.979   7.916 -0.7248 -0.1665  0.7564
 3013SOL    HW220499   2.321   0.920   7.802  0.3381  1.0835 -0.4216
 3014SOL     OW20500   1.890   1.882  10.354  0.0759 -0.3900  0.2330
 3014SOL    HW120501   1.939   1.921  10.426 -0.8253  0.7871  0.2149
 3014SOL    HW220502   1.886   1.956  10.293  1.2454 -0.1298  0.4701
 3015SOL     OW20503   3.583   2.051   4.012 -0.1638  0.9070 -0.4958
 3015SOL    HW120504   3.545   2.047   4.100 -0.1018  0.1341 -0.5029
 3015SOL    HW220505   3.609   1.960   4.000  0.5665  1.3232 -2.0058
 3016SOL     OW20506   1.553   3.057   1.643 -0.4063 -0.0302  0.1628
 3016SOL    HW120507   1.477   3.020   1.688  0.4829 -1.5889  0.3784
 3016SOL    HW220508   1.570   2.991   1.576  1.8915  0.2805  0.4329
 3017SOL     OW20509   2.929   0.639   7.400 -0.3655 -0.3346  0.9606
 3017SOL    HW120510   2.866   0.633   7.472  0.0270  1.1474  1.4168
 3017SOL    HW220511   2.997   0.687   7.448 -1.2129  1.6550  0.1699
 3018SOL     OW20512   4.664   0.475   4.494 -0.0808 -0.0319  0.0994
 3018SOL    HW120513   4.714   0.419   4.434  1.3731  0.2980  0.9961
 3018SOL    HW220514   4.692   0.445   4.581 -0.5154 -1.9373 -0.4203
 3019SOL     OW20515   1.050   0.588   3.978 -0.5503 -0.2030  0.5277
 3019SOL    HW120516   0.997   0.644   3.921 -1.9063 -2.2778 -0.2636
 3019SOL    HW220517   1.016   0.601   4.067 -2.0732 -1.6186  0.1530
 3020SOL     OW20518   2.147   1.081   3.336  0.2890 -0.3784 -0.4072
 3020SOL    HW120519   2.083   1.104   3.404  0.6711 -0.0338 -0.1642
 3020SOL    HW220520   2.101   1.004   3.301 -0.0857 -0.0163 -0.7131
 3021SOL     OW20521   1.634   0.650   5.918 -0.2910 -0.0235  0.1418
 3021SOL    HW120522   1.580   0.617   5.990 -0.6546  1.4356  0.5407
 3021SOL    HW220523   1.703   0.585   5.932 -1.9205 -1.6986  0.4108
 3022SOL     OW20524   2.106   0.060   0.122  0.1701 -0.6644  0.4665
 3022SOL    HW120525   2.040   0.100   0.179 -0.1140  0.6099 -0.7718
 3022SOL    HW220526   2.067   4.703   0.089 -0.2956 -0.1024 -0.3323
 3023SOL     OW20527   4.589   4.245   3.992  0.5418  0.6604  0.0811
 3023SOL    HW120528   4.632   4.233   4.077 -1.3665  2.8701  1.3671
 3023SOL    HW220529   4.510   4.195   4.014  1.3673  0.2408  2.1233
 3024SOL     OW20530   2.174   3.580   7.187 -0.2520 -0.1066  0.3881
 3024SOL    HW120531   2.252   3.610   7.232 -0.5840  0.2933  0.6853
 3024SOL    HW220532   2.198   3.567   7.095  2.9971  3.0179  0.8208
 3025SOL     OW20533   2.732   4.154  16.827  0.3750 -0.2910 -0.4620
 3025SOL    HW120534   2.774   4.210  16.893  0.8748  0.1614 -1.1564
 3025SOL    HW220535   2.807   4.142  16.769  0.6822  0.6781 -0.2641
 3026SOL     OW20536   2.151   3.917   6.610 -0.0321 -0.4445  0.0467
 3026SOL    HW120537   2.175   3.838   6.658  0.9150 -0.0894  0.1709
 3026SOL    HW220538   2.109   3.969   6.678 -0.7271 -0.4225 -0.4054
 3027SOL     OW20539   3.852   3.186  11.748 -0.7283  0.2119 -0.2966
 3027SOL    HW120540   3.816   3.273  11.732 -0.8676  0.4076  1.0802
 3027SOL    HW220541   3.932   3.201  11.697 -0.3849 -1.2219 -0.1875
 3028SOL     OW20542   2.304   0.025   6.796 -0.3240 -0.2137  0.0932
 3028SOL    HW120543   2.253   0.106   6.797 -0.6869 -0.4305 -0.9071
 3028SOL    HW220544   2.361   0.041   6.720 -2.2565 -1.2588 -1.5894
 3029SOL     OW20545   0.301   3.042  11.948 -0.8591  0.7593 -0.5842
 3029SOL    HW120546   0.278   3.024  11.857 -1.4392  2.3617 -0.7390
 3029SOL    HW220547   0.362   3.115  11.938 -1.3467  1.2492  0.0737
 3030SOL     OW20548   0.002   3.568   0.899  0.3035  0.5088  0.4995
 3030SOL    HW120549   4.645   3.538   0.942  1.7811 -2.8609  0.8392
 3030SOL    HW220550   0.034   3.486   0.863 -2.3418  0.2476 -1.2433
 3031SOL     OW20551   2.796   1.871  11.406  0.2058  0.3299  0.4205
 3031SOL    HW120552   2.848   1.799  11.370 -0.3773 -0.7811  1.8196
 3031SOL    HW220553   2.859   1.942  11.388  0.7627  0.3789  2.5392
 3032SOL     OW20554   2.924   3.362   6.870 -0.7196 -0.3916  0.0449
 3032SOL    HW120555   2.914   3.351   6.964 -1.1308  1.6605  0.2382
 3032SOL    HW220556   2.844   3.319   6.839 -0.5496 -0.0763 -0.8409
 3033SOL     OW20557   1.095   3.502   5.935  1.3323 -0.6253  0.0040
 3033SOL    HW120558   1.182   3.481   5.901  0.9350  0.0862 -1.4906
 3033SOL    HW220559   1.057   3.428   5.983  1.6385  1.1676  2.9669
 3034SOL     OW20560   0.263   3.258   3.279 -0.1903  0.6451  0.1647
 3034SOL    HW120561   0.173   3.291   3.288 -0.0802  0.4660  1.9220
 3034SOL    HW220562   0.247   3.175   3.235  0.7002  1.1634 -1.1282
 3035SOL     OW20563   3.497   1.090   9.321  0.1525  0.2519 -0.0204
 3035SOL    HW120564   3.546   1.136   9.253 -0.0147 -0.1312 -0.3970
 3035SOL    HW220565   3.420   1.062   9.272  0.3023 -0.8541  0.3795
 3036SOL     OW20566   1.971   4.206   3.199  0.0899 -0.4562 -0.0292
 3036SOL    HW120567   1.956   4.287   3.150  0.9253  0.9153  2.0079
 3036SOL    HW220568   1.943   4.138   3.137 -0.0230 -0.4913  0.0622
 3037SOL     OW20569   1.819   4.607  14.980  0.4802  0.1019  0.1288
 3037SOL    HW120570   1.779   4.585  14.896 -2.2194  1.8847  0.9706
 3037SOL    HW220571   1.859   4.523  15.003 -3.0062 -1.6734 -0.2197
 3038SOL     OW20572   2.587   0.447   2.668 -0.1149 -0.3389 -0.3844
 3038SOL    HW120573   2.555   0.527   2.627  0.9614 -0.0137 -0.5995
 3038SOL    HW220574   2.596   0.389   2.591 -3.9234 -0.3398 -0.8428
 3039SOL     OW20575   1.791   0.536   1.186 -0.0170  0.2381 -0.4034
 3039SOL    HW120576   1.782   0.442   1.202  0.2246  0.2444 -0.2403
 3039SOL    HW220577   1.860   0.556   1.249 -0.3260 -0.0138  0.0175
 3040SOL     OW20578   0.289   0.716   8.652 -0.8707  0.0950 -0.0393
 3040SOL    HW120579   0.336   0.754   8.577  2.0724 -0.8060  1.3311
 3040SOL    HW220580   0.332   0.769   8.719  0.8294 -0.1476 -0.9195
 3041SOL     OW20581   3.825   0.203   7.261  0.6582 -0.0080 -0.4567
 3041SOL    HW120582   3.769   0.131   7.231  1.3039 -0.6760 -0.0700
 3041SOL    HW220583   3.898   0.166   7.311 -0.3244  0.5403  1.3754
 3042SOL     OW20584   0.570   4.346  16.632 -0.0139 -0.4128 -0.1281
 3042SOL    HW120585   0.578   4.380  16.543  0.0063 -2.7092 -1.0065
 3042SOL    HW220586   0.476   4.341  16.652  0.3322  0.7894  1.8197
 3043SOL     OW20587   1.764   4.524   4.560 -0.8195  0.4657 -0.3269
 3043SOL    HW120588   1.853   4.536   4.527 -0.5521 -0.4802  0.0503
 3043SOL    HW220589   1.734   4.614   4.566  0.5159  1.0821 -2.7139
 3044SOL     OW20590   0.879   1.396   2.208  0.2815  0.1219  0.2528
 3044SOL    HW120591   0.932   1.396   2.129 -0.7873  2.2516 -0.4790
 3044SOL    HW220592   0.876   1.303   2.230  1.0566 -0.1186 -0.6686
 3045SOL     OW20593   0.625   1.071   2.137  0.1204  0.1502 -0.5966
 3045SOL    HW120594   0.569   1.032   2.071 -1.5617  1.3962  0.1001
 3045SOL    HW220595   0.571   1.126   2.194  0.6128 -1.6922  1.6489
 3046SOL     OW20596   3.453   0.943   5.222 -0.2915  0.4184 -0.3293
 3046SOL    HW120597   3.462   0.957   5.316 -0.7320 -1.5269 -0.0035
 3046SOL    HW220598   3.530   0.982   5.182 -0.6199  1.4135  0.0084
 3047SOL     OW20599   3.701   1.942  15.144  0.1043 -0.0800  0.5239
 3047SOL    HW120600   3.761   1.889  15.092 -0.4637  1.6640 -1.8669
 3047SOL    HW220601   3.696   1.888  15.223  2.2484 -0.2272  0.5413
 3048SOL     OW20602   2.186   3.691   0.111 -0.3081 -0.3029 -0.2227
 3048SOL    HW120603   2.246   3.618   0.111  0.7767  0.5806 -1.7112
 3048SOL    HW220604   2.119   3.670   0.045 -0.8487 -1.0283  0.5631
 3049SOL     OW20605   1.851   3.864   2.134 -0.4134 -0.4810  0.5372
 3049SOL    HW120606   1.897   3.794   2.181  2.9291  0.9805 -0.5692
 3049SOL    HW220607   1.841   3.828   2.046  1.1892 -0.8094  0.4969
 3050SOL     OW20608   2.239   3.924   3.769 -0.1834  0.8185 -0.5285
 3050SOL    HW120609   2.210   3.986   3.702 -1.2058 -1.0125 -1.7615
 3050SOL    HW220610   2.330   3.950   3.783 -0.1148  0.9262 -1.1697
 3051SOL     OW20611   0.880   3.505   4.091 -0.1578 -0.1238  0.3502
 3051SOL    HW120612   0.794   3.545   4.101  0.1139  0.9303 -1.4362
 3051SOL    HW220613   0.922   3.507   4.177 -1.3446 -0.0816  0.9182
 3052SOL     OW20614   0.214   0.321   2.717  0.3904  0.1213  0.0544
 3052SOL    HW120615   0.299   0.335   2.758  0.6059 -0.5490 -0.1654
 3052SOL    HW220616   0.235   0.281   2.632  0.0452 -1.4889  0.7271
 3053SOL     OW20617   4.393   3.489   6.706  0.1835 -0.0795  0.1231
 3053SOL    HW120618   4.419   3.520   6.619 -0.7400 -2.3966 -0.9812
 3053SOL    HW220619   4.353   3.564   6.750 -1.9690 -1.6227  0.7751
 3054SOL     OW20620   1.484   1.579   1.810  0.8748 -0.3159  0.1328
 3054SOL    HW120621   1.422   1.613   1.874 -0.7118 -0.3069 -1.3903
 3054SOL    HW220622   1.570   1.605   1.843  0.8704  0.9133 -0.8260
 3055SOL     OW20623   3.592   2.294   8.842  0.9856 -0.2411 -0.4619
 3055SOL    HW120624   3.623   2.208   8.811  1.5537  0.0030 -0.5690
 3055SOL    HW220625   3.571   2.263   8.930  0.7863  1.2754  0.0183
 3056SOL     OW20626   2.247   2.205  11.285  0.0697 -0.3545 -0.0489
 3056SOL    HW120627   2.235   2.115  11.255 -0.5271  0.2949 -1.7470
 3056SOL    HW220628   2.323   2.192  11.342 -0.6587  1.6180  1.3755
 3057SOL     OW20629   3.236   2.930  13.927  0.4532 -0.0354 -0.1376
 3057SOL    HW120630   3.143   2.930  13.946  0.0523 -0.6989 -2.0821
 3057SOL    HW220631   3.276   2.919  14.013  2.4442  0.9307 -0.9332
 3058SOL     OW20632   3.839   1.309   7.334  0.7399  0.0911 -0.0005
 3058SOL    HW120633   3.876   1.340   7.417 -0.1910  0.6742  0.1951
 3058SOL    HW220634   3.870   1.218   7.334 -2.1634 -0.8869 -0.0642
 3059SOL     OW20635   1.864   3.809   4.884 -0.1884  0.5006  0.0931
 3059SOL    HW120636   1.786   3.848   4.924  0.0403 -1.8163  2.7925
 3059SOL    HW220637   1.908   3.886   4.850 -0.1072  1.1590  1.7076
 3060SOL     OW20638   0.103   3.341   1.848 -0.0512  0.1875 -0.1748
 3060SOL    HW120639   0.189   3.363   1.884  0.0119  1.2440 -0.9772
 3060SOL    HW220640   0.094   3.257   1.893  1.7289  0.0371 -0.1287
 3061SOL     OW20641   3.510   4.601   3.573  0.3736 -0.0544 -0.4671
 3061SOL    HW120642   3.419   4.572   3.574  0.7934 -1.3246 -0.3449
 3061SOL    HW220643   3.536   4.599   3.665 -1.1903  2.7827  0.0493
 3062SOL     OW20644   3.027   0.634   4.156  0.2704  0.1094 -0.2622
 3062SOL    HW120645   3.029   0.580   4.077  1.0266 -0.5287  0.1914
 3062SOL    HW220646   2.968   0.575   4.204 -2.2563  0.3972 -2.9973
 3063SOL     OW20647   4.454   1.543   8.451 -0.1712  0.0246  0.0010
 3063SOL    HW120648   4.483   1.513   8.537  1.8072  1.4002 -0.1788
 3063SOL    HW220649   4.508   1.622   8.445  0.0579 -0.1963 -0.8589
 3064SOL     OW20650   1.693   2.553   5.914  0.3488 -0.0512  0.1698
 3064SOL    HW120651   1.752   2.550   5.839  2.2482  0.8522  1.6491
 3064SOL    HW220652   1.699   2.644   5.942 -4.5034 -0.4291  2.5626
 3065SOL     OW20653   0.842   1.280  16.621  0.8047 -0.3319 -0.7481
 3065SOL    HW120654   0.795   1.363  16.627  0.7167 -0.5799  1.8829
 3065SOL    HW220655   0.915   1.292  16.561  0.3735 -0.3189 -1.2715
 3066SOL     OW20656   0.476   1.850  16.834 -0.2217  0.1281  0.0601
 3066SOL    HW120657   0.530   1.862  16.912 -0.9039  3.9318 -0.0467
 3066SOL    HW220658   0.526   1.894  16.766 -1.8968  2.6807  0.4984
 3067SOL     OW20659   1.866   0.602   9.385  0.0366 -0.4807 -0.0329
 3067SOL    HW120660   1.777   0.595   9.419 -0.3434  3.0944 -0.3336
 3067SOL    HW220661   1.853   0.684   9.338  1.5358 -0.1044  0.2222
 3068SOL     OW20662   2.923   3.636   4.138 -0.5501 -0.3897  0.0186
 3068SOL    HW120663   2.900   3.570   4.072 -1.9606  0.9586 -0.8359
 3068SOL    HW220664   3.010   3.608   4.164 -1.2963 -0.6499  2.2102
 3069SOL     OW20665   0.517   2.527   0.275  0.1783 -0.4135 -0.3839
 3069SOL    HW120666   0.528   2.597   0.339  2.4389 -0.9042 -0.2280
 3069SOL    HW220667   0.464   2.567   0.207  2.6724  0.8317 -1.6204
 3070SOL     OW20668   3.970   3.210  13.353 -0.0523 -0.5654  0.5856
 3070SOL    HW120669   3.899   3.273  13.362  0.2301 -0.2746  0.7734
 3070SOL    HW220670   3.918   3.129  13.358 -1.9614  0.5597 -1.3956
 3071SOL     OW20671   1.119   4.073   0.047  0.4798 -0.1952  0.1549
 3071SOL    HW120672   1.075   4.135   0.105 -1.4969 -0.4851 -1.0316
 3071SOL    HW220673   1.043   4.039  17.694 -0.6142  0.7278  1.2310
 3072SOL     OW20674   3.555   3.009   7.233  0.8589 -0.5414 -0.7652
 3072SOL    HW120675   3.538   3.103   7.236 -0.4163 -0.8412  1.2682
 3072SOL    HW220676   3.605   3.003   7.314  1.2752 -2.4026 -1.1687
 3073SOL     OW20677   3.367   4.569   4.139  0.3028 -0.0173 -0.1461
 3073SOL    HW120678   3.413   4.557   4.222 -0.7455 -1.2980  0.2450
 3073SOL    HW220679   3.278   4.590   4.167  0.4019 -0.0491  0.1983
 3074SOL     OW20680   1.541   1.863   5.595  0.2279 -0.0582  1.0999
 3074SOL    HW120681   1.450   1.892   5.594 -0.1564 -1.3039  0.1556
 3074SOL    HW220682   1.581   1.901   5.517  1.2348 -1.4536  0.9394
 3075SOL     OW20683   3.908   2.926   7.038  0.1464  0.5508 -0.8398
 3075SOL    HW120684   3.843   2.896   6.974  0.6074  0.6936 -1.3672
 3075SOL    HW220685   3.859   2.909   7.119  1.2209 -1.1639 -0.5526
 3076SOL     OW20686   1.083   2.874   7.231  0.0254  0.0098  0.6202
 3076SOL    HW120687   1.008   2.817   7.243 -0.1830 -0.6286 -3.8034
 3076SOL    HW220688   1.152   2.833   7.178 -0.3846 -0.1458  0.2123
 3077SOL     OW20689   1.194   2.514   2.607  0.4541  0.1986 -0.1207
 3077SOL    HW120690   1.101   2.528   2.623 -0.1543 -2.8699 -0.9874
 3077SOL    HW220691   1.241   2.553   2.681 -0.5045 -0.2904  0.7468
 3078SOL     OW20692   3.547   2.003  16.128  0.2967 -0.3074 -0.1783
 3078SOL    HW120693   3.610   1.963  16.188  1.3955  2.3460  0.4332
 3078SOL    HW220694   3.574   1.970  16.043  0.7872 -0.7271  0.1411
 3079SOL     OW20695   3.564   2.386  11.742 -0.6014  0.0001 -0.2034
 3079SOL    HW120696   3.549   2.467  11.790 -1.3949 -1.4252  1.9722
 3079SOL    HW220697   3.600   2.326  11.808  0.4440  0.0667 -0.7026
 3080SOL     OW20698   1.519   2.562   3.477  0.7333  0.3423  0.0963
 3080SOL    HW120699   1.502   2.541   3.569  2.0811 -1.8102 -0.1310
 3080SOL    HW220700   1.557   2.481   3.443 -2.3588 -0.8655 -0.4843
 3081SOL     OW20701   3.910   1.551   9.042  0.8050  0.4436  0.2434
 3081SOL    HW120702   3.886   1.458   9.044  2.9815 -0.1611 -1.8989
 3081SOL    HW220703   3.974   1.566   9.111  0.7991  0.1638  0.3105
 3082SOL     OW20704   0.939   1.505  12.316  0.0328 -0.1925  0.0732
 3082SOL    HW120705   0.993   1.514  12.394 -2.7398 -2.6738  2.2752
 3082SOL    HW220706   1.013   1.491  12.257 -0.1150  2.0785 -0.6424
 3083SOL     OW20707   1.527   4.150   3.698  0.1667  0.3013 -1.0011
 3083SOL    HW120708   1.592   4.218   3.719  0.3599 -0.8361  2.1776
 3083SOL    HW220709   1.551   4.087   3.767 -1.4408  1.8801  1.0125
 3084SOL     OW20710   0.236   3.526   1.216 -0.0048  0.4593  0.3457
 3084SOL    HW120711   0.184   3.606   1.212  0.1648  0.5187 -0.5915
 3084SOL    HW220712   0.309   3.532   1.155  1.6722  0.9038  2.3881
 3085SOL     OW20713   4.184   3.088   6.577 -0.1853  0.2422  0.2339
 3085SOL    HW120714   4.176   3.184   6.576  1.9949  0.4110 -1.5225
 3085SOL    HW220715   4.162   3.071   6.486  1.6212 -1.4732  0.1314
 3086SOL     OW20716   1.155   0.552   2.818 -0.1708 -0.1965 -0.1577
 3086SOL    HW120717   1.152   0.639   2.858  0.7790 -0.1672 -0.1495
 3086SOL    HW220718   1.153   0.585   2.728 -0.7201  0.0557 -0.0483
 3087SOL     OW20719   0.235   3.587   7.293  0.5355  0.5908 -0.6196
 3087SOL    HW120720   0.250   3.504   7.339  1.9212  2.3173  2.0263
 3087SOL    HW220721   0.202   3.649   7.359 -1.5867 -0.7422 -0.4428
 3088SOL     OW20722   2.945   3.741   2.347  0.2170  0.3753  0.5566
 3088SOL    HW120723   2.868   3.755   2.290  0.1063 -0.7853  0.4170
 3088SOL    HW220724   2.977   3.667   2.295 -0.5821 -0.2285  0.9253
 3089SOL     OW20725   2.395   0.597   6.684  0.1344  0.3594 -0.6076
 3089SOL    HW120726   2.372   0.601   6.591  0.5904 -1.2934 -0.7797
 3089SOL    HW220727   2.448   0.518   6.692 -0.2111  0.1975  0.1597
 3090SOL     OW20728   4.311   0.483   4.783 -0.6788 -0.0310  0.0050
 3090SOL    HW120729   4.249   0.533   4.730  1.8096  1.8993 -1.1219
 3090SOL    HW220730   4.357   0.559   4.819  0.4525  0.0053 -1.5083
 3091SOL     OW20731   1.753   2.380   2.382 -0.0490 -0.1051 -0.1452
 3091SOL    HW120732   1.664   2.358   2.409 -0.4581  0.7860 -0.7813
 3091SOL    HW220733   1.804   2.375   2.463  0.3496 -5.2379 -0.6883
 3092SOL     OW20734   0.904   0.330  16.017 -1.0597  0.7056  0.7285
 3092SOL    HW120735   0.861   0.257  16.061 -0.4918  0.6350  1.1592
 3092SOL    HW220736   0.989   0.343  16.058 -0.4562 -1.4201  0.1564
 3093SOL     OW20737   4.662   0.517  13.283 -0.2377  0.0098  0.1926
 3093SOL    HW120738   4.592   0.533  13.347 -0.9515 -0.5940 -0.4279
 3093SOL    HW220739   0.014   0.555  13.328  1.3767 -1.2178 -1.4725
 3094SOL     OW20740   2.837   3.070   9.125 -0.0345  0.3512  0.3674
 3094SOL    HW120741   2.742   3.057   9.127  0.3221 -2.1654  1.0105
 3094SOL    HW220742   2.841   3.165   9.131 -3.5652  0.6194 -1.3106
 3095SOL     OW20743   2.575   1.913  14.606 -0.1819 -0.5766 -0.2113
 3095SOL    HW120744   2.487   1.874  14.601 -0.7196  0.8114 -1.7398
 3095SOL    HW220745   2.627   1.839  14.576  0.7883  0.3530 -0.8070
 3096SOL     OW20746   4.433   2.610   5.449 -0.1710  0.0352  0.5784
 3096SOL    HW120747   4.450   2.703   5.432 -0.3846 -0.0343 -0.0388
 3096SOL    HW220748   4.423   2.572   5.361 -4.0622  1.1624  0.5601
 3097SOL     OW20749   3.169   3.206   8.218 -0.4219 -0.6472 -0.1284
 3097SOL    HW120750   3.184   3.244   8.305 -1.5006  0.7553 -0.5650
 3097SOL    HW220751   3.255   3.182   8.183 -1.0498  2.5224 -3.7621
 3098SOL     OW20752   0.326   3.105   4.271 -0.4484  0.0918  0.0389
 3098SOL    HW120753   0.418   3.130   4.285 -0.2238  0.2449 -1.6920
 3098SOL    HW220754   0.283   3.151   4.342 -1.0146  0.3486 -0.4738
 3099SOL     OW20755   0.815   1.817  11.784 -0.0892 -0.0896 -0.2707
 3099SOL    HW120756   0.806   1.791  11.692 -1.5858  1.5367 -0.5782
 3099SOL    HW220757   0.907   1.843  11.787 -0.0731 -0.1638 -0.1473
 3100SOL     OW20758   1.013   4.670   8.330 -0.4603 -0.3575 -0.2458
 3100SOL    HW120759   0.995   4.619   8.410 -3.5387  0.3216 -0.4794
 3100SOL    HW220760   0.959   0.025   8.340 -0.4723 -0.4016  0.0666
 3101SOL     OW20761   2.503   3.777  12.242  0.2345  0.0066  0.4958
 3101SOL    HW120762   2.409   3.759  12.231  0.4050 -1.0115  0.7158
 3101SOL    HW220763   2.496   3.816  12.329  1.2621 -0.8309  0.9524
 3102SOL     OW20764   2.447   1.771   0.627 -0.3634 -0.5490  0.3240
 3102SOL    HW120765   2.451   1.725   0.543  0.5462 -1.8062  1.0644
 3102SOL    HW220766   2.492   1.703   0.677  2.2303 -0.0095 -1.2572
 3103SOL     OW20767   4.027   0.131   5.863 -0.2174 -0.2813  0.0512
 3103SOL    HW120768   4.095   0.199   5.855 -1.6843  1.3600  1.5792
 3103SOL    HW220769   3.948   0.179   5.885  0.0931 -0.9274  2.5716
 3104SOL     OW20770   2.915   3.937   7.359  0.4018 -0.3464  0.4618
 3104SOL    HW120771   2.894   3.844   7.354 -1.0805  0.0699 -1.1786
 3104SOL    HW220772   2.874   3.971   7.438  2.0197 -0.0938  1.1825
 3105SOL     OW20773   4.083   2.235  12.210 -1.0691  0.5981 -0.0801
 3105SOL    HW120774   4.156   2.261  12.267 -1.4615 -0.1695  0.7759
 3105SOL    HW220775   4.035   2.316  12.228  0.8143  1.0351  3.0282
 3106SOL     OW20776   1.894   2.718  10.690 -0.1025 -0.3047 -0.2475
 3106SOL    HW120777   1.911   2.685  10.602  0.2509  0.0828 -0.3240
 3106SOL    HW220778   1.859   2.804  10.668  0.7100  0.3572  0.9975
 3107SOL     OW20779   3.648   2.693   9.770  0.4422 -0.2881 -0.6950
 3107SOL    HW120780   3.597   2.768   9.800  0.1754 -0.4258 -0.8020
 3107SOL    HW220781   3.733   2.736   9.781  0.9565 -1.7771  1.2228
 3108SOL     OW20782   3.022   1.336   6.467 -0.4616  0.4275  0.1813
 3108SOL    HW120783   2.988   1.319   6.554 -1.0797 -1.0498 -0.3453
 3108SOL    HW220784   2.945   1.304   6.420 -0.4556  0.7586 -0.0602
 3109SOL     OW20785   0.033   1.925   8.908 -0.2335 -0.1439  0.4505
 3109SOL    HW120786   0.079   1.894   8.986  0.1756  5.5543  2.5036
 3109SOL    HW220787   0.069   2.014   8.906  1.6570 -0.9833 -2.1018
 3110SOL     OW20788   0.267   2.856   5.938 -0.2551 -0.0862  0.9420
 3110SOL    HW120789   0.336   2.799   5.903 -0.3189  2.0777 -2.7554
 3110SOL    HW220790   0.239   2.803   6.013 -0.0651 -1.3013  0.1544
 3111SOL     OW20791   3.360   1.466   3.077 -0.0586 -0.0161  0.0207
 3111SOL    HW120792   3.375   1.371   3.084  3.9040  0.6214  0.3395
 3111SOL    HW220793   3.267   1.471   3.056  0.5093  1.2252 -2.1221
 3112SOL     OW20794   0.900   4.635   9.806  0.2191 -0.1071 -0.0234
 3112SOL    HW120795   0.933   4.578   9.736  1.9928 -1.0314  1.5739
 3112SOL    HW220796   0.815   4.595   9.820  0.0090  0.1809 -0.4791
 3113SOL     OW20797   1.257   2.051   7.509  0.2116 -0.6512 -0.5186
 3113SOL    HW120798   1.319   1.981   7.531 -1.0039 -2.0084 -1.4707
 3113SOL    HW220799   1.191   2.043   7.578 -1.3526  0.5816 -1.8716
 3114SOL     OW20800   1.131   4.657  13.997 -0.2250 -0.4820  0.0599
 3114SOL    HW120801   1.120   4.703  13.914 -2.3673 -0.1294  0.5374
 3114SOL    HW220802   1.043   4.620  13.999 -0.7742  0.8857  0.9932
 3115SOL     OW20803   1.358   3.479   6.436  0.4054  0.0157  0.1624
 3115SOL    HW120804   1.381   3.567   6.408 -2.0121  0.8882  0.8708
 3115SOL    HW220805   1.418   3.439   6.373 -1.4817 -2.0397 -0.3458
 3116SOL     OW20806   1.692   4.038   8.526 -0.1914  0.2830  0.5511
 3116SOL    HW120807   1.748   4.102   8.572  1.8392  1.1414 -3.1020
 3116SOL    HW220808   1.704   3.965   8.587 -0.9990 -0.9010 -0.7322
 3117SOL     OW20809   4.127   0.743   3.007 -0.1063 -0.3466 -0.1563
 3117SOL    HW120810   4.156   0.811   2.946  1.2875  1.4536  2.5270
 3117SOL    HW220811   4.202   0.686   3.023  1.0629  1.5056  0.9967
 3118SOL     OW20812   4.103   4.638  14.505 -0.0033  0.1172 -0.6103
 3118SOL    HW120813   4.108   4.659  14.598 -4.2261  1.3442 -0.6436
 3118SOL    HW220814   4.115   4.723  14.463  2.3125 -0.0187 -0.2032
 3119SOL     OW20815   2.604   1.180   5.128 -0.1835  0.1458 -0.4384
 3119SOL    HW120816   2.629   1.265   5.165 -1.2417 -0.7846  2.4437
 3119SOL    HW220817   2.626   1.122   5.201 -0.5990  2.7896  1.8111
 3120SOL     OW20818   3.198   0.547  16.829 -0.0349  0.4990 -0.1692
 3120SOL    HW120819   3.172   0.499  16.750  0.0232  1.3604 -0.7005
 3120SOL    HW220820   3.281   0.580  16.797  0.7955 -0.9000  0.5244
 3121SOL     OW20821   1.452   0.037  10.409  0.3707  0.1081 -0.0388
 3121SOL    HW120822   1.448   0.121  10.363  3.6508 -0.9964 -2.3522
 3121SOL    HW220823   1.536   0.057  10.451 -0.2164 -0.8288  1.5694
 3122SOL     OW20824   2.137   1.938  12.084 -0.3923  0.2357 -0.2174
 3122SOL    HW120825   2.135   1.902  11.996 -1.4494 -0.1040 -0.0630
 3122SOL    HW220826   2.187   1.869  12.127 -3.5038 -1.0899  1.3466
 3123SOL     OW20827   0.599   1.166   2.714 -0.1192  0.1645  0.6276
 3123SOL    HW120828   0.639   1.243   2.672  3.7600 -1.7733  0.7415
 3123SOL    HW220829   0.540   1.132   2.647  1.4733 -2.1703  0.4331
 3124SOL     OW20830   1.537   1.780   2.903  0.0935 -0.0512 -0.2566
 3124SOL    HW120831   1.505   1.705   2.851 -1.1972  1.0800 -1.0795
 3124SOL    HW220832   1.629   1.792   2.882  0.2515 -0.4784  0.1906
 3125SOL     OW20833   1.741   1.510   8.734  0.2974 -0.3664 -0.5063
 3125SOL    HW120834   1.692   1.466   8.804  1.0212 -0.5743 -0.1287
 3125SOL    HW220835   1.713   1.455   8.662  2.2209 -1.3854 -0.4644
 3126SOL     OW20836   3.460   0.012   5.044 -0.0814 -0.1536  0.0315
 3126SOL    HW120837   3.476   4.717   5.136  0.8465  0.1209 -0.0741
 3126SOL    HW220838   3.522   0.071   5.002  0.6819 -2.0462 -1.5256
 3127SOL     OW20839   0.423   3.768  12.035 -0.0525 -0.1617  0.0695
 3127SOL    HW120840   0.485   3.809  11.974  3.4002 -2.8618  1.7603
 3127SOL    HW220841   0.467   3.788  12.118  1.2275 -0.2063 -0.5972
 3128SOL     OW20842   0.231   0.057   4.148 -0.1080 -0.4097  0.1869
 3128SOL    HW120843   0.153   0.006   4.126 -0.5791  0.1848  0.4806
 3128SOL    HW220844   0.251   0.094   4.062 -1.4408 -0.1733 -0.0167
 3129SOL     OW20845   2.112   0.122   7.893  0.0039 -0.1573  0.4872
 3129SOL    HW120846   2.066   0.199   7.860  0.0893 -0.0376  0.6506
 3129SOL    HW220847   2.096   0.059   7.823 -0.1717  1.0121 -0.5145
 3130SOL     OW20848   3.304   0.556   7.402  0.3458  0.6287 -0.5009
 3130SOL    HW120849   3.283   0.631   7.347 -2.6959  0.0181 -0.1754
 3130SOL    HW220850   3.299   0.483   7.341  2.5286  0.4198 -0.4283
 3131SOL     OW20851   2.463   0.293  10.504 -0.1842  0.4017 -0.2248
 3131SOL    HW120852   2.439   0.350  10.577  1.8210 -0.8923  1.4234
 3131SOL    HW220853   2.506   0.361  10.453 -0.0979  1.4210  1.2090
 3132SOL     OW20854   4.504   3.913   8.426 -0.6903  0.5573  0.4712
 3132SOL    HW120855   4.572   3.892   8.489 -0.0033 -0.6360 -0.6857
 3132SOL    HW220856   4.477   4.002   8.449 -1.8345  0.3275  0.0218
 3133SOL     OW20857   1.571   2.389  16.414  0.3893 -0.3731  0.0854
 3133SOL    HW120858   1.576   2.364  16.322 -0.2048 -0.3272  0.0428
 3133SOL    HW220859   1.482   2.422  16.410  0.6251  0.8795  4.3815
 3134SOL     OW20860   0.366   1.650  17.000 -0.8248  0.6987  0.0717
 3134SOL    HW120861   0.413   1.705  16.938 -0.0595  1.0610  0.9701
 3134SOL    HW220862   0.287   1.642  16.946  0.3062  1.7604 -1.7432
 3135SOL     OW20863   3.698   1.616  13.340  0.0751  0.3822  0.4144
 3135SOL    HW120864   3.781   1.636  13.383  1.9293 -0.1760 -2.8197
 3135SOL    HW220865   3.670   1.544  13.396  0.6129 -1.3595 -1.5432
 3136SOL     OW20866   1.140   1.039   3.851  1.0122  0.0971 -0.3244
 3136SOL    HW120867   1.089   1.079   3.780  1.5988  1.0937 -0.1838
 3136SOL    HW220868   1.186   0.969   3.803 -1.9530  0.4413 -3.7172
 3137SOL     OW20869   1.719   0.102   9.132  0.4983 -0.3202 -0.1851
 3137SOL    HW120870   1.728   0.197   9.117  1.4687 -0.4579 -0.5233
 3137SOL    HW220871   1.758   0.101   9.219  1.7780  0.7929 -0.7370
 3138SOL     OW20872   3.518   4.126  16.352  0.4690 -0.5128  0.4481
 3138SOL    HW120873   3.582   4.099  16.418  1.2873 -1.3252 -0.6567
 3138SOL    HW220874   3.575   4.174  16.292  0.8881  2.3156  3.1431
 3139SOL     OW20875   1.100   4.429   5.766  0.1906 -0.1989  0.1834
 3139SOL    HW120876   1.185   4.414   5.725  0.0632 -0.3201 -0.0380
 3139SOL    HW220877   1.063   4.341   5.760  3.2441 -1.5012  0.4577
 3140SOL     OW20878   2.923   2.588   3.802  0.1927 -1.0931  0.1897
 3140SOL    HW120879   2.861   2.649   3.842 -0.1431  0.6225 -2.9455
 3140SOL    HW220880   2.988   2.567   3.869  1.2921  0.1448 -0.5048
 3141SOL     OW20881   1.976   1.050  11.214 -0.5835  0.1304 -0.3576
 3141SOL    HW120882   2.006   1.025  11.302  1.9009  0.0656 -1.2265
 3141SOL    HW220883   1.928   0.969  11.199  0.6125 -1.3199  3.5253
 3142SOL     OW20884   0.840   4.252   2.231  0.2288  0.1021  0.0622
 3142SOL    HW120885   0.914   4.282   2.284  1.7691 -0.1238 -1.9451
 3142SOL    HW220886   0.844   4.164   2.267  0.0642  0.1337  0.1568
 3143SOL     OW20887   2.277   2.497   8.599  0.3139 -0.1854 -0.5525
 3143SOL    HW120888   2.304   2.411   8.568  2.0470  0.0305  0.3423
 3143SOL    HW220889   2.183   2.481   8.602  0.6841 -1.9190  1.2025
 3144SOL     OW20890   1.178   1.886   6.770  0.4797 -0.7022  0.2245
 3144SOL    HW120891   1.158   1.849   6.684 -0.5532 -0.6670  0.4559
 3144SOL    HW220892   1.270   1.913   6.770  0.4076 -0.4582  0.6031
 3145SOL     OW20893   4.711   0.435   0.004  0.3429  0.0867  0.9754
 3145SOL    HW120894   0.082   0.449  17.692  0.3189  0.7593  2.1127
 3145SOL    HW220895   4.694   0.511   0.060  1.6459 -0.9319  2.7520
 3146SOL     OW20896   4.455   0.595   8.227  0.1999 -0.1735 -0.1944
 3146SOL    HW120897   4.480   0.540   8.301 -0.8496  1.0579  1.0741
 3146SOL    HW220898   4.413   0.669   8.270  2.6375  1.1095 -0.0304
 3147SOL     OW20899   1.994   1.230   4.911 -0.0506 -0.3646 -0.3934
 3147SOL    HW120900   1.921   1.180   4.947 -0.8651  1.5443  0.6558
 3147SOL    HW220901   2.025   1.175   4.840 -2.0576 -1.2396 -0.6072
 3148SOL     OW20902   1.596   3.874  14.683 -0.2852  0.2712  0.7644
 3148SOL    HW120903   1.592   3.951  14.626  0.5177  0.8215  1.4553
 3148SOL    HW220904   1.600   3.907  14.773  0.4815  2.1933  0.0222
 3149SOL     OW20905   1.992   3.472   6.853  0.4965 -0.3829 -0.5497
 3149SOL    HW120906   1.956   3.383   6.847 -0.1589 -0.3116  2.5481
 3149SOL    HW220907   2.080   3.449   6.881  0.7751  0.4563 -0.7517
 3150SOL     OW20908   4.697   2.520   3.433  0.5163  0.3041  0.6325
 3150SOL    HW120909   0.058   2.547   3.469  1.4668 -3.4976  1.2674
 3150SOL    HW220910   4.650   2.577   3.493 -0.5643  0.1285 -0.0530
 3151SOL     OW20911   3.403   1.577   7.104  0.0127 -0.2899 -0.0323
 3151SOL    HW120912   3.480   1.605   7.055  0.6240 -0.2537  0.9626
 3151SOL    HW220913   3.356   1.542   7.028  1.8109 -0.3705 -1.1137
 3152SOL     OW20914   0.210   3.296   4.458  0.7406  0.3415 -0.6514
 3152SOL    HW120915   0.225   3.373   4.402  1.1541 -1.1008 -2.5514
 3152SOL    HW220916   0.267   3.318   4.531 -1.3152  0.5337  0.8888
 3153SOL     OW20917   2.249   1.416  11.077 -0.1936 -0.3518  0.7879
 3153SOL    HW120918   2.249   1.486  11.142 -0.1073 -0.3824  0.8212
 3153SOL    HW220919   2.157   1.422  11.054 -0.1619 -3.4921 -0.2137
 3154SOL     OW20920   4.218   2.023  13.328  0.2617 -0.0917  0.2309
 3154SOL    HW120921   4.188   2.109  13.298  2.7889 -0.1060 -2.3624
 3154SOL    HW220922   4.170   2.010  13.410 -0.1667  1.3123  0.1980
 3155SOL     OW20923   3.246   0.706   5.993  0.2682  0.3008  0.0684
 3155SOL    HW120924   3.231   0.752   6.076  0.3060 -0.5718  0.5659
 3155SOL    HW220925   3.282   0.774   5.936 -3.2175  1.9008 -0.2089
 3156SOL     OW20926   0.369   1.513  10.987  0.5710 -0.1433  0.3747
 3156SOL    HW120927   0.390   1.580  11.052 -2.0411  1.0333  0.0234
 3156SOL    HW220928   0.325   1.454  11.048  2.4142 -1.3766  0.5140
 3157SOL     OW20929   3.258   0.195  12.251  0.4801 -0.0647  0.1472
 3157SOL    HW120930   3.195   0.129  12.224 -0.8254  1.2069  0.0676
 3157SOL    HW220931   3.235   0.262  12.187  2.5497  1.9602  1.5344
 3158SOL     OW20932   0.187   0.253  10.416 -0.3011 -0.2094 -0.1803
 3158SOL    HW120933   0.194   0.163  10.448 -0.2877 -0.1477 -0.0143
 3158SOL    HW220934   0.275   0.282  10.393  0.6029 -2.3512  0.5755
 3159SOL     OW20935   1.972   2.131   5.573  0.6213  0.5220  0.2915
 3159SOL    HW120936   1.938   2.193   5.508 -1.7611 -0.7562  0.3270
 3159SOL    HW220937   2.051   2.093   5.534 -0.4182 -1.4327  0.0694
 3160SOL     OW20938   4.045   1.156   0.187  0.1034  0.1449  0.0332
 3160SOL    HW120939   3.976   1.171   0.122  0.8425  0.1121 -0.7495
 3160SOL    HW220940   3.990   1.140   0.264 -0.1499 -1.1072 -0.4079
 3161SOL     OW20941   4.599   0.478   9.499 -0.6506  0.3999  0.1965
 3161SOL    HW120942   4.562   0.503   9.584  1.2701  1.0705  0.8473
 3161SOL    HW220943   4.639   0.562   9.476  0.7371 -0.5620 -0.8572
 3162SOL     OW20944   0.500   4.239   1.515 -0.2938 -1.0842  0.2566
 3162SOL    HW120945   0.458   4.160   1.480 -1.7959 -0.7505  1.3449
 3162SOL    HW220946   0.557   4.202   1.582  1.0420 -3.0928 -1.9515
 3163SOL     OW20947   2.515   3.817  14.115 -0.5459 -0.4269 -0.3298
 3163SOL    HW120948   2.599   3.814  14.068 -0.9221  1.8988 -1.1158
 3163SOL    HW220949   2.451   3.867  14.065 -1.3039 -1.0113  0.0741
 3164SOL     OW20950   3.931   2.481  14.973 -0.5271  0.0171 -0.7916
 3164SOL    HW120951   3.865   2.490  14.904  1.0724  1.6592 -2.1055
 3164SOL    HW220952   3.991   2.553  14.951  0.9473 -0.6884  0.8810
 3165SOL     OW20953   2.021   2.391   8.597 -0.1886  0.3983  0.5269
 3165SOL    HW120954   1.979   2.473   8.573  1.9821  0.9478 -1.4345
 3165SOL    HW220955   1.937   2.349   8.613  0.3308 -0.3366  1.3840
 3166SOL     OW20956   2.891   0.003   5.216  0.4094 -0.0889 -0.5296
 3166SOL    HW120957   2.900   0.085   5.167 -0.8000  1.2900  1.5631
 3166SOL    HW220958   2.978   4.714   5.254  0.1328  1.5394  0.6130
 3167SOL     OW20959   1.569   0.842   3.122 -0.5348 -0.2696 -0.2319
 3167SOL    HW120960   1.626   0.915   3.145 -1.6015  0.1506  1.0508
 3167SOL    HW220961   1.486   0.887   3.108  0.0388  0.9773  0.4359
 3168SOL     OW20962   3.965   2.023   1.916  0.2617 -0.7334 -0.2260
 3168SOL    HW120963   4.005   2.020   2.003 -0.2360 -0.2013  0.0217
 3168SOL    HW220964   4.026   2.056   1.850 -1.4029  3.1236  0.1614
 3169SOL     OW20965   1.484   4.236   8.606 -0.6768  0.1399 -0.0048
 3169SOL    HW120966   1.412   4.238   8.669  1.9175  1.4578  2.8729
 3169SOL    HW220967   1.540   4.297   8.654 -0.2826 -1.3089  1.3872
 3170SOL     OW20968   0.869   3.069   5.016  0.4223  0.4029  0.0947
 3170SOL    HW120969   0.803   3.133   4.989  0.0489  0.9343  2.2712
 3170SOL    HW220970   0.818   3.005   5.067  1.3774 -0.4032  0.0212
 3171SOL     OW20971   3.893   3.431   0.764 -0.2508 -0.5776  0.3663
 3171SOL    HW120972   3.806   3.403   0.790 -0.9526  3.3334  2.1828
 3171SOL    HW220973   3.876   3.480   0.683 -1.6113 -0.4554  0.7397
 3172SOL     OW20974   0.917   4.043   7.864 -0.0418  0.0564  0.5031
 3172SOL    HW120975   0.999   4.003   7.836  0.5286  0.1552  2.0512
 3172SOL    HW220976   0.937   4.134   7.840  2.3326 -0.9500 -1.3773
 3173SOL     OW20977   1.206   0.952  17.173  0.3024  0.4584 -0.1334
 3173SOL    HW120978   1.136   0.943  17.109 -0.0216 -1.1429  0.4491
 3173SOL    HW220979   1.198   1.038  17.215 -1.7887  0.4148 -0.4697
 3174SOL     OW20980   1.206   2.088   9.002  0.3542 -0.2852 -0.4399
 3174SOL    HW120981   1.209   2.069   8.909 -1.2778 -0.3660 -0.4845
 3174SOL    HW220982   1.200   2.000   9.038 -3.1905  0.9475  1.9849
 3175SOL     OW20983   1.470   2.595   3.990  0.2843 -0.4364 -0.1980
 3175SOL    HW120984   1.377   2.611   3.972  0.2026 -2.7079 -1.8072
 3175SOL    HW220985   1.498   2.676   3.947  1.4019 -0.3553  0.6920
 3176SOL     OW20986   1.586   4.636   0.492 -0.3214 -0.6071  0.6059
 3176SOL    HW120987   1.604   4.546   0.518  2.0879 -0.3559 -0.2123
 3176SOL    HW220988   1.659   4.681   0.535  0.0218 -0.4678 -0.1355
 3177SOL     OW20989   1.573   4.043  14.453 -0.1254  0.1068 -0.0200
 3177SOL    HW120990   1.611   3.979  14.393 -3.1746 -1.8398  0.1719
 3177SOL    HW220991   1.524   4.094  14.388 -3.1102 -0.7354  1.5707
 3178SOL     OW20992   4.175   4.022   2.840  0.5215  0.2160  0.2507
 3178SOL    HW120993   4.235   4.019   2.765 -0.3706  0.1487 -0.4511
 3178SOL    HW220994   4.099   4.055   2.793  0.5982  0.7667  0.5165
 3179SOL     OW20995   4.551   0.819   2.893 -0.3657 -0.1097 -0.3728
 3179SOL    HW120996   4.625   0.780   2.846  1.0563 -0.5441  2.2120
 3179SOL    HW220997   4.486   0.838   2.826 -2.5905  0.4590  1.9485
 3180SOL     OW20998   0.089   3.784   1.172  0.4248  0.0692 -0.2686
 3180SOL    HW120999   0.026   3.724   1.212  1.3256 -0.3829  0.4847
 3180SOL    HW221000   0.074   3.865   1.222 -0.7352  0.7529 -1.7381
 3181SOL     OW21001   0.993   0.927   4.277  0.4309 -0.5512  0.6463
 3181SOL    HW121002   0.953   1.009   4.248 -1.2542 -2.1776 -1.6798
 3181SOL    HW221003   1.072   0.934   4.222 -0.3444  0.7494 -0.2928
 3182SOL     OW21004   4.492   0.467  13.512 -0.4380  0.3837  0.3889
 3182SOL    HW121005   4.426   0.534  13.492 -2.9297 -1.5265  2.1544
 3182SOL    HW221006   4.443   0.387  13.534 -2.2740  1.1009 -1.0318
 3183SOL     OW21007   2.444   0.635  14.919 -0.2599  0.5292  0.0031
 3183SOL    HW121008   2.523   0.682  14.945  0.3770 -1.0508  0.9090
 3183SOL    HW221009   2.472   0.544  14.924 -0.4080  0.4102 -1.2205
 3184SOL     OW21010   1.474   3.217   8.127 -0.3893 -0.0725  0.3830
 3184SOL    HW121011   1.415   3.215   8.202  0.6872  3.4939  1.3089
 3184SOL    HW221012   1.550   3.166   8.156 -1.3760 -2.5994 -1.4151
 3185SOL     OW21013   0.749   0.655   5.395 -0.2790  0.2619 -0.0563
 3185SOL    HW121014   0.682   0.722   5.412 -0.8424  0.1712 -2.0020
 3185SOL    HW221015   0.747   0.601   5.474  1.6284  1.4373  0.8043
 3186SOL     OW21016   4.534   3.217   8.772  0.5385  0.0560 -0.5231
 3186SOL    HW121017   4.586   3.187   8.846  0.1233 -0.7552 -0.5585
 3186SOL    HW221018   4.453   3.247   8.815  1.2137  0.9599  0.1090
 3187SOL     OW21019   2.175   0.047  13.812  0.1700  0.0268  0.8619
 3187SOL    HW121020   2.189   0.066  13.719 -1.5341 -3.9109 -0.2137
 3187SOL    HW221021   2.170   4.675  13.805  1.2162 -0.0069  0.6547
 3188SOL     OW21022   1.493   0.116  10.758  0.1380 -0.1302  0.0060
 3188SOL    HW121023   1.487   0.152  10.847 -0.1401 -1.8265  0.6767
 3188SOL    HW221024   1.401   0.122  10.732 -0.1126 -3.7448 -0.0168
 3189SOL     OW21025   0.455   0.615   7.037 -0.2002  0.0832 -0.4320
 3189SOL    HW121026   0.459   0.546   7.103 -2.6473  0.0459 -0.3447
 3189SOL    HW221027   0.416   0.569   6.963 -0.5385 -1.3908  0.6642
 3190SOL     OW21028   3.952   4.575   5.677 -0.1253  0.1528  0.1146
 3190SOL    HW121029   3.992   4.649   5.724 -2.1145  1.4029 -0.1882
 3190SOL    HW221030   3.913   4.613   5.599 -0.9945 -0.7897  0.0959
 3191SOL     OW21031   0.720   4.092   7.485  0.3625  0.6185  0.2424
 3191SOL    HW121032   0.805   4.109   7.443  0.5966  0.1906  0.5509
 3191SOL    HW221033   0.721   3.999   7.505 -0.1290  0.1945 -1.6908
 3192SOL     OW21034   2.068   1.661   5.188 -0.1070  0.4716  0.3518
 3192SOL    HW121035   2.029   1.590   5.137  1.7495 -0.4542  0.2185
 3192SOL    HW221036   2.157   1.626   5.181 -0.1493  0.3433  0.4497
 3193SOL     OW21037   0.974   3.158   8.459  0.0521  0.1038 -0.4131
 3193SOL    HW121038   0.951   3.247   8.431 -1.0012  0.0175  0.1484
 3193SOL    HW221039   0.947   3.161   8.551  2.7115  1.4877  0.3129
 3194SOL     OW21040   1.104   2.686   9.210  0.0277  0.0312  0.2515
 3194SOL    HW121041   1.075   2.757   9.268 -1.3727 -1.5945  1.5736
 3194SOL    HW221042   1.015   2.656   9.188  0.1549  1.2044 -1.8394
 3195SOL     OW21043   1.246   0.466  14.740 -0.2190 -0.5276 -0.4143
 3195SOL    HW121044   1.250   0.555  14.703  1.9374 -0.3365  0.2678
 3195SOL    HW221045   1.333   0.434  14.718  0.0311 -0.8621  1.0495
 3196SOL     OW21046   3.594   2.124   2.755 -0.3957 -0.3946 -0.2484
 3196SOL    HW121047   3.555   2.039   2.733 -0.7153 -0.1802 -0.5053
 3196SOL    HW221048   3.542   2.138   2.834  1.9523  2.6050  0.7447
 3197SOL     OW21049   3.041   1.977   2.701  0.1650  0.0150  0.1569
 3197SOL    HW121050   3.040   1.901   2.643 -1.3600  1.5506 -1.8052
 3197SOL    HW221051   2.949   1.996   2.715  0.3059  0.9225 -0.1331
 3198SOL     OW21052   2.155   1.907  12.630 -0.5129  0.2050 -0.0451
 3198SOL    HW121053   2.112   1.976  12.679 -1.7349 -0.0755 -0.7402
 3198SOL    HW221054   2.199   1.864  12.704  2.9318  2.0674 -1.0087
 3199SOL     OW21055   4.468   1.059  16.411 -0.0141  0.4516 -0.0533
 3199SOL    HW121056   4.386   1.095  16.377  0.3238  0.3108 -1.0079
 3199SOL    HW221057   4.447   1.045  16.504  1.0504 -0.5573  0.0261
 3200SOL     OW21058   4.693   0.918   8.358  0.5170 -0.5089  0.3554
 3200SOL    HW121059   4.656   1.006   8.348  0.9581 -0.4659 -0.9559
 3200SOL    HW221060   0.012   0.923   8.444  0.8271 -2.4303  0.2990
 3201SOL     OW21061   3.430   1.616  10.503 -0.1348 -0.2369 -0.1017
 3201SOL    HW121062   3.419   1.565  10.423  1.1774  0.3463 -0.6627
 3201SOL    HW221063   3.398   1.545  10.559  0.3515 -1.1258 -0.9394
 3202SOL     OW21064   1.976   3.312   5.846  0.3322  0.1207  0.6308
 3202SOL    HW121065   1.969   3.237   5.904  0.0539 -0.4069 -0.0865
 3202SOL    HW221066   1.906   3.289   5.785 -0.0663  2.0700  0.3440
 3203SOL     OW21067   0.392   2.835   5.149  0.1070 -0.4934 -0.0631
 3203SOL    HW121068   0.357   2.792   5.226  1.9695 -3.1829 -0.7161
 3203SOL    HW221069   0.374   2.772   5.079  0.0553  0.0561 -0.5416
 3204SOL     OW21070   2.331   4.617   4.525 -0.1468 -0.2981  0.0699
 3204SOL    HW121071   2.331   4.685   4.592 -0.7973 -0.1181 -0.1134
 3204SOL    HW221072   2.353   4.671   4.449  3.6448 -0.5052  1.0127
 3205SOL     OW21073   1.384   0.490   4.367  0.3397  0.1821  0.1302
 3205SOL    HW121074   1.417   0.411   4.324 -1.0924 -1.9953  2.9919
 3205SOL    HW221075   1.359   0.543   4.292 -2.3603  0.0493  0.9474
 3206SOL     OW21076   1.353   3.915   0.559  0.5480 -0.7090 -0.6910
 3206SOL    HW121077   1.315   3.987   0.509 -0.8952 -2.7277 -2.4863
 3206SOL    HW221078   1.278   3.860   0.581  0.2964 -0.6612 -1.4379
 3207SOL     OW21079   3.285   2.614   8.029 -0.0753  0.1596 -0.2926
 3207SOL    HW121080   3.303   2.693   7.978  1.5665 -0.2808 -0.3839
 3207SOL    HW221081   3.214   2.579   7.975 -0.7498  1.1285 -0.0342
 3208SOL     OW21082   1.275   3.458  13.154 -0.3897  0.3774  0.2332
 3208SOL    HW121083   1.358   3.428  13.116 -0.3526 -0.3472  0.8818
 3208SOL    HW221084   1.216   3.403  13.102  0.2357 -0.3553  0.2945
 3209SOL     OW21085   2.214   0.017  10.767 -0.2558 -0.3264 -0.2165
 3209SOL    HW121086   2.296   4.691  10.769 -0.9577 -1.5081 -0.8789
 3209SOL    HW221087   2.231   0.092  10.824  0.5746 -0.1768 -0.6524
 3210SOL     OW21088   2.608   2.240  16.992  0.0217 -0.3332  0.8148
 3210SOL    HW121089   2.703   2.231  16.989  0.1176  1.0584 -0.5321
 3210SOL    HW221090   2.615   2.334  17.008  1.3609 -0.4729  1.0685
 3211SOL     OW21091   1.939   1.916  11.496 -0.0958 -0.3357 -0.1905
 3211SOL    HW121092   1.899   1.995  11.461  1.4910  0.9025  0.7648
 3211SOL    HW221093   1.861   1.861  11.486  0.6100 -1.5802  1.0835
 3212SOL     OW21094   0.540   4.548  16.407 -0.4932 -0.0638  0.0118
 3212SOL    HW121095   0.543   4.529  16.314  1.7446 -0.3845  0.1505
 3212SOL    HW221096   0.479   4.621  16.419 -1.1996 -0.5849 -0.4099
 3213SOL     OW21097   2.776   0.815   7.225 -0.2448 -0.4893 -0.0130
 3213SOL    HW121098   2.796   0.899   7.267  1.7329 -0.6156 -0.6916
 3213SOL    HW221099   2.822   0.750   7.279  0.2276 -0.9861 -1.0177
 3214SOL     OW21100   4.630   2.793   4.677  0.0525 -0.0200  0.2623
 3214SOL    HW121101   4.581   2.712   4.696  1.0522 -0.6010  0.3529
 3214SOL    HW221102   4.695   2.790   4.747  1.7241  0.3718 -1.2912
 3215SOL     OW21103   3.180   2.421  10.932  0.4357 -0.3010 -0.6302
 3215SOL    HW121104   3.166   2.424  11.026 -0.1167 -1.7058 -0.6613
 3215SOL    HW221105   3.271   2.440  10.910  0.6919 -1.3860 -0.5135
 3216SOL     OW21106   3.609   4.276   3.233 -0.1834 -0.0953 -0.2799
 3216SOL    HW121107   3.525   4.310   3.265 -0.5421 -1.7015  0.4743
 3216SOL    HW221108   3.619   4.314   3.145  0.6773 -0.5361 -0.3732
 3217SOL     OW21109   0.461   2.215   1.620 -0.7407  0.3740 -0.0393
 3217SOL    HW121110   0.409   2.136   1.633  1.8840 -1.0637  1.8427
 3217SOL    HW221111   0.430   2.265   1.696 -0.0815 -0.7039  0.9330
 3218SOL     OW21112   0.149   1.577   3.795  0.1954 -0.1545  0.3023
 3218SOL    HW121113   0.189   1.492   3.773  1.3146 -0.1772  2.4433
 3218SOL    HW221114   0.196   1.636   3.736  0.2191 -2.0949 -1.6360
 3219SOL     OW21115   3.097   4.705   3.213 -0.2673 -0.4605  0.4175
 3219SOL    HW121116   3.072   4.616   3.186  0.0653 -0.3670 -0.2036
 3219SOL    HW221117   3.068   4.706   3.304  0.6671 -2.0187  0.7458
 3220SOL     OW21118   4.283   0.000   8.940 -0.4949 -0.3575  0.4214
 3220SOL    HW121119   4.337   4.698   9.015 -0.2016  2.2337  1.0869
 3220SOL    HW221120   4.247   0.085   8.965 -0.3836 -0.3385  0.5212
 3221SOL     OW21121   1.667   3.672   9.362  0.0247 -0.6879 -0.1027
 3221SOL    HW121122   1.606   3.611   9.320 -0.3620 -2.0390  2.3871
 3221SOL    HW221123   1.642   3.653   9.453  0.6222 -2.3052 -0.2751
 3222SOL     OW21124   2.971   0.511   1.147 -0.3542 -0.0701 -0.3134
 3222SOL    HW121125   2.990   0.605   1.152  0.6297 -0.1982 -1.8879
 3222SOL    HW221126   2.886   0.504   1.191  0.3469  1.2681  1.2685
 3223SOL     OW21127   1.148   2.612   6.961 -0.1087 -0.3881 -0.4719
 3223SOL    HW121128   1.063   2.631   7.000  0.8283  0.5411  1.0774
 3223SOL    HW221129   1.206   2.650   7.026 -0.9903  0.2310 -0.0540
 3224SOL     OW21130   3.049   1.532  13.603  0.2501  0.0790 -0.0787
 3224SOL    HW121131   3.060   1.508  13.695 -1.3601  2.7296  0.7934
 3224SOL    HW221132   3.092   1.617  13.609  0.3133  0.2873 -3.3947
 3225SOL     OW21133   1.484   2.071  15.944 -0.3467 -0.1467  0.1155
 3225SOL    HW121134   1.392   2.050  15.924  0.2571 -1.4734 -1.2717
 3225SOL    HW221135   1.501   2.128  15.868  1.3413  0.6554  1.0938
 3226SOL     OW21136   0.597   1.134   6.824  0.3125  0.3748  0.5564
 3226SOL    HW121137   0.530   1.074   6.856  0.4940 -0.2621 -0.2290
 3226SOL    HW221138   0.569   1.134   6.732  2.1148  0.1925  0.0011
 3227SOL     OW21139   2.350   2.493   5.038 -0.0321  0.2428  0.5624
 3227SOL    HW121140   2.374   2.528   4.952 -0.0633 -0.7191  0.1659
 3227SOL    HW221141   2.361   2.403   5.008  1.9329  0.6104  0.1985
 3228SOL     OW21142   2.708   2.558  17.483  0.8700  0.5696 -0.4993
 3228SOL    HW121143   2.718   2.650  17.458 -2.6717  0.3115 -2.8392
 3228SOL    HW221144   2.768   2.546  17.557  2.3429 -2.0147 -2.1249
 3229SOL     OW21145   3.339   0.689   5.271 -0.0485  0.2820  0.0391
 3229SOL    HW121146   3.366   0.660   5.357 -1.5194 -1.4936 -0.0958
 3229SOL    HW221147   3.389   0.770   5.258 -0.4146  0.4688 -0.2392
 3230SOL     OW21148   2.705   1.732   7.187 -0.2064 -0.4208 -0.0208
 3230SOL    HW121149   2.692   1.822   7.218 -2.8199 -0.1550 -1.9266
 3230SOL    HW221150   2.794   1.708   7.213 -0.9721 -2.2527  0.8655
 3231SOL     OW21151   0.226   1.865   2.423  0.0271  0.2471 -0.2315
 3231SOL    HW121152   0.226   1.822   2.508  0.0865 -0.9757 -0.8406
 3231SOL    HW221153   0.162   1.820   2.368 -2.2810  0.6023  2.1731
 3232SOL     OW21154   0.093   1.085  16.895  0.0416  0.6804 -0.5682
 3232SOL    HW121155   0.115   1.084  16.988 -0.5066  2.3167 -0.4195
 3232SOL    HW221156   0.117   1.174  16.868 -1.9008  0.8700 -1.6548
 3233SOL     OW21157   2.038   4.512   3.682  0.2620 -0.0219 -0.0879
 3233SOL    HW121158   1.948   4.522   3.713  0.2796  0.9747 -0.3712
 3233SOL    HW221159   2.028   4.445   3.614 -1.9487 -0.4271  0.6489
 3234SOL     OW21160   0.824   1.890  10.363 -0.3077 -0.1287 -0.8295
 3234SOL    HW121161   0.878   1.814  10.341  2.2723  2.2657 -2.7755
 3234SOL    HW221162   0.742   1.844  10.383  0.3910 -1.2514 -0.5850
 3235SOL     OW21163   0.318   1.361  13.928  0.0720 -0.1999  0.4221
 3235SOL    HW121164   0.250   1.343  13.992  1.3321 -1.6914  1.3538
 3235SOL    HW221165   0.288   1.435  13.875  0.2553 -0.3720  0.0749
 3236SOL     OW21166   1.632   2.485  10.448  0.0954 -0.2191  0.5764
 3236SOL    HW121167   1.664   2.571  10.421 -2.5070  0.0831 -1.5330
 3236SOL    HW221168   1.540   2.506  10.468 -0.5819 -1.5768 -1.1201
 3237SOL     OW21169   0.541   1.894   3.691  0.1827  0.9567 -0.0254
 3237SOL    HW121170   0.593   1.942   3.755 -0.1762 -0.3983  1.2630
 3237SOL    HW221171   0.609   1.839   3.652 -0.5148  1.1287 -1.5300
 3238SOL     OW21172   4.360   4.604   3.388 -0.6038 -0.2242 -0.1383
 3238SOL    HW121173   4.406   4.658   3.324  2.0521 -2.1578  0.1529
 3238SOL    HW221174   4.421   4.537   3.419 -0.3880 -0.4534 -1.0801
 3239SOL     OW21175   2.476   4.703  11.561 -0.3108  0.1330 -0.1899
 3239SOL    HW121176   2.513   0.005  11.645  0.0929  0.6580 -0.5293
 3239SOL    HW221177   2.532   4.628  11.543  0.5628  0.5633  0.8050
 3240SOL     OW21178   1.300   2.831   6.403 -0.4494  0.2031  0.2060
 3240SOL    HW121179   1.318   2.781   6.483 -0.4714 -0.8573 -0.4434
 3240SOL    HW221180   1.213   2.794   6.387 -0.5776  0.4756  0.2829
 3241SOL     OW21181   1.419   0.322   9.305 -0.4436 -0.5912  0.3244
 3241SOL    HW121182   1.416   0.231   9.333  0.9840 -0.4893  0.8247
 3241SOL    HW221183   1.403   0.364   9.389 -0.1543 -0.2273  0.1961
 3242SOL     OW21184   2.906   1.851  14.473 -0.0167 -0.4150  0.4962
 3242SOL    HW121185   2.904   1.852  14.569  1.3942  1.1638  0.5294
 3242SOL    HW221186   2.923   1.758  14.459 -0.1653 -0.1752 -1.2791
 3243SOL     OW21187   4.459   0.861   9.416  0.4906  0.2516 -0.3590
 3243SOL    HW121188   4.393   0.807   9.459  1.7355 -2.1443 -1.4630
 3243SOL    HW221189   4.547   0.829   9.432  0.4693  0.2880 -0.1701
 3244SOL     OW21190   2.315   3.083  17.408 -0.3508 -0.8183 -0.0320
 3244SOL    HW121191   2.268   3.118  17.333  1.4252 -0.6033 -1.0553
 3244SOL    HW221192   2.288   2.991  17.400  1.4792 -1.6336  2.9515
 3245SOL     OW21193   4.576   0.804   2.468  0.0821  0.2153  0.1177
 3245SOL    HW121194   4.662   0.761   2.468  0.1503  0.3405  1.1946
 3245SOL    HW221195   4.606   0.890   2.436  0.2544 -0.2248 -0.8967
 3246SOL     OW21196   0.251   3.397   6.450  0.3607  0.6182  0.5011
 3246SOL    HW121197   0.302   3.452   6.390  0.8238 -1.0045 -0.5818
 3246SOL    HW221198   0.306   3.383   6.527 -0.6596 -1.5225  0.8116
 3247SOL     OW21199   0.486   2.681   8.894  0.4884 -0.0928 -0.0461
 3247SOL    HW121200   0.430   2.687   8.971  1.5850  0.1551  0.7226
 3247SOL    HW221201   0.431   2.634   8.831 -0.9385 -0.7693  1.6984
 3248SOL     OW21202   0.448   0.035  13.837 -0.0200 -0.9212 -0.4699
 3248SOL    HW121203   0.394   0.004  13.910 -0.3282 -1.3948 -0.9006
 3248SOL    HW221204   0.531   0.063  13.875 -0.2509 -1.3031  0.3253
 3249SOL     OW21205   3.831   3.343   8.076 -0.4965  0.4526  0.2398
 3249SOL    HW121206   3.901   3.363   8.139  0.4838  0.3028 -0.8058
 3249SOL    HW221207   3.876   3.265   8.042 -1.7696  0.2608 -0.9883
 3250SOL     OW21208   3.592   1.051  13.728  0.7749  0.3643  0.2021
 3250SOL    HW121209   3.684   1.037  13.706  0.5094 -1.2119  0.0438
 3250SOL    HW221210   3.597   1.100  13.810 -1.2308  0.5030  0.2474
 3251SOL     OW21211   2.971   2.223   6.354 -0.2028  0.3641 -0.5776
 3251SOL    HW121212   2.926   2.273   6.286  2.3365  0.4026 -2.2349
 3251SOL    HW221213   2.927   2.138   6.356  0.6745 -0.0458  0.8638
 3252SOL     OW21214   2.693   0.933   4.356 -0.2947 -0.3018  0.5378
 3252SOL    HW121215   2.647   0.863   4.309  1.8933 -1.1283 -0.3590
 3252SOL    HW221216   2.726   0.892   4.436 -0.2646 -0.9323  0.2039
 3253SOL     OW21217   0.410   2.498   5.207  0.5126  0.3986  0.2804
 3253SOL    HW121218   0.431   2.409   5.177  0.1966 -0.0454  1.3994
 3253SOL    HW221219   0.500   2.530   5.196  0.5473  0.0161 -0.5502
 3254SOL     OW21220   2.836   3.347   3.376 -0.5860 -0.1259 -0.7797
 3254SOL    HW121221   2.931   3.346   3.363 -0.3773  0.5037  0.7619
 3254SOL    HW221222   2.797   3.308   3.297 -1.1394  0.0235 -0.5752
 3255SOL     OW21223   4.199   0.783   2.270  0.3902 -0.7774 -0.4559
 3255SOL    HW121224   4.225   0.839   2.342  0.2604  0.0992 -1.0968
 3255SOL    HW221225   4.225   0.695   2.298 -1.3640 -1.1541 -0.0283
 3256SOL     OW21226   1.027   3.869   2.604  0.4618  0.0584 -1.0042
 3256SOL    HW121227   0.999   3.800   2.663 -1.5876  0.2062 -1.8030
 3256SOL    HW221228   1.120   3.853   2.587  0.8331  3.4261 -2.1858
 3257SOL     OW21229   3.057   1.413   2.919 -0.0988 -0.8694  0.3181
 3257SOL    HW121230   3.097   1.329   2.896  0.7854  0.0738 -1.5060
 3257SOL    HW221231   3.052   1.471   2.843 -0.1332  0.7278  1.5413
 3258SOL     OW21232   3.088   0.047   5.658  0.2373  0.1940 -0.1815
 3258SOL    HW121233   3.025   0.119   5.655  0.4408  0.3364 -1.1221
 3258SOL    HW221234   3.069   0.010   5.744  2.9279  0.8520  0.7244
 3259SOL     OW21235   3.415   0.489   7.772  0.0468  0.3967  0.0359
 3259SOL    HW121236   3.484   0.463   7.711  0.5647  0.5200  0.5734
 3259SOL    HW221237   3.454   0.570   7.804  0.1904 -0.4726  2.0413
 3260SOL     OW21238   1.662   1.811   2.495  0.4588 -0.2217  0.2714
 3260SOL    HW121239   1.679   1.875   2.564  2.7668  0.7679 -1.2206
 3260SOL    HW221240   1.654   1.869   2.419 -0.1761  1.7650  1.8336
 3261SOL     OW21241   4.546   1.288   6.256 -0.0124  0.7663 -0.1506
 3261SOL    HW121242   4.637   1.301   6.282 -0.3335 -0.7717  1.6743
 3261SOL    HW221243   4.519   1.211   6.305 -1.3460  0.8905 -0.6828
 3262SOL     OW21244   0.133   4.029   4.042  0.8299  0.9110  0.3441
 3262SOL    HW121245   0.142   4.079   3.960 -1.9285  1.1748  0.2077
 3262SOL    HW221246   0.172   3.945   4.018 -2.0578 -0.2507 -0.1896
 3263SOL     OW21247   3.574   4.280   6.711  0.0689  0.1230  0.1625
 3263SOL    HW121248   3.501   4.268   6.651  1.4524 -0.2357 -1.4462
 3263SOL    HW221249   3.590   4.373   6.701  2.1658 -0.2947 -0.3792
 3264SOL     OW21250   4.570   1.630  13.429 -0.1274  0.1417  0.0773
 3264SOL    HW121251   4.627   1.650  13.503 -0.9354 -1.5774  1.1588
 3264SOL    HW221252   4.560   1.721  13.399  2.8087  0.6965  0.8062
 3265SOL     OW21253   0.595   0.498  12.142 -0.4173 -0.0063  0.1624
 3265SOL    HW121254   0.649   0.531  12.071 -1.6433  1.7099  0.0413
 3265SOL    HW221255   0.582   0.412  12.102  0.1814  0.0770 -0.2076
 3266SOL     OW21256   2.355   0.529  17.622  0.1704  0.6493  0.4009
 3266SOL    HW121257   2.335   0.512  17.530  1.5805 -1.7373  0.5273
 3266SOL    HW221258   2.375   0.440  17.652  1.0225  0.2441 -1.3258
 3267SOL     OW21259   0.187   3.225  12.162  0.2976  0.3875 -0.8244
 3267SOL    HW121260   0.274   3.236  12.202 -0.2941 -0.1102  0.5670
 3267SOL    HW221261   0.214   3.235  12.070 -1.4214  1.2267 -1.2450
 3268SOL     OW21262   1.436   3.587   2.022  0.1000  0.6992 -0.0562
 3268SOL    HW121263   1.409   3.524   1.955  1.1739 -0.1232  0.2846
 3268SOL    HW221264   1.402   3.671   1.989 -0.3948  0.8184  0.7470
 3269SOL     OW21265   3.133   3.815   4.478 -0.3642 -0.6854 -0.3595
 3269SOL    HW121266   3.110   3.890   4.423  0.7406 -0.7363 -0.9012
 3269SOL    HW221267   3.163   3.753   4.411 -1.7723 -1.7328 -0.0137
 3270SOL     OW21268   2.575   2.218   6.129 -0.4067 -0.4495  0.3826
 3270SOL    HW121269   2.663   2.208   6.166 -0.4339 -0.3459  0.4748
 3270SOL    HW221270   2.546   2.297   6.176 -2.2387 -0.6602 -0.4268
 3271SOL     OW21271   1.496   3.711   0.917  0.4434  0.0751 -0.7685
 3271SOL    HW121272   1.558   3.648   0.880  0.2391 -0.8676  0.5223
 3271SOL    HW221273   1.414   3.663   0.908  0.2346 -0.0272  1.6532
 3272SOL     OW21274   4.406   4.288   7.478  0.3529  0.1489 -0.1970
 3272SOL    HW121275   4.382   4.201   7.511  2.4629 -0.3690 -0.0609
 3272SOL    HW221276   4.322   4.320   7.444 -0.0548  0.7987  1.4111
 3273SOL     OW21277   2.228   3.552  13.099 -0.9504  0.0160 -0.3254
 3273SOL    HW121278   2.203   3.475  13.048 -0.5145 -2.0330  2.5663
 3273SOL    HW221279   2.298   3.503  13.140 -1.7008 -0.2707  0.6277
 3274SOL     OW21280   4.344   2.030  10.998 -0.3289 -0.2858  0.4079
 3274SOL    HW121281   4.375   1.940  11.008 -0.5492 -0.1211  2.6043
 3274SOL    HW221282   4.388   2.086  11.063  2.4360 -0.8431 -0.9834
 3275SOL     OW21283   0.328   3.743   3.578 -0.1110  0.8929  0.4529
 3275SOL    HW121284   0.268   3.741   3.652  0.8156  3.4554  1.2522
 3275SOL    HW221285   0.355   3.834   3.571 -3.8228  1.9141 -0.7304
 3276SOL     OW21286   3.086   4.021   4.310 -0.2019  0.1261  0.2946
 3276SOL    HW121287   3.040   4.104   4.319 -1.7131 -1.0312  3.1331
 3276SOL    HW221288   3.160   4.040   4.252 -1.3167  0.3792 -1.0525
 3277SOL     OW21289   0.849   0.596   3.249  0.0067 -0.1396  0.0279
 3277SOL    HW121290   0.896   0.672   3.213 -0.6694  0.6546  0.8385
 3277SOL    HW221291   0.770   0.604   3.196  1.8735 -0.2482 -2.8262
 3278SOL     OW21292   0.481   3.668  14.539 -0.0833  0.1259  0.2373
 3278SOL    HW121293   0.444   3.585  14.508  0.9657 -0.7242  1.2028
 3278SOL    HW221294   0.436   3.733  14.486 -3.4152 -2.6158 -0.3344
 3279SOL     OW21295   2.859   3.448   4.742  0.1489  0.1115  0.0252
 3279SOL    HW121296   2.890   3.423   4.655 -0.0679 -1.0249  0.2741
 3279SOL    HW221297   2.866   3.543   4.744  0.9017  0.0578 -0.0977
 3280SOL     OW21298   3.219   0.954   4.477 -0.1874 -0.5042  0.0586
 3280SOL    HW121299   3.300   0.962   4.425 -0.8772 -0.3184 -0.9907
 3280SOL    HW221300   3.152   0.965   4.410 -1.5208 -0.5146  1.4026
 3281SOL     OW21301   0.391   1.402  10.582 -0.2551  0.0602  0.2991
 3281SOL    HW121302   0.346   1.462  10.642  0.5176  0.8040  0.1375
 3281SOL    HW221303   0.349   1.319  10.602 -1.3154  0.1838 -1.3399
 3282SOL     OW21304   1.001   1.320   5.072  0.4505 -0.0678 -0.0727
 3282SOL    HW121305   1.077   1.321   5.014  0.2678 -0.9580 -0.3266
 3282SOL    HW221306   0.944   1.252   5.035  2.4321 -1.4858 -0.5116
 3283SOL     OW21307   1.185   1.581   5.052 -0.2205  0.0791  0.4347
 3283SOL    HW121308   1.234   1.516   5.102  0.2543 -1.0093 -1.4438
 3283SOL    HW221309   1.161   1.522   4.980  0.6550 -2.4412  2.2230
 3284SOL     OW21310   0.712   3.453   1.011 -0.1957  0.1870  0.0685
 3284SOL    HW121311   0.790   3.402   1.030 -1.0522 -1.5026 -0.9690
 3284SOL    HW221312   0.750   3.521   0.956  0.5627 -0.5493 -0.3073
 3285SOL     OW21313   0.928   3.712   2.364 -0.5374  0.3791  0.1491
 3285SOL    HW121314   0.844   3.673   2.339  0.8466 -1.4696 -1.4742
 3285SOL    HW221315   0.937   3.699   2.459 -1.0019  2.4023  0.4748
 3286SOL     OW21316   2.096   1.104   5.635  0.6773  0.8824 -0.6266
 3286SOL    HW121317   2.177   1.144   5.602  1.8093  0.2705  1.4159
 3286SOL    HW221318   2.034   1.173   5.613  1.3214  2.0934  1.3672
 3287SOL     OW21319   2.475   1.960  10.968 -0.0256 -0.7787  0.0163
 3287SOL    HW121320   2.419   1.952  11.046  0.6768 -1.0308  0.4994
 3287SOL    HW221321   2.431   2.011  10.901 -0.0725  1.2430  1.6016
 3288SOL     OW21322   0.447   1.974   2.191 -0.1839  0.0378  0.1757
 3288SOL    HW121323   0.434   1.884   2.221  1.0796 -0.5564 -1.0343
 3288SOL    HW221324   0.428   2.027   2.268  1.3269  2.2954 -0.9922
 3289SOL     OW21325   3.476   4.254   8.306  0.0941  0.5925 -0.3635
 3289SOL    HW121326   3.395   4.242   8.354  0.2676 -0.3062 -0.3014
 3289SOL    HW221327   3.522   4.322   8.356  1.3816  0.6573 -1.6161
 3290SOL     OW21328   0.184   0.832  16.766  0.1649  0.2987  0.2727
 3290SOL    HW121329   0.190   0.915  16.814 -0.9243  0.1931  0.5920
 3290SOL    HW221330   0.235   0.866  16.692 -1.6722 -0.0935 -1.1870
 3291SOL     OW21331   1.620   3.083   5.855  0.0183 -0.1362 -0.1262
 3291SOL    HW121332   1.690   3.109   5.795 -1.0305 -0.0347 -1.3016
 3291SOL    HW221333   1.537   3.102   5.811 -0.3138 -0.0096  0.5475
 3292SOL     OW21334   1.632   0.585   8.773 -0.2818 -0.2041 -0.0409
 3292SOL    HW121335   1.538   0.573   8.788  0.0226 -2.7224 -0.0785
 3292SOL    HW221336   1.640   0.508   8.717 -2.4302  0.3501 -1.1120
 3293SOL     OW21337   3.311   1.006   4.834  0.0633 -0.0546 -0.6731
 3293SOL    HW121338   3.385   0.955   4.868 -0.0306 -0.8996 -1.7697
 3293SOL    HW221339   3.350   1.034   4.751  1.9426 -0.0407  0.2145
 3294SOL     OW21340   2.342   1.272   7.248  0.4497 -0.2570  0.3534
 3294SOL    HW121341   2.256   1.232   7.235  0.0789  1.0054 -1.0635
 3294SOL    HW221342   2.336   1.291   7.342 -0.1142  1.1884  0.0318
 3295SOL     OW21343   0.072   0.343   4.972  0.2768 -0.8548 -0.0436
 3295SOL    HW121344   4.708   0.312   4.998  1.4542 -4.0348  0.1682
 3295SOL    HW221345   0.068   0.425   5.021  0.3086 -0.2324 -1.0765
 3296SOL     OW21346   2.201   2.329   8.290 -0.5135 -0.2000 -0.4137
 3296SOL    HW121347   2.268   2.292   8.348 -0.3737 -2.0932 -1.8166
 3296SOL    HW221348   2.131   2.272   8.321 -0.8563 -0.1661 -1.1361
 3297SOL     OW21349   2.512   3.392   6.618  0.6098  0.3333 -0.0209
 3297SOL    HW121350   2.574   3.385   6.546 -0.5280  1.5501 -1.1269
 3297SOL    HW221351   2.458   3.317   6.594  0.6190 -0.2563  1.7548
 3298SOL     OW21352   1.636   3.586   6.001  0.3575  0.4525  0.1253
 3298SOL    HW121353   1.649   3.514   6.063 -2.0654  1.1445  1.4248
 3298SOL    HW221354   1.706   3.580   5.937  1.4264 -1.6325  1.4898
 3299SOL     OW21355   0.405   3.207   2.343  0.1725 -0.0120  0.2157
 3299SOL    HW121356   0.360   3.177   2.421 -0.2533  1.3970  0.5191
 3299SOL    HW221357   0.433   3.129   2.296  3.0780  0.8596  0.4480
 3300SOL     OW21358   2.017   1.678   6.017 -0.0676 -0.0073 -0.2882
 3300SOL    HW121359   1.948   1.739   6.044  0.1454  0.4889 -0.8463
 3300SOL    HW221360   2.012   1.617   6.090  0.5899 -0.3818 -0.5613
 3301SOL     OW21361   2.280   2.770  15.495  0.0798  0.2609  0.3107
 3301SOL    HW121362   2.238   2.707  15.437 -2.6730  2.9236 -0.5589
 3301SOL    HW221363   2.281   2.849  15.441  0.3381  1.2555  1.7587
 3302SOL     OW21364   0.099   1.253  17.324 -0.0895 -0.4623 -0.7515
 3302SOL    HW121365   0.123   1.215  17.239  1.4094 -1.2704  0.0431
 3302SOL    HW221366   0.062   1.182  17.377 -0.2240 -0.1564 -0.4414
 3303SOL     OW21367   3.922   0.296   4.985 -0.5260  0.5893 -0.7168
 3303SOL    HW121368   3.958   0.208   4.984 -0.2498  0.6639  1.8882
 3303SOL    HW221369   4.005   0.341   4.998 -1.7602  3.0183 -1.2593
 3304SOL     OW21370   4.618   0.086   9.687  0.1039  0.3904  0.2030
 3304SOL    HW121371   4.694   0.145   9.697  1.2493 -0.9416 -0.6968
 3304SOL    HW221372   4.560   0.121   9.755 -0.4069 -1.3454  0.6554
 3305SOL     OW21373   4.099   1.469  10.191  0.2432  0.1109  0.2087
 3305SOL    HW121374   4.010   1.493  10.163  0.5989  1.1404 -0.0471
 3305SOL    HW221375   4.080   1.397  10.251  0.8365 -0.2155  0.0049
 3306SOL     OW21376   3.869   4.354   6.982  0.0060 -0.1430 -0.4706
 3306SOL    HW121377   3.782   4.393   6.983 -0.2118 -0.6363 -0.3793
 3306SOL    HW221378   3.862   4.294   7.056  0.2704 -0.0647 -0.3810
 3307SOL     OW21379   1.080   1.272   4.569  1.0846 -0.3366 -0.0089
 3307SOL    HW121380   1.155   1.222   4.537  1.3588  0.4268 -0.5498
 3307SOL    HW221381   1.038   1.315   4.494  1.4858  0.1044  0.0172
 3308SOL     OW21382   3.026   4.147  16.706 -0.2880  0.9542 -0.4192
 3308SOL    HW121383   3.016   4.052  16.698  2.7868  0.7033 -1.1118
 3308SOL    HW221384   3.114   4.166  16.674  0.1603  0.7487  0.7084
 3309SOL     OW21385   3.636   1.015   1.646  0.4583 -0.0008  0.3788
 3309SOL    HW121386   3.557   1.034   1.596  0.9863  0.2620 -0.3525
 3309SOL    HW221387   3.653   0.926   1.616 -0.0724  0.6841 -1.9288
 3310SOL     OW21388   3.721   2.088   9.537  0.4070 -0.3240  0.3314
 3310SOL    HW121389   3.643   2.065   9.587  0.7173  2.0214  1.9316
 3310SOL    HW221390   3.762   2.163   9.581  0.3413 -0.3578  0.4508
 3311SOL     OW21391   2.721   2.928   3.180  0.3955  0.9099 -0.3325
 3311SOL    HW121392   2.751   2.848   3.137 -1.2650  0.1792 -0.1036
 3311SOL    HW221393   2.660   2.894   3.245 -0.4727  1.4257 -0.8870
 3312SOL     OW21394   3.961   0.167   8.423 -0.4334 -0.1817  0.2647
 3312SOL    HW121395   4.034   0.203   8.473 -1.9947  2.3185  0.7822
 3312SOL    HW221396   4.002   0.092   8.381 -1.5840 -0.8655  0.3541
 3313SOL     OW21397   1.052   3.970   2.180 -0.3306 -0.5419  0.1458
 3313SOL    HW121398   1.011   3.895   2.137 -0.9600  0.7552 -1.5254
 3313SOL    HW221399   1.122   3.936   2.236 -0.7261  1.8289  2.0822
 3314SOL     OW21400   1.529   3.690   7.259 -0.0388 -0.2522 -0.1767
 3314SOL    HW121401   1.592   3.620   7.275 -0.6869 -0.5768  0.9916
 3314SOL    HW221402   1.516   3.665   7.168  2.7481 -0.5961 -0.4791
 3315SOL     OW21403   1.849   0.529   4.533 -0.0888  0.8973 -0.4862
 3315SOL    HW121404   1.791   0.477   4.589 -0.4118 -0.3376 -1.9745
 3315SOL    HW221405   1.881   0.464   4.470 -0.0014 -0.6576  1.1787
 3316SOL     OW21406   0.292   2.823  17.504 -0.2671  0.0497 -0.2927
 3316SOL    HW121407   0.201   2.808  17.478 -0.2705  0.8243 -0.7372
 3316SOL    HW221408   0.281   2.856  17.593  0.4808  0.8555 -0.5006
 3317SOL     OW21409   0.566   4.169   2.447  0.5104 -0.5261 -0.0996
 3317SOL    HW121410   0.540   4.259   2.464  0.7932 -0.4779  0.0714
 3317SOL    HW221411   0.533   4.156   2.358 -1.5755 -0.6911  0.7104
 3318SOL     OW21412   3.158   3.478  13.554  0.0547 -0.3985  0.0265
 3318SOL    HW121413   3.075   3.430  13.544 -0.1699 -0.2669  1.1997
 3318SOL    HW221414   3.116   3.562  13.576 -0.8422 -0.7224 -0.4406
 3319SOL     OW21415   4.046   2.723   7.718  0.4937 -0.0616 -0.6304
 3319SOL    HW121416   4.089   2.794   7.764 -2.4139  0.5691  1.1107
 3319SOL    HW221417   3.976   2.773   7.676 -0.4208 -0.2560  0.6753
 3320SOL     OW21418   2.194   1.232   9.254  0.2365 -0.3588  0.3207
 3320SOL    HW121419   2.278   1.271   9.278 -0.1180 -0.5447  1.8444
 3320SOL    HW221420   2.139   1.309   9.267  2.0962  1.0804 -0.3553
 3321SOL     OW21421   3.771   3.404  16.195 -0.3333  0.0973 -0.2320
 3321SOL    HW121422   3.813   3.448  16.122 -2.4736 -1.4712 -2.4176
 3321SOL    HW221423   3.785   3.312  16.171  0.4587  0.2341 -0.2839
 3322SOL     OW21424   0.895   2.245   1.061 -0.0888  0.0981 -0.0658
 3322SOL    HW121425   0.988   2.266   1.053 -0.1464  0.3707 -0.0190
 3322SOL    HW221426   0.886   2.237   1.156 -2.7932 -1.6384 -0.4633
 3323SOL     OW21427   3.603   4.589   6.349 -0.1467 -0.7496  0.0049
 3323SOL    HW121428   3.625   4.571   6.440 -0.2681 -0.4194  0.0965
 3323SOL    HW221429   3.563   4.508   6.316 -2.6279  0.7878 -0.7467
 3324SOL     OW21430   0.285   3.005  17.119  0.5836 -0.1554 -0.2685
 3324SOL    HW121431   0.329   3.074  17.069  0.2507  1.3729  1.5359
 3324SOL    HW221432   0.266   2.953  17.041 -0.1188  0.5382 -0.5616
 3325SOL     OW21433   3.724   2.144   1.901 -0.3028 -0.4803 -0.5139
 3325SOL    HW121434   3.725   2.170   1.993 -0.2686 -3.0005  0.2090
 3325SOL    HW221435   3.796   2.080   1.902 -0.8274 -0.9916  3.5191
 3326SOL     OW21436   1.894   1.076   8.258  0.1928  0.0161 -0.1985
 3326SOL    HW121437   1.817   1.027   8.288 -0.2118  0.9555  0.3106
 3326SOL    HW221438   1.957   1.058   8.328 -0.8644 -0.5600  0.6068
 3327SOL     OW21439   4.133   0.421   9.381 -0.5278  0.1269 -0.2321
 3327SOL    HW121440   4.225   0.407   9.404 -0.7157 -0.8520 -0.0451
 3327SOL    HW221441   4.096   0.341   9.419 -1.5617 -0.1272 -1.7641
 3328SOL     OW21442   3.109   3.985   8.756 -0.2274 -0.3608  0.9581
 3328SOL    HW121443   3.096   3.899   8.717  0.2300 -0.4903  1.0914
 3328SOL    HW221444   3.204   3.995   8.745 -0.7006  0.0607 -2.9556
 3329SOL     OW21445   0.222   2.667   5.292 -0.0058 -0.4134  0.1644
 3329SOL    HW121446   0.288   2.609   5.255  1.9379  2.5809 -1.0159
 3329SOL    HW221447   0.239   2.647   5.384  0.7233 -0.6203 -0.0154
 3330SOL     OW21448   1.705   4.107   6.097  0.3335  0.2354  0.0651
 3330SOL    HW121449   1.660   4.027   6.123  2.1375 -0.6070  0.5894
 3330SOL    HW221450   1.633   4.161   6.066  2.1240  3.0292  0.7611
 3331SOL     OW21451   3.182   3.183   1.427 -0.1359  0.0384 -0.2121
 3331SOL    HW121452   3.178   3.104   1.481 -0.8956 -0.9471 -1.6952
 3331SOL    HW221453   3.089   3.206   1.421 -0.4417 -0.8936  1.0981
 3332SOL     OW21454   4.539   1.215   7.091  0.2000  0.0824  0.3720
 3332SOL    HW121455   4.519   1.166   7.011 -0.7855 -2.4454  2.1470
 3332SOL    HW221456   4.464   1.273   7.097 -1.1689 -1.4235 -2.2034
 3333SOL     OW21457   1.572   2.030   3.120  0.1182 -0.7222 -0.6159
 3333SOL    HW121458   1.561   2.003   3.029 -1.3196 -2.7202  0.1507
 3333SOL    HW221459   1.625   1.958   3.152  0.6880  0.7816  1.8121
 3334SOL     OW21460   0.581   1.775  10.366  0.2681 -0.2058 -0.0906
 3334SOL    HW121461   0.588   1.711  10.436  0.8750 -1.0134 -0.8825
 3334SOL    HW221462   0.513   1.833  10.399  0.1533  0.0101 -0.6900
 3335SOL     OW21463   1.488   0.010  13.795  0.3189  0.5559  0.1983
 3335SOL    HW121464   1.437   0.013  13.713 -0.7345 -3.2838  0.7059
 3335SOL    HW221465   1.578   4.722  13.765  0.3466  1.5932 -0.1107
 3336SOL     OW21466   4.045   1.355   9.534 -0.0811  0.3507 -0.1588
 3336SOL    HW121467   3.951   1.338   9.528 -0.4667  2.2901  0.4260
 3336SOL    HW221468   4.084   1.286   9.480  0.7541  1.8247 -1.4298
 3337SOL     OW21469   0.865   1.818   7.771 -0.2993  0.6230 -0.3314
 3337SOL    HW121470   0.802   1.774   7.827 -1.1547 -1.3048 -2.8201
 3337SOL    HW221471   0.812   1.887   7.732 -1.7160  0.6636  1.6740
 3338SOL     OW21472   2.407   0.981   5.041 -0.3941  0.3023 -0.3987
 3338SOL    HW121473   2.431   0.968   4.949  1.6297 -0.0464  0.1710
 3338SOL    HW221474   2.475   1.045   5.063  0.3171 -0.1491 -1.2619
 3339SOL     OW21475   2.672   0.359   5.991 -0.8457 -0.3887  0.1604
 3339SOL    HW121476   2.724   0.321   5.921  0.0946  1.6228 -0.2370
 3339SOL    HW221477   2.747   0.408   6.027 -0.2116 -0.8073 -0.5873
 3340SOL     OW21478   4.613   2.982   4.514  0.2710  0.2496 -0.1568
 3340SOL    HW121479   4.667   3.050   4.555  1.3295 -0.6248 -0.0868
 3340SOL    HW221480   4.640   2.906   4.565  1.9695  0.1632 -1.1744
 3341SOL     OW21481   2.276   0.964  12.676  0.5637  0.4736  0.0624
 3341SOL    HW121482   2.301   1.054  12.655  0.5419  0.1065 -1.5424
 3341SOL    HW221483   2.306   0.951  12.766 -0.6456  1.7131  0.6571
 3342SOL     OW21484   3.241   4.035  12.471 -0.1196  0.6086 -0.1189
 3342SOL    HW121485   3.296   4.037  12.550 -0.3636 -1.7526  0.1325
 3342SOL    HW221486   3.174   3.966  12.480  0.6527 -0.0861  0.3843
 3343SOL     OW21487   0.408   1.306   1.970 -0.0928  0.4961 -0.2137
 3343SOL    HW121488   0.485   1.359   1.951 -0.0525 -0.4324 -2.6634
 3343SOL    HW221489   0.432   1.220   1.937 -1.1848  0.7554 -1.7290
 3344SOL     OW21490   3.937   0.028   9.927 -0.3769 -0.5851  0.0089
 3344SOL    HW121491   3.999   4.678   9.917  1.8755  1.6111 -2.0523
 3344SOL    HW221492   3.852   4.712   9.949  0.1785 -0.7009  1.9609
 3345SOL     OW21493   2.459   0.737  10.043  0.4143  0.5272 -0.6930
 3345SOL    HW121494   2.484   0.645  10.036 -0.5404  0.4647 -3.2878
 3345SOL    HW221495   2.364   0.730  10.054  0.1032  2.0822 -2.3740
 3346SOL     OW21496   3.689   2.637  11.857  0.1085 -0.1780 -0.4581
 3346SOL    HW121497   3.712   2.586  11.934 -0.7648  1.0850  0.6417
 3346SOL    HW221498   3.757   2.608  11.797  0.0558 -0.1687 -0.5222
 3347SOL     OW21499   2.466   1.126  15.712 -0.2344 -0.5608  0.0928
 3347SOL    HW121500   2.432   1.165  15.632 -1.8761  1.6055  1.8388
 3347SOL    HW221501   2.430   1.189  15.775  0.4636 -0.4897  0.4203
 3348SOL     OW21502   4.492   3.055   5.989  0.9060  0.0436  0.0818
 3348SOL    HW121503   4.470   2.984   6.048 -1.4493 -0.1193 -1.0048
 3348SOL    HW221504   4.458   3.014   5.909  1.1845 -0.3177  0.1528
 3349SOL     OW21505   1.301   2.265  13.718 -0.2467  0.6570 -0.3930
 3349SOL    HW121506   1.315   2.203  13.647  1.7283  0.4115  0.2105
 3349SOL    HW221507   1.234   2.318  13.675  1.3750  1.5294 -1.8411
 3350SOL     OW21508   3.522   0.546   0.805  0.0353 -0.0363 -0.6011
 3350SOL    HW121509   3.464   0.593   0.864  0.9542  0.4736 -0.1077
 3350SOL    HW221510   3.524   0.602   0.727 -0.6926  2.9530  1.5437
 3351SOL     OW21511   3.168   3.720   0.264  0.5922  0.0786  0.0442
 3351SOL    HW121512   3.190   3.795   0.319 -0.0544  0.8573 -0.7430
 3351SOL    HW221513   3.159   3.772   0.183  0.9074 -0.7681 -0.5348
 3352SOL     OW21514   4.596   3.698   2.486 -0.3242  0.2116  0.2990
 3352SOL    HW121515   4.598   3.784   2.527 -0.7394  1.3557 -2.1271
 3352SOL    HW221516   4.600   3.640   2.563  0.1233  0.3038  0.3481
 3353SOL     OW21517   4.550   0.008  10.322 -0.3327 -0.4773 -0.4863
 3353SOL    HW121518   4.639   4.695  10.316 -0.3664 -0.7405  0.6013
 3353SOL    HW221519   4.571   0.098  10.349 -1.1316  0.1272 -1.8965
 3354SOL     OW21520   1.641   2.242   5.639 -0.1384  0.4221 -0.5979
 3354SOL    HW121521   1.587   2.283   5.571 -0.5447  0.9014  0.0197
 3354SOL    HW221522   1.664   2.163   5.590 -0.7923  1.2763 -2.2655
 3355SOL     OW21523   3.322   0.005  13.358 -0.5695 -0.0869  0.3164
 3355SOL    HW121524   3.258   4.681  13.305  0.7336 -1.3415 -0.1582
 3355SOL    HW221525   3.272   0.024  13.437 -1.1646 -1.9927  0.3856
 3356SOL     OW21526   3.301   0.908   2.796  0.3845  0.1485 -0.1850
 3356SOL    HW121527   3.330   0.937   2.709  1.2391 -1.4867 -0.4453
 3356SOL    HW221528   3.228   0.858   2.761 -1.5503  2.7827  0.1243
 3357SOL     OW21529   3.914   3.035   3.951  0.1482  0.3487 -0.1431
 3357SOL    HW121530   3.833   3.016   3.904  1.7656 -0.5277 -2.6144
 3357SOL    HW221531   3.922   2.953   4.000 -0.5406  0.7094  0.5645
 3358SOL     OW21532   3.266   1.145   7.172 -0.7975 -0.3089 -0.0004
 3358SOL    HW121533   3.208   1.084   7.219 -0.0851  0.4225  1.8416
 3358SOL    HW221534   3.300   1.208   7.236  0.7477 -0.0164 -1.1213
 3359SOL     OW21535   3.397   0.671   4.148 -0.8506 -0.3611 -0.6095
 3359SOL    HW121536   3.342   0.747   4.163  2.3541  1.6879  0.7138
 3359SOL    HW221537   3.393   0.656   4.053  0.7177  3.5664 -1.2746
 3360SOL     OW21538   4.004   1.301   9.112 -0.2785  0.1326 -0.0155
 3360SOL    HW121539   3.959   1.218   9.095 -0.7498  0.2252  0.7918
 3360SOL    HW221540   4.063   1.269   9.180  3.5275 -0.4543 -3.5311
 3361SOL     OW21541   2.150   3.318  12.975  0.2430 -0.0336 -0.5248
 3361SOL    HW121542   2.076   3.315  12.913  1.5315  1.2412 -2.1054
 3361SOL    HW221543   2.176   3.227  12.964 -0.3809 -0.4987  1.7543
 3362SOL     OW21544   4.154   2.998   2.773  0.0731  0.5638 -0.0937
 3362SOL    HW121545   4.136   2.982   2.680  0.0336  1.0748 -0.1764
 3362SOL    HW221546   4.063   3.010   2.798 -0.8073 -0.5589 -2.7829
 3363SOL     OW21547   0.439   3.482  11.417 -0.1543  0.3105 -0.3545
 3363SOL    HW121548   0.530   3.504  11.439 -0.1460  0.3501 -0.4256
 3363SOL    HW221549   0.422   3.416  11.484  0.5996  0.7444  0.2704
 3364SOL     OW21550   1.263   4.672   5.943 -0.0223  0.1358 -0.2347
 3364SOL    HW121551   1.293   0.003   6.016  0.2075 -2.0576  1.3174
 3364SOL    HW221552   1.265   4.584   5.982  3.0502  0.8673  1.2227
 3365SOL     OW21553   4.522   3.781   8.150  0.3603 -0.2082 -0.2178
 3365SOL    HW121554   4.500   3.823   8.234  2.3599  0.4792 -0.0385
 3365SOL    HW221555   4.599   3.728   8.170  1.2861  0.6509 -1.4982
 3366SOL     OW21556   3.739   3.060   8.861  0.0428  1.0279  0.8173
 3366SOL    HW121557   3.794   3.101   8.794  0.0119  0.6451  0.5542
 3366SOL    HW221558   3.770   2.969   8.856  1.0075  1.5169 -2.3481
 3367SOL     OW21559   4.000   2.376   7.404  0.1479 -0.5384 -0.3298
 3367SOL    HW121560   4.013   2.415   7.490 -0.9707 -0.9839  0.0431
 3367SOL    HW221561   4.084   2.332   7.391 -0.2067 -1.1283 -0.6092
 3368SOL     OW21562   0.961   0.147   2.296 -0.2138  0.3181 -0.1862
 3368SOL    HW121563   0.993   0.222   2.345 -0.8839  0.2781  0.3098
 3368SOL    HW221564   0.999   0.165   2.210 -0.3387  1.1742 -0.0652
 3369SOL     OW21565   0.133   4.211   2.254 -0.1445 -0.7486 -0.2374
 3369SOL    HW121566   0.169   4.180   2.337  0.2953 -2.0477 -0.9074
 3369SOL    HW221567   0.129   4.126   2.209 -2.2000 -0.6906 -0.1887
 3370SOL     OW21568   1.970   4.505   1.823  0.0733  0.2211  0.3266
 3370SOL    HW121569   1.961   4.433   1.761  1.2749  0.5040 -0.1888
 3370SOL    HW221570   1.971   4.456   1.905  0.8851 -0.1518  0.0986
 3371SOL     OW21571   2.099   1.917   3.128 -0.7469 -0.1855 -0.3074
 3371SOL    HW121572   2.181   1.866   3.125  0.2807  1.3834  1.4181
 3371SOL    HW221573   2.044   1.857   3.077 -1.5362  0.5003 -0.2589
 3372SOL     OW21574   3.286   0.175   7.954 -0.2695  0.4519  0.1764
 3372SOL    HW121575   3.224   0.116   7.997  0.1530  0.5166  0.8665
 3372SOL    HW221576   3.313   0.235   8.023  2.3058 -0.1862 -0.2843
 3373SOL     OW21577   2.029   1.705   4.772 -0.3274  0.4113  0.1554
 3373SOL    HW121578   1.956   1.671   4.721 -0.2630  2.6748 -1.4143
 3373SOL    HW221579   2.087   1.631   4.791 -1.0186  0.3183  1.9187
 3374SOL     OW21580   2.638   3.616   0.965  0.0386  0.6398 -0.5114
 3374SOL    HW121581   2.731   3.635   0.950  1.1383 -0.3719  5.0532
 3374SOL    HW221582   2.619   3.584   0.877 -0.3201 -1.9803  0.5251
 3375SOL     OW21583   2.698   1.265   4.207 -0.0966 -0.6653  0.5530
 3375SOL    HW121584   2.606   1.242   4.199 -0.3053  0.6450 -0.7855
 3375SOL    HW221585   2.715   1.266   4.301  3.4303 -1.3174 -0.0460
 3376SOL     OW21586   3.087   0.257   1.594 -0.8502  0.3886  0.5221
 3376SOL    HW121587   3.068   0.210   1.513  0.1440 -0.8468  1.0226
 3376SOL    HW221588   3.172   0.296   1.573 -0.4475 -0.4569  0.5873
 3377SOL     OW21589   0.752   1.896   6.647  0.0922  0.7053  1.0494
 3377SOL    HW121590   0.689   1.842   6.601  1.4820  0.2473 -0.3347
 3377SOL    HW221591   0.786   1.828   6.705 -0.6308  0.6111  1.3511
 3378SOL     OW21592   0.179   4.282   7.727 -0.0290  0.3354 -1.0888
 3378SOL    HW121593   0.126   4.265   7.805  1.2671  1.5457  0.0576
 3378SOL    HW221594   0.249   4.329   7.772 -1.1950 -1.0138  2.1287
 3379SOL     OW21595   0.843   2.517  17.121 -0.2486 -0.5139  0.1647
 3379SOL    HW121596   0.867   2.431  17.154 -0.3439 -0.7099 -0.2726
 3379SOL    HW221597   0.779   2.552  17.183  2.4783  0.1801  2.6051
 3380SOL     OW21598   2.326   3.376   5.360  0.7031 -0.2915  0.7535
 3380SOL    HW121599   2.293   3.391   5.449 -1.1701  0.6818 -0.1086
 3380SOL    HW221600   2.282   3.441   5.306  0.4072  0.7560  2.2400
 3381SOL     OW21601   3.447   3.652   3.939  0.1274 -0.3853  0.4494
 3381SOL    HW121602   3.402   3.728   3.903  0.4092  0.6157  2.2241
 3381SOL    HW221603   3.531   3.667   3.895  1.9528 -2.0274  3.3642
 3382SOL     OW21604   1.501   3.075  15.032  0.6914 -0.5932 -0.1363
 3382SOL    HW121605   1.499   3.057  15.126  1.3617 -0.4613 -0.0988
 3382SOL    HW221606   1.527   2.988  15.004 -2.0009 -0.9047 -1.6245
 3383SOL     OW21607   4.330   0.719   1.153 -0.2754  0.0384 -0.2009
 3383SOL    HW121608   4.409   0.745   1.106 -1.7663 -0.0425 -2.7834
 3383SOL    HW221609   4.361   0.632   1.180  1.5346  0.5445 -0.6638
 3384SOL     OW21610   1.580   2.012  11.621  0.4458  0.1271  0.2836
 3384SOL    HW121611   1.551   2.031  11.531  2.3345 -1.2286 -0.6294
 3384SOL    HW221612   1.662   2.060  11.630  0.8589 -0.0907 -2.1728
 3385SOL     OW21613   4.524   3.694  15.961 -0.5082 -0.1375  0.5879
 3385SOL    HW121614   4.452   3.675  16.021  0.3133  1.4491  2.0765
 3385SOL    HW221615   4.586   3.623  15.979 -0.4027 -0.2912 -0.4019
 3386SOL     OW21616   3.003   1.638   8.339 -0.5505  0.9330  0.0335
 3386SOL    HW121617   2.918   1.595   8.329  0.3788 -1.2735  1.6733
 3386SOL    HW221618   3.059   1.562   8.326 -0.0595  1.2737  0.1347
 3387SOL     OW21619   2.612   1.665  10.710 -0.0705 -0.4662  0.2646
 3387SOL    HW121620   2.570   1.637  10.791  0.2716  0.7694  0.8684
 3387SOL    HW221621   2.569   1.745  10.679 -1.4499 -0.2247  2.7787
 3388SOL     OW21622   4.624   3.309  16.578  0.0151 -0.1799 -0.0958
 3388SOL    HW121623   4.532   3.311  16.550 -0.1993 -2.5538  0.4360
 3388SOL    HW221624   4.630   3.237  16.640  1.6018  0.3533  0.3760
 3389SOL     OW21625   3.351   3.416  16.742  0.2393 -0.2096 -0.3386
 3389SOL    HW121626   3.283   3.365  16.786 -0.0934  0.4779 -0.0553
 3389SOL    HW221627   3.432   3.366  16.756  0.7333  0.8612  0.6333
 3390SOL     OW21628   1.295   2.560   7.469 -0.0850  0.3224 -0.0993
 3390SOL    HW121629   1.372   2.528   7.516  0.8400  0.6777 -1.3469
 3390SOL    HW221630   1.259   2.479   7.433 -0.1245 -0.2001  1.1227
 3391SOL     OW21631   3.754   1.356   0.836  0.2601  0.5204  0.0223
 3391SOL    HW121632   3.699   1.423   0.877 -1.6107 -0.9845 -0.0306
 3391SOL    HW221633   3.793   1.303   0.905 -0.8046  0.2504  0.4127
 3392SOL     OW21634   1.013   3.990   0.928  0.0070 -0.0617 -0.0991
 3392SOL    HW121635   1.061   4.068   0.901 -0.5492 -0.2412 -1.6202
 3392SOL    HW221636   0.964   3.959   0.852 -1.2609  0.2069  0.6197
 3393SOL     OW21637   4.086   4.622   5.959  0.5643  0.5209  0.4380
 3393SOL    HW121638   4.179   4.618   5.933  0.4450  1.5135 -0.1552
 3393SOL    HW221639   4.050   4.699   5.915  0.9551  0.7763  0.5603
 3394SOL     OW21640   2.668   0.791   6.967 -0.2234 -0.3169  0.3031
 3394SOL    HW121641   2.575   0.772   6.979 -0.3206  1.5234  2.4516
 3394SOL    HW221642   2.674   0.848   7.044  1.6437 -0.8815  0.6025
 3395SOL     OW21643   4.226   0.720  13.202  0.1405 -0.4088 -0.2065
 3395SOL    HW121644   4.152   0.748  13.148  0.9656 -1.3614 -1.8263
 3395SOL    HW221645   4.196   0.775  13.274 -2.4846 -1.7757 -0.2369
 3396SOL     OW21646   1.800   2.128  11.406 -1.0086 -0.3657  0.3900
 3396SOL    HW121647   1.714   2.123  11.366  0.1363 -0.5341 -2.0554
 3396SOL    HW221648   1.797   2.205  11.462 -0.3559 -0.2915  0.3219
 3397SOL     OW21649   2.519   3.983   8.016  0.1264 -0.4815 -0.5688
 3397SOL    HW121650   2.549   3.904   7.971  0.4834 -1.3951  1.2608
 3397SOL    HW221651   2.561   3.968   8.101  0.6204 -0.7432 -0.8599
 3398SOL     OW21652   4.416   4.507   7.118  0.0627 -0.2753 -0.0933
 3398SOL    HW121653   4.439   4.448   7.046 -1.0976  0.1644 -0.8301
 3398SOL    HW221654   4.345   4.465   7.167 -0.6132 -2.3550 -2.8387
 3399SOL     OW21655   1.642   1.262   4.990  0.0770  0.6769 -0.6039
 3399SOL    HW121656   1.688   1.178   4.979 -1.3262 -0.2436  0.6307
 3399SOL    HW221657   1.572   1.224   5.042 -0.4823  0.8232 -1.2493
 3400SOL     OW21658   4.127   4.354   3.066  0.4814  0.1827 -0.1076
 3400SOL    HW121659   4.195   4.357   3.133 -0.3724 -0.8232  0.8109
 3400SOL    HW221660   4.174   4.363   2.983  0.6399  1.0778  0.0782
 3401SOL     OW21661   1.284   4.578   8.283  0.0262 -0.0385 -0.1230
 3401SOL    HW121662   1.272   4.587   8.378 -0.8764 -0.1746 -0.2286
 3401SOL    HW221663   1.197   4.605   8.253 -0.5098  0.7450  2.0863
 3402SOL     OW21664   4.167   3.825   4.633  0.2241 -0.6267 -0.2875
 3402SOL    HW121665   4.161   3.730   4.623  0.9411 -0.4040 -3.0376
 3402SOL    HW221666   4.129   3.853   4.549  0.7416  0.9407  0.0003
 3403SOL     OW21667   4.052   1.766   4.507 -0.2448  0.4858  0.0567
 3403SOL    HW121668   4.105   1.754   4.428  1.3350  0.5688  1.0921
 3403SOL    HW221669   3.971   1.810   4.483 -0.6537 -0.1752  0.2334
 3404SOL     OW21670   4.536   4.653  13.533 -0.1912 -0.0277 -0.0233
 3404SOL    HW121671   4.556   4.564  13.561 -2.7343 -1.1241 -1.7214
 3404SOL    HW221672   4.624   4.688  13.520  0.2859 -0.6571  1.5209
 3405SOL     OW21673   3.452   3.971  11.775 -0.2513 -0.4733  0.4522
 3405SOL    HW121674   3.409   4.056  11.765  2.7289  0.9365 -0.2625
 3405SOL    HW221675   3.543   3.993  11.759 -0.4725 -0.2433 -0.4848
 3406SOL     OW21676   3.605   1.471   6.417 -0.2668 -0.3205  0.2731
 3406SOL    HW121677   3.556   1.389   6.426 -1.1325  0.3188  1.4322
 3406SOL    HW221678   3.697   1.444   6.413  0.2929  1.5311  0.5544
 3407SOL     OW21679   4.650   2.783   6.917 -0.0763  0.1105 -0.0864
 3407SOL    HW121680   4.600   2.732   6.853  0.1790 -0.6464  0.3176
 3407SOL    HW221681   4.656   2.728   6.995 -0.5733  0.3297  0.1031
 3408SOL     OW21682   4.204   1.807   8.107 -0.1478  0.9768  0.7668
 3408SOL    HW121683   4.135   1.872   8.124 -2.1486 -0.4700 -1.8297
 3408SOL    HW221684   4.266   1.835   8.174  2.5322  0.1437 -1.3879
 3409SOL     OW21685   2.402   4.357   4.471  0.2509 -0.2722 -0.6067
 3409SOL    HW121686   2.306   4.365   4.473  0.0055 -3.2936  0.1693
 3409SOL    HW221687   2.426   4.446   4.497  0.5568  0.2503 -2.7229
 3410SOL     OW21688   1.335   1.454  12.609 -0.7493  0.3154 -0.1836
 3410SOL    HW121689   1.333   1.362  12.636  1.3604  0.0071 -1.0833
 3410SOL    HW221690   1.314   1.495  12.692 -0.5243 -0.3002  0.1840
 3411SOL     OW21691   2.680   4.615  10.096  0.1739 -0.0258  0.9233
 3411SOL    HW121692   2.695   4.632  10.189  1.0278  0.6012  0.6654
 3411SOL    HW221693   2.584   4.618  10.103 -0.1721 -1.8882 -3.0068
 3412SOL     OW21694   0.273   4.594  15.439  0.1952 -0.2317  0.2080
 3412SOL    HW121695   0.341   4.661  15.445 -0.3294  0.3226 -0.0216
 3412SOL    HW221696   0.214   4.612  15.512  0.3684 -2.7011  0.9448
 3413SOL     OW21697   2.449   1.722   6.459  0.1464 -0.8145  0.1010
 3413SOL    HW121698   2.481   1.745   6.546 -0.3674  2.2503 -0.5362
 3413SOL    HW221699   2.499   1.783   6.405 -2.2733  1.3725  0.3675
 3414SOL     OW21700   3.286   1.076  11.283 -0.1737 -0.1054 -0.0054
 3414SOL    HW121701   3.292   1.171  11.270  2.1045  0.0118  1.9173
 3414SOL    HW221702   3.374   1.045  11.264 -0.0025 -0.7112  1.7995
 3415SOL     OW21703   0.237   4.452   6.543 -0.9352  0.2463 -0.3817
 3415SOL    HW121704   0.195   4.531   6.578  0.7420 -0.1849  2.6107
 3415SOL    HW221705   0.281   4.416   6.620 -1.8093  1.3917  0.6494
 3416SOL     OW21706   1.677   3.840   3.806  0.1181  0.4238 -0.4038
 3416SOL    HW121707   1.646   3.916   3.855  1.7517  1.0255 -0.2834
 3416SOL    HW221708   1.770   3.859   3.821  0.4105  0.0180 -1.6523
 3417SOL     OW21709   1.082   1.241   4.085  0.2369  0.0416  0.0898
 3417SOL    HW121710   0.992   1.212   4.097  0.1647  0.1874 -0.0962
 3417SOL    HW221711   1.120   1.182   4.019  0.8881  0.8068 -0.2370
 3418SOL     OW21712   4.396   2.201  13.054 -0.5248 -0.1614 -0.0843
 3418SOL    HW121713   4.424   2.263  13.122  1.2309 -2.2806  1.1294
 3418SOL    HW221714   4.448   2.123  13.072  0.8089  1.1465  1.6312
 3419SOL     OW21715   3.354   2.573  10.158 -0.2249  0.2832  0.4595
 3419SOL    HW121716   3.399   2.647  10.118 -0.8678  0.5908  0.3041
 3419SOL    HW221717   3.277   2.621  10.189 -0.4157 -1.5184  2.7290
 3420SOL     OW21718   2.180   2.750   8.374  0.1147  0.5630  0.0678
 3420SOL    HW121719   2.152   2.666   8.337  0.2121 -0.8041  3.0923
 3420SOL    HW221720   2.264   2.725   8.413  1.3936  3.1132 -1.0261
 3421SOL     OW21721   2.524   1.482   6.862  0.3436 -0.7095  0.3064
 3421SOL    HW121722   2.481   1.438   6.936  0.1625 -1.1894 -0.0848
 3421SOL    HW221723   2.515   1.420   6.790 -2.1704  0.7744 -0.6490
 3422SOL     OW21724   0.079   2.439   8.736 -0.4739  0.4034  0.0289
 3422SOL    HW121725   0.084   2.471   8.646 -3.4063  0.5822 -0.0514
 3422SOL    HW221726   0.170   2.431   8.764 -0.8594  0.1448  1.1828
 3423SOL     OW21727   2.765   1.310   8.836 -0.5339 -0.2131 -0.1405
 3423SOL    HW121728   2.841   1.264   8.872 -1.3622 -0.5584  1.1312
 3423SOL    HW221729   2.721   1.243   8.783 -1.5319 -1.0513  1.7839
 3424SOL     OW21730   3.508   2.846  13.592 -0.3171 -0.2506 -0.0238
 3424SOL    HW121731   3.484   2.936  13.571  1.4075 -0.2648 -1.9592
 3424SOL    HW221732   3.594   2.835  13.552 -0.3013 -0.8337  0.1583
 3425SOL     OW21733   1.174   3.658   3.034 -0.2904  0.0083  0.2803
 3425SOL    HW121734   1.159   3.748   3.063  0.1273 -0.9695  3.4965
 3425SOL    HW221735   1.131   3.617   3.109 -0.5841  1.2681  0.8099
 3426SOL     OW21736   4.655   0.825   3.611 -0.0690 -0.0354  0.4631
 3426SOL    HW121737   0.018   0.784   3.609  0.2286  0.6212 -0.0671
 3426SOL    HW221738   4.652   0.899   3.671 -1.5501  1.2462 -1.1618
 3427SOL     OW21739   2.972   3.707   3.104  0.2755 -0.2448 -0.0868
 3427SOL    HW121740   2.950   3.614   3.096 -0.3583 -0.0342 -0.7087
 3427SOL    HW221741   3.054   3.700   3.056  0.9207 -0.7068  1.0703
 3428SOL     OW21742   2.664   0.509  10.426  0.0380  0.2911  0.0410
 3428SOL    HW121743   2.685   0.483  10.336 -2.9886 -3.2971  0.3734
 3428SOL    HW221744   2.732   0.452  10.463 -0.0369 -0.4829 -1.0086
 3429SOL     OW21745   2.686   2.285   2.490  0.1844 -0.7130  0.4976
 3429SOL    HW121746   2.596   2.258   2.471  0.0395  0.6857 -0.8018
 3429SOL    HW221747   2.687   2.288   2.585  1.3976 -0.2318  0.4667
 3430SOL     OW21748   3.564   3.645   1.615  0.3971 -0.5611 -0.1141
 3430SOL    HW121749   3.563   3.554   1.645 -2.0118 -1.2588 -2.2942
 3430SOL    HW221750   3.526   3.635   1.528  0.1685 -0.3508 -0.0396
 3431SOL     OW21751   1.238   2.992   3.513  0.3892  0.0150  0.1987
 3431SOL    HW121752   1.306   3.002   3.580  1.4898  1.3263 -1.1303
 3431SOL    HW221753   1.199   3.079   3.522  0.2085  0.1273 -1.6860
 3432SOL     OW21754   1.767   4.317   7.609 -0.1577  0.4492  0.0872
 3432SOL    HW121755   1.761   4.266   7.528 -2.6559  1.0254 -0.0830
 3432SOL    HW221756   1.800   4.400   7.576 -2.9610  1.1609 -0.9290
 3433SOL     OW21757   2.943   4.011  15.849 -0.4284  0.0673  0.7037
 3433SOL    HW121758   3.007   4.078  15.872  0.9514 -0.7169 -0.8156
 3433SOL    HW221759   2.912   4.053  15.769  0.0638  0.4068  0.6906
 3434SOL     OW21760   1.211   3.107   2.582 -0.3562 -0.3748  0.7413
 3434SOL    HW121761   1.242   3.150   2.662  0.1951 -0.8201  0.7711
 3434SOL    HW221762   1.292   3.109   2.532 -0.3863  3.9601  0.8285
 3435SOL     OW21763   0.242   4.338   3.085 -0.0745 -0.4093  0.0148
 3435SOL    HW121764   0.185   4.280   3.035  0.8760 -0.3532 -1.1361
 3435SOL    HW221765   0.171   4.380   3.134 -0.5767 -0.1342 -0.9516
 3436SOL     OW21766   1.030   2.246   8.296 -0.4641  0.0865  0.2172
 3436SOL    HW121767   0.996   2.203   8.374 -0.0832  2.3676  1.6668
 3436SOL    HW221768   1.114   2.288   8.319 -0.4760  0.7692 -1.0194
 3437SOL     OW21769   0.636   2.151   1.367  0.1623 -0.6446  0.1879
 3437SOL    HW121770   0.569   2.158   1.299 -0.5740  1.4644  1.1210
 3437SOL    HW221771   0.592   2.169   1.450 -1.7570  1.6071 -1.2895
 3438SOL     OW21772   1.823   0.840   9.164  0.4371  0.0497 -0.9020
 3438SOL    HW121773   1.823   0.767   9.103  0.6434  0.3687 -1.2850
 3438SOL    HW221774   1.891   0.898   9.130  1.3069  0.2306  1.1318
 3439SOL     OW21775   2.596   1.737  12.594  0.0007  0.0002 -0.1397
 3439SOL    HW121776   2.519   1.704  12.640  1.3108 -1.8605  0.7201
 3439SOL    HW221777   2.573   1.731  12.501 -0.6943 -0.7911  0.0812
 3440SOL     OW21778   0.398   4.069   2.208 -0.1832 -0.2103 -0.3064
 3440SOL    HW121779   0.477   4.097   2.161 -0.6542  3.0342  0.8387
 3440SOL    HW221780   0.417   3.989   2.257  1.8095  1.3991  1.5441
 3441SOL     OW21781   1.204   0.721   3.346  0.0614  0.0442 -0.3529
 3441SOL    HW121782   1.198   0.638   3.300 -1.9315  0.2949 -0.5735
 3441SOL    HW221783   1.237   0.767   3.269 -1.0971 -0.1161 -0.9423
 3442SOL     OW21784   4.530   4.434   2.921 -0.4500  0.6821  0.5949
 3442SOL    HW121785   4.599   4.379   2.883 -1.4566  0.6753 -1.1979
 3442SOL    HW221786   4.550   4.430   3.015 -0.2240 -0.2927  0.5145
 3443SOL     OW21787   4.570   0.126   4.403 -0.0870  0.3690  0.7440
 3443SOL    HW121788   4.480   0.103   4.381  0.3894 -1.2336  0.4354
 3443SOL    HW221789   4.543   0.153   4.491  0.1482 -0.4919  1.0887
 3444SOL     OW21790   2.909   2.098   5.998  0.7989  0.1858  0.5023
 3444SOL    HW121791   2.941   2.008   6.003  0.8351  0.2638  1.6967
 3444SOL    HW221792   2.866   2.096   5.913  0.4622 -0.8882  0.7037
 3445SOL     OW21793   4.520   2.977   8.640 -0.4082  0.3019 -0.0846
 3445SOL    HW121794   4.531   3.068   8.668  2.1543  0.0867 -0.3727
 3445SOL    HW221795   4.458   2.950   8.707  0.1899  1.3131  0.8839
 3446SOL     OW21796   1.693   1.758   6.384  0.0788  0.0530 -0.4103
 3446SOL    HW121797   1.692   1.666   6.410  1.5989 -0.8604 -3.5741
 3446SOL    HW221798   1.782   1.778   6.355 -0.2114  2.2436  0.2140
 3447SOL     OW21799   2.308   0.433   8.418 -0.3291 -0.2520 -0.2221
 3447SOL    HW121800   2.400   0.406   8.420 -0.1966  0.2077 -0.0073
 3447SOL    HW221801   2.285   0.421   8.326 -1.9022 -1.5238  0.3540
 3448SOL     OW21802   0.354   2.571   5.821  0.0226  0.5042  0.0287
 3448SOL    HW121803   0.448   2.582   5.813 -0.2083  3.0055  0.4972
 3448SOL    HW221804   0.351   2.485   5.861 -2.2551  0.5278 -0.0690
 3449SOL     OW21805   1.995   2.714   4.747  0.2640 -0.0410  0.0752
 3449SOL    HW121806   1.971   2.754   4.831 -0.0135  0.6361 -0.3225
 3449SOL    HW221807   2.013   2.624   4.773 -2.0027 -0.6712 -0.5799
 3450SOL     OW21808   2.710   3.012  16.563 -0.1634  0.3705  0.1452
 3450SOL    HW121809   2.643   3.055  16.510  0.2387 -2.7457 -2.8095
 3450SOL    HW221810   2.647   2.954  16.605  1.0427 -0.5623  0.6753
 3451SOL     OW21811   4.703   3.340   6.501 -0.1012 -0.3605  0.8013
 3451SOL    HW121812   0.067   3.368   6.474  0.4251 -0.7634  2.0717
 3451SOL    HW221813   4.661   3.422   6.476 -0.9901 -0.8930  0.5441
 3452SOL     OW21814   2.804   0.321   6.621  0.6514 -0.0565  0.1640
 3452SOL    HW121815   2.828   0.355   6.707  0.4859 -2.0655  1.0142
 3452SOL    HW221816   2.838   0.234   6.642  0.2002  0.1782  1.7782
 3453SOL     OW21817   4.261   1.121  17.686 -0.5194 -0.0206  0.2799
 3453SOL    HW121818   4.183   1.134   0.045 -0.0368 -0.6034  1.1310
 3453SOL    HW221819   4.291   1.036   0.023  3.0588  0.3811 -2.0820
 3454SOL     OW21820   1.519   0.692  12.377  0.0541 -0.0298 -0.2639
 3454SOL    HW121821   1.453   0.729  12.319 -0.7880 -1.6087 -0.2918
 3454SOL    HW221822   1.543   0.760  12.441 -2.0426  0.2385  0.2189
 3455SOL     OW21823   0.526   0.073  15.709  0.1570 -0.0783  0.3106
 3455SOL    HW121824   0.535   0.167  15.723 -1.3107  0.6435 -3.6122
 3455SOL    HW221825   0.514   0.069  15.614  0.3933  0.3774  0.2582
 3456SOL     OW21826   3.206   3.744   5.893  0.4319 -0.0611 -0.0028
 3456SOL    HW121827   3.161   3.787   5.966  0.2404  2.2480 -1.4655
 3456SOL    HW221828   3.289   3.788   5.910 -1.1739  2.7925  0.5175
 3457SOL     OW21829   0.204   2.953  11.553  0.2194 -0.3614 -0.0647
 3457SOL    HW121830   0.295   2.935  11.576 -0.2567 -2.7626 -0.0689
 3457SOL    HW221831   0.158   2.893  11.612 -0.5657 -1.0861 -1.4282
 3458SOL     OW21832   1.261   0.510   7.178  0.0384 -0.2160 -0.1291
 3458SOL    HW121833   1.208   0.508   7.098  0.6913 -0.7477 -0.5468
 3458SOL    HW221834   1.214   0.578   7.228 -0.9529 -0.5948 -0.5373
 3459SOL     OW21835   1.270   1.664   5.736  0.1486 -0.6156  0.2997
 3459SOL    HW121836   1.327   1.629   5.804 -0.6557 -0.8808  0.8383
 3459SOL    HW221837   1.249   1.581   5.692  0.4013 -0.7110  0.3641
 3460SOL     OW21838   3.751   4.082   8.748  0.1298 -0.0598  0.5214
 3460SOL    HW121839   3.678   4.099   8.689 -0.3159  2.2671  1.7264
 3460SOL    HW221840   3.706   4.053   8.827 -1.1167 -1.1532 -0.5907
 3461SOL     OW21841   0.332   3.037   8.199  0.3244 -0.4771  0.0936
 3461SOL    HW121842   0.341   3.127   8.169 -3.1848 -0.4829 -1.0504
 3461SOL    HW221843   0.404   2.988   8.158  0.9716  0.0040  0.6648
 3462SOL     OW21844   0.836   4.445   4.311  0.1604  0.0049 -0.5164
 3462SOL    HW121845   0.868   4.528   4.274 -0.9127  0.5982 -0.1212
 3462SOL    HW221846   0.743   4.466   4.315  0.2988  0.8112 -1.4599
 3463SOL     OW21847   2.323   1.774   3.163 -0.1230  0.5767 -0.3861
 3463SOL    HW121848   2.358   1.845   3.218 -1.3397 -0.2634  1.4964
 3463SOL    HW221849   2.396   1.713   3.174 -1.3926 -0.7402  0.7563
 3464SOL     OW21850   0.686   3.427   2.902  0.1227  0.3141 -0.0705
 3464SOL    HW121851   0.616   3.418   2.966  1.3293  0.7305  1.2954
 3464SOL    HW221852   0.673   3.516   2.868  1.2154  1.3668  2.3183
 3465SOL     OW21853   1.024   3.445  10.823 -0.1061  0.4543 -0.0677
 3465SOL    HW121854   1.022   3.465  10.729 -1.7081 -0.2355 -0.1842
 3465SOL    HW221855   0.935   3.411  10.837  0.3865 -0.4028  0.9372
 3466SOL     OW21856   2.951   2.584   0.522 -0.1818  0.1080  0.3330
 3466SOL    HW121857   2.861   2.565   0.548  0.6008 -3.0947  0.7143
 3466SOL    HW221858   2.951   2.525   0.447  0.8276  0.4200  0.0907
 3467SOL     OW21859   2.699   4.052   6.203 -0.4301  0.0193  0.1086
 3467SOL    HW121860   2.717   3.959   6.216  2.9722  0.8634  1.4251
 3467SOL    HW221861   2.710   4.090   6.290  0.0583 -0.5547  0.3016
 3468SOL     OW21862   2.922   4.430   3.397  0.2297 -0.1137 -0.5013
 3468SOL    HW121863   2.870   4.464   3.324 -2.1969  0.0715  1.2860
 3468SOL    HW221864   2.975   4.503   3.430 -1.5525  1.5867 -1.3818
 3469SOL     OW21865   0.780   0.606   6.135 -0.9468  0.1268 -0.1254
 3469SOL    HW121866   0.721   0.576   6.066 -1.7151  0.9210  0.1954
 3469SOL    HW221867   0.743   0.693   6.145  0.2548  0.5484  0.6251
 3470SOL     OW21868   0.328   4.182  16.500 -0.2228 -0.0035  0.5329
 3470SOL    HW121869   0.329   4.243  16.427 -0.0724 -0.3928  0.2107
 3470SOL    HW221870   0.246   4.216  16.537 -0.6853 -0.5898  0.0645
 3471SOL     OW21871   3.165   2.659   6.854 -0.1542  0.0189 -0.1178
 3471SOL    HW121872   3.157   2.564   6.866 -1.2317  0.1447  0.1439
 3471SOL    HW221873   3.236   2.670   6.791 -1.1670 -1.6644 -1.5658
 3472SOL     OW21874   4.105   2.481   1.588  0.0621  0.1172 -0.3328
 3472SOL    HW121875   4.068   2.393   1.583  0.1094  0.0498  0.5007
 3472SOL    HW221876   4.086   2.523   1.505 -0.0548  1.5442  0.4146
 3473SOL     OW21877   4.133   4.376  11.182 -0.3478 -0.5700 -0.0247
 3473SOL    HW121878   4.166   4.305  11.237 -2.2664 -1.2665  0.2223
 3473SOL    HW221879   4.201   4.392  11.118 -1.9972  0.6911 -1.4721
 3474SOL     OW21880   1.870   1.258   5.516 -0.3332  0.2812 -0.3055
 3474SOL    HW121881   1.833   1.309   5.444  0.1275 -0.0213 -0.7550
 3474SOL    HW221882   1.828   1.177   5.487  1.1352 -0.2659 -0.8874
 3475SOL     OW21883   4.180   2.865  12.519 -0.5315 -0.5748  0.2951
 3475SOL    HW121884   4.148   2.799  12.580  1.8800 -1.7873  0.2666
 3475SOL    HW221885   4.247   2.907  12.572 -0.6698 -0.5352  0.4368
 3476SOL     OW21886   3.360   4.376   3.307 -0.2841 -0.3794  0.0522
 3476SOL    HW121887   3.368   4.470   3.292 -0.4915 -0.1278  1.5035
 3476SOL    HW221888   3.329   4.387   3.397 -1.4414 -0.6790 -0.3125
 3477SOL     OW21889   0.725   0.727   8.802 -0.3121  0.3240  0.1589
 3477SOL    HW121890   0.732   0.692   8.891  0.0565 -3.8334 -1.5138
 3477SOL    HW221891   0.658   0.668   8.766 -0.6756  2.1841 -2.2065
 3478SOL     OW21892   2.398   1.468   6.520 -0.3157 -0.1487  0.3147
 3478SOL    HW121893   2.326   1.496   6.576  1.0370  1.4005  1.2679
 3478SOL    HW221894   2.415   1.549   6.473  0.2932 -0.0985  0.6130
 3479SOL     OW21895   4.181   3.287   9.504  0.9260  0.2732  0.0869
 3479SOL    HW121896   4.214   3.359   9.559  1.5891  0.7106 -0.8766
 3479SOL    HW221897   4.090   3.316   9.512  0.0463 -1.6353 -3.0177
 3480SOL     OW21898   4.366   4.029  17.618 -0.0940  0.6465 -0.2122
 3480SOL    HW121899   4.365   4.117  17.581  1.5826  1.8125  2.5397
 3480SOL    HW221900   4.422   4.050  17.692  1.4067  0.6373 -1.3624
 3481SOL     OW21901   0.396   2.264  10.860 -0.0435  0.4935 -0.3625
 3481SOL    HW121902   0.400   2.179  10.904  0.3363 -0.0106 -1.3686
 3481SOL    HW221903   0.416   2.228  10.773  0.4300  2.2200 -0.9787
 3482SOL     OW21904   0.991   3.902   3.536  0.2700  1.0783 -0.4575
 3482SOL    HW121905   0.911   3.953   3.542 -1.5299 -1.7665 -0.1708
 3482SOL    HW221906   1.058   3.966   3.512  1.5493  0.0097  0.2214
 3483SOL     OW21907   2.905   3.811  14.102 -0.2082 -0.1067 -0.6482
 3483SOL    HW121908   2.950   3.895  14.118  2.9193 -2.3139  2.1596
 3483SOL    HW221909   2.862   3.823  14.018  1.9479  1.6357 -1.5231
 3484SOL     OW21910   4.109   3.915   5.349 -0.5059 -0.0527  0.1705
 3484SOL    HW121911   4.135   3.891   5.260 -1.2411  0.0332 -0.0657
 3484SOL    HW221912   4.100   4.010   5.344  0.5206  0.1407  1.8246
 3485SOL     OW21913   4.375   3.715   7.754 -0.0031 -0.4097  0.1937
 3485SOL    HW121914   4.376   3.644   7.691 -1.3924 -0.5984  0.3750
 3485SOL    HW221915   4.463   3.705   7.790  1.8682  0.9169 -4.1263
 3486SOL     OW21916   0.668   1.737   4.017 -0.4828 -0.2343 -0.0077
 3486SOL    HW121917   0.725   1.713   4.090  0.6499  0.6748 -0.5839
 3486SOL    HW221918   0.638   1.825   4.038  0.0610 -0.0469 -0.0173
 3487SOL     OW21919   3.552   0.784   9.144 -0.4303 -0.0040 -0.6613
 3487SOL    HW121920   3.471   0.829   9.168 -0.4836 -1.0620  1.1971
 3487SOL    HW221921   3.509   0.719   9.088 -0.5755 -0.2831 -0.2264
 3488SOL     OW21922   2.740   4.131   2.459 -0.2844 -0.1618  0.3665
 3488SOL    HW121923   2.778   4.218   2.445  0.9692 -0.7522  0.1231
 3488SOL    HW221924   2.806   4.094   2.518  1.6174  0.8971 -1.0801
 3489SOL     OW21925   1.025   1.100   9.401  0.2434  0.8178 -0.2124
 3489SOL    HW121926   1.009   1.152   9.480 -3.6084 -0.6937  0.0209
 3489SOL    HW221927   1.110   1.059   9.416 -0.0076  1.1657  2.2438
 3490SOL     OW21928   3.192   4.677   5.029 -0.6264 -0.1136 -0.2683
 3490SOL    HW121929   3.284   4.694   5.010 -1.2604  1.1270 -2.2106
 3490SOL    HW221930   3.176   0.038   5.071 -0.8187 -1.6713  2.7900
 3491SOL     OW21931   4.386   0.179  15.833  0.6502 -0.1437  0.2727
 3491SOL    HW121932   4.342   0.236  15.770 -0.7366  0.0107  1.3816
 3491SOL    HW221933   4.448   0.233  15.882  0.5584  0.3125 -0.1070
 3492SOL     OW21934   2.563   4.663   4.016 -0.0805  0.1911  0.3335
 3492SOL    HW121935   2.480   4.711   4.010  0.8932  1.5967 -1.6952
 3492SOL    HW221936   2.543   4.602   4.088 -2.4119  0.9385  0.3276
 3493SOL     OW21937   4.601   4.028   3.173  0.1676  0.4100  0.0924
 3493SOL    HW121938   4.516   4.041   3.131  0.2556 -1.5958 -0.7091
 3493SOL    HW221939   4.580   4.030   3.267  1.0334  0.3246  0.2896
 3494SOL     OW21940   3.554   3.455   9.445  0.4863 -0.3424  0.4665
 3494SOL    HW121941   3.642   3.474   9.479  0.0527  2.1099  0.2365
 3494SOL    HW221942   3.485   3.461   9.512 -1.1076  1.6389 -1.3639
 3495SOL     OW21943   3.518   2.110   4.268  0.3379  0.7286  0.3229
 3495SOL    HW121944   3.591   2.122   4.328 -1.7674  0.2841  2.9528
 3495SOL    HW221945   3.436   2.120   4.316 -0.9100  1.5827 -1.9834
 3496SOL     OW21946   2.011   4.386  11.735 -0.1295  0.6227  0.3205
 3496SOL    HW121947   1.941   4.433  11.691 -0.4631  0.2541  0.4560
 3496SOL    HW221948   1.986   4.296  11.713  0.1255  0.2799  1.4437
 3497SOL     OW21949   1.697   3.552   7.018 -0.3077 -0.4785  0.0350
 3497SOL    HW121950   1.716   3.522   6.929 -1.0161  0.3910 -0.4091
 3497SOL    HW221951   1.602   3.538   7.020 -0.1115 -2.2669 -2.6673
 3498SOL     OW21952   3.451   2.592  13.496 -0.4744 -0.8585  0.6292
 3498SOL    HW121953   3.502   2.545  13.562 -1.3245 -1.7459  0.6532
 3498SOL    HW221954   3.467   2.684  13.520  3.1745 -0.9272 -1.4544
 3499SOL     OW21955   4.661   1.794   2.313  0.1805  0.7013  0.3312
 3499SOL    HW121956   4.702   1.881   2.306  1.6538  0.1670  2.2148
 3499SOL    HW221957   4.568   1.812   2.303 -0.3042 -3.0169 -1.8280
 3500SOL     OW21958   1.512   1.198   7.948 -0.4352  0.2336  0.1901
 3500SOL    HW121959   1.519   1.134   7.878  1.5685  0.2386  0.3857
 3500SOL    HW221960   1.603   1.230   7.950 -0.4445  0.3737 -1.7300
 3501SOL     OW21961   0.961   1.332   2.827 -0.0199 -0.1219 -0.8059
 3501SOL    HW121962   0.925   1.363   2.744  0.0853  0.5573 -0.6051
 3501SOL    HW221963   0.975   1.417   2.870 -2.3751  0.6240 -1.5363
 3502SOL     OW21964   2.415   0.684   7.063 -0.6448  0.4085 -0.1471
 3502SOL    HW121965   2.430   0.740   7.139 -0.4028  1.0172 -0.6431
 3502SOL    HW221966   2.395   0.600   7.104 -3.2587  0.0427 -2.1781
 3503SOL     OW21967   3.619   4.048   3.776 -0.2892  0.0501 -0.0188
 3503SOL    HW121968   3.690   4.099   3.738  1.2209 -2.6650 -0.8110
 3503SOL    HW221969   3.661   3.965   3.799  0.5943 -0.1730 -2.4817
 3504SOL     OW21970   0.985   4.432   6.774 -0.0393 -0.3369 -0.2013
 3504SOL    HW121971   0.993   4.340   6.796 -0.7398 -0.8726 -2.2002
 3504SOL    HW221972   1.026   4.481   6.846 -0.4070 -2.1542  1.2602
 3505SOL     OW21973   0.959   4.219   4.285 -0.0356  0.8162  0.1553
 3505SOL    HW121974   0.908   4.163   4.227 -0.5962  0.9058  0.5670
 3505SOL    HW221975   0.920   4.306   4.274 -0.6977  0.2883 -1.5794
 3506SOL     OW21976   1.186   0.197  12.245  0.6530  0.5582  0.3442
 3506SOL    HW121977   1.189   0.208  12.340  0.6223  3.7195 -0.0290
 3506SOL    HW221978   1.269   0.158  12.218  0.3320  0.2543 -0.2052
 3507SOL     OW21979   3.142   1.296  16.087  0.4448 -0.0211  0.4039
 3507SOL    HW121980   3.130   1.295  16.182 -0.3110 -0.1984  0.3051
 3507SOL    HW221981   3.075   1.359  16.060  0.5636 -0.2672 -0.4558
 3508SOL     OW21982   1.622   4.064   6.791 -0.1236  0.2234 -0.0097
 3508SOL    HW121983   1.635   3.976   6.825 -3.8380 -0.6943 -0.9123
 3508SOL    HW221984   1.687   4.075   6.723  2.5331  1.9582  2.7976
 3509SOL     OW21985   1.865   4.588  11.628 -0.9378 -0.3422  0.2598
 3509SOL    HW121986   1.852   4.613  11.536 -1.7549 -0.8381  0.2441
 3509SOL    HW221987   1.816   4.658  11.671 -1.3692 -0.7841  0.4847
 3510SOL     OW21988   0.039   1.739   7.319 -0.1822 -0.2005 -0.0207
 3510SOL    HW121989   0.023   1.655   7.276  0.4801  0.7109 -2.0005
 3510SOL    HW221990   0.021   1.803   7.251  0.2802  0.1321  0.1759
 3511SOL     OW21991   1.152   0.380   6.699  0.4459 -0.1987  0.0594
 3511SOL    HW121992   1.114   0.296   6.724  1.8438 -0.4574  1.2740
 3511SOL    HW221993   1.109   0.400   6.616 -0.1625  0.4997  0.5483
 3512SOL     OW21994   3.315   2.314   3.232  0.0868 -0.0271  0.5768
 3512SOL    HW121995   3.255   2.334   3.304 -0.7172 -0.9033  0.1513
 3512SOL    HW221996   3.359   2.235   3.263 -1.6102 -1.2815 -0.2308
 3513SOL     OW21997   4.050   2.233   3.355  0.2092  0.2864  0.4624
 3513SOL    HW121998   4.055   2.322   3.323 -1.0977  0.8769  1.8610
 3513SOL    HW221999   4.141   2.214   3.377 -0.2524 -0.7995  1.4610
 3514SOL     OW22000   4.590   0.898   9.812  0.0866  0.9858 -0.1723
 3514SOL    HW122001   4.683   0.899   9.793  0.8331 -0.3147  3.3374
 3514SOL    HW222002   4.585   0.974   9.870  1.5737 -0.8767  2.3875
 3515SOL     OW22003   0.749   1.848   9.000 -0.6864  0.5716  0.0414
 3515SOL    HW122004   0.819   1.823   9.060  0.5200 -1.5219 -2.2683
 3515SOL    HW222005   0.678   1.849   9.065  1.0128 -2.8039  1.9061
 3516SOL     OW22006   3.151   2.125   5.268 -0.7129  0.7558 -0.3622
 3516SOL    HW122007   3.189   2.168   5.192 -0.1031 -3.1633 -2.2645
 3516SOL    HW222008   3.156   2.192   5.336  0.3094 -0.5676  0.8758
 3517SOL     OW22009   0.408   3.307   6.076  0.0412 -0.0110 -0.6045
 3517SOL    HW122010   0.313   3.311   6.088  0.2183 -1.8432  1.3930
 3517SOL    HW222011   0.425   3.214   6.061  0.8022  0.5307 -3.0843
 3518SOL     OW22012   0.394   2.520   4.424 -0.2040 -0.1768 -0.3755
 3518SOL    HW122013   0.447   2.587   4.469 -0.1649  1.2047 -2.4938
 3518SOL    HW222014   0.438   2.446   4.466 -0.6982  0.1529  0.7461
 3519SOL     OW22015   0.795   4.545   3.767 -0.0941 -0.3210  0.0367
 3519SOL    HW122016   0.863   4.494   3.723 -0.2307 -3.8031  3.8235
 3519SOL    HW222017   0.738   4.474   3.794  0.8625 -0.7311  1.0072
 3520SOL     OW22018   4.621   2.834   2.743 -0.4246  0.1571 -0.2606
 3520SOL    HW122019   4.589   2.762   2.798 -2.8262  1.2487 -0.2241
 3520SOL    HW222020   4.669   2.789   2.673  0.6518  1.0342 -0.0695
 3521SOL     OW22021   3.880   0.527   8.282  0.1877  0.0635  0.6592
 3521SOL    HW122022   3.859   0.603   8.336  3.5352  0.2870  1.6464
 3521SOL    HW222023   3.967   0.553   8.251 -0.9937  1.1566 -1.7345
 3522SOL     OW22024   0.446   3.204   6.872 -0.2531 -0.2774  0.7522
 3522SOL    HW122025   0.407   3.215   6.959 -1.3484 -0.3508  0.2731
 3522SOL    HW222026   0.535   3.238   6.881  0.3076 -1.2886 -1.0369
 3523SOL     OW22027   1.986   3.889  14.064  0.4364 -0.0975 -0.0183
 3523SOL    HW122028   1.903   3.866  14.022  0.6591  0.5462 -0.8064
 3523SOL    HW222029   2.044   3.923  13.997 -0.3088 -1.3323 -1.2722
 3524SOL     OW22030   4.534   2.924   5.514 -0.2165 -0.5952  0.6266
 3524SOL    HW122031   4.558   3.012   5.487  1.1246 -0.7814  1.1998
 3524SOL    HW222032   4.579   2.865   5.454  1.8096  1.0882  0.5014
 3525SOL     OW22033   3.411   2.848   7.929 -0.0604  0.6373 -0.4231
 3525SOL    HW122034   3.460   2.869   8.008 -0.7228 -0.2525  0.2322
 3525SOL    HW222035   3.419   2.928   7.877 -1.4558  1.2440  0.3023
 3526SOL     OW22036   0.058   2.093   2.529  0.0092 -0.0242 -0.3876
 3526SOL    HW122037   0.104   2.017   2.565  0.7809 -0.0764 -1.4578
 3526SOL    HW222038   4.722   2.102   2.603 -0.0080 -1.5513 -0.2138
 3527SOL     OW22039   2.350   3.987  13.998  0.0331  0.2472  0.0753
 3527SOL    HW122040   2.400   4.035  13.932  1.5469 -0.4043  0.7309
 3527SOL    HW222041   2.263   3.989  13.959 -0.3243 -0.0597  0.8728
 3528SOL     OW22042   2.404   4.168  12.136  0.0941  0.6154 -0.1291
 3528SOL    HW122043   2.479   4.154  12.194 -1.2503 -2.0008  0.9737
 3528SOL    HW222044   2.329   4.145  12.191 -1.3479 -1.2757 -2.8853
 3529SOL     OW22045   1.371   1.641   7.282  0.0896 -0.2994 -0.1120
 3529SOL    HW122046   1.339   1.703   7.217  0.5798 -0.0055 -0.0700
 3529SOL    HW222047   1.304   1.572   7.285  0.0849 -0.3610 -1.8770
 3530SOL     OW22048   1.068   3.001   9.835  0.3232 -0.1184  0.2443
 3530SOL    HW122049   1.002   2.961   9.892 -1.9555 -0.8745 -2.9728
 3530SOL    HW222050   1.137   3.021   9.899 -0.0059  1.5818  0.0493
 3531SOL     OW22051   4.138   0.025  10.244  0.2541  0.0021  0.0460
 3531SOL    HW122052   4.186   0.094  10.291  1.0766 -1.3174  1.1413
 3531SOL    HW222053   4.048   0.027  10.276  0.2890  0.7469  0.1050
 3532SOL     OW22054   0.265   1.436   8.103 -0.0205 -0.4869 -0.3898
 3532SOL    HW122055   0.330   1.466   8.167 -2.0997  3.7693 -0.2444
 3532SOL    HW222056   0.319   1.409   8.029 -0.1090 -1.9079  0.0775
 3533SOL     OW22057   2.041   2.503   7.463  0.4957  0.4565  0.3475
 3533SOL    HW122058   2.047   2.521   7.369 -0.2178 -1.7244 -0.1390
 3533SOL    HW222059   2.126   2.463   7.478  0.8947  1.3116  0.3254
 3534SOL     OW22060   2.366   3.312   3.625  0.0809  0.4153 -0.5543
 3534SOL    HW122061   2.395   3.322   3.716 -1.9374  0.3044  0.0907
 3534SOL    HW222062   2.285   3.273   3.657 -0.0037 -1.3585 -2.9632
 3535SOL     OW22063   3.672   0.461   3.646 -0.0892 -0.2129  0.2671
 3535SOL    HW122064   3.652   0.549   3.679 -2.0053  0.1331 -1.8167
 3535SOL    HW222065   3.611   0.451   3.573 -0.4911  1.2978  0.3906
 3536SOL     OW22066   0.538   2.558  10.155 -0.0820 -0.4501  0.0336
 3536SOL    HW122067   0.468   2.513  10.109 -0.3178  0.6226 -0.6603
 3536SOL    HW222068   0.536   2.525  10.245 -0.2039 -1.2832 -0.2778
 3537SOL     OW22069   1.934   0.438  10.022  0.6130 -0.4226  0.5101
 3537SOL    HW122070   1.852   0.388  10.026  1.0477 -1.1947 -0.0818
 3537SOL    HW222071   1.932   0.498  10.096  2.0371  0.2232  0.0227
 3538SOL     OW22072   3.603   0.866   4.552  0.3070 -0.2117 -0.1691
 3538SOL    HW122073   3.557   0.865   4.468  0.5731 -1.5493 -0.3013
 3538SOL    HW222074   3.696   0.862   4.527  0.0288 -2.1664 -0.8752
 3539SOL     OW22075   1.933   1.017  13.383  0.1543 -0.3088 -0.6083
 3539SOL    HW122076   1.967   0.989  13.298 -0.0322 -0.4653 -0.6306
 3539SOL    HW222077   1.911   0.932  13.421  0.3705 -0.5670 -1.0626
 3540SOL     OW22078   2.106   1.063   8.543  0.0580  0.4839 -0.0170
 3540SOL    HW122079   2.136   1.041   8.632 -2.0557 -0.0416  0.5669
 3540SOL    HW222080   2.018   1.096   8.558  0.2121  1.4150 -1.1722
 3541SOL     OW22081   2.616   2.463  14.767  0.4278 -0.2281 -0.4093
 3541SOL    HW122082   2.522   2.454  14.754  0.5767 -1.1064 -0.8466
 3541SOL    HW222083   2.640   2.522  14.695  0.9923  0.5863  0.4476
 3542SOL     OW22084   4.606   0.935  16.802  0.5649  0.6413 -0.7493
 3542SOL    HW122085   4.664   1.010  16.795  0.5563  0.9535  2.4524
 3542SOL    HW222086   4.654   0.889  16.871 -0.7338  0.5808  0.1330
 3543SOL     OW22087   3.305   0.668   9.064 -0.3672 -0.4375 -0.2017
 3543SOL    HW122088   3.223   0.638   9.104 -0.6485  1.1479  0.4077
 3543SOL    HW222089   3.355   0.590   9.038 -0.1417 -0.2903 -0.2070
 3544SOL     OW22090   0.476   1.195   8.999 -0.1453  0.1602 -0.2304
 3544SOL    HW122091   0.399   1.178   8.945 -0.6125 -0.2188  0.5436
 3544SOL    HW222092   0.513   1.111   9.029  0.4345  0.4144 -0.2345
 3545SOL     OW22093   3.502   1.743  12.458 -0.0785  0.1981  0.3190
 3545SOL    HW122094   3.542   1.789  12.384  0.2425  1.3055  1.1738
 3545SOL    HW222095   3.561   1.761  12.531 -0.0035 -1.1708  0.5876
 3546SOL     OW22096   2.562   1.597   5.640  0.0131 -0.2530 -0.2039
 3546SOL    HW122097   2.550   1.513   5.684 -2.0410  0.0878 -0.0993
 3546SOL    HW222098   2.614   1.643   5.705  0.1446  1.3336 -1.4232
 3547SOL     OW22099   3.647   2.028   0.727 -0.2863 -0.3862 -0.0443
 3547SOL    HW122100   3.554   2.015   0.708  0.1566 -1.5809 -1.4436
 3547SOL    HW222101   3.697   1.995   0.651 -0.9238 -0.4592 -0.4300
 3548SOL     OW22102   1.603   0.474   2.205  0.1358 -0.3636  0.1865
 3548SOL    HW122103   1.540   0.434   2.265 -0.9110  3.2436  1.4443
 3548SOL    HW222104   1.625   0.556   2.249 -1.7744  1.1728 -1.7874
 3549SOL     OW22105   3.350   4.358  13.410  0.2720  0.3256  0.6060
 3549SOL    HW122106   3.305   4.329  13.489 -2.4230  1.3393 -0.5654
 3549SOL    HW222107   3.294   4.424  13.371  1.1062 -1.3103 -3.3576
 3550SOL     OW22108   1.622   3.863   4.721 -0.3172 -0.3979  0.2743
 3550SOL    HW122109   1.693   3.927   4.713 -0.4240 -0.2570  0.4440
 3550SOL    HW222110   1.590   3.883   4.809  0.1085  0.6711  0.1882
 3551SOL     OW22111   3.591   1.478   4.053 -0.4869 -0.2231  0.4002
 3551SOL    HW122112   3.562   1.536   3.983 -0.3229 -1.1258 -0.4270
 3551SOL    HW222113   3.631   1.539   4.115 -2.4551  0.8964  0.5435
 3552SOL     OW22114   0.760   4.499   7.027 -0.0169  0.0592  0.0782
 3552SOL    HW122115   0.668   4.477   7.010  0.3714 -3.5225  2.5559
 3552SOL    HW222116   0.763   4.593   7.010 -0.4290 -0.2027 -1.3930
 3553SOL     OW22117   3.477   0.137   3.134 -0.1656 -0.7158  0.9422
 3553SOL    HW122118   3.528   0.149   3.054 -0.5336 -3.5817  0.2948
 3553SOL    HW222119   3.548   0.138   3.199  1.7897  0.9635 -1.2262
 3554SOL     OW22120   0.853   1.464   0.800  0.2747  0.6610 -0.2785
 3554SOL    HW122121   0.802   1.544   0.788  1.1750  1.2602 -0.1108
 3554SOL    HW222122   0.818   1.413   0.727 -2.7959  2.4698 -0.0978
 3555SOL     OW22123   0.673   1.099   6.361  0.2269  0.4867  0.5237
 3555SOL    HW122124   0.638   1.095   6.450 -2.2230  0.1266 -0.4589
 3555SOL    HW222125   0.764   1.110   6.389  0.2188  0.2417  0.6417
 3556SOL     OW22126   4.179   3.786   9.618 -0.2242 -0.2150 -0.0333
 3556SOL    HW122127   4.216   3.782   9.706 -0.3483 -0.7607 -0.0059
 3556SOL    HW222128   4.131   3.703   9.609 -1.6639  0.4889  1.2288
 3557SOL     OW22129   2.064   4.573   4.206 -0.0892  0.5407 -0.5975
 3557SOL    HW122130   2.064   4.499   4.267  0.5042  0.9492 -0.0941
 3557SOL    HW222131   2.057   4.527   4.122  1.2084 -0.8809  0.0610
 3558SOL     OW22132   0.296   1.291  12.598  0.0792  0.2346 -0.4965
 3558SOL    HW122133   0.342   1.366  12.561 -0.2979  0.1476 -1.1294
 3558SOL    HW222134   0.278   1.315  12.689  1.7429  2.0853 -0.6594
 3559SOL     OW22135   3.877   1.059   1.064 -0.5917  0.1447  0.1630
 3559SOL    HW122136   3.852   0.970   1.037  2.1725 -0.8111  0.7579
 3559SOL    HW222137   3.915   1.029   1.146  0.5415  3.2960  0.7859
 3560SOL     OW22138   3.790   1.319   5.137 -0.1481  0.1109 -0.4502
 3560SOL    HW122139   3.751   1.403   5.161  0.2306 -0.1778  1.1318
 3560SOL    HW222140   3.851   1.296   5.206 -1.6851  1.4861  1.3732
 3561SOL     OW22141   0.262   3.456   2.240 -0.8410 -1.1790 -0.0016
 3561SOL    HW122142   0.209   3.534   2.224  0.5741 -0.0892  0.6395
 3561SOL    HW222143   0.283   3.438   2.148 -0.5420 -2.3447  0.2877
 3562SOL     OW22144   4.610   1.994   6.645  0.9620 -0.0001  0.4287
 3562SOL    HW122145   4.585   1.999   6.552  0.2317  0.0922  0.6326
 3562SOL    HW222146   4.682   1.931   6.640  1.0522  0.0202  1.5021
 3563SOL     OW22147   3.747   0.187  10.138 -0.2661 -0.0919 -1.1694
 3563SOL    HW122148   3.817   0.144  10.188 -1.3636 -0.5218  0.0195
 3563SOL    HW222149   3.718   0.115  10.082 -0.1447 -0.0703 -1.2594
 3564SOL     OW22150   0.285   0.439   6.889  0.1677 -0.1231  0.2947
 3564SOL    HW122151   0.220   0.505   6.917  1.1350  0.0432  2.1192
 3564SOL    HW222152   0.223   0.367   6.886  2.7345 -2.3719  1.7108
 3565SOL     OW22153   0.084   1.247   6.361 -0.7943  0.3036 -0.0384
 3565SOL    HW122154   0.135   1.317   6.319 -0.8438  0.1388 -0.3760
 3565SOL    HW222155   0.149   1.177   6.350 -0.8809  0.1969  0.1292
 3566SOL     OW22156   3.957   4.570  11.073  0.4900  0.1007 -0.4702
 3566SOL    HW122157   4.003   4.513  11.134 -0.1446  0.1902  0.0888
 3566SOL    HW222158   3.975   4.659  11.104 -1.6818 -0.3582  2.0840
 3567SOL     OW22159   2.141   4.375   4.764  0.2405  0.8177  0.4455
 3567SOL    HW122160   2.101   4.452   4.805 -3.0878 -0.1776 -0.9606
 3567SOL    HW222161   2.231   4.377   4.798  0.2457  0.0659  0.4666
 3568SOL     OW22162   3.179   1.541   3.587  0.0436  0.2733  0.1258
 3568SOL    HW122163   3.111   1.569   3.526 -1.4660 -0.9481  1.2506
 3568SOL    HW222164   3.258   1.572   3.542  0.1975 -1.6942 -0.9333
 3569SOL     OW22165   0.974   3.919  16.348  0.3343 -0.6768 -0.7755
 3569SOL    HW122166   0.985   3.943  16.256  1.6450  1.1794 -0.1425
 3569SOL    HW222167   0.990   3.827  16.328 -0.5674 -0.7459 -1.1780
 3570SOL     OW22168   3.565   2.893  14.340  0.0394  0.4471 -0.1403
 3570SOL    HW122169   3.491   2.856  14.292 -0.1629  2.2212 -1.2029
 3570SOL    HW222170   3.519   2.970  14.375  0.7194  0.6608  0.2876
 3571SOL     OW22171   3.826   4.311  17.429  0.6941 -0.9375 -0.2867
 3571SOL    HW122172   3.919   4.298  17.450  1.0274  0.2048 -1.0509
 3571SOL    HW222173   3.814   4.406  17.420 -1.1682 -1.1843 -0.3066
 3572SOL     OW22174   0.378   0.499  17.263  0.1240 -0.2724  0.3858
 3572SOL    HW122175   0.436   0.571  17.236  0.5467 -1.4658 -1.8909
 3572SOL    HW222176   0.308   0.548  17.305 -0.6795 -1.1533  0.0499
 3573SOL     OW22177   3.497   0.341   4.554 -0.0279 -0.2770 -0.6631
 3573SOL    HW122178   3.448   0.337   4.636 -0.0527  1.0882 -0.6189
 3573SOL    HW222179   3.483   0.435   4.547 -0.4307 -0.2389  0.6684
 3574SOL     OW22180   1.684   4.136   5.310  0.0008 -0.4253  0.7024
 3574SOL    HW122181   1.664   4.147   5.403  1.3450 -1.3593  1.1104
 3574SOL    HW222182   1.609   4.081   5.289  0.5251 -1.3749  1.2683
 3575SOL     OW22183   3.515   0.999   3.924 -0.2909 -0.3888 -0.1135
 3575SOL    HW122184   3.485   1.085   3.954 -0.4372 -1.9937  4.3523
 3575SOL    HW222185   3.467   0.989   3.842  0.7622 -0.3235 -0.7368
 3576SOL     OW22186   4.105   0.968  13.768  0.5865  0.0747  0.0671
 3576SOL    HW122187   4.101   0.889  13.714  0.4007 -1.4338  2.3010
 3576SOL    HW222188   4.016   1.001  13.776  0.6496 -0.0473  1.1738
 3577SOL     OW22189   3.942   3.897   4.517  0.4349  0.0786 -0.3210
 3577SOL    HW122190   3.864   3.928   4.563  0.5637  0.3718 -0.2993
 3577SOL    HW222191   3.913   3.807   4.503 -1.4806  0.9526 -2.0100
 3578SOL     OW22192   2.126   1.419   1.608 -0.4796  0.0175 -0.0076
 3578SOL    HW122193   2.076   1.342   1.583 -0.6713  0.0585  0.2568
 3578SOL    HW222194   2.157   1.390   1.693 -0.2163 -0.5279 -0.2925
 3579SOL     OW22195   2.317   2.240  15.721 -0.3158  0.1603 -0.6851
 3579SOL    HW122196   2.343   2.154  15.687 -0.0184  0.2539 -0.6915
 3579SOL    HW222197   2.245   2.209  15.776  1.2922 -0.1362  1.2478
 3580SOL     OW22198   4.598   2.626   5.828 -0.6988  0.0691  0.2728
 3580SOL    HW122199   4.507   2.599   5.823 -0.5007 -0.6515  0.4710
 3580SOL    HW222200   4.625   2.605   5.918 -1.3578  1.6990  0.8510
 3581SOL     OW22201   4.500   4.152  17.354 -0.1642 -0.3402 -1.0058
 3581SOL    HW122202   4.452   4.217  17.406  1.2637  2.1583 -2.8394
 3581SOL    HW222203   4.468   4.167  17.265 -0.9175  0.9892 -0.5211
 3582SOL     OW22204   0.897   2.440  10.109 -0.0576 -0.0377 -0.2449
 3582SOL    HW122205   0.969   2.396  10.154  0.9980 -0.5484 -2.4846
 3582SOL    HW222206   0.837   2.442  10.184 -1.0465 -0.0283 -1.0300
 3583SOL     OW22207   2.048   0.581   3.992  0.6037  0.6634  0.0592
 3583SOL    HW122208   1.968   0.573   4.043  0.2030  1.0696 -0.5048
 3583SOL    HW222209   2.039   0.661   3.941 -1.5641  0.0248 -0.5293
 3584SOL     OW22210   3.528   2.813  14.631  0.0237 -0.4025  0.1595
 3584SOL    HW122211   3.588   2.812  14.556  2.4213  0.3005  2.0752
 3584SOL    HW222212   3.580   2.789  14.708  0.5465  1.4683  0.3929
 3585SOL     OW22213   3.618   1.175   5.815  0.1882  0.2521  0.2573
 3585SOL    HW122214   3.704   1.209   5.840  0.2232  1.3008 -1.2633
 3585SOL    HW222215   3.644   1.108   5.751  0.2481 -1.2155  1.8290
 3586SOL     OW22216   3.814   4.422   3.345 -0.7330  0.4292 -0.1055
 3586SOL    HW122217   3.884   4.359   3.326 -1.7130 -0.7278  0.0515
 3586SOL    HW222218   3.737   4.366   3.330  0.1441 -0.6194 -0.7408
 3587SOL     OW22219   1.083   2.899   3.321  0.6491 -1.0802 -0.7196
 3587SOL    HW122220   1.134   2.834   3.273  1.2156 -1.4752  0.4257
 3587SOL    HW222221   1.156   2.925   3.376 -0.1343 -1.1273  0.3430
 3588SOL     OW22222   2.982   3.867  16.749 -0.3931 -0.4471 -0.4772
 3588SOL    HW122223   3.026   3.799  16.699  0.2233  1.8086 -2.9892
 3588SOL    HW222224   2.947   3.816  16.822 -1.2563 -3.0126 -2.6798
 3589SOL     OW22225   1.346   3.815   2.230 -0.6137 -0.0777  0.4480
 3589SOL    HW122226   1.347   3.763   2.311 -0.9871  0.9118  1.0900
 3589SOL    HW222227   1.437   3.842   2.219 -0.7253 -0.1587 -0.6911
 3590SOL     OW22228   4.466   2.592  12.599  0.1659  0.2254 -0.0690
 3590SOL    HW122229   4.464   2.613  12.692  4.9216  2.1096 -0.3953
 3590SOL    HW222230   4.539   2.532  12.592 -1.1115 -1.2485 -0.7844
 3591SOL     OW22231   3.845   0.999   2.868 -0.1084  0.3447 -0.3618
 3591SOL    HW122232   3.790   1.038   2.936  0.5020  0.5306  0.0250
 3591SOL    HW222233   3.930   1.037   2.892  0.1764 -1.7087  1.8627
 3592SOL     OW22234   3.070   2.287   5.468 -0.2199  0.3949 -0.2796
 3592SOL    HW122235   2.978   2.310   5.459 -0.7762 -1.5319  0.3405
 3592SOL    HW222236   3.102   2.370   5.503 -2.1026  1.2077 -0.5027
 3593SOL     OW22237   3.802   1.785   4.972  0.3315 -0.0312  0.5406
 3593SOL    HW122238   3.815   1.750   4.884  0.4169 -4.7596  2.4269
 3593SOL    HW222239   3.890   1.799   5.006  0.2465  0.9233  0.3813
 3594SOL     OW22240   0.540   0.891   5.665  0.2273 -0.2155 -0.2398
 3594SOL    HW122241   0.594   0.962   5.632  2.0333 -0.5855  1.8917
 3594SOL    HW222242   0.458   0.904   5.617  0.6262  2.0915 -0.2659
 3595SOL     OW22243   0.891   0.499   4.648  0.5853 -0.1784  0.5595
 3595SOL    HW122244   0.905   0.584   4.691 -0.7139  0.4771 -0.3018
 3595SOL    HW222245   0.809   0.464   4.682  0.9998 -2.5726 -0.9262
 3596SOL     OW22246   2.778   3.952  15.486 -0.0504  0.5262 -0.6430
 3596SOL    HW122247   2.788   3.895  15.410  1.3384  0.5204 -0.4502
 3596SOL    HW222248   2.720   3.895  15.537  2.6488  0.5944  2.5561
 3597SOL     OW22249   2.080   2.477   6.577  0.5589  0.0008 -0.3362
 3597SOL    HW122250   2.051   2.438   6.495 -0.3103  0.2570 -0.1573
 3597SOL    HW222251   2.174   2.474   6.560  0.5845  0.8419 -0.3257
 3598SOL     OW22252   3.324   2.131  16.154 -0.0525 -0.3175  0.3125
 3598SOL    HW122253   3.284   2.044  16.158 -2.6892  0.8611  0.0117
 3598SOL    HW222254   3.417   2.109  16.152  0.3264  1.4075 -1.1466
 3599SOL     OW22255   3.992   1.065   2.405 -0.0973  0.3817  0.0639
 3599SOL    HW122256   3.970   1.152   2.439 -0.7113  0.3917 -0.3662
 3599SOL    HW222257   4.037   1.094   2.326 -1.0440  0.7609 -0.3419
 3600SOL     OW22258   2.648   3.928   0.942  0.0422  0.2381  0.2312
 3600SOL    HW122259   2.681   3.995   1.002  0.1554 -0.4882  0.9867
 3600SOL    HW222260   2.681   3.849   0.986  0.9292  0.2609 -0.3985
 3601SOL     OW22261   2.961   0.262   5.557 -0.6924  0.2531  0.1522
 3601SOL    HW122262   2.887   0.297   5.607  0.2408  1.8633  0.4101
 3601SOL    HW222263   2.966   0.319   5.480  4.1885 -0.8976 -0.4205
 3602SOL     OW22264   0.781   3.504   1.944  0.3141 -0.4016  0.2110
 3602SOL    HW122265   0.764   3.441   2.015 -0.8119 -0.3418 -0.0028
 3602SOL    HW222266   0.714   3.567   1.969  1.4402  0.3387  1.3640
 3603SOL     OW22267   2.288   0.668  12.909  0.0652 -0.3810 -0.3705
 3603SOL    HW122268   2.314   0.632  12.994  1.5175 -1.5045 -1.3002
 3603SOL    HW222269   2.268   0.761  12.918  1.5302  0.0252 -1.2101
 3604SOL     OW22270   2.249   0.386  13.070 -0.1335  0.9214  0.5604
 3604SOL    HW122271   2.264   0.397  12.976 -0.2623  0.4922  0.4902
 3604SOL    HW222272   2.161   0.422  13.079 -1.1492 -1.4803  0.2160
 3605SOL     OW22273   4.351   2.903   4.417 -0.3984 -0.5479 -0.2149
 3605SOL    HW122274   4.365   2.818   4.374  0.4023  1.3200 -3.6278
 3605SOL    HW222275   4.427   2.896   4.475 -0.1352  0.2200 -0.4711
 3606SOL     OW22276   3.220   1.778  13.593 -0.3789 -0.6408  0.7947
 3606SOL    HW122277   3.311   1.777  13.561 -0.7512 -0.6493 -0.2656
 3606SOL    HW222278   3.183   1.844  13.534  1.2117 -0.0391  0.4566
 3607SOL     OW22279   3.499   3.638   6.036 -0.5747  0.0136  0.2788
 3607SOL    HW122280   3.589   3.618   6.061 -0.6901  0.2416  0.8817
 3607SOL    HW222281   3.461   3.597   6.114  0.9987 -0.5721  0.7440
 3608SOL     OW22282   3.347   4.217  17.631 -0.0871  0.2205 -0.1236
 3608SOL    HW122283   3.384   4.180  17.552  2.3362 -1.3652  1.7435
 3608SOL    HW222284   3.432   4.216  17.675 -0.8867 -2.5996  1.3383
 3609SOL     OW22285   1.852   2.473   8.073 -0.0045  0.2006  0.0088
 3609SOL    HW122286   1.829   2.407   8.139 -0.7318  0.7305  0.2921
 3609SOL    HW222287   1.768   2.508   8.044 -0.3148 -0.0063  0.6376
 3610SOL     OW22288   4.146   0.867   1.337 -0.4432 -0.6514 -0.5648
 3610SOL    HW122289   4.211   0.806   1.302  3.3805  0.8275  3.8423
 3610SOL    HW222290   4.196   0.909   1.408 -1.5619 -0.4644  0.1035
 3611SOL     OW22291   4.564   0.525   8.503  0.2019  0.0393 -0.4435
 3611SOL    HW122292   4.548   0.431   8.513  1.6741 -0.2526 -0.8477
 3611SOL    HW222293   4.655   0.517   8.475  0.1534  1.1378 -0.9049
 3612SOL     OW22294   3.424   2.518   8.788 -0.1637  0.5148  0.5564
 3612SOL    HW122295   3.492   2.561   8.840 -0.7425  0.6290  1.2284
 3612SOL    HW222296   3.470   2.435   8.777  0.5182  1.0005 -0.1879
 3613SOL     OW22297   2.562   3.303   7.318  0.1993  0.0605 -1.1829
 3613SOL    HW122298   2.624   3.300   7.391  1.1941 -1.1477 -2.0709
 3613SOL    HW222299   2.523   3.215   7.320 -2.9313  1.4675 -0.8605
 3614SOL     OW22300   2.801   4.247   2.786  0.2635  0.1352  0.5518
 3614SOL    HW122301   2.878   4.191   2.777  0.9986  1.4192 -0.9593
 3614SOL    HW222302   2.847   4.326   2.814 -1.0582  0.3437  2.1824
 3615SOL     OW22303   1.058   3.643   1.551 -0.0753 -0.0431  0.0397
 3615SOL    HW122304   0.981   3.642   1.495 -0.6623 -0.2646  0.8574
 3615SOL    HW222305   1.023   3.605   1.631  0.7211  0.2036  0.5113
 3616SOL     OW22306   2.238   1.924   3.647 -0.1775 -0.3729  0.1815
 3616SOL    HW122307   2.268   1.999   3.596 -0.1783 -0.7488 -0.3748
 3616SOL    HW222308   2.219   1.863   3.576 -0.3793  1.1806 -1.1127
 3617SOL     OW22309   2.422   0.960  10.644 -1.0289 -1.0118 -0.7699
 3617SOL    HW122310   2.369   0.986  10.569 -0.3075  2.2901 -0.1178
 3617SOL    HW222311   2.468   0.881  10.614 -1.3880 -1.3041 -0.5475
 3618SOL     OW22312   3.661   3.039   0.652  0.3308  0.3863 -0.2194
 3618SOL    HW122313   3.691   3.117   0.699  0.6273  0.3496 -0.3447
 3618SOL    HW222314   3.730   3.020   0.588 -0.3673 -0.8080 -0.6334
 3619SOL     OW22315   1.151   3.846  14.992 -0.1285  0.1795 -0.1850
 3619SOL    HW122316   1.149   3.760  15.035 -0.0615 -0.4431 -1.4212
 3619SOL    HW222317   1.162   3.895  15.073  1.2304 -1.9607  0.9118
 3620SOL     OW22318   0.183   2.463   2.411 -0.6968 -0.4674 -0.6613
 3620SOL    HW122319   0.225   2.497   2.332  0.2131  2.4195  1.0694
 3620SOL    HW222320   0.103   2.429   2.371  0.2955 -1.8435 -1.4884
 3621SOL     OW22321   3.635   0.267   4.953  0.0303  0.2522 -0.2169
 3621SOL    HW122322   3.729   0.263   4.965 -0.1993 -1.6685  0.9520
 3621SOL    HW222323   3.619   0.352   4.993 -2.3094 -1.6675  2.9944
 3622SOL     OW22324   1.569   4.153   1.852  0.2334 -0.5386 -0.0287
 3622SOL    HW122325   1.623   4.186   1.924 -1.2072  1.3598  0.1747
 3622SOL    HW222326   1.587   4.059   1.844  1.1916 -0.1372 -2.7792
 3623SOL     OW22327   3.754   0.766   2.769  0.1629  0.3053  0.2373
 3623SOL    HW122328   3.774   0.859   2.780 -0.4825  0.4806 -0.0944
 3623SOL    HW222329   3.688   0.735   2.832  0.5994  0.0542  0.5735
 3624SOL     OW22330   4.049   4.228   5.073  0.0381  0.2561 -0.4461
 3624SOL    HW122331   4.136   4.260   5.051 -0.3118  0.4038 -1.6057
 3624SOL    HW222332   4.056   4.221   5.169 -2.3372 -0.4884 -0.3173
 3625SOL     OW22333   4.562   2.941  11.784 -0.0773 -0.3873 -0.1454
 3625SOL    HW122334   4.486   2.883  11.774  2.2352 -3.5780  0.8944
 3625SOL    HW222335   4.549   3.008  11.716  0.1297 -0.6741 -0.4686
 3626SOL     OW22336   2.369   1.821  16.928  0.1545  0.3846  0.9128
 3626SOL    HW122337   2.393   1.879  16.856  0.9420  0.4911  1.2536
 3626SOL    HW222338   2.361   1.877  17.005 -1.2789  3.0753 -1.1946
 3627SOL     OW22339   2.079   1.498  13.275 -0.7225  0.1540  0.2320
 3627SOL    HW122340   2.115   1.445  13.203 -0.3136  0.1891  0.4100
 3627SOL    HW222341   2.001   1.448  13.297 -0.9028  0.2251 -0.2368
 3628SOL     OW22342   0.388   1.410   2.388  0.0855 -0.1227 -0.0952
 3628SOL    HW122343   0.314   1.393   2.329 -0.8234 -2.4992  1.7275
 3628SOL    HW222344   0.455   1.424   2.321  0.6010  1.5445  0.7567
 3629SOL     OW22345   0.757   1.514   9.875  0.0212 -0.7696 -0.7448
 3629SOL    HW122346   0.724   1.477   9.957 -2.7903  0.8011 -1.1604
 3629SOL    HW222347   0.734   1.441   9.817  2.4842 -1.5531 -0.7368
 3630SOL     OW22348   2.648   0.168   5.626 -0.2205  0.3672 -0.1469
 3630SOL    HW122349   2.684   0.256   5.637 -2.1276  1.1667 -0.3802
 3630SOL    HW222350   2.707   0.122   5.688 -0.1007 -0.1230 -0.6218
 3631SOL     OW22351   0.281   0.146   5.340  0.1636  0.5962 -0.5087
 3631SOL    HW122352   0.345   0.106   5.399 -0.2066 -0.2870 -0.6952
 3631SOL    HW222353   0.208   0.084   5.344 -0.0256  0.8890  0.4030
 3632SOL     OW22354   0.527   4.647   6.975 -0.3304 -0.1816  0.2486
 3632SOL    HW122355   0.441   4.685   6.955  0.5913  2.4130  1.1434
 3632SOL    HW222356   0.546   4.689   7.059  0.9155 -2.6314  1.1711
 3633SOL     OW22357   4.167   1.506   3.295 -0.2076 -0.0141 -0.6261
 3633SOL    HW122358   4.233   1.549   3.241  0.9375 -0.5469  0.3391
 3633SOL    HW222359   4.180   1.414   3.273 -1.1052  0.3541 -2.6950
 3634SOL     OW22360   4.645   1.619   5.734 -0.6189 -0.1961 -0.5248
 3634SOL    HW122361   0.000   1.598   5.683 -0.4579  3.0697 -1.6212
 3634SOL    HW222362   4.611   1.530   5.740  1.6133 -0.9697  0.6703
 3635SOL     OW22363   0.980   1.592   2.780  0.0885 -0.2761  0.0765
 3635SOL    HW122364   0.938   1.616   2.698  1.5382 -1.3809 -0.9888
 3635SOL    HW222365   1.030   1.674   2.782  1.0456 -0.8715  0.9028
 3636SOL     OW22366   3.048   3.077   1.152  0.1603 -0.2762 -0.4099
 3636SOL    HW122367   3.120   3.134   1.127  0.7228 -1.0465 -0.5450
 3636SOL    HW222368   3.035   3.029   1.069 -1.0447  0.7177 -0.8005
 3637SOL     OW22369   2.157   1.658  15.018 -1.2569  0.3119 -0.4616
 3637SOL    HW122370   2.160   1.602  14.941 -1.6941  1.5639 -1.3802
 3637SOL    HW222371   2.065   1.670  15.040 -1.9115 -2.2653 -1.8143
 3638SOL     OW22372   3.569   0.436  15.701 -0.0673  0.3376 -0.3482
 3638SOL    HW122373   3.550   0.350  15.738  1.1715 -0.8322 -2.4396
 3638SOL    HW222374   3.522   0.425  15.618 -0.7937 -0.6618  0.2023
 3639SOL     OW22375   2.765   1.147   6.710  0.2894  0.1590 -0.1858
 3639SOL    HW122376   2.703   1.216   6.686  0.1531 -0.0383 -0.4027
 3639SOL    HW222377   2.844   1.201   6.712  0.3475 -0.0204  1.7758
 3640SOL     OW22378   4.439   3.171   8.333  0.3431  0.2889 -0.4119
 3640SOL    HW122379   4.350   3.177   8.368 -0.1633  0.4099 -1.7229
 3640SOL    HW222380   4.492   3.204   8.405  0.0290  1.0287 -0.5254
 3641SOL     OW22381   1.873   0.218   8.297  0.1745  0.0549  0.2632
 3641SOL    HW122382   1.840   0.307   8.292  1.7151  0.6107  0.0672
 3641SOL    HW222383   1.842   0.185   8.381  1.5797 -1.8787  0.0265
 3642SOL     OW22384   0.162   4.098   4.804 -0.4292 -0.1601  0.0398
 3642SOL    HW122385   0.102   4.062   4.739  0.6368  1.1924 -1.7156
 3642SOL    HW222386   0.103   4.125   4.874 -0.9555 -2.1971  0.3822
 3643SOL     OW22387   2.364   3.715   1.002 -0.9669  0.0196  0.0762
 3643SOL    HW122388   2.382   3.729   0.909  1.1507  0.0225  0.4918
 3643SOL    HW222389   2.444   3.670   1.029 -1.3223 -1.2087 -0.9230
 3644SOL     OW22390   3.796   3.359  14.881  0.0626  0.6170 -0.6730
 3644SOL    HW122391   3.746   3.410  14.945  1.3561  0.0638  0.7750
 3644SOL    HW222392   3.872   3.416  14.871 -1.6845  3.4454  2.3408
 3645SOL     OW22393   1.968   1.828  14.666  0.1681 -0.5035 -0.0209
 3645SOL    HW122394   1.917   1.906  14.645  0.5043 -0.5154 -0.8823
 3645SOL    HW222395   2.057   1.860  14.654 -0.4863  1.1615 -0.4742
 3646SOL     OW22396   4.549   1.925  14.198 -0.3440  0.0975 -0.2748
 3646SOL    HW122397   4.553   1.892  14.288  1.0711  2.2007  0.4201
 3646SOL    HW222398   4.479   1.989  14.212 -0.1623 -0.0723  1.5056
 3647SOL     OW22399   3.612   2.919   6.359  0.5014  0.3542 -0.5658
 3647SOL    HW122400   3.609   2.997   6.303 -0.3648  0.7910  0.0955
 3647SOL    HW222401   3.566   2.859   6.301 -0.3643 -0.4739  1.0011
 3648SOL     OW22402   4.051   0.562   3.710 -0.1245 -0.5923  0.1889
 3648SOL    HW122403   4.096   0.632   3.663 -1.2418 -2.2580 -3.3438
 3648SOL    HW222404   4.049   0.599   3.798  1.3710 -0.1586  0.0391
 3649SOL     OW22405   3.119   2.516   3.963  0.7920 -0.0307 -0.2403
 3649SOL    HW122406   3.102   2.486   4.052  0.7147 -0.7389 -0.4935
 3649SOL    HW222407   3.213   2.537   3.968  0.4440  1.6661 -0.8087
 3650SOL     OW22408   0.331   1.856   4.387  0.2590 -0.1607  0.0268
 3650SOL    HW122409   0.275   1.880   4.312  1.1447  1.8022 -0.0161
 3650SOL    HW222410   0.335   1.947   4.416 -0.0480 -0.2420  0.3283
 3651SOL     OW22411   1.591   1.841  14.775  0.3417 -0.3163 -0.7245
 3651SOL    HW122412   1.501   1.858  14.748  0.2069 -1.1593 -0.7892
 3651SOL    HW222413   1.635   1.909  14.724 -2.6741  1.7745 -0.5381
 3652SOL     OW22414   3.834   4.202   6.145 -0.5441  0.0376  0.0291
 3652SOL    HW122415   3.888   4.160   6.079  0.4871  1.0016  0.2456
 3652SOL    HW222416   3.898   4.233   6.210 -0.8578  0.5869  0.0786
 3653SOL     OW22417   1.103   0.518  11.842 -0.0229 -0.0756  0.1982
 3653SOL    HW122418   1.188   0.501  11.883 -0.2326 -0.5312  0.4417
 3653SOL    HW222419   1.046   0.509  11.918 -0.9185 -0.3187 -0.5044
 3654SOL     OW22420   0.602   1.398   3.140 -0.1478 -0.0531  0.9802
 3654SOL    HW122421   0.615   1.326   3.078 -0.8139  2.4606 -2.0980
 3654SOL    HW222422   0.515   1.417   3.105  0.5922  1.5843  0.0645
 3655SOL     OW22423   0.301   3.003   4.746 -0.2760  0.1100 -0.3467
 3655SOL    HW122424   0.263   2.998   4.834  2.4029  1.2732  0.8514
 3655SOL    HW222425   0.393   2.998   4.769 -0.0886  2.6369 -0.6036
 3656SOL     OW22426   2.269   1.751   9.447 -0.1004  0.4798 -0.4349
 3656SOL    HW122427   2.231   1.799   9.373 -0.3393  0.7285 -0.1539
 3656SOL    HW222428   2.225   1.803   9.514 -1.4253 -1.5114  0.2572
 3657SOL     OW22429   2.628   2.080   7.033 -0.4224  0.2554 -0.1601
 3657SOL    HW122430   2.655   2.020   7.103  0.1530 -0.2737 -0.8431
 3657SOL    HW222431   2.707   2.134   7.024 -0.9685  0.8227 -1.4988
 3658SOL     OW22432   1.433   3.305   6.653 -0.5319 -0.4229 -0.7481
 3658SOL    HW122433   1.472   3.239   6.595  1.5380  1.9243 -2.0484
 3658SOL    HW222434   1.392   3.369   6.595 -0.9521  0.1644  0.1966
 3659SOL     OW22435   2.446   1.555   8.655  0.6110 -0.0603 -0.1794
 3659SOL    HW122436   2.404   1.600   8.583 -1.6079 -1.6128  0.1544
 3659SOL    HW222437   2.510   1.499   8.610 -0.1551  1.5850 -3.2615
 3660SOL     OW22438   4.513   0.607   6.800 -0.0126 -0.0694 -0.0631
 3660SOL    HW122439   4.503   0.549   6.876 -1.2379  0.0861 -0.1113
 3660SOL    HW222440   4.438   0.587   6.745 -0.4023 -0.6922  0.6952
 3661SOL     OW22441   0.630   0.773  15.959 -0.3428 -0.0405  0.7161
 3661SOL    HW122442   0.566   0.796  16.026 -1.8084 -1.0106 -0.3572
 3661SOL    HW222443   0.709   0.750  16.008  0.8051  1.5303 -0.4245
 3662SOL     OW22444   3.794   0.718   8.474  0.2462 -0.4803 -0.2257
 3662SOL    HW122445   3.813   0.788   8.537 -1.2287  1.6717 -2.1868
 3662SOL    HW222446   3.699   0.714   8.464  0.1856 -1.3993  0.6387
 3663SOL     OW22447   2.118   3.853  10.370  0.8135  0.8323 -0.1664
 3663SOL    HW122448   2.024   3.844  10.385  0.7793  4.1814  1.6420
 3663SOL    HW222449   2.151   3.864  10.459 -0.3256  1.5683  0.1707
 3664SOL     OW22450   0.289   4.656  17.288 -0.3771 -0.5281  0.0909
 3664SOL    HW122451   0.344   4.675  17.212 -1.6198 -1.1397 -0.9532
 3664SOL    HW222452   0.221   4.600  17.251 -1.0812  1.3425 -1.4164
 3665SOL     OW22453   1.973   2.606  16.643 -0.0841 -0.1857 -0.2580
 3665SOL    HW122454   1.963   2.700  16.656  1.2873  0.1661 -1.6891
 3665SOL    HW222455   2.033   2.602  16.569  1.4345 -1.8576  1.0466
 3666SOL     OW22456   3.335   4.276   5.201  0.0315 -0.5219 -0.1903
 3666SOL    HW122457   3.366   4.225   5.126  2.6086  0.4570  0.1949
 3666SOL    HW222458   3.266   4.226   5.245 -0.1599 -0.0530  0.0455
 3667SOL     OW22459   2.943   2.908   2.294  0.7326 -0.4444 -0.1899
 3667SOL    HW122460   2.882   2.842   2.326  1.7964 -1.7365 -0.8195
 3667SOL    HW222461   3.023   2.861   2.271  0.6920 -0.4094 -0.4019
 3668SOL     OW22462   1.363   4.687   6.327 -0.1137 -0.1456  0.0302
 3668SOL    HW122463   1.321   4.600   6.324  0.2514 -0.2583 -1.6556
 3668SOL    HW222464   1.299   0.005   6.386  0.8263  1.2875  0.0388
 3669SOL     OW22465   3.680   0.051   4.236 -0.5172  0.2431 -0.5333
 3669SOL    HW122466   3.745   0.121   4.246  1.6403 -1.5852 -1.5619
 3669SOL    HW222467   3.597   0.097   4.234 -0.3284  0.7085  2.4825
 3670SOL     OW22468   2.793   1.378  15.469 -0.2709  0.8928  0.4609
 3670SOL    HW122469   2.740   1.350  15.543 -0.7414  1.2980  0.2800
 3670SOL    HW222470   2.862   1.433  15.505  1.3186 -0.3662 -0.6648
 3671SOL     OW22471   1.968   4.298   1.646  0.2685 -0.6787  0.1857
 3671SOL    HW122472   1.922   4.218   1.620 -1.6764 -0.3484  2.5999
 3671SOL    HW222473   2.057   4.268   1.662  0.2423 -0.1200  1.3708
 3672SOL     OW22474   3.317   4.404   4.501 -0.4644  0.2030 -0.3612
 3672SOL    HW122475   3.354   4.450   4.426  0.9359  0.2268  0.3341
 3672SOL    HW222476   3.365   4.321   4.499  0.0494  0.4174  2.6140
 3673SOL     OW22477   3.073   3.567   9.241 -0.2426  0.4290  0.0554
 3673SOL    HW122478   3.145   3.630   9.245  0.6878 -0.5444 -1.4067
 3673SOL    HW222479   3.003   3.607   9.190 -1.1875 -3.1425 -1.4462
 3674SOL     OW22480   0.523   0.709  17.144 -0.3230 -0.2590 -0.4472
 3674SOL    HW122481   0.575   0.784  17.114 -1.4155 -1.2001 -4.6346
 3674SOL    HW222482   0.596   0.659  17.180 -0.8902 -1.0872 -0.4358
 3675SOL     OW22483   3.004   2.041   8.203 -0.2178  0.1984  0.0267
 3675SOL    HW122484   2.941   2.067   8.270 -0.2563  1.3173 -0.4434
 3675SOL    HW222485   2.951   1.969   8.170 -1.4415  0.9732  0.3312
 3676SOL     OW22486   1.050   2.626   1.030 -0.2689  0.2817 -0.5911
 3676SOL    HW122487   0.958   2.600   1.021 -0.2474 -0.1366  0.3884
 3676SOL    HW222488   1.058   2.684   0.954 -1.6427 -0.5315 -1.3731
 3677SOL     OW22489   4.698   1.697   3.440 -0.4239 -0.4881  0.2886
 3677SOL    HW122490   0.052   1.755   3.440 -1.2927  0.6592 -0.7071
 3677SOL    HW222491   4.629   1.762   3.454  0.4198  0.4248  0.2487
 3678SOL     OW22492   2.197   0.064   3.304 -0.0670  0.1795 -0.0900
 3678SOL    HW122493   2.116   0.115   3.300 -1.8564 -2.6070  0.1938
 3678SOL    HW222494   2.256   0.124   3.349  0.4198 -0.2067 -0.2169
 3679SOL     OW22495   1.949   2.700   3.456 -0.0836  0.4494 -0.3413
 3679SOL    HW122496   1.949   2.642   3.380 -2.2083  2.3436 -1.7758
 3679SOL    HW222497   1.873   2.753   3.434 -0.9701 -0.0968  1.4110
 3680SOL     OW22498   2.326   3.874   8.607  0.2090 -0.1367 -0.4591
 3680SOL    HW122499   2.393   3.890   8.541  1.3897 -1.6490  0.3604
 3680SOL    HW222500   2.361   3.932   8.675 -0.9936  2.2745 -1.9125
 3681SOL     OW22501   1.729   0.861   6.089  0.1397 -0.4727 -0.5407
 3681SOL    HW122502   1.700   0.832   6.002 -1.7697 -1.6748  0.5179
 3681SOL    HW222503   1.795   0.794   6.107 -1.3592 -1.7237  0.1596
 3682SOL     OW22504   2.819   1.322   9.922  0.5178  0.0673  0.8104
 3682SOL    HW122505   2.912   1.321   9.945  0.1224  0.0078  2.4498
 3682SOL    HW222506   2.784   1.235   9.938  1.9776 -0.9933 -1.8070
 3683SOL     OW22507   1.039   4.714  17.167  0.3202 -0.8242 -0.3670
 3683SOL    HW122508   0.983   4.638  17.181  1.1182 -0.7966  3.0358
 3683SOL    HW222509   1.084   4.681  17.089  2.3071 -0.4582  0.6276
 3684SOL     OW22510   4.060   1.574   7.966  0.1827 -0.8058  0.4799
 3684SOL    HW122511   4.119   1.632   8.014  1.6760 -1.0886 -0.9961
 3684SOL    HW222512   4.111   1.494   7.957  1.7416  0.4022 -1.6583
 3685SOL     OW22513   0.605   1.184  10.658  0.1476  0.4466  0.5599
 3685SOL    HW122514   0.579   1.236  10.734 -1.8613 -1.8914  1.4736
 3685SOL    HW222515   0.523   1.166  10.611  0.9620 -1.8753  0.0392
 3686SOL     OW22516   4.699   0.255   9.384 -0.5987  0.1791 -0.7098
 3686SOL    HW122517   4.659   0.329   9.430  0.1166  1.1552 -1.6488
 3686SOL    HW222518   4.711   0.287   9.294  1.7452  1.5894  0.1166
 3687SOL     OW22519   4.306   1.416  16.194  0.0080 -0.0700 -0.3829
 3687SOL    HW122520   4.391   1.456  16.174 -0.6159  0.8399 -1.2572
 3687SOL    HW222521   4.250   1.492  16.178 -0.1752 -0.7942 -3.2125
 3688SOL     OW22522   1.480   0.059   0.801  0.2045  0.5218  0.6463
 3688SOL    HW122523   1.565   0.018   0.815  0.9258  1.3206 -1.4300
 3688SOL    HW222524   1.420   4.712   0.824 -0.8692  1.1874 -0.1471
 3689SOL     OW22525   0.675   2.867  12.632 -0.1516 -0.0018 -0.5862
 3689SOL    HW122526   0.722   2.828  12.558  1.8941 -3.3361  2.4479
 3689SOL    HW222527   0.733   2.839  12.704  2.3836 -2.4501 -3.6005
 3690SOL     OW22528   2.476   1.954  13.377 -0.7194  0.2233 -0.3830
 3690SOL    HW122529   2.453   2.030  13.324 -1.2338  0.2439 -0.1305
 3690SOL    HW222530   2.389   1.914  13.374 -0.8889  0.4392  1.8598
 3691SOL     OW22531   1.981   3.466   8.638 -0.4035 -0.2475  0.3171
 3691SOL    HW122532   2.008   3.558   8.633  0.7003 -0.6217 -0.4684
 3691SOL    HW222533   1.921   3.456   8.564  0.2845 -0.7645 -0.1592
 3692SOL     OW22534   4.295   2.992  13.847 -0.0085 -0.0389  0.1704
 3692SOL    HW122535   4.290   2.929  13.775 -1.8007 -1.8255  1.8484
 3692SOL    HW222536   4.352   3.062  13.816  0.7726 -0.8609 -0.2617
 3693SOL     OW22537   1.118   0.142  11.955  0.6495 -0.2703  0.4625
 3693SOL    HW122538   1.136   0.051  11.931 -0.6275 -0.2161 -0.6805
 3693SOL    HW222539   1.094   0.133  12.047 -0.1220 -1.2265  0.1635
 3694SOL     OW22540   0.616   4.018   0.693  0.3033  0.1003  0.0455
 3694SOL    HW122541   0.573   4.100   0.673  2.2000  1.2079  0.5151
 3694SOL    HW222542   0.558   3.955   0.650  1.3784 -0.0729 -1.1387
 3695SOL     OW22543   4.146   2.828   4.652  0.1425 -0.3800 -0.2941
 3695SOL    HW122544   4.235   2.843   4.620 -0.5327 -0.7804 -2.3799
 3695SOL    HW222545   4.128   2.755   4.593  0.9072 -0.0432 -0.9449
 3696SOL     OW22546   2.737   1.324  14.752 -0.3213 -0.3321  0.0393
 3696SOL    HW122547   2.734   1.419  14.743 -2.6527 -0.2159  1.8340
 3696SOL    HW222548   2.679   1.309  14.678  0.0108 -0.2325 -0.2380
 3697SOL     OW22549   0.357   3.247   2.802  0.3594  0.0898 -0.2085
 3697SOL    HW122550   0.355   3.211   2.713  1.0531  1.1098 -0.6364
 3697SOL    HW222551   0.333   3.338   2.785  1.7295  0.5813  0.5477
 3698SOL     OW22552   3.694   3.490   7.564  0.5110 -0.0975 -0.6030
 3698SOL    HW122553   3.728   3.580   7.560  1.1979 -0.2140  2.4869
 3698SOL    HW222554   3.751   3.436   7.509  1.5784 -0.8105  1.2001
 3699SOL     OW22555   1.319   3.535   9.300  0.2590  0.3346 -0.2460
 3699SOL    HW122556   1.243   3.558   9.246  0.3721 -0.0468 -0.5651
 3699SOL    HW222557   1.333   3.616   9.350  2.3381  0.1621 -0.5256
 3700SOL     OW22558   0.617   4.674   9.594 -0.0180 -0.1967  0.2517
 3700SOL    HW122559   0.565   4.620   9.535  1.1714  0.7073 -1.6151
 3700SOL    HW222560   0.598   4.646   9.684 -1.3283 -3.4077 -1.0197
 3701SOL     OW22561   0.673   2.925   8.550  0.3670  0.0162  0.3204
 3701SOL    HW122562   0.713   2.892   8.631  1.2249 -1.5986 -0.7624
 3701SOL    HW222563   0.591   2.876   8.547  0.3429  0.1864 -1.9169
 3702SOL     OW22564   2.400   0.538  10.676  0.2647  0.3462 -0.1040
 3702SOL    HW122565   2.336   0.605  10.650 -0.5257 -0.9226 -1.4652
 3702SOL    HW222566   2.405   0.558  10.769  0.9960 -2.0487  0.3721
 3703SOL     OW22567   1.805   2.653   1.061 -0.0405 -0.3033 -0.5422
 3703SOL    HW122568   1.863   2.586   1.098 -0.4980 -0.6481 -0.4525
 3703SOL    HW222569   1.764   2.685   1.142 -1.8230 -2.3811 -0.6236
 3704SOL     OW22570   1.448   4.550   3.765  0.4233  0.0669  0.3060
 3704SOL    HW122571   1.518   4.532   3.828  0.8384 -0.5453 -0.3307
 3704SOL    HW222572   1.481   4.509   3.685 -1.7228  0.3034 -0.7050
 3705SOL     OW22573   0.414   4.009  13.370 -0.2605 -0.2814 -0.5733
 3705SOL    HW122574   0.426   3.917  13.391  2.5287 -0.1968 -1.8692
 3705SOL    HW222575   0.322   4.016  13.343 -0.7073 -2.3497  0.3853
 3706SOL     OW22576   3.567   4.179   6.960 -1.0850  0.2930 -0.0867
 3706SOL    HW122577   3.570   4.265   7.001 -3.0056  0.4900 -0.3424
 3706SOL    HW222578   3.561   4.200   6.867 -2.0154  0.8857  0.1034
 3707SOL     OW22579   2.422   2.503   7.425 -0.4071 -0.4623 -0.2239
 3707SOL    HW122580   2.373   2.562   7.482  0.4151  1.0714 -1.1006
 3707SOL    HW222581   2.387   2.418   7.453  1.0268  0.4921  4.5273
 3708SOL     OW22582   2.516   1.190   9.544 -0.3685  0.1875  0.1144
 3708SOL    HW122583   2.550   1.254   9.606 -0.9048 -0.5231  1.1457
 3708SOL    HW222584   2.490   1.121   9.605 -1.8782 -1.0827 -1.9562
 3709SOL     OW22585   3.956   2.112   7.184 -0.2728 -0.2166 -0.1706
 3709SOL    HW122586   3.896   2.176   7.145 -1.0550  0.0945  1.5284
 3709SOL    HW222587   3.920   2.120   7.272 -0.8763 -2.3906 -0.2205
 3710SOL     OW22588   1.785   4.295   0.923  0.3352  0.0009  0.3152
 3710SOL    HW122589   1.797   4.214   0.873 -0.9502 -0.3163  0.5211
 3710SOL    HW222590   1.750   4.253   1.001  2.3288 -1.2989  0.5104
 3711SOL     OW22591   0.980   1.926   7.412 -0.6882 -0.0564 -0.4918
 3711SOL    HW122592   1.042   1.884   7.472 -0.2037  1.5747  0.1538
 3711SOL    HW222593   1.022   1.930   7.327 -1.9693 -1.2840 -1.1777
 3712SOL     OW22594   0.609   2.551   4.095  0.1229 -0.2722 -0.4581
 3712SOL    HW122595   0.564   2.615   4.041 -2.6416 -2.1475 -0.3974
 3712SOL    HW222596   0.671   2.593   4.156 -1.7331 -0.8639  1.8309
 3713SOL     OW22597   1.151   0.742   2.618  0.0111 -0.8052 -0.3643
 3713SOL    HW122598   1.089   0.759   2.547 -1.5717  1.5370  1.5888
 3713SOL    HW222599   1.132   0.812   2.680  2.0289 -0.2020 -0.4244
 3714SOL     OW22600   1.853   3.083   6.393  0.3205  0.2754  0.0720
 3714SOL    HW122601   1.883   2.995   6.414 -0.8945 -0.1002  0.2078
 3714SOL    HW222602   1.786   3.074   6.325  0.7710 -0.1886 -0.3120
 3715SOL     OW22603   3.679   1.816  15.373  0.1390 -0.0665 -0.0302
 3715SOL    HW122604   3.738   1.828  15.448 -1.5133  1.8782  0.9543
 3715SOL    HW222605   3.611   1.801  15.439 -1.4122 -1.8257 -2.0523
 3716SOL     OW22606   2.841   2.135   5.303  0.1817 -0.3719  0.1816
 3716SOL    HW122607   2.833   2.226   5.333  0.8775  0.0930 -1.0272
 3716SOL    HW222608   2.924   2.126   5.349  1.5917  2.5510 -1.7516
 3717SOL     OW22609   4.680   0.909   3.244  0.1715  0.0609  1.0325
 3717SOL    HW122610   4.698   0.823   3.281  2.1619 -0.4428 -1.1485
 3717SOL    HW222611   4.584   0.907   3.242  0.2803  0.1332 -3.1350
 3718SOL     OW22612   2.885   4.016   7.950 -0.4659  0.0165 -0.0708
 3718SOL    HW122613   2.837   3.982   8.025  2.1347  2.2572  2.6134
 3718SOL    HW222614   2.828   4.086   7.918 -0.2807 -0.3632 -1.2546
 3719SOL     OW22615   3.105   3.904   5.684  0.0177  0.0408  0.3486
 3719SOL    HW122616   3.109   3.848   5.762  0.0842 -0.4094  0.0248
 3719SOL    HW222617   3.168   3.973   5.702 -2.3628  2.3339 -0.2392
 3720SOL     OW22618   2.529   3.769  12.834  0.3912 -0.1792 -0.1629
 3720SOL    HW122619   2.564   3.843  12.785 -0.0533  0.4109  0.4045
 3720SOL    HW222620   2.614   3.741  12.869  0.0283  0.9059  1.6214
 3721SOL     OW22621   1.995   2.264   2.585  0.5175 -0.0260 -0.3376
 3721SOL    HW122622   1.965   2.186   2.631  1.1180 -0.3585 -0.5137
 3721SOL    HW222623   2.083   2.241   2.556  1.2950  2.2710  0.2252
 3722SOL     OW22624   3.906   2.755   4.409  0.4062 -0.0391 -0.4705
 3722SOL    HW122625   3.962   2.825   4.375  1.8531  0.6412  3.3167
 3722SOL    HW222626   3.970   2.690   4.439 -0.5153 -2.5466 -4.0786
 3723SOL     OW22627   3.776   2.271   1.667 -0.1941  0.3954  0.1581
 3723SOL    HW122628   3.766   2.219   1.747  0.1660 -0.8464 -0.5933
 3723SOL    HW222629   3.703   2.332   1.674  0.3680  1.1004 -0.1021
 3724SOL     OW22630   3.834   1.954   5.564 -0.3731  0.2771 -0.6953
 3724SOL    HW122631   3.751   1.907   5.570  0.0502 -0.4595 -0.5515
 3724SOL    HW222632   3.820   2.018   5.634  1.8309  0.0569 -0.0543
 3725SOL     OW22633   1.930   2.791   6.769  0.3018 -0.0658  0.5708
 3725SOL    HW122634   2.011   2.767   6.815  0.5076 -1.2384 -0.4071
 3725SOL    HW222635   1.889   2.832   6.846 -1.1563 -0.7885  0.1861
 3726SOL     OW22636   4.086   0.344   4.428 -0.5720 -0.1055  0.3785
 3726SOL    HW122637   4.072   0.435   4.401  1.3759  0.2730  0.6649
 3726SOL    HW222638   4.085   0.357   4.522  0.6637  2.1593  0.0827
 3727SOL     OW22639   2.963   3.393  13.191 -0.1216 -0.9272 -1.0590
 3727SOL    HW122640   3.031   3.449  13.153  0.1054 -0.0045  0.7557
 3727SOL    HW222641   3.011   3.311  13.177  0.4672 -0.5209 -1.4482
 3728SOL     OW22642   3.788   3.591  10.624  0.2115  0.1654  0.6863
 3728SOL    HW122643   3.884   3.583  10.627  0.1596 -0.2049  1.3237
 3728SOL    HW222644   3.753   3.503  10.611 -0.6088  0.6617 -0.4438
 3729SOL     OW22645   1.926   1.225   7.436 -0.1497 -0.1108  0.4424
 3729SOL    HW122646   2.004   1.170   7.434 -1.2573 -1.7059  0.5585
 3729SOL    HW222647   1.905   1.228   7.343  1.4261 -4.0315 -0.0525
 3730SOL     OW22648   0.571   3.770  10.765  0.6877 -0.1239  0.1363
 3730SOL    HW122649   0.665   3.752  10.774  0.3698 -1.6482  0.3123
 3730SOL    HW222650   0.569   3.859  10.802  1.8555 -0.1938  0.3790
 3731SOL     OW22651   4.326   1.824   9.055  0.4355  0.4403  1.0368
 3731SOL    HW122652   4.417   1.828   9.025  0.6036  2.9639  1.9123
 3731SOL    HW222653   4.273   1.892   9.013 -0.1577 -0.3513  0.4919
 3732SOL     OW22654   3.872   1.728   4.718 -0.0237  1.0317 -0.4004
 3732SOL    HW122655   3.814   1.669   4.670 -0.7523  0.7307  0.8341
 3732SOL    HW222656   3.957   1.733   4.675  0.9985  0.3213  1.5286
 3733SOL     OW22657   1.575   3.928   2.145  0.0101 -0.1119 -0.4278
 3733SOL    HW122658   1.551   3.987   2.217 -0.0959  0.1932 -0.7161
 3733SOL    HW222659   1.668   3.906   2.158  0.0823  0.2997 -0.2216
 3734SOL     OW22660   0.093   2.405   7.078  0.1586 -0.0059  0.3289
 3734SOL    HW122661   0.138   2.421   7.161 -1.5150 -0.8874  1.3814
 3734SOL    HW222662   0.018   2.464   7.084 -0.7458 -1.1245  0.0660
 3735SOL     OW22663   2.963   2.618  15.345  0.2152 -0.2582 -0.3920
 3735SOL    HW122664   2.871   2.629  15.322 -0.0621 -1.2650  0.2571
 3735SOL    HW222665   2.962   2.526  15.318  1.0266 -0.4411  0.2141
 3736SOL     OW22666   2.466   4.391   7.112 -0.0068  0.5508  0.2276
 3736SOL    HW122667   2.531   4.321   7.111  2.1091  2.5479 -0.8879
 3736SOL    HW222668   2.405   4.344   7.055 -0.3894  2.8710 -1.2650
 3737SOL     OW22669   1.817   4.268   1.312  0.1348  0.0241 -0.0333
 3737SOL    HW122670   1.905   4.275   1.274  0.8030 -1.3658  1.3060
 3737SOL    HW222671   1.829   4.317   1.393  0.0606 -1.0787  0.6306
 3738SOL     OW22672   4.401   2.178   0.269  0.0594 -0.2623  0.0067
 3738SOL    HW122673   4.440   2.103   0.224 -1.0924 -0.4806 -0.6065
 3738SOL    HW222674   4.342   2.206   0.199  0.0903  0.2726  0.1894
 3739SOL     OW22675   4.093   4.443  11.540  0.2540  0.1634  0.0863
 3739SOL    HW122676   4.003   4.419  11.518  0.0086 -0.3564  1.6482
 3739SOL    HW222677   4.072   4.530  11.573  0.8893  0.4954 -0.4024
 3740SOL     OW22678   2.251   1.072  15.245 -0.2867 -0.0325  0.3730
 3740SOL    HW122679   2.242   1.157  15.202  1.1273  0.1089  0.3851
 3740SOL    HW222680   2.166   1.031  15.225  1.1453 -2.9955  0.2725
 3741SOL     OW22681   1.879   4.220   4.263  0.6679  0.4632  0.2661
 3741SOL    HW122682   1.831   4.141   4.288 -1.3700  2.0383  1.4445
 3741SOL    HW222683   1.857   4.227   4.170  2.2576  0.9166 -0.0695
 3742SOL     OW22684   3.157   2.711  14.373 -0.3629  0.3344 -0.1752
 3742SOL    HW122685   3.253   2.706  14.380 -0.4919 -1.3335  0.3331
 3742SOL    HW222686   3.142   2.663  14.292 -0.1405 -0.5123  0.2919
 3743SOL     OW22687   2.217   3.588   4.789 -0.5417  0.2556 -0.5873
 3743SOL    HW122688   2.202   3.604   4.883 -0.4343 -1.6575 -0.2478
 3743SOL    HW222689   2.194   3.673   4.750  2.5126  3.0313  3.6494
 3744SOL     OW22690   0.736   1.448   8.533  0.0710 -0.2514 -0.0083
 3744SOL    HW122691   0.783   1.471   8.613 -1.7516  0.8086  0.7523
 3744SOL    HW222692   0.643   1.436   8.554 -0.4720  2.5571 -0.7909
 3745SOL     OW22693   0.308   0.610  15.209 -0.3925 -0.3442 -0.1221
 3745SOL    HW122694   0.279   0.692  15.168 -0.3310 -1.5641 -2.6363
 3745SOL    HW222695   0.390   0.634  15.252  0.2429 -0.6534 -1.1455
 3746SOL     OW22696   3.700   4.191   0.328 -0.6349  0.2918  0.3494
 3746SOL    HW122697   3.730   4.281   0.322 -2.1609  0.7210 -0.5616
 3746SOL    HW222698   3.686   4.179   0.422 -1.2659 -1.2521  0.0681
 3747SOL     OW22699   1.450   2.031  13.982 -0.1109  0.3866  0.0315
 3747SOL    HW122700   1.464   1.937  13.994  0.0804  0.3894 -0.1638
 3747SOL    HW222701   1.376   2.031  13.920 -1.5849  2.1873  1.7883
 3748SOL     OW22702   0.764   2.704   4.299  0.4445 -0.4962 -0.2987
 3748SOL    HW122703   0.737   2.790   4.267 -2.5951 -1.2014  0.3441
 3748SOL    HW222704   0.692   2.693   4.361  0.4125 -0.4348 -0.3242
 3749SOL     OW22705   3.725   2.096   7.423 -0.1880 -0.0912  0.0094
 3749SOL    HW122706   3.715   2.189   7.407 -2.4852 -0.7266 -2.1413
 3749SOL    HW222707   3.654   2.078   7.362  2.3172 -2.0082 -2.3733
 3750SOL     OW22708   3.182   2.793  10.221 -0.0732  0.3822 -0.0793
 3750SOL    HW122709   3.252   2.857  10.206  1.7953 -1.8124 -0.7289
 3750SOL    HW222710   3.111   2.828  10.167 -0.1410  1.6147  0.8305
 3751SOL     OW22711   1.492   1.565  14.062 -0.0103 -0.1590 -0.1784
 3751SOL    HW122712   1.406   1.570  14.104  0.2823 -1.6139  0.5803
 3751SOL    HW222713   1.533   1.497  14.116  1.1714 -1.8472 -3.1955
 3752SOL     OW22714   0.503   0.225   1.265  0.5288  0.3698 -0.3202
 3752SOL    HW122715   0.416   0.264   1.260 -0.0997 -0.9621  0.3916
 3752SOL    HW222716   0.553   0.288   1.212  0.3257 -0.3062 -1.3024
 3753SOL     OW22717   4.282   0.563   3.322 -0.1125  0.6809 -0.3491
 3753SOL    HW122718   4.313   0.472   3.322  2.9065  1.7289 -0.2739
 3753SOL    HW222719   4.302   0.589   3.232 -0.4397  2.1116 -0.0091
 3754SOL     OW22720   1.509   3.372   9.152 -0.2082  0.0983  0.1129
 3754SOL    HW122721   1.496   3.426   9.074  0.2639 -1.2430 -0.8969
 3754SOL    HW222722   1.441   3.416   9.203  0.6696  1.8662 -0.2311
 3755SOL     OW22723   3.311   2.354  10.007 -0.0493  0.3084 -0.4142
 3755SOL    HW122724   3.218   2.346  10.029  0.1609 -0.7043  0.1302
 3755SOL    HW222725   3.332   2.435  10.053 -2.2891  1.3410 -1.2059
 3756SOL     OW22726   0.139   3.653   6.104 -0.6760 -0.5442  0.2047
 3756SOL    HW122727   0.185   3.587   6.157 -1.4082 -0.4875  0.9083
 3756SOL    HW222728   0.143   3.607   6.020  1.2334 -1.4448  0.7723
 3757SOL     OW22729   1.808   2.986   7.500  0.1535 -0.1818  0.1912
 3757SOL    HW122730   1.819   3.078   7.477 -1.9353  0.4187  1.6179
 3757SOL    HW222731   1.756   2.994   7.580  2.9525 -0.5464  2.0392
 3758SOL     OW22732   2.436   1.661   8.898  0.4471  0.1919 -0.9335
 3758SOL    HW122733   2.392   1.736   8.857 -0.1131 -1.0663 -2.6469
 3758SOL    HW222734   2.448   1.613   8.816  1.8233 -2.2833  0.7025
 3759SOL     OW22735   3.029   2.116   7.933 -0.2061 -0.0555  0.3062
 3759SOL    HW122736   2.956   2.065   7.897 -0.9698  0.5658  0.9835
 3759SOL    HW222737   3.032   2.084   8.023  0.8151 -0.2304  0.2157
 3760SOL     OW22738   4.622   3.168   7.584 -0.4927  0.2027 -0.0132
 3760SOL    HW122739   4.609   3.263   7.581  1.4884  0.4093 -2.2964
 3760SOL    HW222740   4.541   3.121   7.605  0.4751 -1.3194  0.3067
 3761SOL     OW22741   2.848   0.474  14.831 -0.0657  0.3829  0.2523
 3761SOL    HW122742   2.784   0.403  14.845 -1.3790  1.0819 -2.2864
 3761SOL    HW222743   2.927   0.432  14.799  1.8222  2.2280  2.5189
 3762SOL     OW22744   4.132   1.695   9.199  0.3396  0.1732  0.1070
 3762SOL    HW122745   4.067   1.764   9.185 -0.7164 -0.3144  2.4143
 3762SOL    HW222746   4.194   1.711   9.128 -0.4292 -0.0032 -0.6045
 3763SOL     OW22747   3.773   3.496   3.100  0.4400  0.3776  0.1552
 3763SOL    HW122748   3.694   3.502   3.046 -0.3499 -3.0425  0.9212
 3763SOL    HW222749   3.795   3.586   3.126  1.2598  0.3303 -0.3847
 3764SOL     OW22750   1.540   0.882   8.075  0.2574 -0.0593 -0.0360
 3764SOL    HW122751   1.500   0.799   8.048 -0.6500  1.2079 -2.5656
 3764SOL    HW222752   1.492   0.898   8.156 -2.6509 -1.5808 -1.4583
 3765SOL     OW22753   0.200   0.590  13.351  0.0066 -0.4460 -0.2428
 3765SOL    HW122754   0.222   0.671  13.304  1.0497 -2.0702 -2.5506
 3765SOL    HW222755   0.275   0.533  13.332 -0.2540 -0.4597 -1.2484
 3766SOL     OW22756   3.839   1.421   0.584  0.5017 -0.2399  0.3721
 3766SOL    HW122757   3.927   1.442   0.615  1.6875 -1.7171 -1.9433
 3766SOL    HW222758   3.799   1.410   0.670  2.2206 -0.7212  1.1176
 3767SOL     OW22759   2.424   4.317   4.777 -0.2855 -0.1256 -0.0907
 3767SOL    HW122760   2.477   4.360   4.844  0.3397 -1.8942  0.5406
 3767SOL    HW222761   2.472   4.347   4.699  1.5748  1.8961  1.8314
 3768SOL     OW22762   2.762   4.590   7.936 -0.4829 -0.4159  0.1398
 3768SOL    HW122763   2.810   4.548   8.008  0.5714  1.6454  0.6344
 3768SOL    HW222764   2.673   4.560   7.955 -0.1627 -1.4118  0.0970
 3769SOL     OW22765   0.001   2.112   4.435  0.2593 -0.0975  0.1983
 3769SOL    HW122766   0.034   2.194   4.398  3.6215 -0.6296  2.0948
 3769SOL    HW222767   0.020   2.042   4.372  0.5321  0.6234 -0.5252
 3770SOL     OW22768   3.347   2.294  11.990  0.2687 -0.3642 -0.4453
 3770SOL    HW122769   3.290   2.301  12.067  1.8458  1.3337  0.5765
 3770SOL    HW222770   3.372   2.386  11.983 -3.1520  0.6175 -0.2144
 3771SOL     OW22771   3.124   0.458   5.662 -0.0283 -0.1844  0.0173
 3771SOL    HW122772   3.069   0.417   5.729 -0.6622 -2.0834 -1.6577
 3771SOL    HW222773   3.127   0.397   5.589  2.5649  0.4015 -0.3847
 3772SOL     OW22774   3.561   3.300   4.909 -0.1811 -0.2258 -0.0190
 3772SOL    HW122775   3.523   3.364   4.848  1.2468  0.0235 -0.6511
 3772SOL    HW222776   3.490   3.302   4.974  0.6546 -0.4916  0.8877
 3773SOL     OW22777   0.433   0.840   9.198  1.0293 -0.4243  0.1390
 3773SOL    HW122778   0.518   0.871   9.167  0.3798  2.0528  0.7602
 3773SOL    HW222779   0.406   0.914   9.253 -0.3730 -2.2114  1.8631
 3774SOL     OW22780   4.008   3.575  16.526 -0.4143  0.5850  0.4652
 3774SOL    HW122781   4.002   3.633  16.450  1.4626  2.0099  1.3981
 3774SOL    HW222782   3.934   3.516  16.510  0.3807 -0.1745 -0.3368
 3775SOL     OW22783   1.998   2.540  14.715  0.0530  0.7267 -0.0929
 3775SOL    HW122784   2.006   2.631  14.744  1.8477 -0.4137  3.0317
 3775SOL    HW222785   2.049   2.495  14.783 -1.2268 -0.8149 -0.1412
 3776SOL     OW22786   2.177   1.788  15.527  0.3835 -0.4966  0.4217
 3776SOL    HW122787   2.100   1.844  15.519  1.0762  0.4265  0.1468
 3776SOL    HW222788   2.231   1.814  15.452 -0.6035 -0.9088 -0.4287
 3777SOL     OW22789   0.037   2.801  10.273 -0.2971  0.4032 -0.3588
 3777SOL    HW122790   0.083   2.815  10.356  0.0629 -2.8434 -0.0364
 3777SOL    HW222791   0.047   2.706  10.269  0.7194  0.4998 -0.0847
 3778SOL     OW22792   4.720   2.912   5.789 -0.1001 -0.1625 -0.9553
 3778SOL    HW122793   4.673   2.829   5.774 -0.5710 -0.2928  1.3006
 3778SOL    HW222794   0.078   2.883   5.830 -0.4755  0.2899  0.1109
 3779SOL     OW22795   0.759   4.416   4.850  0.1311  0.2497  0.0252
 3779SOL    HW122796   0.801   4.402   4.765 -0.3124 -1.8687  0.1519
 3779SOL    HW222797   0.697   4.344   4.834  0.2173  0.0083  0.7863
 3780SOL     OW22798   0.109   4.403   8.219 -0.1895  0.1754 -0.1391
 3780SOL    HW122799   0.064   4.486   8.233 -2.3171 -0.9410 -0.3796
 3780SOL    HW222800   0.071   4.359   8.295  2.1611  1.7416  1.9413
 3781SOL     OW22801   1.343   0.456   7.895  1.0869 -0.6191 -0.1873
 3781SOL    HW122802   1.394   0.442   7.816  1.4000 -0.0585 -0.0839
 3781SOL    HW222803   1.411   0.476   7.959 -0.2232 -0.6936  1.2430
 3782SOL     OW22804   2.659   0.287   8.148 -0.3029  0.8982  0.1976
 3782SOL    HW122805   2.649   0.227   8.074 -1.4438 -0.8965  1.8101
 3782SOL    HW222806   2.740   0.331   8.124 -1.4451  2.9094  0.0988
 3783SOL     OW22807   2.115   0.265   5.305 -0.1698  0.4837 -0.5343
 3783SOL    HW122808   2.058   0.198   5.343  0.4843  0.3129  0.1387
 3783SOL    HW222809   2.155   0.296   5.387 -0.5689 -0.6082  0.0847
 3784SOL     OW22810   3.893   3.837   8.484 -0.3332  0.3057  0.7417
 3784SOL    HW122811   3.805   3.874   8.492 -0.2796  1.1125 -2.3932
 3784SOL    HW222812   3.937   3.866   8.564  1.1911  2.1610 -0.7671
 3785SOL     OW22813   0.245   3.600   8.535  0.7703  0.4984 -0.2359
 3785SOL    HW122814   0.268   3.517   8.577 -0.1131  0.1001 -0.5430
 3785SOL    HW222815   0.274   3.594   8.444 -0.9706 -2.2422 -0.5787
 3786SOL     OW22816   2.483   2.486  11.991  0.4350  0.5384 -0.3416
 3786SOL    HW122817   2.450   2.543  12.061 -2.8656 -0.4821 -1.0475
 3786SOL    HW222818   2.414   2.419  11.993  0.5733  0.3824 -1.0060
 3787SOL     OW22819   2.312   3.359   2.341  0.6659  0.9448 -0.4305
 3787SOL    HW122820   2.285   3.336   2.252  1.1162  1.7809 -0.7909
 3787SOL    HW222821   2.230   3.397   2.373  1.0451  1.8193 -0.4995
 3788SOL     OW22822   4.178   2.287  13.726 -0.8986  0.2945 -0.4929
 3788SOL    HW122823   4.089   2.309  13.698 -1.0711 -0.2955 -0.3931
 3788SOL    HW222824   4.222   2.346  13.664  0.1934 -0.6463 -0.6055
 3789SOL     OW22825   3.760   4.546  12.821 -0.2606  0.5273 -0.4304
 3789SOL    HW122826   3.664   4.541  12.821 -0.1570 -1.2217 -0.9048
 3789SOL    HW222827   3.787   4.463  12.860 -0.2637  1.5035  1.6713
 3790SOL     OW22828   4.320   1.937   7.464  0.1739  0.0505  0.2903
 3790SOL    HW122829   4.326   1.880   7.540 -1.2133 -0.1383  0.2633
 3790SOL    HW222830   4.401   1.988   7.469  0.5810 -0.5735 -0.0196
 3791SOL     OW22831   1.164   3.990   7.555 -0.3071  0.1760  0.3432
 3791SOL    HW122832   1.219   4.011   7.631 -1.2417  1.1039  0.7609
 3791SOL    HW222833   1.187   3.898   7.543 -2.7982 -0.5679  1.3496
 3792SOL     OW22834   0.878   1.577   2.527 -0.1994 -0.3044 -0.0965
 3792SOL    HW122835   0.956   1.544   2.482  1.3472  2.1602  0.7455
 3792SOL    HW222836   0.847   1.640   2.462 -1.3759 -0.4805  0.3015
 3793SOL     OW22837   3.400   1.189   3.115 -0.1835  0.0660  0.1226
 3793SOL    HW122838   3.312   1.189   3.152  0.5240  1.8442  1.8316
 3793SOL    HW222839   3.413   1.105   3.071 -1.7510 -0.6573  1.0618
 3794SOL     OW22840   1.451   2.116   3.449 -0.6383 -0.3485 -0.0077
 3794SOL    HW122841   1.514   2.177   3.411  0.3564 -0.8923  0.7959
 3794SOL    HW222842   1.512   2.043   3.453  0.6952  0.8422  1.0252
 3795SOL     OW22843   1.024   4.354  15.228  0.5105 -0.1403 -0.2276
 3795SOL    HW122844   1.113   4.325  15.206  0.2891 -1.3436  0.4469
 3795SOL    HW222845   1.023   4.355  15.324  0.1394 -2.7753 -0.2107
 3796SOL     OW22846   1.143   1.722   6.545  0.2047  0.2099  0.8528
 3796SOL    HW122847   1.170   1.633   6.569  1.0025 -0.0284 -0.8634
 3796SOL    HW222848   1.146   1.716   6.449 -0.6592  1.3559  0.7522
 3797SOL     OW22849   4.049   3.381   5.503 -0.3660 -0.1211  0.5170
 3797SOL    HW122850   4.031   3.472   5.523  1.0839  0.1331  0.6951
 3797SOL    HW222851   3.997   3.342   5.573 -2.2107  1.1720 -0.1455
 3798SOL     OW22852   1.625   3.054   7.719  0.7918 -0.1912  0.4027
 3798SOL    HW122853   1.602   3.020   7.806  0.6301  1.1652  0.9025
 3798SOL    HW222854   1.557   3.013   7.667  0.0931 -1.0998  2.0140
 3799SOL     OW22855   3.291   1.500   3.837  0.0451 -0.1522  0.1512
 3799SOL    HW122856   3.378   1.537   3.827  0.3789 -0.9329  0.1634
 3799SOL    HW222857   3.247   1.522   3.755 -0.8944  1.5374  1.1001
 3800SOL     OW22858   0.781   3.125  12.567 -0.3962  0.3768  0.2531
 3800SOL    HW122859   0.753   3.175  12.491  3.0992 -1.0741 -1.9773
 3800SOL    HW222860   0.744   3.039  12.547  0.3136  0.2530 -0.5150
 3801SOL     OW22861   3.156   3.202   6.895 -0.0219 -0.0302  0.3678
 3801SOL    HW122862   3.158   3.156   6.811 -2.4187  1.2942 -0.4178
 3801SOL    HW222863   3.092   3.270   6.872  1.3955  0.7556 -1.2731
 3802SOL     OW22864   0.341   1.307  11.164  0.4444  0.1393 -0.1551
 3802SOL    HW122865   0.287   1.240  11.123 -0.6053 -0.9009  2.9248
 3802SOL    HW222866   0.313   1.329  11.253 -0.0700 -0.5176 -0.1588
 3803SOL     OW22867   4.637   2.619  13.224  0.3065 -0.4523 -0.5938
 3803SOL    HW122868   0.005   2.599  13.203 -0.1277 -1.9068 -1.0633
 3803SOL    HW222869   4.596   2.536  13.250 -1.4131  0.5729 -0.0139
 3804SOL     OW22870   1.897   3.422  16.027  0.2975 -0.0822 -0.4922
 3804SOL    HW122871   1.827   3.361  16.054  0.3457 -0.3717 -1.0123
 3804SOL    HW222872   1.855   3.508  16.030 -0.1781 -0.3150 -0.4343
 3805SOL     OW22873   1.723   1.754   8.858  0.0561  0.4680 -0.4431
 3805SOL    HW122874   1.732   1.677   8.803 -2.2435  0.4740 -0.8296
 3805SOL    HW222875   1.752   1.715   8.940 -1.2338 -3.1694 -1.7415
 3806SOL     OW22876   1.223   4.565  10.385 -0.3448 -0.0686 -0.4351
 3806SOL    HW122877   1.225   4.561  10.290  0.4715  0.8330 -0.4627
 3806SOL    HW222878   1.300   4.612  10.418 -1.2271 -0.6318  2.4119
 3807SOL     OW22879   3.323   3.323  14.879 -0.3921  0.0227  0.2983
 3807SOL    HW122880   3.343   3.415  14.896 -1.9515  0.5986 -1.0139
 3807SOL    HW222881   3.259   3.310  14.948 -1.6177  4.0448 -0.0936
 3808SOL     OW22882   2.101   4.135   2.844 -0.5306  0.1078  0.0009
 3808SOL    HW122883   2.066   4.084   2.771  2.5987  0.0744 -1.4588
 3808SOL    HW222884   2.194   4.142   2.823 -0.6752  0.4209 -0.5139
 3809SOL     OW22885   1.989   2.163   7.069 -0.4575 -0.2403  0.0210
 3809SOL    HW122886   1.945   2.151   7.153 -0.0231  0.5279  0.3607
 3809SOL    HW222887   1.966   2.252   7.044 -0.9172 -0.0221  1.2125
 3810SOL     OW22888   2.715   0.423   5.619  0.2815 -0.0030  0.5113
 3810SOL    HW122889   2.629   0.432   5.658  0.3352  0.0287  0.6210
 3810SOL    HW222890   2.737   0.515   5.602  0.7753  0.0084  1.2166
 3811SOL     OW22891   3.107   0.824   4.794  0.0981 -0.0431  0.0891
 3811SOL    HW122892   3.151   0.909   4.801  0.6907 -0.2250 -1.3796
 3811SOL    HW222893   3.157   0.762   4.846 -1.8569 -0.8031  1.0756
 3812SOL     OW22894   1.873   0.106  16.141  0.0645 -0.5072  0.1600
 3812SOL    HW122895   1.797   0.111  16.198 -1.0029  0.0193 -1.3096
 3812SOL    HW222896   1.867   0.021  16.097  0.4216 -0.3324 -0.2305
 3813SOL     OW22897   1.897   4.473   3.065  0.1075  0.3595  0.1709
 3813SOL    HW122898   1.819   4.525   3.043  0.6812  1.3090  0.3603
 3813SOL    HW222899   1.933   4.442   2.983  1.8461  2.5409  0.1065
 3814SOL     OW22900   2.675   4.028   3.956  0.4350  0.0486  0.0493
 3814SOL    HW122901   2.722   4.111   3.968 -0.9580  0.9282 -0.6175
 3814SOL    HW222902   2.724   3.980   4.022  2.0618  0.6541 -0.7182
 3815SOL     OW22903   0.954   4.455   9.386  0.6223 -0.1849  0.6090
 3815SOL    HW122904   0.875   4.471   9.335  2.3934  0.4287 -1.9852
 3815SOL    HW222905   0.999   4.432   9.305  1.0614 -1.6077  1.2597
 3816SOL     OW22906   0.036   1.527  14.886  0.2579  0.3762  0.7534
 3816SOL    HW122907   4.709   1.531  14.805  0.1348  2.1455  0.9119
 3816SOL    HW222908   4.698   1.567  14.948 -1.2881 -0.3871 -0.2815
 3817SOL     OW22909   0.623   0.698   2.295 -0.5781  0.3761 -0.1329
 3817SOL    HW122910   0.703   0.676   2.246 -0.6722  0.1044 -0.1655
 3817SOL    HW222911   0.572   0.627   2.256  2.3576 -0.2795 -2.8713
 3818SOL     OW22912   0.070   2.367  15.191  0.2702 -0.2753  0.3329
 3818SOL    HW122913   0.118   2.351  15.110  1.0692  1.9385  0.3667
 3818SOL    HW222914   0.025   2.284  15.209 -3.3103  1.8129  1.0674
 3819SOL     OW22915   0.154   3.936   6.920 -0.5689  0.0363  0.2100
 3819SOL    HW122916   0.128   3.861   6.974  1.3344  0.2878  1.4687
 3819SOL    HW222917   0.086   4.003   6.915 -1.1069 -0.5939 -0.8714
 3820SOL     OW22918   4.523   3.272  16.019 -0.4938  0.1674 -0.8292
 3820SOL    HW122919   4.507   3.347  16.077  0.0149  0.3347 -0.9114
 3820SOL    HW222920   4.602   3.240  16.062 -0.5444  1.1784  0.0130
 3821SOL     OW22921   3.806   2.471  13.084  0.1608 -0.0676 -0.4590
 3821SOL    HW122922   3.748   2.523  13.140  0.7001 -0.5591  0.5443
 3821SOL    HW222923   3.742   2.408  13.051  0.7486 -0.7146 -0.3508
 3822SOL     OW22924   3.241   1.954   3.494  0.1177  0.1276 -0.2603
 3822SOL    HW122925   3.236   1.908   3.410 -0.8941  0.2950 -0.2960
 3822SOL    HW222926   3.282   2.035   3.465 -3.5341  1.8287 -0.6766
 3823SOL     OW22927   2.299   3.668  14.713 -0.3232  0.1337 -0.4969
 3823SOL    HW122928   2.386   3.656  14.750  0.8424  0.1820 -3.2310
 3823SOL    HW222929   2.301   3.762  14.693  0.8844 -0.2219 -2.0479
 3824SOL     OW22930   2.887   2.891   3.552 -0.3301 -0.4909  0.3839
 3824SOL    HW122931   2.964   2.924   3.506 -1.3204  0.4758 -0.5756
 3824SOL    HW222932   2.867   2.976   3.591 -1.3057 -0.7753  0.5063
 3825SOL     OW22933   2.117   2.576   7.212 -0.9275  0.0305  0.1768
 3825SOL    HW122934   2.114   2.513   7.140  1.0054  1.2839 -0.9866
 3825SOL    HW222935   2.187   2.636   7.187 -3.3435  2.4483 -0.7149
 3826SOL     OW22936   0.381   1.134   8.293 -0.3462  0.6195 -0.6557
 3826SOL    HW122937   0.409   1.177   8.374 -0.2758 -0.2656 -0.2000
 3826SOL    HW222938   0.294   1.173   8.293 -0.4160  0.4713  0.1354
 3827SOL     OW22939   3.802   2.088   0.933 -0.7774  0.0345 -0.0198
 3827SOL    HW122940   3.879   2.081   0.876 -0.4865 -0.0712  0.3815
 3827SOL    HW222941   3.737   2.079   0.863 -0.6983  0.8332 -0.1972
 3828SOL     OW22942   3.394   1.218   9.551  0.5867 -0.0995  0.4517
 3828SOL    HW122943   3.412   1.166   9.472  0.5362  0.2638  0.2026
 3828SOL    HW222944   3.453   1.189   9.621  0.1399 -0.0363  0.8570
 3829SOL     OW22945   4.547   1.334   8.920 -0.4210  0.6391  0.3320
 3829SOL    HW122946   4.505   1.255   8.955  0.1079 -0.7633 -2.1764
 3829SOL    HW222947   4.621   1.337   8.980  0.1911 -2.3209 -0.2718
 3830SOL     OW22948   2.014   2.172   8.364 -0.0782  0.2379  0.1097
 3830SOL    HW122949   2.017   2.097   8.424 -3.7434  1.3039  1.6073
 3830SOL    HW222950   1.924   2.176   8.332  0.3405 -0.8593 -1.2008
 3831SOL     OW22951   4.678   2.290   3.763 -0.0384 -0.1808 -0.6905
 3831SOL    HW122952   0.003   2.211   3.737  0.2298 -0.6374  1.1683
 3831SOL    HW222953   4.720   2.326   3.841 -0.8167  0.4607 -0.5656
 3832SOL     OW22954   3.411   2.559   9.211 -0.6444  0.0868  0.1263
 3832SOL    HW122955   3.367   2.630   9.164  0.6080  2.0545  1.9017
 3832SOL    HW222956   3.501   2.586   9.191 -0.4102 -2.2889 -1.9092
 3833SOL     OW22957   3.515   1.582  13.609  0.2174  0.4351  0.4284
 3833SOL    HW122958   3.554   1.664  13.579 -0.2286 -0.3272 -2.2067
 3833SOL    HW222959   3.445   1.569  13.545  0.7114 -2.1754  0.4195
 3834SOL     OW22960   3.741   0.572   4.476  0.5855 -0.5284 -0.4838
 3834SOL    HW122961   3.732   0.535   4.389 -2.7835  0.6342 -0.6059
 3834SOL    HW222962   3.656   0.552   4.516  0.9687 -0.4344  0.3833
 3835SOL     OW22963   1.003   1.651   5.430 -0.8031  0.4238 -0.3331
 3835SOL    HW122964   1.049   1.573   5.460  1.6865  2.4395  1.0944
 3835SOL    HW222965   1.082   1.689   5.391 -0.3415 -1.6749 -1.4537
 3836SOL     OW22966   0.528   0.107   2.492 -0.0417  0.2259 -0.1097
 3836SOL    HW122967   0.502   0.017   2.509 -0.2936  0.5624  1.3380
 3836SOL    HW222968   0.568   0.103   2.405  2.5880 -1.3041  1.1657
 3837SOL     OW22969   4.494   0.391   7.748  1.1576  0.4720 -0.0598
 3837SOL    HW122970   4.485   0.315   7.805 -1.0642  0.9232  0.1985
 3837SOL    HW222971   4.433   0.369   7.678  2.1292 -2.5709  0.0269
 3838SOL     OW22972   0.970   2.280  12.449 -0.1351  0.5153 -0.0637
 3838SOL    HW122973   0.918   2.339  12.505 -0.5143 -1.4057  1.6266
 3838SOL    HW222974   0.977   2.202  12.504 -1.9430 -1.1810 -2.2560
 3839SOL     OW22975   3.553   1.805   2.918 -0.5770 -0.0205 -1.3402
 3839SOL    HW122976   3.626   1.866   2.933 -2.1213  1.6877 -0.7917
 3839SOL    HW222977   3.534   1.822   2.826  0.3777 -2.5290 -2.0038
 3840SOL     OW22978   4.015   3.062   0.378 -0.2723 -0.6296  0.0644
 3840SOL    HW122979   3.997   2.969   0.392  1.3872 -1.0298 -0.4033
 3840SOL    HW222980   4.103   3.076   0.412  0.9579 -0.6486 -3.0724
 3841SOL     OW22981   1.990   1.988  15.464 -0.2868 -0.3073 -0.4641
 3841SOL    HW122982   2.033   2.069  15.437  0.0794 -1.4629 -3.3527
 3841SOL    HW222983   1.921   2.027  15.518  0.0535 -1.1739  0.6058
 3842SOL     OW22984   2.617   2.879  16.134 -0.3977  0.3088  0.2845
 3842SOL    HW122985   2.656   2.793  16.119 -0.4256 -0.0528  2.3258
 3842SOL    HW222986   2.535   2.874  16.084 -0.9984  0.2657  1.2734
 3843SOL     OW22987   0.582   2.269   6.518 -0.2761 -0.0551  0.0237
 3843SOL    HW122988   0.628   2.352   6.528  0.6890 -0.5020 -0.7275
 3843SOL    HW222989   0.535   2.264   6.601 -3.0766 -0.9506 -1.6087
 3844SOL     OW22990   0.841   2.552  11.334 -0.3013 -0.0193  0.0827
 3844SOL    HW122991   0.889   2.473  11.310  1.4176  0.9163  0.4866
 3844SOL    HW222992   0.834   2.592  11.247  0.2586 -0.0979  0.0031
 3845SOL     OW22993   2.591   0.292   6.245 -0.0215  0.1164 -0.0912
 3845SOL    HW122994   2.599   0.323   6.155  0.8469 -0.0541 -0.0761
 3845SOL    HW222995   2.542   0.211   6.231 -1.1429  0.6806  0.5886
 3846SOL     OW22996   4.443   0.996   2.681 -0.3399 -0.3967  0.2425
 3846SOL    HW122997   4.489   1.070   2.721 -1.5216 -0.1678  1.1917
 3846SOL    HW222998   4.505   0.988   2.608  0.7930 -0.1448  1.1862
 3847SOL     OW22999   3.294   2.455   2.327 -0.0500 -0.3177  0.4588
 3847SOL    HW123000   3.303   2.541   2.369 -0.9470  1.7194 -3.6023
 3847SOL    HW223001   3.205   2.460   2.294 -0.0815  0.5510  0.6627
 3848SOL     OW23002   0.417   1.366   2.819  0.1482 -0.1406 -0.7166
 3848SOL    HW123003   0.469   1.290   2.795  1.6736  0.2669  1.3372
 3848SOL    HW223004   0.386   1.403   2.737 -0.1387  1.3896  0.0825
 3849SOL     OW23005   3.496   3.818  16.359 -0.1108 -0.2312  0.0016
 3849SOL    HW123006   3.571   3.827  16.301  1.0517 -1.3371  1.3340
 3849SOL    HW223007   3.544   3.854  16.434 -0.7566 -2.8275  1.6693
 3850SOL     OW23008   3.285   2.954   4.600  0.7776 -0.1121  0.4547
 3850SOL    HW123009   3.283   2.891   4.671  1.1475 -1.8482 -1.0735
 3850SOL    HW223010   3.319   3.032   4.643 -1.7424  0.5321  1.2960
 3851SOL     OW23011   0.953   3.130   7.632 -0.2088  0.6158  0.4013
 3851SOL    HW123012   0.993   3.063   7.687  0.8123  2.4336  1.8550
 3851SOL    HW223013   0.865   3.142   7.668  0.3218  2.6782  1.0023
 3852SOL     OW23014   3.429   2.942   3.280 -0.3020 -0.2026 -0.3545
 3852SOL    HW123015   3.389   2.876   3.337  0.0736  2.0465  2.4996
 3852SOL    HW223016   3.353   2.976   3.232 -0.0940  0.4102 -0.2347
 3853SOL     OW23017   0.172   3.893   8.955  0.1468 -0.5645 -0.4320
 3853SOL    HW123018   0.175   3.859   8.866  1.2298  1.0157 -0.9994
 3853SOL    HW223019   0.104   3.837   8.993 -2.7354  2.8230 -0.5769
 3854SOL     OW23020   2.791   1.238   9.174 -0.2782 -0.1100 -0.0421
 3854SOL    HW123021   2.795   1.224   9.269  1.3963 -2.0238 -0.4045
 3854SOL    HW223022   2.762   1.329   9.169 -0.8883 -0.2457  1.0912
 3855SOL     OW23023   2.854   1.513  12.280 -0.4414 -0.2113  0.0834
 3855SOL    HW123024   2.945   1.524  12.306 -1.3261  3.1299  1.7503
 3855SOL    HW223025   2.835   1.423  12.308 -0.6805 -0.1559  0.1076
 3856SOL     OW23026   4.422   3.572   5.873 -0.0563  0.4476 -0.4714
 3856SOL    HW123027   4.494   3.596   5.815  1.3606 -0.1353  1.0183
 3856SOL    HW223028   4.456   3.604   5.957 -1.2726  0.4671  0.0137
 3857SOL     OW23029   0.784   2.573   7.428 -0.3628 -0.0796 -0.3299
 3857SOL    HW123030   0.838   2.652   7.428  0.2418 -0.4984  1.8514
 3857SOL    HW223031   0.817   2.505   7.370 -0.4917 -0.8914  0.5435
 3858SOL     OW23032   0.427   3.388   6.674  0.3809 -0.1820  0.4702
 3858SOL    HW123033   0.510   3.340   6.667  0.8366  0.5761  0.6702
 3858SOL    HW223034   0.404   3.370   6.765  1.3357  1.4410  1.0324
 3859SOL     OW23035   4.556   0.463   2.947 -0.5313  0.1154 -0.2601
 3859SOL    HW123036   4.645   0.477   2.982 -0.8456  1.0389  0.1740
 3859SOL    HW223037   4.572   0.449   2.853 -0.9032  0.6222 -0.3988
 3860SOL     OW23038   3.742   0.949   3.735  1.0922  0.3901 -0.0912
 3860SOL    HW123039   3.772   0.910   3.653  0.3091  1.0416 -0.6873
 3860SOL    HW223040   3.759   0.889   3.807 -1.1273  1.2112  1.1405
 3861SOL     OW23041   1.534   0.102   3.426  0.0224  0.3685 -0.0033
 3861SOL    HW123042   1.628   0.083   3.429 -0.3635 -1.2843  1.7983
 3861SOL    HW223043   1.534   0.196   3.412 -0.9271  0.1195 -1.7007
 3862SOL     OW23044   1.529   2.173  12.562 -0.0530  0.1638  0.7587
 3862SOL    HW123045   1.537   2.260  12.523  0.0739  0.4383  1.3950
 3862SOL    HW223046   1.483   2.124  12.493  0.0435  0.1469  0.7056
 3863SOL     OW23047   2.716   0.377  10.198  0.6457 -0.4958 -0.1195
 3863SOL    HW123048   2.635   0.380  10.148  0.2267  1.7210  0.6837
 3863SOL    HW223049   2.766   0.305  10.158  0.6955 -0.4903 -0.0681
 3864SOL     OW23050   2.335   0.184   3.614 -0.0048  0.0042 -0.9151
 3864SOL    HW123051   2.300   0.100   3.644 -0.0148 -0.3236 -1.8464
 3864SOL    HW223052   2.349   0.224   3.700  0.7981  1.1655 -1.5850
 3865SOL     OW23053   2.057   2.390   6.913  0.4488 -0.1481  0.2610
 3865SOL    HW123054   2.092   2.322   6.856  2.7240  2.2871 -1.2152
 3865SOL    HW223055   2.073   2.471   6.866 -1.0770 -0.0178 -0.0236
 3866SOL     OW23056   0.204   4.303   1.105 -0.0988 -0.0325 -0.0411
 3866SOL    HW123057   0.283   4.275   1.151 -0.3988  0.6416  0.8841
 3866SOL    HW223058   0.184   4.360   1.180  2.6011  0.0324  0.6152
 3867SOL     OW23059   4.006   4.602  13.889  0.2426  0.2386  0.2341
 3867SOL    HW123060   4.055   4.564  13.961  0.9444  1.5309  0.4459
 3867SOL    HW223061   3.926   4.551  13.879  0.0360  0.1272  2.6130
 3868SOL     OW23062   2.605   1.677   3.505 -0.0157  0.2081  0.2083
 3868SOL    HW123063   2.626   1.607   3.443 -1.3214 -0.1283  0.1394
 3868SOL    HW223064   2.596   1.749   3.443  0.1396  0.4769  0.4989
 3869SOL     OW23065   3.709   0.212   5.830  0.4556 -0.4419  0.0725
 3869SOL    HW123066   3.689   0.153   5.757 -1.5261  0.2126  0.0804
 3869SOL    HW223067   3.765   0.273   5.784  0.2423 -1.6178 -1.7422
 3870SOL     OW23068   3.651   0.785   5.907  0.2429  0.5396 -0.0016
 3870SOL    HW123069   3.681   0.716   5.966  1.2219 -0.5539 -1.7709
 3870SOL    HW223070   3.609   0.841   5.972 -1.0383  0.6921 -0.9617
 3871SOL     OW23071   1.302   1.817  10.288 -0.3229  0.1379  0.0817
 3871SOL    HW123072   1.281   1.832  10.380  0.3532  0.3738  0.1947
 3871SOL    HW223073   1.340   1.901  10.262 -1.0800  0.3341 -0.4006
 3872SOL     OW23074   3.808   2.468  13.451  1.2916  0.3115 -0.5715
 3872SOL    HW123075   3.866   2.539  13.423  0.4398  1.8248  1.5544
 3872SOL    HW223076   3.796   2.429  13.364  1.8865  2.8154 -1.8072
 3873SOL     OW23077   3.464   3.479   4.717 -0.2661  0.9280 -0.2786
 3873SOL    HW123078   3.378   3.516   4.696 -1.6009  0.4983  4.4560
 3873SOL    HW223079   3.498   3.469   4.628  0.8543 -1.5192  0.4341
 3874SOL     OW23080   1.691   1.447   8.286  0.0129 -0.6653 -0.6088
 3874SOL    HW123081   1.671   1.417   8.197 -2.7361 -2.9377  0.7653
 3874SOL    HW223082   1.769   1.499   8.269  0.2841 -1.6438 -2.3779
 3875SOL     OW23083   2.001   2.298  10.909 -0.4325  0.3075  0.6944
 3875SOL    HW123084   2.035   2.291  10.820 -0.5837  0.4374  0.6270
 3875SOL    HW223085   1.931   2.363  10.902  0.3568  0.7016 -3.4795
 3876SOL     OW23086   0.786   2.567  16.863  0.5662  0.3869  0.1630
 3876SOL    HW123087   0.742   2.647  16.891 -0.8490 -0.0983 -0.7054
 3876SOL    HW223088   0.826   2.548  16.948  2.1409  2.4270 -0.1228
 3877SOL     OW23089   0.668   3.842  14.497 -0.4034 -0.2401 -0.2373
 3877SOL    HW123090   0.607   3.892  14.443 -1.8441  0.6753  2.1902
 3877SOL    HW223091   0.615   3.766  14.522 -0.8541  0.2473  0.2861
 3878SOL     OW23092   2.484   1.658  10.959 -0.4913 -0.2703  0.2585
 3878SOL    HW123093   2.420   1.620  11.020 -0.2931 -2.1027 -0.6706
 3878SOL    HW223094   2.525   1.727  11.010 -1.6352  1.4857 -1.1861
 3879SOL     OW23095   0.765   2.876   9.355  0.7992  0.5213  0.7989
 3879SOL    HW123096   0.706   2.950   9.339  3.4007  2.4871  0.3127
 3879SOL    HW223097   0.708   2.805   9.383  1.1968  0.5046  1.5491
 3880SOL     OW23098   0.533   2.786   7.367 -0.6672 -0.4552  0.2399
 3880SOL    HW123099   0.565   2.842   7.438  3.5845  0.7012 -2.6045
 3880SOL    HW223100   0.439   2.801   7.367 -0.9546 -2.2057  1.2835
 3881SOL     OW23101   4.456   3.265   6.877  0.8224 -0.4526 -0.4205
 3881SOL    HW123102   4.412   3.340   6.838  1.2606  0.0272  0.0169
 3881SOL    HW223103   4.541   3.254   6.834  2.1811 -0.4915  2.2592
 3882SOL     OW23104   4.272   2.160   6.320  0.0852 -0.3031  0.2841
 3882SOL    HW123105   4.304   2.158   6.230 -2.3393 -1.0077 -0.5742
 3882SOL    HW223106   4.203   2.093   6.316 -0.1453 -0.0844  0.6191
 3883SOL     OW23107   2.838   1.745   4.254 -0.4280 -0.2687 -0.0578
 3883SOL    HW123108   2.913   1.729   4.310 -0.0423  3.8473  0.6272
 3883SOL    HW223109   2.874   1.744   4.165  1.8189 -0.0361  0.8554
 3884SOL     OW23110   3.013   0.569   7.974  0.5088 -0.7319 -0.4702
 3884SOL    HW123111   3.042   0.660   7.966 -0.0539 -0.6432 -1.4274
 3884SOL    HW223112   3.095   0.528   7.946  0.1477 -1.4705 -0.4287
 3885SOL     OW23113   1.628   0.179   3.731 -0.7376 -0.5724  0.3080
 3885SOL    HW123114   1.581   0.155   3.652  0.3417  3.1900 -1.4862
 3885SOL    HW223115   1.550   0.175   3.786  0.2895 -1.4387  1.7096
 3886SOL     OW23116   1.425   1.117   4.293 -0.4174  0.0014 -0.6353
 3886SOL    HW123117   1.451   1.158   4.210 -0.0454 -1.1947 -1.1144
 3886SOL    HW223118   1.330   1.116   4.284 -0.5142  1.9977  0.1568
 3887SOL     OW23119   0.567   4.473   3.562 -0.1527 -0.1949 -0.0471
 3887SOL    HW123120   0.595   4.472   3.653  1.0620 -1.1809 -0.4256
 3887SOL    HW223121   0.631   4.536   3.530 -0.2196 -0.3358 -0.4669
 3888SOL     OW23122   1.405   1.277   1.794 -0.7126  0.0333 -0.3844
 3888SOL    HW123123   1.445   1.355   1.832  0.6856 -0.7703 -0.2185
 3888SOL    HW223124   1.410   1.212   1.865  1.1265  1.2164  0.5520
 3889SOL     OW23125   0.100   1.840   8.257 -0.5900  0.2821 -0.2044
 3889SOL    HW123126   0.020   1.849   8.206  0.5042 -1.0936 -2.1979
 3889SOL    HW223127   0.162   1.855   8.185 -0.7395  0.8377 -0.2188
 3890SOL     OW23128   1.279   3.148  11.617  0.0242 -0.3984 -0.3262
 3890SOL    HW123129   1.321   3.067  11.646  1.6144  0.5204 -0.0874
 3890SOL    HW223130   1.252   3.191  11.698  1.1719 -0.5471  0.1368
 3891SOL     OW23131   1.278   2.079   5.033 -0.3077 -0.2876 -0.4099
 3891SOL    HW123132   1.320   2.021   5.097 -0.0090 -1.1166 -1.3564
 3891SOL    HW223133   1.188   2.045   5.028  0.8873 -3.6341  0.6965
 3892SOL     OW23134   3.937   0.439   1.405 -0.1298 -0.3743  0.2130
 3892SOL    HW123135   3.950   0.361   1.351 -3.1008 -0.5240 -0.2897
 3892SOL    HW223136   3.952   0.396   1.489  2.6871 -1.6459 -0.9589
 3893SOL     OW23137   0.722   4.286   5.715  0.1753 -0.6197  1.1439
 3893SOL    HW123138   0.670   4.363   5.736 -0.2122 -0.6762  0.3704
 3893SOL    HW223139   0.656   4.235   5.668  0.6438  0.9771 -1.2776
 3894SOL     OW23140   2.132   0.148  16.259  0.5167  0.5833 -0.4068
 3894SOL    HW123141   2.192   0.079  16.230 -0.3629 -1.3727  2.4544
 3894SOL    HW223142   2.049   0.107  16.233  0.9914  0.9068 -2.4473
 3895SOL     OW23143   1.512   0.545   6.609  0.3174  0.2916 -0.1477
 3895SOL    HW123144   1.447   0.499   6.556  1.7221 -0.9114 -0.8130
 3895SOL    HW223145   1.466   0.628   6.622 -2.7456 -1.0465 -2.3293
 3896SOL     OW23146   0.272   3.720   3.272  0.6826 -0.4985  0.4842
 3896SOL    HW123147   0.181   3.693   3.255  1.5215 -1.6426 -2.2767
 3896SOL    HW223148   0.283   3.721   3.367  2.0869  0.1104  0.3082
 3897SOL     OW23149   4.035   0.130   3.085  0.1357  0.4664  0.5802
 3897SOL    HW123150   3.968   0.191   3.054 -0.7127 -0.2429  1.0189
 3897SOL    HW223151   4.113   0.186   3.088  1.4279 -1.4358  2.5684
 3898SOL     OW23152   0.360   2.309   7.534 -0.1033  0.1854 -0.2575
 3898SOL    HW123153   0.373   2.224   7.577  0.1018  0.3611  0.0322
 3898SOL    HW223154   0.455   2.322   7.526  0.1757 -1.3819  0.4985
 3899SOL     OW23155   2.050   4.082  17.589  0.0506 -0.1549  0.7987
 3899SOL    HW123156   2.046   4.086  17.494  1.4364  2.3415  0.8335
 3899SOL    HW223157   2.124   4.141  17.607 -0.0392 -0.4558  2.1576
 3900SOL     OW23158   2.726   2.694   2.351 -0.5364 -0.6919 -0.3415
 3900SOL    HW123159   2.749   2.606   2.320 -3.2379 -0.0680 -4.1145
 3900SOL    HW223160   2.644   2.684   2.399 -0.0857  0.4439  0.6756
 3901SOL     OW23161   2.357   3.020   3.966  0.2442 -0.6060  0.1037
 3901SOL    HW123162   2.355   3.110   3.934 -0.8112 -0.5608  0.3067
 3901SOL    HW223163   2.268   2.987   3.952  0.4118  0.3310 -3.1085
 3902SOL     OW23164   0.176   2.966   4.062 -0.0136  0.0143  1.2838
 3902SOL    HW123165   0.209   3.001   4.144  0.7565 -0.8474  1.3419
 3902SOL    HW223166   0.085   2.941   4.075 -0.8004  1.2968 -1.7494
 3903SOL     OW23167   3.927   1.002   6.187 -0.0003 -0.1527 -0.0178
 3903SOL    HW123168   3.907   0.914   6.219  0.3578 -0.9210 -1.8815
 3903SOL    HW223169   4.006   0.993   6.133  0.2020  0.8965  0.1074
 3904SOL     OW23170   4.705   4.405   8.665  0.4010 -0.3874 -0.2004
 3904SOL    HW123171   4.684   4.327   8.717 -2.3492  0.0342 -0.6958
 3904SOL    HW223172   0.038   4.448   8.729 -0.1501  0.9198 -0.5984
 3905SOL     OW23173   2.138   4.325  11.263  0.1702 -0.4907  0.2501
 3905SOL    HW123174   2.165   4.299  11.175  0.9267 -0.6360  0.5299
 3905SOL    HW223175   2.195   4.397  11.289 -1.8290  1.0896  0.3281
 3906SOL     OW23176   4.070   0.270   5.472 -0.2258 -0.3248  0.5227
 3906SOL    HW123177   4.105   0.347   5.428  0.3714 -0.1149  1.3716
 3906SOL    HW223178   4.114   0.287   5.555 -0.8413 -2.7110  1.3402
 3907SOL     OW23179   4.666   3.073  17.620  0.4874 -0.5713  0.4420
 3907SOL    HW123180   0.006   3.145  17.614 -0.3345  0.0568 -0.6415
 3907SOL    HW223181   4.584   3.119  17.605  1.9056  1.7687 -0.2253
 3908SOL     OW23182   3.600   4.015   4.403  0.9239 -0.0291  0.5093
 3908SOL    HW123183   3.531   4.050   4.460  1.0581 -0.3978  0.8940
 3908SOL    HW223184   3.667   4.018   4.471 -0.0989  2.4571  1.4007
 3909SOL     OW23185   3.381   2.291   2.975 -0.0329  0.0450 -0.0380
 3909SOL    HW123186   3.355   2.319   3.062 -1.3058  0.8512 -0.6762
 3909SOL    HW223187   3.452   2.230   2.993 -0.6615 -0.1240  1.8444
 3910SOL     OW23188   2.148   0.999   2.911  0.1442  0.4621 -0.0106
 3910SOL    HW123189   2.218   0.992   2.846 -0.2854 -1.8276 -0.2050
 3910SOL    HW223190   2.072   1.030   2.860 -0.4309  1.6873  1.5953
 3911SOL     OW23191   0.636   0.826   6.656  0.2799  0.2803  0.2974
 3911SOL    HW123192   0.718   0.873   6.641  0.6421 -1.2441 -2.4122
 3911SOL    HW223193   0.616   0.846   6.748  0.4586 -1.5765  0.7472
 3912SOL     OW23194   3.391   0.764  11.393 -0.1264  0.2181 -0.1973
 3912SOL    HW123195   3.408   0.802  11.307  0.7333  1.2014  0.4065
 3912SOL    HW223196   3.295   0.764  11.401 -0.2434 -1.5455 -1.8243
 3913SOL     OW23197   0.400   3.926   1.799  0.3970 -0.4580 -0.1231
 3913SOL    HW123198   0.343   3.916   1.723  0.0822 -0.1388  0.0708
 3913SOL    HW223199   0.377   4.015   1.826  1.4758 -1.0381  2.7202
 3914SOL     OW23200   0.046   2.528   8.464 -0.2725  0.3158 -0.5045
 3914SOL    HW123201   0.017   2.617   8.485 -0.7797 -0.2516  1.1738
 3914SOL    HW223202   0.055   2.529   8.369 -0.4854 -2.3030 -0.5359
 3915SOL     OW23203   1.555   4.239   7.800  0.7442  0.4216  0.0634
 3915SOL    HW123204   1.605   4.265   7.878 -0.0392  1.2197  0.3012
 3915SOL    HW223205   1.616   4.257   7.729  1.8638 -1.6853  0.5037
 3916SOL     OW23206   2.716   2.179  10.340  0.8443  0.5636  0.3626
 3916SOL    HW123207   2.690   2.114  10.405 -1.7399 -1.0506 -2.3121
 3916SOL    HW223208   2.724   2.126  10.261  3.3194  0.8310  0.4446
 3917SOL     OW23209   2.121   2.243  10.646  0.1825 -0.4222  0.5439
 3917SOL    HW123210   2.157   2.178  10.586  0.3461 -0.8967  1.1576
 3917SOL    HW223211   2.033   2.253  10.609 -0.2661 -2.8233  0.9911
 3918SOL     OW23212   1.555   1.287   3.520 -0.1254 -0.5293 -0.3632
 3918SOL    HW123213   1.556   1.206   3.469  1.3412 -2.5470  2.8910
 3918SOL    HW223214   1.645   1.307   3.547 -0.4737  0.5206  0.0200
 3919SOL     OW23215   1.809   1.394   5.759  0.0198  0.1039  0.6410
 3919SOL    HW123216   1.840   1.343   5.685 -0.8207  1.0769 -0.3755
 3919SOL    HW223217   1.882   1.392   5.821  0.9037  0.1096 -0.4166
 3920SOL     OW23218   3.690   3.041   2.824  0.0645  0.1337  0.8232
 3920SOL    HW123219   3.611   3.082   2.790  0.7980  1.8144  1.1410
 3920SOL    HW223220   3.657   2.985   2.894  0.8334  2.1333  2.8153
 3921SOL     OW23221   0.872   1.286   9.010 -0.9429 -0.0289 -0.3760
 3921SOL    HW123222   0.901   1.222   8.945  0.0958  0.5180 -0.4501
 3921SOL    HW223223   0.960   1.307   9.041 -0.8442 -1.4415  0.3245
 3922SOL     OW23224   0.833   3.025   6.560  0.0380  0.5181 -0.3776
 3922SOL    HW123225   0.923   3.032   6.594  0.0573 -2.4488  0.2043
 3922SOL    HW223226   0.846   3.004   6.467  2.3686 -2.4496  0.6000
 3923SOL     OW23227   2.535   1.922  10.678  0.9987  0.3236 -0.2925
 3923SOL    HW123228   2.507   1.931  10.769 -0.4093 -0.5483 -0.6426
 3923SOL    HW223229   2.552   2.014  10.659 -0.0710  0.5534 -0.1482
 3924SOL     OW23230   0.227   4.380   4.758 -0.0809  0.3292  0.6350
 3924SOL    HW123231   0.265   4.374   4.846  3.0442  2.7184 -0.5165
 3924SOL    HW223232   0.207   4.290   4.735 -0.8157  0.8473 -0.7338
 3925SOL     OW23233   3.484   1.755  14.970 -1.0068 -0.1693  1.0848
 3925SOL    HW123234   3.578   1.757  14.953 -1.3995 -1.7130 -1.1345
 3925SOL    HW223235   3.479   1.715  15.057  0.5959 -1.3567  0.6148
 3926SOL     OW23236   1.803   1.702   3.435  0.3521 -0.7882 -0.3246
 3926SOL    HW123237   1.881   1.648   3.422  1.1424  0.6537 -1.5985
 3926SOL    HW223238   1.764   1.669   3.516  0.0062  1.9839  0.6645
 3927SOL     OW23239   1.242   0.294   0.193  0.3894  0.7867  0.1046
 3927SOL    HW123240   1.320   0.339   0.160 -0.6108  0.5517 -2.5719
 3927SOL    HW223241   1.175   0.350   0.153 -0.2126 -0.1856 -0.2500
 3928SOL     OW23242   2.461   4.342   6.338  0.1284 -0.0705  0.6235
 3928SOL    HW123243   2.524   4.314   6.272 -1.3875  0.0978 -0.8964
 3928SOL    HW223244   2.511   4.409   6.385  0.6678  0.5595 -0.8637
 3929SOL     OW23245   2.659   3.432   8.328  0.2984  0.1711 -0.0504
 3929SOL    HW123246   2.642   3.499   8.262  0.3215  1.0589  0.8378
 3929SOL    HW223247   2.719   3.366   8.295 -0.6667 -0.2133 -1.0613
 3930SOL     OW23248   3.590   3.649  10.333 -0.4667 -0.7303 -0.0390
 3930SOL    HW123249   3.517   3.590  10.352 -0.5206  0.2174  2.6614
 3930SOL    HW223250   3.624   3.613  10.251  1.3261  1.9684 -0.4913
 3931SOL     OW23251   3.480   4.579   7.274 -0.4477  0.1941  0.2230
 3931SOL    HW123252   3.445   4.506   7.222  2.2944 -1.3507  0.5622
 3931SOL    HW223253   3.507   4.529   7.352  0.5791 -1.1046 -0.9692
 3932SOL     OW23254   1.202   1.538   4.706 -0.3469  0.8686  0.3342
 3932SOL    HW123255   1.284   1.585   4.690 -0.5876  1.5560  1.1515
 3932SOL    HW223256   1.173   1.523   4.616  2.7960  0.0439 -0.5420
 3933SOL     OW23257   4.611   2.532   4.984 -0.3416  0.1782 -0.7723
 3933SOL    HW123258   4.702   2.513   5.003 -0.8922 -1.2579  0.4090
 3933SOL    HW223259   4.620   2.627   4.971 -2.2463  0.7265  1.8458
 3934SOL     OW23260   3.186   1.314   8.852  0.4257 -0.2103 -0.5246
 3934SOL    HW123261   3.186   1.235   8.799 -3.3002 -0.6560  0.1445
 3934SOL    HW223262   3.127   1.292   8.925 -0.5134  0.9408 -0.9367
 3935SOL     OW23263   1.233   3.130   5.797  0.4405  0.7700  0.2444
 3935SOL    HW123264   1.138   3.131   5.798  0.3742 -1.6107 -2.8480
 3935SOL    HW223265   1.254   3.223   5.807 -0.8609  1.0017  0.7114
 3936SOL     OW23266   4.235   0.918   6.708  0.3694  0.0990 -0.5245
 3936SOL    HW123267   4.329   0.933   6.707  0.5773 -1.1837 -0.6959
 3936SOL    HW223268   4.212   0.992   6.764 -1.3956 -0.0723 -1.0304
 3937SOL     OW23269   0.043   2.955   7.648  0.3624  0.3349  0.6440
 3937SOL    HW123270   0.047   2.956   7.743  1.0862 -1.1157  0.6327
 3937SOL    HW223271   4.710   3.025   7.617 -0.2432 -0.7786 -0.7990
 3938SOL     OW23272   4.582   4.372  13.613  0.2048  0.2286  0.3236
 3938SOL    HW123273   4.543   4.352  13.698 -1.8925 -2.2122 -1.2299
 3938SOL    HW223274   4.644   4.301  13.595 -0.6835 -0.8719  1.6726
 3939SOL     OW23275   0.569   2.216  12.117 -0.5095  0.2132 -0.5266
 3939SOL    HW123276   0.650   2.263  12.095 -1.0713  1.4493  0.0495
 3939SOL    HW223277   0.581   2.151  12.048  0.9260 -0.7902  0.6604
 3940SOL     OW23278   2.356   1.405   3.969 -0.0664 -0.7434  0.2418
 3940SOL    HW123279   2.412   1.456   3.909  0.4326 -3.2114 -1.3852
 3940SOL    HW223280   2.355   1.325   3.917  0.7381 -1.3802  1.2011
 3941SOL     OW23281   3.831   3.691   2.836  0.4138  0.2669  0.4839
 3941SOL    HW123282   3.784   3.634   2.897 -0.2027 -0.2313 -0.4696
 3941SOL    HW223283   3.896   3.743   2.883 -1.9917  1.2674  2.7237
 3942SOL     OW23284   1.630   2.169   7.974  0.2203 -0.1620 -0.5298
 3942SOL    HW123285   1.620   2.233   7.903  0.3818  0.3449 -0.0971
 3942SOL    HW223286   1.585   2.100   7.926  2.3367 -2.6183  1.0294
 3943SOL     OW23287   3.710   0.518   7.696  0.0074  0.0182  0.4164
 3943SOL    HW123288   3.741   0.456   7.630 -1.9849 -0.0152 -0.4865
 3943SOL    HW223289   3.760   0.597   7.674 -1.7110  0.9589 -0.1542
 3944SOL     OW23290   0.940   0.316   0.531 -0.2914 -0.0028  0.6080
 3944SOL    HW123291   0.895   0.297   0.449  2.7104 -0.4113 -0.9664
 3944SOL    HW223292   0.962   0.409   0.521  1.2131 -0.6412 -2.0761
 3945SOL     OW23293   0.628   1.200   2.965 -0.1590  0.0947 -0.2189
 3945SOL    HW123294   0.613   1.170   2.875  2.6729  2.1358 -1.3583
 3945SOL    HW223295   0.559   1.150   3.009  0.8543  0.5142  1.8252
 3946SOL     OW23296   2.432   3.288   3.007 -0.3792 -0.5550  0.1501
 3946SOL    HW123297   2.498   3.222   2.985  0.7314  0.3184  0.8554
 3946SOL    HW223298   2.355   3.234   2.988 -1.8343  0.5246  2.8894
 3947SOL     OW23299   1.145   3.965   5.399  0.0885 -0.0094  0.2448
 3947SOL    HW123300   1.168   3.899   5.333 -1.1239  0.9465 -1.1357
 3947SOL    HW223301   1.222   4.021   5.389 -0.9727  1.5118  0.7176
 3948SOL     OW23302   2.110   1.714   2.610  0.2877 -0.0972 -0.4249
 3948SOL    HW123303   2.139   1.696   2.700  0.6520 -1.5388 -0.8303
 3948SOL    HW223304   2.084   1.625   2.587 -1.0279  1.0651 -3.4202
 3949SOL     OW23305   1.730   3.049   5.429  0.1709  0.1948  0.0804
 3949SOL    HW123306   1.796   3.056   5.360 -0.0658  0.3263 -0.1352
 3949SOL    HW223307   1.663   2.996   5.385  2.8938 -1.7025 -1.7606
 3950SOL     OW23308   2.267   2.392  13.512  0.4037  0.2333 -0.1072
 3950SOL    HW123309   2.318   2.429  13.584 -1.4721  0.0076  1.3215
 3950SOL    HW223310   2.254   2.472  13.460  1.7108  0.6075  0.1328
 3951SOL     OW23311   0.370   4.301   0.607 -0.2445  0.4748 -0.0920
 3951SOL    HW123312   0.338   4.350   0.532 -1.0905  0.5725  0.3417
 3951SOL    HW223313   0.299   4.238   0.618  1.0227 -0.8581  0.4336
 3952SOL     OW23314   1.648   1.705   5.322  0.0126 -0.0935 -0.1606
 3952SOL    HW123315   1.720   1.766   5.333 -1.7084  1.8192  0.5737
 3952SOL    HW223316   1.654   1.643   5.396 -0.9848  0.0477  0.0473
 3953SOL     OW23317   0.635   2.269   7.551 -0.1167 -0.2458  0.0985
 3953SOL    HW123318   0.682   2.247   7.471 -0.0896  1.1115 -0.2494
 3953SOL    HW223319   0.671   2.201   7.608 -0.9614 -0.8627 -0.0887
 3954SOL     OW23320   3.572   3.898   2.533 -0.2238 -0.3702 -0.2610
 3954SOL    HW123321   3.630   3.940   2.469 -0.5647  1.1359  0.4123
 3954SOL    HW223322   3.484   3.909   2.497  0.0200  0.5382 -0.5688
 3955SOL     OW23323   3.377   0.221  17.416 -0.2083 -0.1922  0.0452
 3955SOL    HW123324   3.321   0.193  17.344 -1.1479  0.5478  0.4759
 3955SOL    HW223325   3.398   0.134  17.448 -0.5246  0.3969  1.8554
 3956SOL     OW23326   0.061   1.624  13.618 -0.4138 -0.3864 -0.0956
 3956SOL    HW123327   0.071   1.605  13.711 -2.0365 -1.7535 -0.1835
 3956SOL    HW223328   0.154   1.629  13.599 -0.0930 -1.4137  1.1772
 3957SOL     OW23329   1.835   2.798   4.552 -0.1482  0.5192  0.3045
 3957SOL    HW123330   1.909   2.765   4.603 -0.6585 -1.0496  0.0166
 3957SOL    HW223331   1.860   2.765   4.466 -2.4631  0.5896 -0.3916
 3958SOL     OW23332   4.534   2.799  11.242 -0.5518  0.4332 -0.3141
 3958SOL    HW123333   4.486   2.800  11.325 -0.7424 -0.7781 -0.4121
 3958SOL    HW223334   4.622   2.794  11.279 -1.3185  2.5891  1.8512
 3959SOL     OW23335   0.015   2.427   9.112  0.3593  0.0287  0.3241
 3959SOL    HW123336   0.108   2.449   9.115  0.1405  0.7055  1.8146
 3959SOL    HW223337   4.697   2.466   9.035 -3.3188 -0.3320  2.0948
 3960SOL     OW23338   1.281   1.768   1.911  0.2135 -0.0585 -0.7335
 3960SOL    HW123339   1.327   1.802   1.834 -1.8939  2.5261 -0.8509
 3960SOL    HW223340   1.193   1.807   1.908  0.5512  0.7141 -0.4226
 3961SOL     OW23341   1.083   4.020   4.960 -0.2595  0.6465  0.1881
 3961SOL    HW123342   1.026   4.089   4.991 -0.5590 -0.1792  1.4860
 3961SOL    HW223343   1.155   4.067   4.918 -0.7070  2.2162  1.1897
 3962SOL     OW23344   4.678   4.123   4.216 -0.3967 -0.0617 -0.4003
 3962SOL    HW123345   4.652   4.036   4.245  0.6667  0.3741  1.8686
 3962SOL    HW223346   0.015   4.105   4.143 -0.9812 -0.3001 -0.8199
 3963SOL     OW23347   2.721   4.329   4.229 -0.0268  0.1538 -0.1958
 3963SOL    HW123348   2.671   4.259   4.272  0.7240 -1.6585 -2.3129
 3963SOL    HW223349   2.787   4.323   4.298 -1.3740  0.0800  1.0868
 3964SOL     OW23350   1.062   3.375  12.721  0.3691  0.4031  0.0955
 3964SOL    HW123351   0.968   3.366  12.737 -0.1202  1.3673 -2.2766
 3964SOL    HW223352   1.096   3.289  12.747 -2.8599 -1.2134 -1.0965
 3965SOL     OW23353   3.029   0.599   5.014 -0.1277  0.0712 -0.0698
 3965SOL    HW123354   3.119   0.592   4.981 -0.3595  0.6865 -0.8440
 3965SOL    HW223355   3.010   0.693   5.020  0.2485  0.2337 -1.3354
 3966SOL     OW23356   0.927   2.963   8.893 -0.3649 -0.2286 -0.4527
 3966SOL    HW123357   1.022   2.951   8.900 -0.2642  0.8348  0.0765
 3966SOL    HW223358   0.893   2.901   8.958  1.1724 -1.6181 -0.9725
 3967SOL     OW23359   1.647   4.044   4.348 -0.2896 -0.0229  0.2888
 3967SOL    HW123360   1.588   3.988   4.296  1.0406  0.5159 -1.7846
 3967SOL    HW223361   1.582   4.111   4.369 -0.7117 -0.2086 -0.4020
 3968SOL     OW23362   0.757   1.050  15.387 -0.0663 -0.5931  0.3501
 3968SOL    HW123363   0.840   1.003  15.385 -0.1501 -0.7352 -0.0417
 3968SOL    HW223364   0.706   0.978  15.424 -1.3522 -0.0241 -0.3173
 3969SOL     OW23365   1.657   2.046   2.793 -0.1821  0.0468  0.3560
 3969SOL    HW123366   1.601   2.083   2.725  1.1988  2.5122  0.5363
 3969SOL    HW223367   1.741   2.048   2.747 -0.2806 -1.0069  0.1361
 3970SOL     OW23368   0.195   0.169   3.902 -0.3780  0.0430  0.3128
 3970SOL    HW123369   0.165   0.125   3.823 -0.5538 -0.1434  0.4853
 3970SOL    HW223370   0.154   0.256   3.895  1.4487  0.7072 -1.8870
 3971SOL     OW23371   0.827   4.079   6.037 -0.2615 -0.3195 -0.0987
 3971SOL    HW123372   0.856   3.987   6.037 -2.2129 -0.9370 -0.2063
 3971SOL    HW223373   0.776   4.074   5.956 -2.2991  0.0521  1.1751
 3972SOL     OW23374   2.697   4.555   8.594  0.0120  0.8367 -0.1674
 3972SOL    HW123375   2.634   4.494   8.633  0.3690  1.1963  0.9517
 3972SOL    HW223376   2.767   4.498   8.561 -0.8293  0.2024 -0.8966
 3973SOL     OW23377   3.397   2.539   8.302  0.2349 -0.1740 -0.0588
 3973SOL    HW123378   3.414   2.565   8.212 -1.5584 -0.3573 -0.4487
 3973SOL    HW223379   3.369   2.450   8.284  4.2693 -0.8551 -2.9821
 3974SOL     OW23380   3.189   1.813   8.264  0.2288 -0.4308 -1.1124
 3974SOL    HW123381   3.160   1.903   8.250  1.0808  0.1967  1.0916
 3974SOL    HW223382   3.106   1.777   8.297 -0.0434  0.6393 -0.6298
 3975SOL     OW23383   1.014   1.857   1.926 -0.0275  0.2333  0.3448
 3975SOL    HW123384   0.945   1.806   1.969  0.9404 -0.2135  1.3748
 3975SOL    HW223385   0.992   1.939   1.971  0.5332 -0.1879  1.3897
 3976SOL     OW23386   2.106   4.614   6.387  0.5287  0.1054 -0.6256
 3976SOL    HW123387   2.182   4.567   6.353 -0.5649 -1.1330 -1.3633
 3976SOL    HW223388   2.078   4.555   6.457  2.0685 -0.8507 -0.8105
 3977SOL     OW23389   3.289   1.845   3.211  0.8536  0.0755  0.3333
 3977SOL    HW123390   3.197   1.866   3.227  1.3985  1.7483  1.2609
 3977SOL    HW223391   3.299   1.893   3.128 -1.2689 -0.3317 -0.1456
 3978SOL     OW23392   0.332   0.642   3.109  0.3323  0.1819 -0.0613
 3978SOL    HW123393   0.291   0.726   3.128  0.9398  0.8388 -1.6347
 3978SOL    HW223394   0.288   0.591   3.177 -0.5849  0.0466 -0.7496
 3979SOL     OW23395   3.201   0.749   2.408  0.4670 -0.5208  0.6703
 3979SOL    HW123396   3.290   0.780   2.424 -1.0771  4.0292  0.2750
 3979SOL    HW223397   3.167   0.735   2.496 -1.4001 -1.3855 -0.1874
 3980SOL     OW23398   0.508   4.575   6.391 -0.0130  0.2401 -0.1793
 3980SOL    HW123399   0.557   4.494   6.382  1.9577  1.3672  0.3357
 3980SOL    HW223400   0.426   4.550   6.433  0.0948  1.7679  0.9482
 3981SOL     OW23401   1.253   1.793   8.178 -0.0191  0.1435  0.5855
 3981SOL    HW123402   1.210   1.777   8.094  0.3404  0.1240  0.4086
 3981SOL    HW223403   1.189   1.790   8.249  1.1579  1.1867  1.6763
 3982SOL     OW23404   2.817   2.689   5.492  0.1869  0.1987 -0.1637
 3982SOL    HW123405   2.767   2.643   5.559  1.0979 -3.8280 -2.2607
 3982SOL    HW223406   2.859   2.757   5.544 -0.2463  0.5026 -0.2102
 3983SOL     OW23407   1.269   0.781  13.337  0.0336 -0.1397 -0.2386
 3983SOL    HW123408   1.193   0.794  13.393  2.0092  0.4977  2.2584
 3983SOL    HW223409   1.330   0.761  13.408  0.4250 -1.4570 -0.9439
 3984SOL     OW23410   0.163   2.088   0.658 -0.1049 -0.0311 -0.1932
 3984SOL    HW123411   0.195   2.094   0.568 -0.5488  1.8281 -0.2173
 3984SOL    HW223412   0.237   2.124   0.707 -0.2445 -0.1982  0.1423
 3985SOL     OW23413   1.433   4.609   8.068  0.4291  0.1053  0.3484
 3985SOL    HW123414   1.356   4.588   8.015 -0.1754 -0.2875  1.3795
 3985SOL    HW223415   1.396   4.591   8.154 -0.9977  1.1134 -0.0645
 3986SOL     OW23416   0.573   0.761  13.440  0.2147  0.0785  0.0008
 3986SOL    HW123417   0.628   0.686  13.463 -1.1393 -1.0674 -0.4436
 3986SOL    HW223418   0.493   0.735  13.395 -0.4130  3.1575 -0.6379
 3987SOL     OW23419   1.422   3.442   1.786  1.1143  0.0162 -0.1561
 3987SOL    HW123420   1.512   3.415   1.803  1.4736  1.9984  1.0272
 3987SOL    HW223421   1.369   3.377   1.833  1.9596  0.6612  1.6797
 3988SOL     OW23422   3.864   0.369   6.769  0.1352 -0.0844 -0.9092
 3988SOL    HW123423   3.896   0.365   6.859  2.0008 -3.1078 -1.7024
 3988SOL    HW223424   3.850   0.461   6.750 -1.4908  0.0107  0.7293
 3989SOL     OW23425   4.355   3.408   3.868  0.7507  0.0958 -0.1708
 3989SOL    HW123426   4.354   3.487   3.922  0.5370  2.3480 -3.4484
 3989SOL    HW223427   4.259   3.412   3.863  0.7686  0.8752  0.0585
 3990SOL     OW23428   4.058   3.155   7.278 -0.5674 -0.0527  0.3035
 3990SOL    HW123429   4.022   3.068   7.293 -3.5475  1.0891 -0.1494
 3990SOL    HW223430   4.048   3.166   7.183  0.7777 -2.5046 -0.1338
 3991SOL     OW23431   4.538   2.297   7.144 -0.6600  0.1293  0.4503
 3991SOL    HW123432   4.543   2.390   7.122  1.5952 -0.0517  0.2510
 3991SOL    HW223433   4.447   2.284   7.114 -0.5817  1.8366 -0.5160
 3992SOL     OW23434   0.720   3.932  14.813 -0.1995  0.4143 -0.3340
 3992SOL    HW123435   0.633   3.964  14.792 -0.9313 -2.0997 -1.1144
 3992SOL    HW223436   0.699   3.865  14.879  1.2006  1.6224  1.3412
 3993SOL     OW23437   0.452   2.793   8.546 -0.0075  0.5919  0.4624
 3993SOL    HW123438   0.468   2.707   8.507  0.2743  2.0071 -2.5952
 3993SOL    HW223439   0.389   2.761   8.610  1.1610 -1.7598  0.4501
 3994SOL     OW23440   1.996   0.097   3.942 -0.3123 -0.4699  0.0136
 3994SOL    HW123441   1.993   0.051   4.026  0.7560 -0.9448 -0.2027
 3994SOL    HW223442   2.032   0.181   3.970  1.7212 -1.2192 -0.3588
 3995SOL     OW23443   3.578   1.404  14.420  0.1113  0.7276 -0.4934
 3995SOL    HW123444   3.541   1.323  14.454  1.2719  1.0482  1.5737
 3995SOL    HW223445   3.504   1.442  14.373 -0.7793 -1.7135 -1.0290
 3996SOL     OW23446   3.735   1.283   1.166 -0.4396  0.3062  0.0105
 3996SOL    HW123447   3.776   1.205   1.130  0.9731  0.8467  0.4478
 3996SOL    HW223448   3.777   1.293   1.251  1.2216 -0.1993 -0.7427
 3997SOL     OW23449   2.633   4.301   1.067 -0.1113  0.0301  0.0938
 3997SOL    HW123450   2.663   4.219   1.107  1.3787 -0.3823 -1.9215
 3997SOL    HW223451   2.641   4.273   0.976 -0.2482 -0.7572  0.3263
 3998SOL     OW23452   4.436   1.144   6.844 -0.5067  0.6425  0.6863
 3998SOL    HW123453   4.439   1.195   6.763  0.3730 -0.5750 -0.0534
 3998SOL    HW223454   4.448   1.055   6.811 -0.4636  1.1802 -0.7348
 3999SOL     OW23455   4.520   2.182  11.180  0.9909 -0.4451 -0.3477
 3999SOL    HW123456   4.478   2.186  11.266 -1.3142  0.5823 -1.5097
 3999SOL    HW223457   4.612   2.193  11.202  0.2699  2.2764  1.2948
 4000SOL     OW23458   4.586   0.791   3.953  0.1769  0.4342  0.8399
 4000SOL    HW123459   4.621   0.869   3.911 -1.9270  0.7194 -0.3360
 4000SOL    HW223460   4.541   0.756   3.877  0.5100 -1.8992  1.7141
 4001SOL     OW23461   3.234   0.932  12.717 -0.0443 -0.1807 -0.8991
 4001SOL    HW123462   3.254   1.011  12.667 -0.3626 -0.4359 -1.4360
 4001SOL    HW223463   3.305   0.947  12.779 -0.3781  1.2330 -0.8526
 4002SOL     OW23464   3.053   4.273  16.299 -0.1786 -0.2298 -0.8264
 4002SOL    HW123465   3.106   4.316  16.366 -0.7221 -0.0325 -0.5335
 4002SOL    HW223466   2.982   4.248  16.357  3.3203 -0.2419  3.4715
 4003SOL     OW23467   0.115   3.359  12.384 -0.3602  0.8071 -0.5627
 4003SOL    HW123468   0.110   3.300  12.459  0.8077  0.7908 -0.4982
 4003SOL    HW223469   0.094   3.299  12.312  0.9384  1.7367 -1.7279
 4004SOL     OW23470   1.826   1.419  15.024 -0.2776  0.3403 -0.1968
 4004SOL    HW123471   1.898   1.453  14.971 -0.6696 -0.3180 -1.1441
 4004SOL    HW223472   1.755   1.475  14.996  0.9164  0.7972 -2.3061
 4005SOL     OW23473   1.868   4.134   3.686  0.2447  0.4547 -0.0953
 4005SOL    HW123474   1.808   4.194   3.730  0.4704  1.1880 -0.7995
 4005SOL    HW223475   1.899   4.185   3.612 -0.4229  1.1769  0.1276
 4006SOL     OW23476   3.608   0.427  11.471 -0.1930 -0.6466 -0.7870
 4006SOL    HW123477   3.677   0.490  11.453 -1.3046  0.4488 -1.2456
 4006SOL    HW223478   3.652   0.379  11.541 -1.2128 -0.1296  0.1982
 4007SOL     OW23479   2.165   1.021   3.984  0.2518  0.1649  0.4774
 4007SOL    HW123480   2.111   0.957   4.031  1.1302  0.8403  2.3781
 4007SOL    HW223481   2.173   1.089   4.051  1.1585  0.2443  0.2830
 4008SOL     OW23482   1.060   4.227   6.015 -0.2499  0.1839  0.6049
 4008SOL    HW123483   1.027   4.221   5.925 -0.4575  2.6470  0.5104
 4008SOL    HW223484   0.986   4.198   6.068 -0.8704  2.5457  1.0075
 4009SOL     OW23485   0.985   3.815  13.610  0.0016 -0.5805  0.8135
 4009SOL    HW123486   0.900   3.804  13.653 -0.7807  1.1702 -0.2989
 4009SOL    HW223487   1.030   3.844  13.689  2.4620 -2.2726  0.0596
 4010SOL     OW23488   3.538   2.210   8.333  0.5865  0.3778 -0.2761
 4010SOL    HW123489   3.573   2.228   8.420 -2.8161 -0.4989  1.3028
 4010SOL    HW223490   3.444   2.230   8.330  0.3352 -0.8753 -0.8839
 4011SOL     OW23491   0.680   2.988   5.912  0.5458 -0.1612  0.4934
 4011SOL    HW123492   0.718   3.049   5.976 -1.7898  0.8591  0.9502
 4011SOL    HW223493   0.612   3.046   5.878  0.6875 -1.5038 -2.0402
 4012SOL     OW23494   3.647   2.770   7.128 -0.1397  0.4214  0.2703
 4012SOL    HW123495   3.620   2.854   7.164 -1.2459 -0.5719  1.7604
 4012SOL    HW223496   3.563   2.753   7.084  0.9743 -0.4096 -1.4957
 4013SOL     OW23497   4.482   3.889   6.443  0.2652  0.3523  0.0644
 4013SOL    HW123498   4.577   3.900   6.446  0.3849 -1.7559  3.7677
 4013SOL    HW223499   4.454   3.968   6.490  1.3365  0.2307  0.9031
 4014SOL     OW23500   2.881   1.740   3.035 -0.4423 -0.5364 -0.6574
 4014SOL    HW123501   2.836   1.661   3.067 -2.3242 -0.2930 -2.7446
 4014SOL    HW223502   2.879   1.718   2.942  1.1630  0.4457 -0.9324
 4015SOL     OW23503   0.465   3.174  13.280  0.0689  0.1266 -0.5228
 4015SOL    HW123504   0.434   3.253  13.237 -0.6649 -0.8095 -1.7215
 4015SOL    HW223505   0.534   3.205  13.337  2.8814 -0.0334 -3.8593
 4016SOL     OW23506   0.170   2.009   6.824 -0.0975 -0.2479  0.0444
 4016SOL    HW123507   0.228   2.075   6.864 -1.1347 -0.1007  1.2965
 4016SOL    HW223508   0.082   2.045   6.835 -0.1802  0.0686 -1.5866
 4017SOL     OW23509   3.900   0.123   9.210  0.0114 -0.3530 -0.4302
 4017SOL    HW123510   3.820   0.096   9.254  0.1530 -1.6348 -0.9521
 4017SOL    HW223511   3.951   0.146   9.288  0.6806 -0.1260 -0.9302
 4018SOL     OW23512   2.667   0.473   5.322 -0.1605  0.1855 -0.1478
 4018SOL    HW123513   2.617   0.393   5.335  0.6411  0.1759  2.7949
 4018SOL    HW223514   2.607   0.539   5.356  0.9408  1.6373 -1.0370
 4019SOL     OW23515   4.163   2.790   1.687  0.3991 -0.3034 -0.2764
 4019SOL    HW123516   4.238   2.810   1.743  0.2642  2.5276 -1.0881
 4019SOL    HW223517   4.103   2.739   1.741  0.7211 -1.5350 -1.0725
 4020SOL     OW23518   4.565   0.169   6.951  0.1514 -0.5093 -0.4418
 4020SOL    HW123519   4.513   0.150   7.029  2.9705 -0.4976  1.4387
 4020SOL    HW223520   4.517   0.242   6.912  1.6360  0.6316 -0.1314
 4021SOL     OW23521   3.224   2.079   5.688  0.0036 -0.5977  0.3681
 4021SOL    HW123522   3.275   2.011   5.644 -2.0084 -1.6021 -0.4316
 4021SOL    HW223523   3.234   2.153   5.629 -1.5500  0.3225  1.2727
 4022SOL     OW23524   3.830   4.347   8.683  0.4733  0.2375 -0.5362
 4022SOL    HW123525   3.892   4.304   8.741  0.8933  1.1769 -0.2865
 4022SOL    HW223526   3.753   4.348   8.740 -0.1294 -1.5725 -1.3434
 4023SOL     OW23527   3.701   4.241   6.436 -0.0413  0.3015  0.6879
 4023SOL    HW123528   3.714   4.287   6.519 -0.9632  1.8237 -0.0147
 4023SOL    HW223529   3.690   4.318   6.380  2.0954 -0.2614 -0.4690
 4024SOL     OW23530   1.076   0.665  16.076 -0.0977  1.1177 -0.4732
 4024SOL    HW123531   0.994   0.671  16.125  1.6649  0.9571  2.4237
 4024SOL    HW223532   1.051   0.710  15.995  0.4449 -1.7079 -2.1963
 4025SOL     OW23533   4.415   4.557   5.261 -0.0945 -0.2975  0.4007
 4025SOL    HW123534   4.358   4.628   5.291  0.5630 -0.4593  2.0274
 4025SOL    HW223535   4.490   4.607   5.228 -0.0891 -1.4524 -1.3175
 4026SOL     OW23536   3.767   1.211   3.866  0.0522 -0.3263  0.1262
 4026SOL    HW123537   3.702   1.271   3.828  1.0406 -1.2085 -2.9169
 4026SOL    HW223538   3.741   1.127   3.829 -0.2490 -0.1582 -0.0498
 4027SOL     OW23539   4.310   2.779  13.617 -0.5421 -0.9385  0.6367
 4027SOL    HW123540   4.300   2.684  13.622 -0.4172 -1.0311 -0.8781
 4027SOL    HW223541   4.367   2.782  13.540 -3.3285  2.5530 -1.3013
 4028SOL     OW23542   1.803   0.537   4.076 -0.5130  0.1663 -0.0124
 4028SOL    HW123543   1.808   0.442   4.066  1.5691  0.3490 -0.7272
 4028SOL    HW223544   1.756   0.573   4.000 -1.9793  0.0547  0.8586
 4029SOL     OW23545   2.620   2.236  12.986 -0.4497 -0.0215 -0.7420
 4029SOL    HW123546   2.648   2.327  12.996 -0.6783 -0.1250  0.8947
 4029SOL    HW223547   2.696   2.179  12.997 -0.5246  0.6830  3.6729
 4030SOL     OW23548   1.203   1.660   6.303 -0.5024 -0.7447 -0.1583
 4030SOL    HW123549   1.280   1.608   6.280 -0.6378 -0.6789 -0.7792
 4030SOL    HW223550   1.178   1.671   6.211  0.4098  0.9112 -0.1968
 4031SOL     OW23551   4.046   1.673   0.540  0.4621 -0.2754  0.3260
 4031SOL    HW123552   4.063   1.665   0.446 -0.7784 -0.7475  0.1470
 4031SOL    HW223553   4.076   1.589   0.576  0.6935 -1.3887 -2.4689
 4032SOL     OW23554   0.135   1.281   3.820 -0.0602 -0.7614 -0.2528
 4032SOL    HW123555   0.165   1.311   3.734 -1.5129 -2.4931 -1.3685
 4032SOL    HW223556   0.198   1.318   3.882 -1.9561  0.2820  1.0588
 4033SOL     OW23557   0.078   3.901   7.510 -0.2799 -0.0069 -0.2666
 4033SOL    HW123558   0.062   3.995   7.506  0.3822  0.1743  1.5762
 4033SOL    HW223559   0.166   3.892   7.473 -0.5049 -0.5901 -0.6611
 4034SOL     OW23560   3.441   1.503   4.526  0.3545 -0.0067  0.2347
 4034SOL    HW123561   3.403   1.450   4.595 -2.8498 -1.4350 -2.6406
 4034SOL    HW223562   3.399   1.587   4.544  0.2766 -0.2331  1.0965
 4035SOL     OW23563   0.285   1.157   7.821 -0.9006  0.2601 -0.2117
 4035SOL    HW123564   0.292   1.226   7.754 -2.0054  0.7692  0.1934
 4035SOL    HW223565   0.376   1.142   7.843  0.0646 -0.3742 -4.5521
 4036SOL     OW23566   1.089   0.008   5.464 -0.1904  0.6157 -0.6303
 4036SOL    HW123567   1.128   0.062   5.533  1.1773 -0.7219 -0.3659
 4036SOL    HW223568   1.154   0.022   5.395  0.3164 -2.9406 -0.8688
 4037SOL     OW23569   3.531   2.208  12.866  0.1265 -0.5323 -0.5936
 4037SOL    HW123570   3.536   2.116  12.890  0.7008 -0.5213 -0.6802
 4037SOL    HW223571   3.580   2.206  12.784 -2.6238 -0.8116 -2.2021
 4038SOL     OW23572   2.402   4.077   4.579  0.2670 -0.2734 -0.6840
 4038SOL    HW123573   2.444   4.163   4.579  0.0724 -0.1549  2.1622
 4038SOL    HW223574   2.461   4.026   4.524 -1.0037 -3.0992  0.5934
 4039SOL     OW23575   0.704   0.539  16.693  0.4984 -0.0573  0.3239
 4039SOL    HW123576   0.674   0.626  16.718 -4.5443 -0.9663 -2.5192
 4039SOL    HW223577   0.796   0.558  16.672  0.1081 -0.3041 -1.6100
 4040SOL     OW23578   3.063   1.680   4.401  0.3062  0.1497  0.2863
 4040SOL    HW123579   3.080   1.687   4.495  0.5169 -2.1012  0.4064
 4040SOL    HW223580   3.045   1.587   4.392  2.0409 -0.0862 -0.6509
 4041SOL     OW23581   2.516   3.804   5.796 -0.5162  0.0668 -0.3143
 4041SOL    HW123582   2.507   3.848   5.881  1.1381  2.7906 -1.5165
 4041SOL    HW223583   2.475   3.860   5.730  1.1328  0.2960 -1.1688
 4042SOL     OW23584   2.145   3.385   6.450 -0.4674  0.0525 -0.3057
 4042SOL    HW123585   2.094   3.366   6.529  0.1913  1.3298  0.4228
 4042SOL    HW223586   2.082   3.445   6.411 -1.8068 -1.2266 -0.1362
 4043SOL     OW23587   4.479   3.528   1.036  0.4144  0.1763  0.0447
 4043SOL    HW123588   4.537   3.490   1.102  0.4092  1.8902  1.0392
 4043SOL    HW223589   4.428   3.591   1.088  1.3081  0.0120  1.1308
 4044SOL     OW23590   1.855   0.384   5.984 -0.2796  0.3804 -0.3950
 4044SOL    HW123591   1.875   0.429   6.066  0.7591  0.1669 -0.5402
 4044SOL    HW223592   1.816   0.303   6.019  2.7062 -1.6440 -1.7449
 4045SOL     OW23593   4.155   3.392   3.462 -0.6506  0.2058 -0.4544
 4045SOL    HW123594   4.163   3.299   3.442 -3.0418  0.4263 -2.4657
 4045SOL    HW223595   4.062   3.391   3.487 -0.7840 -0.5426 -0.9679
 4046SOL     OW23596   4.402   2.174   3.771  0.7234 -0.0578  0.2678
 4046SOL    HW123597   4.411   2.080   3.759 -0.2741 -0.1624  0.3737
 4046SOL    HW223598   4.494   2.195   3.756  0.5826  1.4804  1.5168
 4047SOL     OW23599   4.141   3.803   5.100  0.5589 -0.2782  0.2386
 4047SOL    HW123600   4.221   3.810   5.048  1.3179 -1.9990  1.1537
 4047SOL    HW223601   4.081   3.826   5.029  0.9612  0.8763  0.2716
 4048SOL     OW23602   1.978   4.535   6.063  0.5910 -0.3021 -0.0981
 4048SOL    HW123603   2.017   4.590   6.131 -0.5992  0.8697 -0.3371
 4048SOL    HW223604   1.885   4.561   6.064  0.8791  0.7295 -0.5785
 4049SOL     OW23605   1.994   3.120   1.165 -0.3972  0.2257 -0.2656
 4049SOL    HW123606   2.012   3.104   1.072 -3.8562 -5.1109 -0.0580
 4049SOL    HW223607   1.948   3.203   1.171 -1.0459 -0.2538  1.4249
 4050SOL     OW23608   3.472   0.782   4.811 -0.2358  0.3541  0.3524
 4050SOL    HW123609   3.469   0.826   4.726  0.0985 -0.2914  0.0033
 4050SOL    HW223610   3.540   0.720   4.784  0.8665  1.2707  1.0380
 4051SOL     OW23611   3.236   1.143   8.244  0.5059  0.5624  0.3975
 4051SOL    HW123612   3.320   1.186   8.232  1.6397 -2.3262 -1.9703
 4051SOL    HW223613   3.262   1.069   8.299 -1.8198  1.0841  2.1843
 4052SOL     OW23614   0.173   4.333   7.362 -0.2864  0.3698  0.2214
 4052SOL    HW123615   0.135   4.258   7.410  0.2238 -0.2571 -0.3617
 4052SOL    HW223616   0.099   4.383   7.327  0.6389  0.8848 -0.9743
 4053SOL     OW23617   1.041   3.619  10.287  0.4194  0.0553 -0.1721
 4053SOL    HW123618   0.971   3.636  10.350  0.2345 -1.9007  0.1381
 4053SOL    HW223619   1.108   3.581  10.344  1.4060 -0.7160 -1.8683
 4054SOL     OW23620   1.151   3.070  10.114  0.1491 -0.4618  0.2789
 4054SOL    HW123621   1.212   3.027  10.174  1.3293 -0.0111 -0.6035
 4054SOL    HW223622   1.174   3.161  10.133  0.7525 -0.5623  0.0284
 4055SOL     OW23623   0.137   0.007   8.110 -0.2735 -0.9480  0.2158
 4055SOL    HW123624   0.164   4.649   8.067 -1.5481 -1.3787  0.2353
 4055SOL    HW223625   0.043   4.717   8.109 -0.1935 -1.5216  0.5025
 4056SOL     OW23626   0.347   2.847  10.171 -0.4336 -0.0926 -0.4418
 4056SOL    HW123627   0.411   2.779  10.152 -0.5049 -0.4588  0.6250
 4056SOL    HW223628   0.284   2.836  10.100 -0.5459 -0.1807 -0.3275
 4057SOL     OW23629   1.064   0.918   7.999 -0.7718  0.6360  0.3250
 4057SOL    HW123630   1.031   0.989   8.054 -1.7413  0.6095 -0.2303
 4057SOL    HW223631   1.074   0.846   8.061 -4.0514  0.6104  0.8153
 4058SOL     OW23632   1.096   1.041  13.340  0.1970  0.5657  0.0024
 4058SOL    HW123633   1.040   0.964  13.343  1.8422 -0.7637 -3.5873
 4058SOL    HW223634   1.035   1.111  13.363 -1.7592 -1.0896 -0.2350
 4059SOL     OW23635   0.260   3.997   7.807  0.1036 -0.2756  0.4792
 4059SOL    HW123636   0.195   3.927   7.810  0.8341 -0.9435  0.7153
 4059SOL    HW223637   0.226   4.065   7.748  1.8733  0.4007  0.2505
 4060SOL     OW23638   2.400   3.160   9.352  0.0510  0.4438 -0.0326
 4060SOL    HW123639   2.370   3.076   9.388  1.7423 -0.3875 -0.5661
 4060SOL    HW223640   2.327   3.159   9.290 -0.8333  1.7784  0.9850
 4061SOL     OW23641   2.873   1.531   8.106 -0.5073  0.1663  0.6665
 4061SOL    HW123642   2.804   1.480   8.148 -1.7167  2.0699  1.0156
 4061SOL    HW223643   2.807   1.582   8.061 -1.1899 -0.0559  1.4094
 4062SOL     OW23644   1.447   4.188   7.274  0.7433  0.2101 -0.4935
 4062SOL    HW123645   1.478   4.100   7.254  2.6629  0.7905 -0.0673
 4062SOL    HW223646   1.467   4.229   7.190  0.8558 -1.2574 -1.1715
 4063SOL     OW23647   1.295   0.980   8.997  0.5498 -0.2335 -0.1245
 4063SOL    HW123648   1.231   0.912   9.018  0.7799 -0.1717  0.8189
 4063SOL    HW223649   1.286   0.987   8.902  1.7080 -1.8368 -0.3521
 4064SOL     OW23650   1.686   0.385  17.102 -0.1964 -0.2681 -0.3665
 4064SOL    HW123651   1.768   0.350  17.066  1.7532  3.6419  0.2325
 4064SOL    HW223652   1.699   0.389  17.197 -0.5128  2.5364 -0.4343
 4065SOL     OW23653   2.248   1.450   4.332 -0.0148  0.0855 -0.3114
 4065SOL    HW123654   2.330   1.436   4.379 -0.3391  0.7797  0.4747
 4065SOL    HW223655   2.185   1.478   4.399  1.1340  0.3151  0.6664
 4066SOL     OW23656   0.934   0.836  13.364 -0.5382  0.2215  0.4036
 4066SOL    HW123657   0.979   0.753  13.346 -1.7156 -0.3103 -0.1053
 4066SOL    HW223658   0.947   0.844  13.458  0.4430 -0.9766  0.3721
 4067SOL     OW23659   3.702   1.660  14.348  0.3720  0.1186  0.2042
 4067SOL    HW123660   3.680   1.572  14.380 -1.2532  0.2245 -0.6097
 4067SOL    HW223661   3.616   1.698  14.330  1.4896  2.3018 -0.3976
 4068SOL     OW23662   1.027   2.679   6.355  0.2622  0.5097 -0.1663
 4068SOL    HW123663   1.036   2.633   6.438  0.3143 -0.4611 -0.7185
 4068SOL    HW223664   1.036   2.605   6.295  3.4486 -0.1718  1.1358
 4069SOL     OW23665   3.620   3.717   3.581 -0.7695 -0.4878  0.0206
 4069SOL    HW123666   3.552   3.756   3.526 -1.1834 -1.9871 -0.5226
 4069SOL    HW223667   3.651   3.632   3.548  0.1194 -0.8626  1.8248
 4070SOL     OW23668   3.195   1.814   8.626 -0.0287  0.3118 -0.1926
 4070SOL    HW123669   3.103   1.826   8.602 -0.0562  0.2948 -0.0955
 4070SOL    HW223670   3.185   1.758   8.703 -0.0951 -2.6446 -2.3257
 4071SOL     OW23671   2.870   0.210   5.878 -0.4110 -0.7139 -0.1483
 4071SOL    HW123672   2.878   0.141   5.943 -2.4432  1.1428  2.0985
 4071SOL    HW223673   2.960   0.240   5.871 -0.2307 -1.3484 -0.5009
 4072SOL     OW23674   1.252   3.391  14.680 -0.2674 -0.0946  0.0973
 4072SOL    HW123675   1.338   3.417  14.648  1.4406 -3.0012  2.2893
 4072SOL    HW223676   1.261   3.418  14.772 -0.6666 -2.7064  0.9031
 4073SOL     OW23677   4.460   0.448   9.873  0.9935  0.6053 -0.8748
 4073SOL    HW123678   4.548   0.425   9.903  1.2469  0.0335 -2.0328
 4073SOL    HW223679   4.481   0.528   9.825  1.5870  3.0176  3.4089
 4074SOL     OW23680   2.593   0.713   3.566 -0.0800  0.5455 -0.1191
 4074SOL    HW123681   2.583   0.750   3.654 -0.2445  1.1093 -0.3822
 4074SOL    HW223682   2.535   0.772   3.520  0.1053  3.0376  2.8841
 4075SOL     OW23683   1.399   2.029   2.393 -0.0687  0.1991 -0.5492
 4075SOL    HW123684   1.367   2.052   2.306 -1.1458 -0.9943 -0.4675
 4075SOL    HW223685   1.345   1.952   2.408  2.4613 -1.6856 -1.1174
 4076SOL     OW23686   1.277   0.607   1.400  0.1844 -0.0666  0.1488
 4076SOL    HW123687   1.206   0.608   1.336  0.2556  1.4359  0.0870
 4076SOL    HW223688   1.358   0.617   1.350  2.1437 -0.6339  3.1654
 4077SOL     OW23689   0.251   1.697  11.484  0.0363 -0.7672  0.2019
 4077SOL    HW123690   0.171   1.750  11.477 -0.7665 -2.1561 -1.1045
 4077SOL    HW223691   0.311   1.768  11.508 -0.8691  0.4073 -1.0116
 4078SOL     OW23692   4.276   0.400  10.067 -0.5262  0.7359  0.2497
 4078SOL    HW123693   4.229   0.322  10.039  3.3857 -1.7863  0.7851
 4078SOL    HW223694   4.345   0.397  10.001  0.6497  2.2529  1.4063
 4079SOL     OW23695   2.682   2.827   6.131  0.0105  0.0601 -0.1308
 4079SOL    HW123696   2.747   2.758   6.143  0.9812  0.8735 -0.6727
 4079SOL    HW223697   2.736   2.885   6.078 -0.1060  0.4989  0.2357
 4080SOL     OW23698   4.032   3.873   1.137  0.1061 -0.4271 -0.4670
 4080SOL    HW123699   3.937   3.880   1.141  0.0248  0.2173 -3.1746
 4080SOL    HW223700   4.047   3.778   1.134 -0.9598 -0.5497 -1.7590
 4081SOL     OW23701   1.879   2.336   5.429  0.9463  0.3436 -0.0142
 4081SOL    HW123702   1.808   2.398   5.408 -0.6429 -1.3544  0.3045
 4081SOL    HW223703   1.950   2.399   5.437 -1.1946  2.4493  2.6349
 4082SOL     OW23704   3.509   1.455   5.788 -0.0683  0.6131  0.2938
 4082SOL    HW123705   3.527   1.361   5.790 -0.1183  0.6109  0.5732
 4082SOL    HW223706   3.511   1.478   5.695  0.0852  2.4555  0.7443
 4083SOL     OW23707   0.255   3.928   6.183 -0.1726 -0.7136 -0.2944
 4083SOL    HW123708   0.271   3.940   6.276  1.0925 -0.0321 -0.6016
 4083SOL    HW223709   0.187   3.861   6.185 -1.0607  0.2345  1.2331
 4084SOL     OW23710   4.658   0.521  12.907  0.2877 -0.2285  0.3666
 4084SOL    HW123711   0.026   0.499  12.887  0.6263  0.6604  0.9285
 4084SOL    HW223712   4.615   0.472  12.837  0.4392 -2.0537  1.5576
 4085SOL     OW23713   3.724   0.678  11.392  0.2467 -0.2253 -0.3453
 4085SOL    HW123714   3.732   0.699  11.299  1.4510 -1.7375 -0.5888
 4085SOL    HW223715   3.664   0.745  11.425  0.7586  0.7601 -1.4437
 4086SOL     OW23716   3.297   0.680   0.616 -0.0553  0.4761 -0.0255
 4086SOL    HW123717   3.310   0.765   0.573 -0.2789 -0.4324 -1.8868
 4086SOL    HW223718   3.211   0.699   0.655 -0.5355 -2.3034  0.2879
 4087SOL     OW23719   2.152   1.817   6.505  0.5802 -0.2186  0.1025
 4087SOL    HW123720   2.213   1.747   6.525  0.4188 -0.0320  1.3076
 4087SOL    HW223721   2.199   1.881   6.560 -0.4033  3.4346 -3.2853
 4088SOL     OW23722   0.580   0.112  10.840 -0.5767 -0.3803 -0.4709
 4088SOL    HW123723   0.619   0.028  10.816  0.8377  0.7778 -2.2574
 4088SOL    HW223724   0.491   0.085  10.862 -1.2984  0.6504 -2.1547
 4089SOL     OW23725   2.167   0.026   8.375  0.1778 -0.0306 -0.1183
 4089SOL    HW123726   2.116   4.670   8.360 -0.0303 -0.0864  0.8816
 4089SOL    HW223727   2.140   0.093   8.312  2.1570 -0.8814 -1.8765
 4090SOL     OW23728   0.131   0.229   9.716 -0.1220  0.0027  0.1589
 4090SOL    HW123729   0.221   0.217   9.746 -0.4440  1.3087  1.6281
 4090SOL    HW223730   0.103   0.314   9.748  2.7548  0.1916  2.1269
 4091SOL     OW23731   1.112   3.567   2.581 -0.1149 -0.2457 -0.3587
 4091SOL    HW123732   1.156   3.626   2.642 -2.4155  1.9306 -0.8083
 4091SOL    HW223733   1.074   3.495   2.633 -0.8107 -0.0502 -0.5926
 4092SOL     OW23734   4.440   0.187   4.696  0.3919  0.0183  0.0853
 4092SOL    HW123735   4.426   0.275   4.731 -1.6094 -0.0461 -0.5325
 4092SOL    HW223736   4.352   0.167   4.663  1.0548 -1.1442 -0.9257
 4093SOL     OW23737   0.120   3.095   7.209 -0.2610  0.0269 -0.1114
 4093SOL    HW123738   0.038   3.082   7.161 -0.3786  0.6629 -0.0734
 4093SOL    HW223739   0.139   3.184   7.180 -0.9602  0.0924 -0.3658
 4094SOL     OW23740   4.085   3.502   2.147 -0.4504 -0.3550 -0.3174
 4094SOL    HW123741   4.057   3.550   2.069 -1.6471  0.0619  0.3581
 4094SOL    HW223742   4.164   3.460   2.113 -0.9105 -0.6209 -1.0868
 4095SOL     OW23743   0.658   2.236   2.523  0.0758  0.5002  0.0044
 4095SOL    HW123744   0.709   2.200   2.451  0.6131 -1.4095  1.3648
 4095SOL    HW223745   0.614   2.155   2.549  4.2017 -0.9994  2.3240
 4096SOL     OW23746   1.604   4.394  10.267 -0.2885 -0.2397  0.2068
 4096SOL    HW123747   1.637   4.304  10.270  0.3966  0.0705  1.6036
 4096SOL    HW223748   1.591   4.404  10.172 -0.7730 -0.9340  0.2014
 4097SOL     OW23749   0.788   3.518  15.614  0.5064 -0.2272  0.5409
 4097SOL    HW123750   0.794   3.608  15.647 -0.4811 -0.4643  1.3812
 4097SOL    HW223751   0.699   3.527  15.579  0.6327  0.2448  0.3316
 4098SOL     OW23752   2.104   3.751   0.383  0.4901  0.0685 -0.1454
 4098SOL    HW123753   2.197   3.729   0.389  0.1357 -1.3009  0.3241
 4098SOL    HW223754   2.082   3.742   0.290  2.6828  2.0755 -0.8574
 4099SOL     OW23755   2.198   1.692  12.288 -0.3380 -0.1979  0.2640
 4099SOL    HW123756   2.226   1.668  12.200  1.0572 -0.9333  0.9144
 4099SOL    HW223757   2.144   1.619  12.320  1.5094 -1.0814  1.3157
 4100SOL     OW23758   4.290   3.724   8.454 -0.6639 -0.3583 -0.5321
 4100SOL    HW123759   4.282   3.766   8.539  0.2712 -2.8244  0.7865
 4100SOL    HW223760   4.378   3.761   8.447  0.0979 -2.1301 -0.3974
 4101SOL     OW23761   4.191   3.397  16.701  0.5654  0.3273 -0.1278
 4101SOL    HW123762   4.183   3.492  16.716  2.3983  0.1160  2.2609
 4101SOL    HW223763   4.103   3.367  16.682  0.4294  0.4656  0.2857
 4102SOL     OW23764   3.341   0.164   3.884 -0.5583  0.2221  0.3831
 4102SOL    HW123765   3.261   0.133   3.924 -0.9224 -0.1345 -0.6149
 4102SOL    HW223766   3.402   0.117   3.940 -0.5106 -0.0915  0.0659
 4103SOL     OW23767   0.636   3.616   6.403  0.3516 -0.0260  0.2815
 4103SOL    HW123768   0.685   3.535   6.418  1.5216  0.4900 -0.7804
 4103SOL    HW223769   0.616   3.647   6.492 -2.4033  0.6173 -0.5751
 4104SOL     OW23770   3.242   1.272   3.570 -0.9246  0.4273  0.0659
 4104SOL    HW123771   3.170   1.222   3.608 -0.3068  0.2954  1.0544
 4104SOL    HW223772   3.205   1.359   3.557  1.9058  1.5183 -0.6509
 4105SOL     OW23773   0.872   3.547   3.085 -0.1144  0.1591  0.6532
 4105SOL    HW123774   0.941   3.484   3.065  0.5193  0.2312  2.5801
 4105SOL    HW223775   0.797   3.498   3.052 -0.2708 -0.1600  1.4821
 4106SOL     OW23776   1.909   1.193   8.910 -0.1925  0.2500 -0.5703
 4106SOL    HW123777   1.964   1.157   8.980 -0.1693 -0.9413 -1.2038
 4106SOL    HW223778   1.956   1.275   8.891 -1.6057  0.9003 -1.2782
 4107SOL     OW23779   0.092   0.636   6.909  0.8052 -0.2821 -0.1809
 4107SOL    HW123780   0.024   0.619   6.844 -1.5222  2.0596  1.6767
 4107SOL    HW223781   0.048   0.678   6.982  1.1350  1.3618 -0.9296
 4108SOL     OW23782   0.831   2.398   2.711  0.2573 -0.1352 -0.3529
 4108SOL    HW123783   0.803   2.332   2.648  1.8400 -1.4774  0.3753
 4108SOL    HW223784   0.748   2.434   2.743  0.7620  1.3510 -0.7106
 4109SOL     OW23785   2.863   3.139  11.020  0.0064  0.3121  0.7321
 4109SOL    HW123786   2.884   3.161  11.111  0.6334  0.7557  0.4865
 4109SOL    HW223787   2.786   3.189  10.992 -0.0642 -0.6828 -0.8367
 4110SOL     OW23788   1.219   0.443   5.728  0.4883 -0.3664  0.8200
 4110SOL    HW123789   1.225   0.364   5.675  1.1771  0.3079 -0.1206
 4110SOL    HW223790   1.131   0.439   5.766  0.1654 -0.4540  0.0647
 4111SOL     OW23791   4.337   2.548   5.823 -0.3703  0.3570 -0.0736
 4111SOL    HW123792   4.286   2.564   5.744  0.9117 -0.0325 -0.9870
 4111SOL    HW223793   4.356   2.454   5.814  3.8996  0.9334  2.8674
 4112SOL     OW23794   2.554   2.653   4.344 -0.4188 -0.0810  0.0851
 4112SOL    HW123795   2.636   2.698   4.366 -0.5688 -0.0710  0.6103
 4112SOL    HW223796   2.566   2.560   4.366 -3.6156 -0.2946  0.9309
 4113SOL     OW23797   4.113   0.675   3.966  0.6128 -0.1806 -0.0363
 4113SOL    HW123798   4.139   0.617   4.038 -2.0598 -0.1816  0.9090
 4113SOL    HW223799   4.175   0.746   3.980  0.2071  0.2339 -0.3298
 4114SOL     OW23800   0.222   4.264  13.365  0.2673  0.0053  0.0791
 4114SOL    HW123801   0.168   4.197  13.408  0.7229 -0.6076 -0.2986
 4114SOL    HW223802   0.190   4.260  13.275 -1.5609 -0.8963  0.7517
 4115SOL     OW23803   3.486   3.083   8.534  0.3240 -0.1821 -0.0990
 4115SOL    HW123804   3.451   3.043   8.455 -0.0139 -1.3492  0.6503
 4115SOL    HW223805   3.517   3.007   8.583  0.4901 -0.1140 -0.0970
 4116SOL     OW23806   2.839   0.897  17.407  0.8760  0.6058  0.0760
 4116SOL    HW123807   2.805   0.952  17.477  0.3631  2.0040 -1.2863
 4116SOL    HW223808   2.930   0.925  17.402  0.6913  1.1561 -0.1157
 4117SOL     OW23809   0.527   0.677   3.402  0.4369  0.4307  0.1353
 4117SOL    HW123810   0.611   0.673   3.448  0.9244 -0.6513 -0.8512
 4117SOL    HW223811   0.523   0.586   3.374  3.1933  0.0506  0.9467
 4118SOL     OW23812   3.274   2.070   0.672  0.4887 -0.3220  0.3633
 4118SOL    HW123813   3.275   2.121   0.753 -0.7586  0.4222 -0.0838
 4118SOL    HW223814   3.199   2.113   0.631  0.8061 -0.8001 -0.7149
 4119SOL     OW23815   0.900   2.702   7.753  0.1164  0.4193 -0.3954
 4119SOL    HW123816   0.865   2.613   7.750 -3.3793  1.7833  0.3240
 4119SOL    HW223817   0.994   2.684   7.759 -0.1765 -0.6922  1.1488
 4120SOL     OW23818   2.970   2.222   2.184  0.0109  0.1001 -0.1069
 4120SOL    HW123819   3.053   2.195   2.144  0.1881 -1.7756  1.5346
 4120SOL    HW223820   2.921   2.141   2.169 -1.4355  0.9706  0.0024
 4121SOL     OW23821   4.044   4.177   5.343 -0.1985 -0.1883  0.4556
 4121SOL    HW123822   3.966   4.165   5.397 -0.0801 -1.2974  0.3704
 4121SOL    HW223823   4.091   4.246   5.391  1.2949  1.0378 -2.7119
 4122SOL     OW23824   2.921   0.184   3.467 -0.0514  0.0764 -0.0183
 4122SOL    HW123825   2.840   0.134   3.453 -0.5969  1.4383 -1.6900
 4122SOL    HW223826   2.951   0.199   3.378 -0.3855 -1.7814 -0.4280
 4123SOL     OW23827   3.011   4.370   1.900  0.3966 -0.0914  0.0461
 4123SOL    HW123828   3.058   4.315   1.836  2.1141 -0.3920  1.5709
 4123SOL    HW223829   2.919   4.351   1.880  0.8754  0.2289 -2.5111
 4124SOL     OW23830   4.280   4.330   2.842  0.0380  0.3180  0.0259
 4124SOL    HW123831   4.309   4.258   2.787 -1.0476 -1.4464  1.7642
 4124SOL    HW223832   4.364   4.368   2.869 -0.3713  1.9446 -1.0030
 4125SOL     OW23833   4.031   0.766  15.662  0.7243  0.2083 -0.1132
 4125SOL    HW123834   4.079   0.780  15.744  0.5588 -1.1397  0.2066
 4125SOL    HW223835   4.081   0.696  15.620 -1.4923 -0.9611 -0.8003
 4126SOL     OW23836   3.968   3.238   7.014  0.5579 -0.1366  0.4671
 4126SOL    HW123837   3.968   3.334   7.012  1.8454 -0.1160  1.8415
 4126SOL    HW223838   4.061   3.221   7.000  0.5773 -0.6996  1.2727
 4127SOL     OW23839   1.051   1.236   3.629  0.5121  0.3172  0.1451
 4127SOL    HW123840   1.133   1.209   3.588  0.7553  0.3797  0.5871
 4127SOL    HW223841   0.983   1.230   3.561 -1.1686 -0.6935  1.9041
 4128SOL     OW23842   1.496   1.194   2.553 -0.1242 -0.3692  0.7270
 4128SOL    HW123843   1.487   1.252   2.629 -1.1678  1.3123 -0.6691
 4128SOL    HW223844   1.517   1.252   2.480 -1.3842 -2.9690 -1.6903
 4129SOL     OW23845   1.821   1.351   3.516 -0.3400 -0.6857 -0.0672
 4129SOL    HW123846   1.868   1.401   3.449 -3.4674  0.5458 -1.3510
 4129SOL    HW223847   1.882   1.362   3.589  0.3338 -1.6974 -0.4731
 4130SOL     OW23848   4.012   0.919   2.114  0.0673  0.4147  0.2143
 4130SOL    HW123849   3.953   0.844   2.104 -0.3242  0.4474  2.1656
 4130SOL    HW223850   4.060   0.883   2.189 -0.2285 -1.3007 -0.4112
 4131SOL     OW23851   3.515   2.531   1.278 -0.2474  0.3704  0.2960
 4131SOL    HW123852   3.595   2.501   1.322 -0.4188  0.8984  0.9648
 4131SOL    HW223853   3.504   2.623   1.302 -2.3727  0.5328 -1.2727
 4132SOL     OW23854   2.425   0.319   0.091  0.3803  0.1419  0.9113
 4132SOL    HW123855   2.510   0.322   0.134 -0.2131  0.3639  2.0781
 4132SOL    HW223856   2.400   0.229   0.112  0.2666 -0.7581 -3.1788
 4133SOL     OW23857   0.537   3.027   8.963 -0.3340 -0.1620  0.4149
 4133SOL    HW123858   0.443   3.042   8.961 -0.7331 -2.7436 -1.3976
 4133SOL    HW223859   0.547   2.974   9.042 -0.7052  0.3915  0.8303
 4134SOL     OW23860   1.913   0.907  10.296  0.1220 -0.4085 -0.1274
 4134SOL    HW123861   1.863   0.906  10.378 -0.3495 -2.7684 -0.4463
 4134SOL    HW223862   1.967   0.986  10.300  0.9517 -0.9753  0.1108
 4135SOL     OW23863   2.335   4.516   0.095 -0.2958  0.3842 -0.0650
 4135SOL    HW123864   2.362   4.550   0.009 -2.5715  1.9259 -0.1876
 4135SOL    HW223865   2.361   4.582   0.159 -1.6112 -1.7825  2.6725
 4136SOL     OW23866   3.882   2.522   4.108  0.0321 -0.5911 -0.2832
 4136SOL    HW123867   3.888   2.436   4.150 -2.5020 -0.9230 -0.5909
 4136SOL    HW223868   3.900   2.496   4.017 -1.8308 -0.7834 -0.5992
 4137SOL     OW23869   0.880   1.466  15.645 -0.4064  0.0155 -0.0022
 4137SOL    HW123870   0.946   1.532  15.625  1.3858 -1.3715  1.2697
 4137SOL    HW223871   0.883   1.413  15.565 -1.9291 -0.3255  0.1536
 4138SOL     OW23872   0.169   2.870   9.666  0.3839  0.2745 -0.2364
 4138SOL    HW123873   0.179   2.961   9.638  0.8184 -0.0348 -1.1121
 4138SOL    HW223874   0.117   2.878   9.746  2.4630  1.9842  0.9513
 4139SOL     OW23875   3.049   2.291   4.403  0.1638 -0.2965  0.6685
 4139SOL    HW123876   3.142   2.271   4.412  0.0543 -0.6373  1.0480
 4139SOL    HW223877   3.027   2.211   4.355  1.1301  0.1843 -0.5655
 4140SOL     OW23878   0.550   2.342   4.554  0.7859 -0.3748 -0.6773
 4140SOL    HW123879   0.514   2.277   4.615 -0.5618  0.6663 -0.3517
 4140SOL    HW223880   0.620   2.380   4.606 -0.2730  2.2924 -1.1954
 4141SOL     OW23881   0.923   3.942   2.842 -0.3915  0.4954  0.1769
 4141SOL    HW123882   0.969   3.981   2.768  0.8060  1.5311  1.4563
 4141SOL    HW223883   0.835   3.974   2.821 -1.5446 -1.8668  1.4648
 4142SOL     OW23884   2.983   1.412  17.461 -0.1202  0.1669  0.5243
 4142SOL    HW123885   2.891   1.420  17.436 -0.2380 -0.3591  0.7950
 4142SOL    HW223886   3.005   1.368  17.379 -2.2219  1.7157 -0.8712
 4143SOL     OW23887   4.152   3.561   9.446 -0.4205  0.8540 -0.1281
 4143SOL    HW123888   4.201   3.511   9.382  0.1603  1.8423 -0.4565
 4143SOL    HW223889   4.072   3.509   9.435  0.1375 -0.2028  0.8773
 4144SOL     OW23890   0.021   1.284   1.734 -1.0716 -0.9380  0.4768
 4144SOL    HW123891   0.067   1.360   1.772 -1.3821 -2.1119  3.2195
 4144SOL    HW223892   0.020   1.308   1.642  0.6684 -2.7929  0.0033
 4145SOL     OW23893   3.698   0.104   8.787 -0.0571  0.2293 -0.0918
 4145SOL    HW123894   3.729   0.073   8.702  1.0880 -2.3043  1.2563
 4145SOL    HW223895   3.779   0.099   8.838  1.0398  1.2196 -1.7685
 4146SOL     OW23896   4.283   3.991   7.006  0.0532 -0.3531  0.0630
 4146SOL    HW123897   4.363   3.987   6.954  1.1388 -0.1819  1.7036
 4146SOL    HW223898   4.264   3.898   7.019 -0.1786 -0.2033  0.8051
 4147SOL     OW23899   4.642   3.403   4.327 -0.3859 -0.1034 -0.1219
 4147SOL    HW123900   4.685   3.434   4.248 -0.5389  1.2735  0.3368
 4147SOL    HW223901   4.551   3.431   4.312 -0.9107 -1.4691  0.4347
 4148SOL     OW23902   1.100   1.038   2.264  0.5793  0.0029  0.3414
 4148SOL    HW123903   1.133   1.118   2.224 -1.7272 -0.2938 -2.1393
 4148SOL    HW223904   1.007   1.059   2.267  0.4955  0.0428 -2.4338
 4149SOL     OW23905   3.376   1.521   1.012  0.3541  0.2736 -0.3006
 4149SOL    HW123906   3.470   1.531   1.028 -0.1042  1.2737  1.7531
 4149SOL    HW223907   3.382   1.489   0.922 -3.8023 -2.9564  0.5809
 4150SOL     OW23908   3.625   0.535   5.043 -0.5190  0.3847 -0.3455
 4150SOL    HW123909   3.615   0.622   5.084  1.1594 -0.3076  1.5238
 4150SOL    HW223910   3.633   0.566   4.953 -0.1481  0.2718 -0.3524
 4151SOL     OW23911   0.129   3.664   3.776 -0.2603 -0.5264  0.0798
 4151SOL    HW123912   0.085   3.611   3.710  0.3564 -0.7419 -0.1604
 4151SOL    HW223913   0.198   3.609   3.815  0.0220 -2.0527 -2.5355
 4152SOL     OW23914   4.321   0.958   9.119 -0.2449 -0.6781  0.1750
 4152SOL    HW123915   4.273   0.938   9.199  0.5728  0.6429  0.9985
 4152SOL    HW223916   4.268   0.909   9.057 -1.0538 -1.4903  1.5149
 4153SOL     OW23917   1.538   1.875   5.881 -0.5152  0.4266  0.2349
 4153SOL    HW123918   1.507   1.784   5.880  0.8776 -0.0209 -1.5778
 4153SOL    HW223919   1.520   1.890   5.788  0.0164 -1.2872 -0.1453
 4154SOL     OW23920   2.989   0.435  10.402 -0.1468 -0.3890  0.6111
 4154SOL    HW123921   2.921   0.393  10.455 -0.9439  1.7486  1.2913
 4154SOL    HW223922   3.034   0.354  10.378 -1.1053 -0.9911  0.8705
 4155SOL     OW23923   1.903   2.635   5.210  0.0749 -0.5628  0.2074
 4155SOL    HW123924   1.962   2.580   5.261  1.4867  0.4860 -0.2737
 4155SOL    HW223925   1.973   2.695   5.184  0.1147 -0.3434  0.8318
 4156SOL     OW23926   4.074   0.327   3.348 -0.3999  0.3671 -0.1055
 4156SOL    HW123927   4.132   0.251   3.359 -1.4066 -0.2815  0.6749
 4156SOL    HW223928   4.039   0.342   3.436 -2.1563  0.3884 -0.8134
 4157SOL     OW23929   1.144   1.240   3.015  0.4449  0.6121  0.3667
 4157SOL    HW123930   1.101   1.271   2.935 -2.4008  0.5417  1.8521
 4157SOL    HW223931   1.224   1.291   3.020 -0.0931  1.5063 -0.0482
 4158SOL     OW23932   2.015   1.509   3.355 -0.0529 -0.0285 -0.0529
 4158SOL    HW123933   2.052   1.527   3.269 -1.3866 -0.5808 -0.7377
 4158SOL    HW223934   2.098   1.513   3.402  0.8008 -1.6739 -1.4163
 4159SOL     OW23935   3.662   0.165   7.000 -0.2729 -0.1051 -0.4323
 4159SOL    HW123936   3.736   0.213   7.036  0.1880 -2.2793  1.4890
 4159SOL    HW223937   3.590   0.228   6.992 -0.8554 -0.7182 -0.0639
 4160SOL     OW23938   1.828   2.876   8.109 -0.6513  0.3440  0.3946
 4160SOL    HW123939   1.896   2.932   8.148 -1.0096 -0.0793  1.6505
 4160SOL    HW223940   1.869   2.830   8.036  0.8422  1.8842  0.2540
 4161SOL     OW23941   1.949   1.108   7.991 -0.3184 -0.5836 -0.2357
 4161SOL    HW123942   1.929   1.108   8.085  1.9318 -0.2827  0.2401
 4161SOL    HW223943   1.883   1.043   7.967 -1.6538  1.1542 -1.2411
 4162SOL     OW23944   3.093   1.134   3.128 -0.3599  0.0333 -0.1660
 4162SOL    HW123945   3.040   1.061   3.159 -0.3795  0.1619  0.1048
 4162SOL    HW223946   3.122   1.106   3.042  1.0198  0.1851  0.2473
 4163SOL     OW23947   3.242   3.640   2.492 -0.8383 -0.4622 -0.3919
 4163SOL    HW123948   3.204   3.554   2.506  0.8581 -1.0098  0.8658
 4163SOL    HW223949   3.335   3.615   2.493 -0.3285  1.3683 -0.3252
 4164SOL     OW23950   1.779   2.233   8.618 -0.3208  0.5913  0.3938
 4164SOL    HW123951   1.694   2.277   8.612 -0.2913  0.7772  1.3826
 4164SOL    HW223952   1.757   2.146   8.586 -0.6801  0.3090  1.4370
 4165SOL     OW23953   0.824   4.175  15.490 -0.0498  0.3418 -0.2069
 4165SOL    HW123954   0.821   4.100  15.548 -0.3948  1.1203  0.7714
 4165SOL    HW223955   0.869   4.243  15.540  0.9158  0.6448 -1.4767
 4166SOL     OW23956   2.251   0.476  17.322 -0.2979  0.1937  0.5690
 4166SOL    HW123957   2.330   0.423  17.329  0.0493  0.8505  1.6050
 4166SOL    HW223958   2.259   0.521  17.238 -2.1581  0.7619  0.6986
 4167SOL     OW23959   4.360   2.730   3.938 -0.1649 -0.6148 -0.2416
 4167SOL    HW123960   4.430   2.667   3.920 -0.4813 -1.6046  1.9717
 4167SOL    HW223961   4.308   2.690   4.008  0.5353 -1.1593 -0.0357
 4168SOL     OW23962   0.232   2.220  12.033 -0.0533 -0.0432  0.4593
 4168SOL    HW123963   0.303   2.267  11.989  0.7567 -0.2531  1.5176
 4168SOL    HW223964   0.279   2.140  12.059 -0.0837 -0.5656 -1.0645
 4169SOL     OW23965   4.201   2.448   2.257 -0.0908 -0.5808 -0.0448
 4169SOL    HW123966   4.244   2.369   2.225  1.4326 -0.7150  2.3676
 4169SOL    HW223967   4.152   2.406   2.327 -0.3102  2.0122  1.3786
 4170SOL     OW23968   2.685   0.034   3.706 -0.2749  0.2009 -0.3526
 4170SOL    HW123969   2.671   4.711   3.788  1.4567  0.8962  0.3532
 4170SOL    HW223970   2.735   0.111   3.735 -1.3068  0.2142  1.3570
 4171SOL     OW23971   0.083   1.102   0.368  0.8674 -0.1375 -0.1758
 4171SOL    HW123972   0.149   1.153   0.416  0.8219  2.2431 -2.6693
 4171SOL    HW223973   0.004   1.156   0.377  0.8363  0.0336 -1.6029
 4172SOL     OW23974   3.269   1.473  10.950 -0.0022 -0.2379 -0.1493
 4172SOL    HW123975   3.314   1.438  11.026 -2.9918 -1.0474  1.2667
 4172SOL    HW223976   3.210   1.397  10.942 -0.5468  0.1693 -0.0220
 4173SOL     OW23977   0.296   2.662   4.938 -0.1491 -0.3206  0.0552
 4173SOL    HW123978   0.366   2.662   4.874 -0.4535 -1.6308 -0.2763
 4173SOL    HW223979   0.272   2.572   4.916 -0.4625 -0.3800  0.6318
 4174SOL     OW23980   3.856   2.378   3.594  0.5013 -0.1185  0.4387
 4174SOL    HW123981   3.922   2.378   3.524 -0.6615 -0.1369 -0.6596
 4174SOL    HW223982   3.818   2.464   3.577 -1.8875 -1.6166 -1.7705
 4175SOL     OW23983   1.535   0.600   8.046  0.0241  0.4184 -0.2028
 4175SOL    HW123984   1.466   0.579   8.110  0.8439 -0.2222  0.4694
 4175SOL    HW223985   1.612   0.557   8.083 -1.5983 -4.1400 -2.1372
 4176SOL     OW23986   1.483   4.083   2.348  0.0371 -0.1497  0.6276
 4176SOL    HW123987   1.423   4.034   2.405 -0.6812 -0.9492 -0.8209
 4176SOL    HW223988   1.492   4.168   2.390  1.6746 -0.3539  0.6999
 4177SOL     OW23989   3.962   0.818   6.422 -0.3337 -0.3207 -0.2739
 4177SOL    HW123990   3.892   0.799   6.359 -0.3456  1.0433 -0.6761
 4177SOL    HW223991   3.936   0.894   6.475  1.9819 -0.2477  0.7351
 4178SOL     OW23992   2.064   3.739   8.620 -0.1201  0.3001 -0.2358
 4178SOL    HW123993   2.157   3.749   8.598  0.4264 -1.7490  1.1047
 4178SOL    HW223994   2.057   3.806   8.688  0.9686 -2.2900  2.4632
 4179SOL     OW23995   0.271   2.728   7.269 -0.4874 -0.6256 -0.0088
 4179SOL    HW123996   0.203   2.771   7.319 -0.8413 -1.6671  0.4104
 4179SOL    HW223997   0.280   2.782   7.191 -1.4573 -0.2069  0.1748
 4180SOL     OW23998   0.312   4.338  11.750  0.5197  0.3385 -0.2859
 4180SOL    HW123999   0.270   4.266  11.795  3.6555 -0.6489  1.0611
 4180SOL    HW224000   0.395   4.291  11.744  0.3481  0.0901 -0.7470
 4181SOL     OW24001   0.136   0.106   5.790  0.3786  0.3960  0.0612
 4181SOL    HW124002   0.102   0.018   5.809 -0.0923  0.2662 -1.3803
 4181SOL    HW224003   0.187   0.112   5.871  1.6988  0.7378 -0.7934
 4182SOL     OW24004   4.609   1.340   2.505 -0.4160  0.5440 -0.6516
 4182SOL    HW124005   4.526   1.382   2.529 -0.4346 -0.5645  1.2276
 4182SOL    HW224006   4.653   1.415   2.466  2.5365  0.4451  2.4558
 4183SOL     OW24007   0.611   2.680   0.727  0.2833 -0.4664 -0.2646
 4183SOL    HW124008   0.660   2.720   0.799 -0.9159 -0.6246  0.6381
 4183SOL    HW224009   0.597   2.589   0.753  0.3868  0.3080  2.4922
 4184SOL     OW24010   0.499   0.092   6.268 -0.0720  0.4939  0.6948
 4184SOL    HW124011   0.509   0.015   6.324  1.4574  0.7342  0.7540
 4184SOL    HW224012   0.539   0.156   6.327  1.9182  1.1320 -1.3375
 4185SOL     OW24013   4.562   0.373   1.008 -0.0359 -0.2664 -0.3951
 4185SOL    HW124014   4.493   0.308   1.000  0.7413 -1.5402  2.9911
 4185SOL    HW224015   4.605   0.351   1.091 -1.7651 -1.3781  0.2066
 4186SOL     OW24016   2.636   3.331   6.854 -0.1059  0.5412 -0.1543
 4186SOL    HW124017   2.568   3.317   6.920  0.1369  2.1021  0.4327
 4186SOL    HW224018   2.584   3.376   6.787  1.2113 -0.5918 -1.9286
 4187SOL     OW24019   1.804   4.293   6.328  0.2648  0.3646  0.1353
 4187SOL    HW124020   1.855   4.295   6.410 -1.3842  3.0706  1.0744
 4187SOL    HW224021   1.734   4.239   6.364 -1.0257  0.9871 -1.4747
 4188SOL     OW24022   1.161   0.622  15.300  0.2489  0.7353 -0.6049
 4188SOL    HW124023   1.233   0.594  15.356 -1.1358 -0.8294  0.3993
 4188SOL    HW224024   1.191   0.713  15.299 -0.4049  0.9506 -0.5222
 4189SOL     OW24025   1.528   3.961   2.699 -0.3794 -0.2932  0.5330
 4189SOL    HW124026   1.613   4.006   2.693 -1.0188  1.2224  2.8823
 4189SOL    HW224027   1.489   3.985   2.783  0.6976 -0.4653  1.0897
 4190SOL     OW24028   4.541   1.995   3.113  0.2959  0.1379 -0.1542
 4190SOL    HW124029   4.584   2.028   3.192  2.2180 -0.0265 -1.1335
 4190SOL    HW224030   4.510   2.079   3.080  1.1427  0.6173  0.2604
 4191SOL     OW24031   0.032   2.694  14.441  0.2107 -0.2861  0.0030
 4191SOL    HW124032   0.069   2.685  14.529  4.4890  4.0568 -1.3571
 4191SOL    HW224033   4.705   2.774  14.451 -1.7617 -1.5752  0.5265
 4192SOL     OW24034   2.754   1.639   5.419  0.1377 -0.4317 -0.7562
 4192SOL    HW124035   2.740   1.644   5.514  1.1351  0.3102 -0.6529
 4192SOL    HW224036   2.847   1.614   5.422  0.0554 -0.6061  0.5451
 4193SOL     OW24037   0.201   2.623   9.334  0.1280 -0.6607 -0.5669
 4193SOL    HW124038   0.106   2.607   9.332 -0.1686  1.2385 -1.3656
 4193SOL    HW224039   0.228   2.572   9.257 -2.0156 -1.2026 -0.9685
 4194SOL     OW24040   4.151   1.627   5.939  0.1053 -0.0672  0.2550
 4194SOL    HW124041   4.088   1.661   6.002  0.0116 -1.4808  0.9113
 4194SOL    HW224042   4.119   1.652   5.852 -0.3333 -2.0359 -0.1572
 4195SOL     OW24043   0.328   0.084   3.356  0.5745 -0.2050  0.6720
 4195SOL    HW124044   0.391   0.075   3.427  1.0303 -0.5367  0.2271
 4195SOL    HW224045   0.377   0.032   3.292 -0.5512 -0.4012 -0.0215
 4196SOL     OW24046   3.375   0.388   4.122 -0.5280 -0.2499 -0.3831
 4196SOL    HW124047   3.384   0.298   4.154  0.6232  0.1545  0.4047
 4196SOL    HW224048   3.373   0.443   4.201  2.3063  0.1433 -0.6038
 4197SOL     OW24049   1.428   2.331   4.112  0.0217 -0.3895 -0.3593
 4197SOL    HW124050   1.431   2.423   4.083  2.7742 -0.5618 -0.5852
 4197SOL    HW224051   1.374   2.294   4.042 -0.7766 -1.8973  1.0592
 4198SOL     OW24052   0.986   2.994   0.815 -0.4920  0.4497 -0.0810
 4198SOL    HW124053   0.901   3.016   0.853 -0.2170  1.2505  0.0805
 4198SOL    HW224054   1.048   3.031   0.878 -0.6153  0.6721 -0.0909
 4199SOL     OW24055   3.184   1.716   0.334  0.4353  0.1271 -0.4022
 4199SOL    HW124056   3.148   1.640   0.379  0.6735  0.7024  0.7702
 4199SOL    HW224057   3.145   1.712   0.247  0.1751 -1.1487 -0.2270
 4200SOL     OW24058   1.364   3.228   4.055 -0.8851  0.1466 -0.2381
 4200SOL    HW124059   1.316   3.253   3.976 -0.0594 -1.1784 -1.1516
 4200SOL    HW224060   1.331   3.140   4.072 -0.5078  0.3941  1.6940
 4201SOL     OW24061   3.747   2.022   5.112 -0.6389 -0.2930  0.5090
 4201SOL    HW124062   3.747   1.936   5.072  4.0836 -0.0113 -0.1477
 4201SOL    HW224063   3.833   2.036   5.152  0.6937 -1.2788 -2.0308
 4202SOL     OW24064   1.163   2.375  13.505  0.1231 -0.2803 -0.3537
 4202SOL    HW124065   1.136   2.466  13.497  1.9037  0.1272 -1.7802
 4202SOL    HW224066   1.083   2.325  13.489 -0.5462  1.0532 -1.1954
 4203SOL     OW24067   2.429   3.108   6.679 -0.1240 -0.1680 -0.3236
 4203SOL    HW124068   2.380   3.103   6.597 -2.0840  1.3202  0.7450
 4203SOL    HW224069   2.370   3.055   6.732 -2.6005  1.1588 -1.7254
 4204SOL     OW24070   4.260   2.803   5.961  0.6822  0.3156 -0.4750
 4204SOL    HW124071   4.332   2.842   6.010  0.0427  2.1266 -0.9563
 4204SOL    HW224072   4.302   2.786   5.877  0.5666  0.7474 -0.6208
 4205SOL     OW24073   3.423   3.389   7.496 -0.1221 -0.5374 -0.3950
 4205SOL    HW124074   3.511   3.425   7.482  0.4313 -1.4657  0.7213
 4205SOL    HW224075   3.413   3.403   7.590 -0.1180  0.0993 -0.4893
 4206SOL     OW24076   1.119   3.046  13.541 -0.2519  0.5135 -0.1809
 4206SOL    HW124077   1.136   3.090  13.625  1.6924 -0.4823 -0.0489
 4206SOL    HW224078   1.189   3.087  13.489  1.6284 -0.2745  1.6985
 4207SOL     OW24079   0.256   3.533   5.593 -0.5739  0.1963  0.2300
 4207SOL    HW124080   0.344   3.515   5.562 -0.6363  0.5936 -0.1775
 4207SOL    HW224081   0.226   3.592   5.524 -0.3066  0.2764  0.1813
 4208SOL     OW24082   3.690   2.092  17.658  0.2815  0.4874  0.1526
 4208SOL    HW124083   3.776   2.133  17.664  0.1833  0.9832 -1.7177
 4208SOL    HW224084   3.657   2.159  17.599 -0.2208 -0.5069 -0.6958
 4209SOL     OW24085   3.040   4.684   7.505  0.2431  0.7922 -0.1986
 4209SOL    HW124086   3.081   0.014   7.573 -1.0179  1.4829  0.0262
 4209SOL    HW224087   3.000   0.031   7.452 -1.9022 -0.2578  0.0319
 4210SOL     OW24088   0.870   2.978  10.330  0.2274  0.2033  0.5438
 4210SOL    HW124089   0.899   2.941  10.246  2.6430 -1.1563  1.9901
 4210SOL    HW224090   0.956   2.980  10.373  1.3871 -0.4175 -1.7196
 4211SOL     OW24091   4.628   4.676   9.436  0.0336 -0.4708  0.6258
 4211SOL    HW124092   4.643   0.047   9.444 -0.2815 -0.3824  0.1725
 4211SOL    HW224093   4.636   4.664   9.531 -0.8462  0.4436  0.8046
 4212SOL     OW24094   2.942   2.344  15.301 -0.1560 -0.1367 -0.6619
 4212SOL    HW124095   2.908   2.259  15.331 -0.3942 -0.4204 -1.7270
 4212SOL    HW224096   2.959   2.312  15.213  0.0082  0.0535 -0.6988
 4213SOL     OW24097   4.223   0.687   4.614  0.5806  0.5003 -0.3704
 4213SOL    HW124098   4.306   0.706   4.570  0.8082 -0.7036 -0.4651
 4213SOL    HW224099   4.159   0.696   4.544  0.4684  2.2031 -0.0393
 4214SOL     OW24100   3.733   2.349   7.328 -0.1236  0.2678 -0.0205
 4214SOL    HW124101   3.829   2.353   7.330 -0.0224 -0.3569 -4.4781
 4214SOL    HW224102   3.725   2.387   7.241  0.3508 -0.4808 -0.3990
 4215SOL     OW24103   3.903   2.987  11.387 -0.1436  0.3151  0.0672
 4215SOL    HW124104   3.991   3.024  11.388  0.8587 -2.1432  0.2949
 4215SOL    HW224105   3.894   2.930  11.311  1.3412  2.1224 -1.4779
 4216SOL     OW24106   0.884   1.729   6.060 -0.0194 -0.9255  0.7814
 4216SOL    HW124107   0.897   1.726   6.155  0.5913 -0.8356  0.7041
 4216SOL    HW224108   0.967   1.701   6.021  0.2076 -0.9136  1.2486
 4217SOL     OW24109   3.983   1.299   6.589  0.3189  0.4087 -0.5866
 4217SOL    HW124110   4.024   1.303   6.502 -1.3726  0.0384 -1.4038
 4217SOL    HW224111   3.965   1.390   6.613  2.5233  0.6389  0.2501
 4218SOL     OW24112   0.049   2.242  13.082  0.3366  0.0603 -0.6371
 4218SOL    HW124113   0.044   2.175  13.014  1.8027 -0.4458 -0.2279
 4218SOL    HW224114   0.005   2.313  13.035 -1.5384  0.3998  1.5817
 4219SOL     OW24115   2.989   0.327   7.088 -0.5995  0.1586 -0.3791
 4219SOL    HW124116   2.966   0.342   7.180 -2.0359 -1.1161 -0.5365
 4219SOL    HW224117   2.996   0.231   7.083 -0.8960  0.1412 -0.4744
 4220SOL     OW24118   2.384   1.154   3.848  0.2414 -0.3437 -0.3874
 4220SOL    HW124119   2.451   1.108   3.899  2.2718  2.4307 -0.5261
 4220SOL    HW224120   2.313   1.090   3.859  0.3658  0.1569  3.2471
 4221SOL     OW24121   1.967   2.568   6.125  0.7250  0.5232  0.7297
 4221SOL    HW124122   1.920   2.609   6.198  1.1531 -0.4343  1.5537
 4221SOL    HW224123   1.982   2.483   6.166  0.4294  1.2730  2.4081
 4222SOL     OW24124   3.463   1.778  12.793 -0.2593  0.3910 -0.2717
 4222SOL    HW124125   3.551   1.741  12.793  0.1503  1.3665  0.7282
 4222SOL    HW224126   3.482   1.861  12.838  1.6709  0.1116 -0.5782
 4223SOL     OW24127   3.713   2.778  13.434 -0.5690 -0.3668  0.3460
 4223SOL    HW124128   3.667   2.741  13.358 -0.5589  3.0525 -1.3240
 4223SOL    HW224129   3.802   2.752  13.414 -0.5479  0.4031 -0.5440
 4224SOL     OW24130   1.080   0.167   8.558  0.3462 -0.1859 -0.4135
 4224SOL    HW124131   1.000   0.136   8.600 -0.3180 -1.2688 -2.4856
 4224SOL    HW224132   1.050   0.173   8.468 -3.0173 -2.9609  0.4872
 4225SOL     OW24133   3.236   3.053  10.035 -0.6386  0.2483 -0.6425
 4225SOL    HW124134   3.209   3.142  10.013 -0.4512  1.5443  4.3814
 4225SOL    HW224135   3.158   3.030  10.084 -0.4734  1.8962  0.3907
 4226SOL     OW24136   1.037   2.385   1.655 -0.1951  0.1929  0.3508
 4226SOL    HW124137   1.105   2.429   1.603 -0.7766  0.8371  0.1324
 4226SOL    HW224138   1.056   2.300   1.615 -1.1216  0.3943 -0.5450
 4227SOL     OW24139   0.633   3.324   3.641 -0.1841  0.4522  0.4314
 4227SOL    HW124140   0.675   3.410   3.644 -2.5755  1.6110  1.2571
 4227SOL    HW224141   0.555   3.327   3.585 -0.8515  1.1497  1.3869
 4228SOL     OW24142   3.503   1.523   7.395  0.2650  0.3014 -0.3814
 4228SOL    HW124143   3.512   1.608   7.438  0.3273 -0.0694  0.3387
 4228SOL    HW224144   3.468   1.553   7.311 -1.9769  2.1686  1.2235
 4229SOL     OW24145   0.304   0.703   5.275 -0.0084  0.1060  0.0395
 4229SOL    HW124146   0.367   0.631   5.266 -0.4625 -0.2984  0.0961
 4229SOL    HW224147   0.317   0.754   5.195 -0.1784 -0.4350 -0.3333
 4230SOL     OW24148   2.788   3.049   2.615 -0.2449 -0.5669  0.2699
 4230SOL    HW124149   2.713   2.991   2.597  0.3244 -1.6507  1.3985
 4230SOL    HW224150   2.838   3.038   2.534  0.4331 -0.9878  0.7502
 4231SOL     OW24151   3.528   1.235   2.515  0.1140  0.0608 -0.1877
 4231SOL    HW124152   3.487   1.314   2.550 -0.5466 -0.4925  0.2753
 4231SOL    HW224153   3.613   1.236   2.560  0.2963 -0.6515 -0.5153
 4232SOL     OW24154   4.051   0.319   8.135 -0.3319  0.2445  0.1315
 4232SOL    HW124155   3.981   0.304   8.198 -1.1984  3.0983 -0.1494
 4232SOL    HW224156   4.126   0.300   8.191 -0.1448  0.0643 -0.1815
 4233SOL     OW24157   0.635   0.189  16.473 -0.2468 -0.0035 -0.6001
 4233SOL    HW124158   0.646   0.246  16.550  2.8805  0.1289 -1.1186
 4233SOL    HW224159   0.571   0.245  16.429  1.0902  0.9171 -1.3685
 4234SOL     OW24160   2.089   4.194   5.503 -0.1275  0.0155 -0.2597
 4234SOL    HW124161   2.015   4.136   5.521 -1.6469  1.0617 -3.1232
 4234SOL    HW224162   2.086   4.204   5.408  1.1992 -1.9037 -0.5077
 4235SOL     OW24163   3.430   1.973   8.874  0.4145 -0.8059 -0.0573
 4235SOL    HW124164   3.470   1.909   8.816  0.5120  1.9417 -2.9867
 4235SOL    HW224165   3.457   1.944   8.962  0.0970 -0.8281  0.0318
 4236SOL     OW24166   2.311   3.966   7.332 -0.3192 -0.4959 -0.5626
 4236SOL    HW124167   2.309   3.915   7.413 -2.0311 -1.2245 -1.0657
 4236SOL    HW224168   2.228   3.946   7.289 -1.2150  0.3645  0.7861
 4237SOL     OW24169   4.265   2.232   7.094 -0.5701  0.0364 -0.6431
 4237SOL    HW124170   4.284   2.142   7.122  0.0969  0.3143 -0.2120
 4237SOL    HW224171   4.176   2.212   7.065 -0.3556 -0.6394 -0.8495
 4238SOL     OW24172   4.384   0.460   1.225  0.2483 -0.2052  0.7657
 4238SOL    HW124173   4.470   0.419   1.214 -0.9273 -1.5064 -3.5151
 4238SOL    HW224174   4.332   0.386   1.257  1.5266 -0.8660  1.3339
 4239SOL     OW24175   4.616   2.237   8.721  0.6744  0.3003  0.2406
 4239SOL    HW124176   4.571   2.295   8.660  0.7638  2.2117  1.9913
 4239SOL    HW224177   4.701   2.281   8.731  1.7816 -1.4447 -1.5041
 4240SOL     OW24178   3.781   4.569  17.527 -0.0255  0.0718 -0.2827
 4240SOL    HW124179   3.692   4.602  17.514  0.2571  1.0374  0.2337
 4240SOL    HW224180   3.836   4.646  17.540  1.2915 -0.6211 -1.7839
 4241SOL     OW24181   0.745   4.607   0.855 -0.8475 -0.6447 -0.4894
 4241SOL    HW124182   0.781   4.685   0.898  0.4745 -2.3934  1.5768
 4241SOL    HW224183   0.777   4.540   0.914  2.7455  1.8437  0.3877
 4242SOL     OW24184   0.739   0.217  11.826  0.4054  0.2240 -0.0947
 4242SOL    HW124185   0.727   0.300  11.872  1.8484  0.3401  0.0912
 4242SOL    HW224186   0.792   0.175  11.894 -1.9670 -0.3949  1.3837
 4243SOL     OW24187   2.844   0.604  15.097 -0.4926 -0.0650 -0.5648
 4243SOL    HW124188   2.801   0.687  15.077 -2.3297 -0.8947 -0.0216
 4243SOL    HW224189   2.858   0.568  15.009 -1.1630  0.5519 -0.9285
 4244SOL     OW24190   3.030   0.643   3.830 -0.5840  0.4372 -0.2839
 4244SOL    HW124191   3.068   0.558   3.805  1.8630  0.9660  1.7137
 4244SOL    HW224192   3.111   0.686   3.857 -0.5574  0.4035 -0.3097
 4245SOL     OW24193   3.769   2.458   5.172  0.1799 -0.6100  0.0979
 4245SOL    HW124194   3.810   2.408   5.101  0.3825  0.2421 -0.3911
 4245SOL    HW224195   3.811   2.434   5.255  0.7246  0.7052  0.1960
 4246SOL     OW24196   3.587   2.746   5.485  0.2612  0.5514 -0.4260
 4246SOL    HW124197   3.554   2.828   5.450  3.5838  1.7439 -0.7498
 4246SOL    HW224198   3.627   2.782   5.564  0.3414  0.5560 -0.4686
 4247SOL     OW24199   2.189   3.377  11.365 -0.4963  0.1478  0.0072
 4247SOL    HW124200   2.254   3.442  11.339 -0.2846 -1.1351 -2.6762
 4247SOL    HW224201   2.232   3.299  11.329  0.4429  0.3165  0.8060
 4248SOL     OW24202   0.414   3.192   7.319  0.3574 -0.1093 -0.4767
 4248SOL    HW124203   0.496   3.205   7.368 -0.1297  0.8874  0.0801
 4248SOL    HW224204   0.377   3.113   7.358 -1.0252  0.3647 -0.8420
 4249SOL     OW24205   0.055   2.311  11.829  0.0070 -0.2615  0.1235
 4249SOL    HW124206   0.105   2.251  11.885 -0.9239 -1.2001 -0.0461
 4249SOL    HW224207   0.134   2.324  11.778  0.1189  0.0196  0.3724
 4250SOL     OW24208   0.599   1.261   8.748  0.6055 -0.5213 -0.1868
 4250SOL    HW124209   0.686   1.298   8.732  0.6656  0.3850  2.1682
 4250SOL    HW224210   0.590   1.254   8.843 -1.0290  0.1219 -0.2905
 4251SOL     OW24211   1.090   0.132   7.969 -0.0084  0.0722  0.2015
 4251SOL    HW124212   1.119   0.041   7.980  3.0468  0.9637 -0.5982
 4251SOL    HW224213   0.998   0.130   7.996 -0.4771  0.5014 -1.3903
 4252SOL     OW24214   1.082   3.333   2.119 -0.4510  0.2245  0.3765
 4252SOL    HW124215   0.993   3.360   2.095 -0.6418 -1.5436 -0.8743
 4252SOL    HW224216   1.101   3.381   2.200  1.5205  0.8632 -0.4545
 4253SOL     OW24217   0.232   3.534   4.318 -0.6919  0.1979  0.4679
 4253SOL    HW124218   0.201   3.582   4.240 -1.4154 -0.2450  0.4821
 4253SOL    HW224219   0.316   3.577   4.336 -1.4300  1.8038  0.1250
 4254SOL     OW24220   3.930   1.029   9.041 -0.2541 -0.2651 -0.4156
 4254SOL    HW124221   3.959   0.986   9.121  0.6104 -0.4735 -0.8445
 4254SOL    HW224222   3.880   0.961   8.997  0.6503 -1.0705 -0.1811
 4255SOL     OW24223   0.097   4.509  13.430 -0.0536 -0.0230  0.2825
 4255SOL    HW124224   0.169   4.458  13.395 -1.5580 -0.6459 -1.9085
 4255SOL    HW224225   0.038   4.524  13.356 -0.8154  0.2501  0.9373
 4256SOL     OW24226   2.833   0.473   3.873  0.2978  0.2875 -0.7832
 4256SOL    HW124227   2.875   0.557   3.854 -1.5569  1.6942  1.3395
 4256SOL    HW224228   2.896   0.429   3.931 -1.0782  0.5964  0.9374
 4257SOL     OW24229   3.025   1.826  11.832 -0.3043  0.3408 -0.0573
 4257SOL    HW124230   3.087   1.879  11.883 -0.4288 -0.4748  0.9453
 4257SOL    HW224231   2.994   1.775  11.907 -2.1004 -0.0144 -1.0526
 4258SOL     OW24232   0.545   1.680   9.755  0.0000  0.3151  0.5547
 4258SOL    HW124233   0.494   1.758   9.734 -0.5697  0.1722  1.3947
 4258SOL    HW224234   0.490   1.603   9.736 -0.5353  1.0580 -0.9027
 4259SOL     OW24235   3.585   4.201  13.490  0.4564  0.2723 -0.3085
 4259SOL    HW124236   3.578   4.108  13.513 -0.8596  0.4624  0.0443
 4259SOL    HW224237   3.603   4.236  13.577  0.3653 -1.8139  0.5537
 4260SOL     OW24238   1.762   4.081   2.707 -0.3506 -0.5481  0.4259
 4260SOL    HW124239   1.830   4.069   2.641 -0.0252 -1.2160  0.8846
 4260SOL    HW224240   1.731   4.170   2.691  0.7748 -0.1673  0.4274
 4261SOL     OW24241   2.513   3.306  12.210 -0.0484  0.3552  0.2281
 4261SOL    HW124242   2.465   3.356  12.275  0.7880  2.9641 -1.1772
 4261SOL    HW224243   2.589   3.361  12.190 -0.8484  2.1163  1.9834
 4262SOL     OW24244   0.500   3.457  15.540 -0.7327  0.2559  0.0208
 4262SOL    HW124245   0.477   3.519  15.471 -0.0968  0.3912 -0.0673
 4262SOL    HW224246   0.415   3.413  15.550  0.2835 -1.5702  0.5307
 4263SOL     OW24247   0.938   2.663   0.505  0.1460  0.3192  0.0770
 4263SOL    HW124248   0.889   2.581   0.513  1.5408 -0.5504 -0.3139
 4263SOL    HW224249   1.029   2.639   0.524  0.5789  1.4083 -0.6544
 4264SOL     OW24250   1.130   1.829   2.814 -0.6023 -0.3043  0.5588
 4264SOL    HW124251   1.225   1.821   2.824 -0.3757  2.3950  0.4524
 4264SOL    HW224252   1.104   1.846   2.905  1.3345 -1.2193  1.2754
 4265SOL     OW24253   4.430   2.500   5.199 -0.1563 -0.0087  0.4937
 4265SOL    HW124254   4.492   2.542   5.139 -0.3886 -2.9533 -1.8584
 4265SOL    HW224255   4.354   2.484   5.143  0.1054 -1.1473  0.4567
 4266SOL     OW24256   2.649   4.139   7.105 -0.2097 -0.0141  0.5090
 4266SOL    HW124257   2.636   4.089   7.186  1.4413  0.7528  1.2525
 4266SOL    HW224258   2.722   4.091   7.067 -1.4216 -0.1912 -1.5780
 4267SOL     OW24259   2.654   1.029   9.850 -0.4854 -0.4860 -0.0704
 4267SOL    HW124260   2.579   0.977   9.820  0.2077 -2.0212  0.8526
 4267SOL    HW224261   2.709   0.965   9.896  0.0386 -0.2084 -0.3059
 4268SOL     OW24262   4.341   4.681   6.361  0.0349 -0.2176  0.7657
 4268SOL    HW124263   4.416   0.010   6.390 -1.4419  1.4130  1.6232
 4268SOL    HW224264   4.376   4.623   6.293  0.6886  1.7667 -0.6026
 4269SOL     OW24265   0.431   0.347   4.206 -0.1304 -1.1106  0.8754
 4269SOL    HW124266   0.437   0.275   4.143  2.1552 -0.1395 -0.0138
 4269SOL    HW224267   0.358   0.323   4.263 -2.3297 -0.7580 -1.7934
 4270SOL     OW24268   1.939   3.585   3.870  0.1377 -0.3529 -0.0730
 4270SOL    HW124269   1.938   3.675   3.836  0.0239 -0.7515 -1.1061
 4270SOL    HW224270   2.030   3.566   3.893 -0.0969 -1.1288  0.2240
 4271SOL     OW24271   4.207   3.580   8.013 -0.3098 -0.0205 -0.4690
 4271SOL    HW124272   4.265   3.621   7.949 -0.4242 -0.0962 -0.6237
 4271SOL    HW224273   4.153   3.521   7.959 -2.9697  0.3179  1.8108
 4272SOL     OW24274   0.432   0.962  16.815  0.3145 -0.3477  0.2030
 4272SOL    HW124275   0.447   1.028  16.883 -1.4782 -0.6455  0.8900
 4272SOL    HW224276   0.414   1.022  16.743  1.6130 -0.5802 -0.3167
 4273SOL     OW24277   3.789   0.187   2.336  0.4072 -0.0065 -0.1776
 4273SOL    HW124278   3.790   0.166   2.429 -0.2763 -0.6718 -0.3261
 4273SOL    HW224279   3.761   0.279   2.333 -0.0403 -0.1099  1.0458
 4274SOL     OW24280   1.686   3.243   1.444  0.4744  0.1974  0.1383
 4274SOL    HW124281   1.597   3.277   1.452  1.4908  2.4740  1.5580
 4274SOL    HW224282   1.715   3.243   1.536 -2.4970 -0.7808  1.0804
 4275SOL     OW24283   3.975   1.957  12.479  0.7682 -0.0803  0.1108
 4275SOL    HW124284   3.908   2.025  12.479 -1.3830 -2.1726 -1.3635
 4275SOL    HW224285   3.973   1.919  12.391  3.2992 -0.1785  0.0987
 4276SOL     OW24286   2.771   1.924   9.334  0.0840  0.1993  0.1717
 4276SOL    HW124287   2.862   1.950   9.349  0.0775  0.0968  0.3908
 4276SOL    HW224288   2.787   1.836   9.300 -0.4939  0.8099 -1.6745
 4277SOL     OW24289   0.380   3.383   8.456  0.7247  0.6280  0.2937
 4277SOL    HW124290   0.304   3.350   8.408  1.3521 -0.9826  0.3947
 4277SOL    HW224291   0.426   3.306   8.489 -0.7988 -0.4593 -0.1173
 4278SOL     OW24292   0.704   2.316   5.885 -0.0938  0.0872  0.1244
 4278SOL    HW124293   0.730   2.311   5.977 -0.3553  1.2693  0.2528
 4278SOL    HW224294   0.705   2.221   5.870 -1.7626 -0.0304  0.7804
 4279SOL     OW24295   3.113   3.680  16.606 -0.0920 -0.4085 -0.7950
 4279SOL    HW124296   3.206   3.663  16.622 -0.7300 -2.6098  0.5703
 4279SOL    HW224297   3.121   3.699  16.512  0.4671 -2.6385 -1.2082
 4280SOL     OW24298   4.547   1.133   8.480 -0.1010  0.2192  0.0124
 4280SOL    HW124299   4.614   1.158   8.543 -0.1839  2.4757 -0.7598
 4280SOL    HW224300   4.506   1.218   8.463  1.5358  0.6424 -1.8761
 4281SOL     OW24301   4.142   2.428   8.950 -0.3602 -0.0834  0.1266
 4281SOL    HW124302   4.197   2.356   8.979  0.3789 -0.0105 -1.0903
 4281SOL    HW224303   4.059   2.385   8.928 -0.9742  1.4764 -0.6345
 4282SOL     OW24304   1.473   0.874   4.047 -0.2362  0.0549 -0.3880
 4282SOL    HW124305   1.548   0.905   4.097 -0.0075 -0.2875 -0.5174
 4282SOL    HW224306   1.514   0.863   3.961  2.5747 -0.8140  1.0708
 4283SOL     OW24307   2.324   1.485  14.883 -0.1699  0.3865  0.1889
 4283SOL    HW124308   2.364   1.399  14.873 -2.0483 -0.4419 -0.2834
 4283SOL    HW224309   2.402   1.535  14.905  1.2503 -1.8628  0.2415
 4284SOL     OW24310   0.593   3.135  15.549  0.1212 -0.0027 -0.0954
 4284SOL    HW124311   0.566   3.220  15.513 -1.3940 -0.6674 -0.4984
 4284SOL    HW224312   0.512   3.089  15.569 -0.7639  1.1904 -0.9342
 4285SOL     OW24313   3.845   1.059   6.864 -0.4110  0.8518 -0.0917
 4285SOL    HW124314   3.751   1.050   6.851 -0.6740 -0.2904  2.5509
 4285SOL    HW224315   3.847   1.039   6.958  0.1339 -0.9509 -0.4780
 4286SOL     OW24316   1.033   0.840  16.746 -0.8925  0.3364 -0.0265
 4286SOL    HW124317   0.996   0.916  16.701 -0.7036  1.2787  1.4036
 4286SOL    HW224318   1.015   0.863  16.837 -1.8480  2.3330 -0.7371
 4287SOL     OW24319   0.832   0.302  16.294  0.6855 -0.0314  0.0164
 4287SOL    HW124320   0.795   0.242  16.359 -1.4131  0.4218 -0.7248
 4287SOL    HW224321   0.914   0.260  16.270 -0.1357 -0.3430 -2.2688
 4288SOL     OW24322   3.604   1.542   0.087  0.1868  0.0292 -0.5142
 4288SOL    HW124323   3.629   1.516   0.176  1.4890  0.6260 -0.6988
 4288SOL    HW224324   3.636   1.632   0.081  1.2193 -0.2694  0.6454
 4289SOL     OW24325   1.453   1.164   7.277 -0.5613  0.0826 -0.1021
 4289SOL    HW124326   1.491   1.235   7.329 -1.8947 -0.6032  1.8310
 4289SOL    HW224327   1.417   1.210   7.201 -2.3811 -0.5506  0.3679
 4290SOL     OW24328   0.796   0.184   7.327 -0.3451  0.4178 -0.0403
 4290SOL    HW124329   0.757   0.163   7.412 -1.1417  0.2442 -0.4498
 4290SOL    HW224330   0.824   0.275   7.341 -0.4132  0.5126 -0.5182
 4291SOL     OW24331   3.424   0.975   8.357  0.0830  0.6502  0.0361
 4291SOL    HW124332   3.429   0.902   8.296 -2.1970 -0.1160  0.7896
 4291SOL    HW224333   3.366   0.939   8.424  0.9421 -0.6625  0.0641
 4292SOL     OW24334   0.654   0.483   6.702 -0.4839  0.2690  0.3096
 4292SOL    HW124335   0.580   0.541   6.688  0.2408  1.1129 -0.0345
 4292SOL    HW224336   0.687   0.500   6.614  1.0329  1.8172  1.1671
 4293SOL     OW24337   0.553   1.659   8.790  0.3020 -0.3723 -0.4148
 4293SOL    HW124338   0.549   1.753   8.806  0.0137  0.0760 -3.0697
 4293SOL    HW224339   0.517   1.628   8.873 -1.3766  0.2526 -0.9113
 4294SOL     OW24340   0.065   3.468   6.827  0.5590 -0.2906  0.6859
 4294SOL    HW124341   0.004   3.537   6.800 -0.7633 -1.1480  1.5383
 4294SOL    HW224342   0.150   3.509   6.812  0.6409 -0.7875 -0.2422
 4295SOL     OW24343   4.619   3.566   1.623 -0.6867 -0.0995 -0.1234
 4295SOL    HW124344   4.703   3.610   1.632 -1.5068  1.3465  0.4095
 4295SOL    HW224345   4.580   3.578   1.710  1.5805  0.6023  0.7814
 4296SOL     OW24346   2.359   0.742   4.612 -0.0357  0.7467  0.6879
 4296SOL    HW124347   2.397   0.678   4.551  1.3723  1.3401  0.9381
 4296SOL    HW224348   2.266   0.718   4.608  0.0419  0.2481  1.7437
 4297SOL     OW24349   0.204   2.988   4.984  0.0370 -0.0552 -0.3517
 4297SOL    HW124350   0.165   3.062   5.030  2.1220 -0.0172  1.3626
 4297SOL    HW224351   0.249   2.950   5.059  0.8269  2.6812  0.5501
 4298SOL     OW24352   0.100   1.638   6.807 -0.2976 -0.5281  0.2924
 4298SOL    HW124353   0.129   1.698   6.739 -0.9835 -0.2581  0.2390
 4298SOL    HW224354   0.019   1.686   6.825  1.2585  2.0565  0.3649
 4299SOL     OW24355   0.857   3.997   8.138 -0.0954 -0.6374  0.7575
 4299SOL    HW124356   0.763   4.011   8.144 -0.0424  0.1308 -0.1549
 4299SOL    HW224357   0.883   4.035   8.053  1.0289 -0.7354  1.0481
 4300SOL     OW24358   1.011   1.714   3.864 -0.1774  0.6319 -0.5173
 4300SOL    HW124359   1.044   1.628   3.888 -3.1241 -0.5280 -0.6698
 4300SOL    HW224360   1.092   1.762   3.884 -0.9781  2.0462 -0.6751
 4301SOL     OW24361   0.458   3.661   7.947  0.2155  0.3031 -0.3431
 4301SOL    HW124362   0.444   3.572   7.979 -3.3534  0.7868 -0.6470
 4301SOL    HW224363   0.396   3.717   7.993 -1.2802 -1.9212  0.3059
 4302SOL     OW24364   1.961   3.672   8.358  0.2732 -0.2154  0.2072
 4302SOL    HW124365   1.988   3.743   8.301  2.1737 -0.8530  0.3127
 4302SOL    HW224366   1.980   3.704   8.447  1.3115 -1.5284  0.4544
 4303SOL     OW24367   2.778   0.160   7.611  0.3379 -0.4856  0.0806
 4303SOL    HW124368   2.730   0.232   7.650 -0.9988 -2.1233  1.4528
 4303SOL    HW224369   2.862   0.168   7.656 -0.6655  1.5997  1.5592
 4304SOL     OW24370   2.364   4.195   2.954 -0.3194 -0.0298 -0.5305
 4304SOL    HW124371   2.407   4.255   2.893  0.4825 -0.2515 -0.1844
 4304SOL    HW224372   2.416   4.114   2.951 -0.2929 -0.0521  0.6159
 4305SOL     OW24373   1.369   3.926   0.131  0.0003  0.2859  0.9765
 4305SOL    HW124374   1.442   3.919   0.193  0.2262 -1.3487  0.5300
 4305SOL    HW224375   1.373   4.019   0.112 -0.5103 -0.3132 -1.9866
 4306SOL     OW24376   4.263   4.135   3.750 -0.2723  0.0416  0.2219
 4306SOL    HW124377   4.197   4.187   3.796 -0.8211 -0.0085 -0.5184
 4306SOL    HW224378   4.212   4.053   3.746  0.8285 -0.6129 -0.3368
 4307SOL     OW24379   1.031   2.181   0.742  0.0268  0.3189  0.4303
 4307SOL    HW124380   1.061   2.259   0.789  0.4196 -1.1488  2.6438
 4307SOL    HW224381   1.103   2.173   0.679  0.5532  0.4022  1.0211
 4308SOL     OW24382   1.004   2.536  11.778  0.0078  0.0488 -0.1214
 4308SOL    HW124383   0.962   2.588  11.709 -1.7402 -1.4830 -0.2007
 4308SOL    HW224384   0.954   2.454  11.772 -1.9391  0.9516  3.7149
 4309SOL     OW24385   2.884   1.045  16.670 -0.1173 -0.3372  0.9519
 4309SOL    HW124386   2.816   1.003  16.724 -2.1497  0.4404 -0.9876
 4309SOL    HW224387   2.844   1.046  16.583  0.3127 -0.8451  0.7480
 4310SOL     OW24388   2.054   2.309  16.469  0.7474  0.2476  0.0492
 4310SOL    HW124389   1.964   2.279  16.481  0.6306 -0.0922 -1.6532
 4310SOL    HW224390   2.064   2.366  16.545 -0.3965  0.0092  0.3775
 4311SOL     OW24391   2.921   0.071  13.806  0.2715 -0.4251  0.5108
 4311SOL    HW124392   2.827   0.081  13.794  0.4844  1.5815  0.5529
 4311SOL    HW224393   2.933   0.097  13.898  0.3959  1.4694 -0.0445
 4312SOL     OW24394   2.405   4.245   8.107  0.3236  0.5547 -0.2114
 4312SOL    HW124395   2.444   4.172   8.059  1.2627  2.2634 -2.0364
 4312SOL    HW224396   2.451   4.231   8.190  1.0898  1.5138 -0.4795
 4313SOL     OW24397   2.622   0.804  15.030  0.2017  0.4078  0.2105
 4313SOL    HW124398   2.578   0.858  15.096  0.7713 -1.0852  1.8150
 4313SOL    HW224399   2.668   0.870  14.978  2.2155 -1.1186  0.0088
 4314SOL     OW24400   1.325   1.286   9.528 -0.1631  0.1990 -0.2292
 4314SOL    HW124401   1.253   1.332   9.571  1.1353  0.5709  1.5216
 4314SOL    HW224402   1.307   1.298   9.434 -1.7387 -0.0936  0.0396
 4315SOL     OW24403   4.326   3.269   1.010 -0.0950 -0.2239 -0.4444
 4315SOL    HW124404   4.323   3.324   1.089  2.3450  1.6215 -1.6293
 4315SOL    HW224405   4.260   3.315   0.959 -0.3123 -0.4350 -0.3561
 4316SOL     OW24406   1.952   1.970   7.631 -0.4859 -0.0277  0.0557
 4316SOL    HW124407   1.914   1.897   7.680 -0.2782 -1.4736 -1.9158
 4316SOL    HW224408   1.877   2.029   7.621 -2.8840 -3.0396  0.2922
 4317SOL     OW24409   2.970   0.069   7.123  0.2216 -0.3172 -0.4089
 4317SOL    HW124410   2.876   0.072   7.108 -0.1267 -0.8940  1.6467
 4317SOL    HW224411   2.990   4.699   7.127 -2.0299 -0.7307  1.0747
 4318SOL     OW24412   1.121   3.489  17.664 -0.4182 -0.4551  0.3036
 4318SOL    HW124413   1.052   3.440  17.619 -0.6625 -0.3207  0.5313
 4318SOL    HW224414   1.122   3.458   0.060 -1.4062  0.4553  0.6316
 4319SOL     OW24415   0.304   0.386  15.070  0.0066  0.3035  0.6728
 4319SOL    HW124416   0.327   0.459  15.127  0.1028 -0.5058  1.6702
 4319SOL    HW224417   0.265   0.427  14.993  0.8380 -0.2967 -0.0577
 4320SOL     OW24418   3.360   3.467   5.609 -0.1569 -0.1187  0.0806
 4320SOL    HW124419   3.336   3.482   5.701  1.0070  1.5331  0.1110
 4320SOL    HW224420   3.384   3.375   5.603 -1.1726 -0.3959  0.2656
 4321SOL     OW24421   3.809   1.005   8.278 -0.3784  0.3471  0.0333
 4321SOL    HW124422   3.774   1.019   8.366 -0.6838 -2.0234  0.2970
 4321SOL    HW224423   3.794   1.093   8.244 -0.4489  0.2157 -0.2749
 4322SOL     OW24424   0.645   3.752   5.217 -0.2073 -0.9419  0.3433
 4322SOL    HW124425   0.627   3.845   5.198  3.5445 -0.2689 -0.0079
 4322SOL    HW224426   0.740   3.750   5.200 -0.6145 -1.0509 -1.9547
 4323SOL     OW24427   3.748   3.207  15.293  0.1986  0.4661 -0.1548
 4323SOL    HW124428   3.724   3.128  15.245  0.0918  0.4027  0.0020
 4323SOL    HW224429   3.665   3.241  15.326  0.0804 -0.3730  0.4159
 4324SOL     OW24430   2.683   3.271   7.569  0.3881  0.2550  0.0776
 4324SOL    HW124431   2.626   3.299   7.640  0.0976 -2.6624  1.0246
 4324SOL    HW224432   2.761   3.323   7.587  0.4201 -0.2810  1.4422
 4325SOL     OW24433   1.717   0.269   7.018 -0.9634  0.1366 -0.1608
 4325SOL    HW124434   1.693   0.262   7.110 -1.3898 -0.7346 -0.3435
 4325SOL    HW224435   1.787   0.204   7.011 -0.4542  0.4023  2.3122
 4326SOL     OW24436   4.061   2.403   1.989  0.1100 -0.5294  0.2523
 4326SOL    HW124437   4.135   2.402   2.050 -0.4699 -3.3072  0.9075
 4326SOL    HW224438   4.039   2.310   1.983  0.1556 -0.5365  0.1858
 4327SOL     OW24439   0.255   1.552   7.693 -0.3059  0.4029 -0.2323
 4327SOL    HW124440   0.305   1.609   7.752  0.1289 -1.2174  0.9390
 4327SOL    HW224441   0.167   1.558   7.728 -1.1207  0.8695 -2.3647
 4328SOL     OW24442   0.203   2.346   9.446  0.0083  0.2493 -0.5311
 4328SOL    HW124443   0.240   2.427   9.480 -0.5579  0.3259 -0.0859
 4328SOL    HW224444   0.110   2.368   9.443 -0.3417 -1.2679 -1.0866
 4329SOL     OW24445   4.124   0.528   5.376  0.3892  0.1285 -0.2995
 4329SOL    HW124446   4.205   0.570   5.404  0.2325  0.0939  0.2164
 4329SOL    HW224447   4.057   0.571   5.430  0.2773 -1.3487  0.7476
 4330SOL     OW24448   3.360   3.727  17.624 -0.0821 -0.4331 -1.1543
 4330SOL    HW124449   3.304   3.778  17.683  0.6177  1.7141 -2.3899
 4330SOL    HW224450   3.302   3.651  17.612  0.0270 -0.7045  0.0152
 4331SOL     OW24451   3.198   2.535   7.451  0.1335  0.0208 -0.6105
 4331SOL    HW124452   3.242   2.596   7.510 -1.2176  0.2956  0.0946
 4331SOL    HW224453   3.105   2.552   7.465 -0.1038 -1.3780 -0.4595
 4332SOL     OW24454   3.067   3.173  14.416  0.4484  0.0690 -0.7570
 4332SOL    HW124455   3.117   3.176  14.498 -0.7066 -3.2283  0.0560
 4332SOL    HW224456   2.994   3.119  14.447  1.3948  0.1492  1.5675
 4333SOL     OW24457   1.275   2.608  16.320  0.5733  0.3121  0.2363
 4333SOL    HW124458   1.304   2.680  16.264  1.5787  0.0363  0.4052
 4333SOL    HW224459   1.288   2.537  16.258  3.0384  0.1575  0.9252
 4334SOL     OW24460   3.334   2.935   8.354 -0.4305 -0.2237  0.1822
 4334SOL    HW124461   3.275   2.862   8.334  1.6350 -1.2113 -2.4402
 4334SOL    HW224462   3.292   2.967   8.434  1.6353 -1.5611  1.7991
 4335SOL     OW24463   2.455   0.670   5.338  0.5344 -0.1285  0.5383
 4335SOL    HW124464   2.404   0.667   5.257  1.2062  2.5929  0.0411
 4335SOL    HW224465   2.401   0.720   5.398 -0.1473 -2.0576  1.5569
 4336SOL     OW24466   2.525   1.685  14.914 -0.0412  0.8875  0.0675
 4336SOL    HW124467   2.604   1.697  14.968  1.4653 -2.6078 -1.4133
 4336SOL    HW224468   2.521   1.766  14.863 -1.5190 -1.2237 -3.1207
 4337SOL     OW24469   0.945   4.502   8.059 -0.2565  0.1930  0.0788
 4337SOL    HW124470   0.926   4.584   8.105 -3.2632  0.8000 -2.2582
 4337SOL    HW224471   0.861   4.456   8.062 -0.7251  1.0062 -0.4330
 4338SOL     OW24472   4.415   4.358  16.464 -0.0991  0.4134  0.2830
 4338SOL    HW124473   4.349   4.317  16.519  1.0005 -2.3525 -0.4744
 4338SOL    HW224474   4.358   4.431  16.439  0.3611  0.3670 -0.8876
 4339SOL     OW24475   0.390   0.021   2.223  0.0319  0.1422  0.4124
 4339SOL    HW124476   0.451   4.677   2.193 -1.2856 -0.3004 -1.2852
 4339SOL    HW224477   0.350   4.700   2.298 -0.9285  1.9753  0.9713
 4340SOL     OW24478   0.904   3.765   4.615  0.1365 -0.0684 -0.1454
 4340SOL    HW124479   0.973   3.713   4.573  0.8491 -0.1969  1.2043
 4340SOL    HW224480   0.862   3.700   4.671  0.1427 -0.7234 -0.8995
 4341SOL     OW24481   4.603   3.072   3.592  0.0136 -0.2900  0.6311
 4341SOL    HW124482   4.570   3.102   3.677 -1.7458  0.5107 -0.3345
 4341SOL    HW224483   4.525   3.040   3.546  1.6322 -2.6007 -0.4651
 4342SOL     OW24484   0.766   0.672   1.161  0.3344  0.0222 -0.5971
 4342SOL    HW124485   0.766   0.597   1.220 -1.7270  0.5419  0.0547
 4342SOL    HW224486   0.689   0.719   1.191  0.5742 -1.2217  1.9879
 4343SOL     OW24487   2.238   4.373  10.710 -0.3203 -0.3336 -0.1291
 4343SOL    HW124488   2.244   4.442  10.644 -2.4300 -0.1882 -0.1754
 4343SOL    HW224489   2.268   4.300  10.657 -1.3684 -1.8595  1.3971
 4344SOL     OW24490   3.307   1.950   2.937 -0.1682 -0.0385  0.0341
 4344SOL    HW124491   3.227   1.938   2.885 -1.7178 -2.8452  3.0065
 4344SOL    HW224492   3.369   1.885   2.905  1.2905  1.2409  0.2661
 4345SOL     OW24493   1.323   3.023   1.365  0.2356 -0.5737 -0.3404
 4345SOL    HW124494   1.362   3.103   1.331 -0.8031 -0.1701 -0.5803
 4345SOL    HW224495   1.319   3.049   1.457  3.5547 -1.7068  0.1467
 4346SOL     OW24496   2.949   3.440   9.680  0.0561  0.1406 -0.8631
 4346SOL    HW124497   2.857   3.430   9.655 -0.3953  2.5967 -0.2265
 4346SOL    HW224498   2.973   3.348   9.679  0.5574  0.2695 -0.7861
 4347SOL     OW24499   2.492   1.145   5.937  0.3676  0.1865 -0.0432
 4347SOL    HW124500   2.460   1.217   5.883 -0.9116 -0.7746 -0.5668
 4347SOL    HW224501   2.417   1.138   5.996  0.7180 -2.4594  0.0915
 4348SOL     OW24502   1.477   1.901   8.373 -0.1178 -0.7454 -0.2775
 4348SOL    HW124503   1.418   1.938   8.439  0.3630  1.3308 -1.0068
 4348SOL    HW224504   1.414   1.849   8.324  0.7800 -2.7230  0.6625
 4349SOL     OW24505   2.394   2.111   7.781 -0.0645 -0.2585 -0.6961
 4349SOL    HW124506   2.301   2.088   7.788 -0.4204  1.6166  0.8007
 4349SOL    HW224507   2.426   2.082   7.866 -0.0032  1.7121 -0.0573
 4350SOL     OW24508   4.339   1.498  10.050  0.2768 -0.1505 -0.4486
 4350SOL    HW124509   4.384   1.498  10.135 -1.7008  1.0353  0.6019
 4350SOL    HW224510   4.253   1.475  10.086  1.4350 -0.4003  2.2266
 4351SOL     OW24511   1.046   4.261   0.894  0.3485 -0.4102 -0.3511
 4351SOL    HW124512   1.086   4.294   0.813  0.1302 -0.0604 -0.3140
 4351SOL    HW224513   1.111   4.290   0.959  1.9180 -0.4599 -1.8975
 4352SOL     OW24514   1.735   2.690  13.324 -0.1359 -0.2477  0.3567
 4352SOL    HW124515   1.827   2.667  13.318 -0.3517 -0.6797 -1.5026
 4352SOL    HW224516   1.701   2.614  13.372 -3.3041  0.8160 -0.1976
 4353SOL     OW24517   3.923   0.061   3.800  0.2907 -0.4633  0.2362
 4353SOL    HW124518   3.957   4.695   3.800  0.6129 -0.3434  0.6679
 4353SOL    HW224519   3.859   0.046   3.869  1.2777 -2.6106  0.6673
 4354SOL     OW24520   1.442   2.657   1.135 -0.0311 -0.0118 -0.0701
 4354SOL    HW124521   1.496   2.735   1.146  0.6570 -0.3526 -1.0172
 4354SOL    HW224522   1.497   2.613   1.070 -0.4441  0.3498 -0.6641
 4355SOL     OW24523   2.664   2.087  15.082 -0.0846 -0.5457 -0.7576
 4355SOL    HW124524   2.668   2.183  15.083  1.0201 -0.5776 -1.3841
 4355SOL    HW224525   2.614   2.072  15.162  0.1378 -0.0121 -0.5152
 4356SOL     OW24526   2.136   4.526   7.103  0.7812 -0.5575 -0.1651
 4356SOL    HW124527   2.184   4.529   7.020 -0.4632 -2.0795 -0.9358
 4356SOL    HW224528   2.171   4.601   7.151  0.5260 -1.5992  1.6718
 4357SOL     OW24529   2.340   3.262  14.811  0.2646  0.1940  0.4798
 4357SOL    HW124530   2.388   3.344  14.812  0.1247  0.2998 -1.3518
 4357SOL    HW224531   2.401   3.191  14.832  0.3388  0.4092  0.9884
 4358SOL     OW24532   3.724   2.568  10.893  0.6035  0.2212 -0.1487
 4358SOL    HW124533   3.731   2.646  10.948 -0.3080 -0.1688  0.5303
 4358SOL    HW224534   3.816   2.559  10.866  0.6466  2.0092 -0.5914
 4359SOL     OW24535   4.334   3.038  12.705  0.8036  0.1547 -0.2082
 4359SOL    HW124536   4.380   3.090  12.639 -0.4685 -0.4580 -1.5780
 4359SOL    HW224537   4.306   3.094  12.777 -2.0802  0.2513 -1.3733
 4360SOL     OW24538   2.277   2.346   5.614  0.2668  0.0969  0.1385
 4360SOL    HW124539   2.263   2.278   5.548  1.5659  0.4846 -0.5311
 4360SOL    HW224540   2.367   2.374   5.596 -0.1508  1.0958 -0.4104
 4361SOL     OW24541   3.716   4.662  14.117 -0.0179 -0.3567 -0.4574
 4361SOL    HW124542   3.686   0.012  14.062 -0.2521  0.7345  1.1369
 4361SOL    HW224543   3.741   4.589  14.060  0.0158 -1.6295  1.2003
 4362SOL     OW24544   0.778   1.314   7.513 -0.1828 -0.8546 -0.6407
 4362SOL    HW124545   0.832   1.306   7.591 -0.9678  2.8425  0.2701
 4362SOL    HW224546   0.831   1.285   7.438 -1.8720  0.3330 -2.3081
 4363SOL     OW24547   2.277   0.831   7.426  0.6753 -1.1059  0.2132
 4363SOL    HW124548   2.297   0.745   7.391 -1.2937 -1.5271  0.1528
 4363SOL    HW224549   2.215   0.813   7.496  0.5676  4.3826  1.5356
 4364SOL     OW24550   3.700   0.899  15.511  0.1221 -0.2835  0.3879
 4364SOL    HW124551   3.771   0.963  15.511  0.4121 -0.6080 -0.9339
 4364SOL    HW224552   3.640   0.938  15.447 -1.1252 -1.2524  0.9485
 4365SOL     OW24553   2.966   1.990   7.185  1.2339 -0.8303  0.1220
 4365SOL    HW124554   3.044   1.965   7.234  2.3503 -2.9986 -2.7600
 4365SOL    HW224555   2.987   1.941   7.106  0.6219  1.3388 -1.3740
 4366SOL     OW24556   0.385   0.531   8.914 -0.4536 -0.3050  0.3631
 4366SOL    HW124557   0.310   0.496   8.961 -0.5914  0.5340  0.7709
 4366SOL    HW224558   0.365   0.625   8.910 -1.8929 -0.6676 -1.3628
 4367SOL     OW24559   1.223   3.778   7.020  0.0830 -0.1720 -0.0149
 4367SOL    HW124560   1.313   3.768   6.989  0.0506 -2.2231  0.5466
 4367SOL    HW224561   1.186   3.690   7.014  2.6222 -1.3058  1.3190
 4368SOL     OW24562   0.637   1.438  15.207  0.4688 -0.1523  0.3031
 4368SOL    HW124563   0.593   1.516  15.172  0.0561 -0.0471  1.0602
 4368SOL    HW224564   0.702   1.485  15.259 -0.9526  0.5455  1.4710
 4369SOL     OW24565   3.945   4.714   6.954 -0.7115  0.0582 -0.2138
 4369SOL    HW124566   3.863   4.666   6.962 -1.1746  1.0431  1.0592
 4369SOL    HW224567   3.932   0.028   6.866  1.1421  1.3986  0.0708
 4370SOL     OW24568   4.260   0.496   2.726 -0.1183  0.1240  0.2694
 4370SOL    HW124569   4.311   0.568   2.688  0.1054 -0.0332  0.2724
 4370SOL    HW224570   4.183   0.523   2.676 -0.1565 -1.1050 -0.3486
 4371SOL     OW24571   3.568   3.611   5.513 -0.4071 -0.0352 -0.2081
 4371SOL    HW124572   3.484   3.565   5.526 -0.0673 -1.0212 -1.5219
 4371SOL    HW224573   3.618   3.579   5.587  0.7664 -0.8456 -1.3558
 4372SOL     OW24574   2.605   1.936   4.995 -0.3646 -0.4346 -0.1089
 4372SOL    HW124575   2.537   1.905   4.936 -1.9495  1.1508  0.8881
 4372SOL    HW224576   2.667   1.863   5.002  1.7714  1.2836 -0.9868
 4373SOL     OW24577   3.965   0.103  11.151  0.0036 -0.5447  0.0239
 4373SOL    HW124578   3.889   0.160  11.164  1.7270  2.0732 -1.4439
 4373SOL    HW224579   4.025   0.144  11.213  0.1352 -2.1364  0.9559
 4374SOL     OW24580   2.657   2.032   9.120  0.5511 -0.4686  0.0036
 4374SOL    HW124581   2.714   2.012   9.194 -0.8294 -2.8372  0.4192
 4374SOL    HW224582   2.626   1.942   9.115  0.9913 -0.6393  0.3713
 4375SOL     OW24583   3.386   0.481  10.091 -0.5191 -0.3988  0.4917
 4375SOL    HW124584   3.314   0.512  10.146  0.1938  1.1929  0.5212
 4375SOL    HW224585   3.410   0.567  10.058  0.3678 -1.4081 -1.4692
 4376SOL     OW24586   0.558   3.548  13.517  0.0452  0.0538  0.5160
 4376SOL    HW124587   0.577   3.457  13.539  1.3177 -0.2271 -1.6285
 4376SOL    HW224588   0.478   3.529  13.469  0.7071 -2.7462  0.5377
 4377SOL     OW24589   4.180   1.394   6.817  0.4251  0.7316  0.2109
 4377SOL    HW124590   4.237   1.333   6.772 -0.2841  0.2019  0.0247
 4377SOL    HW224591   4.106   1.344   6.853  0.6425 -0.5940 -1.1858
 4378SOL     OW24592   2.272   4.208  11.853 -0.3520  0.3862  0.0070
 4378SOL    HW124593   2.247   4.118  11.833 -0.4062  0.1328  1.2182
 4378SOL    HW224594   2.216   4.219  11.930  1.0944  1.1798  0.9509
 4379SOL     OW24595   3.661   1.223   8.714 -0.5018 -0.3650 -0.3583
 4379SOL    HW124596   3.628   1.213   8.625 -1.3933 -1.5008  0.0957
 4379SOL    HW224597   3.581   1.205   8.764  0.0393 -0.2663  0.5590
 4380SOL     OW24598   4.396   0.425   4.433  0.0275 -0.3879  0.3206
 4380SOL    HW124599   4.476   0.442   4.483 -1.1910 -1.4484  2.6397
 4380SOL    HW224600   4.432   0.414   4.345  1.4845 -0.0221  0.8784
 4381SOL     OW24601   4.466   4.288   9.683 -0.0393  0.3861 -0.0064
 4381SOL    HW124602   4.459   4.383   9.685  0.2742  0.4007  0.3724
 4381SOL    HW224603   4.448   4.277   9.776  2.7110  1.7731  0.6935
 4382SOL     OW24604   0.225   2.241  14.164  0.0470 -0.3464 -0.0552
 4382SOL    HW124605   0.278   2.270  14.090  1.3891 -0.3600  0.9131
 4382SOL    HW224606   0.169   2.168  14.136  1.8033 -1.4192 -0.7843
 4383SOL     OW24607   2.627   3.678  17.114 -0.2828  0.6173  0.4689
 4383SOL    HW124608   2.659   3.670  17.204 -1.2151 -2.0573  0.5432
 4383SOL    HW224609   2.624   3.588  17.083 -0.1532  0.3684  1.1897
 4384SOL     OW24610   4.628   2.733   1.627 -0.1627 -0.2581 -0.4313
 4384SOL    HW124611   4.588   2.815   1.655 -0.4403  0.6714 -3.5922
 4384SOL    HW224612   4.718   2.738   1.659  0.2514 -1.9537 -1.3485
 4385SOL     OW24613   1.483   3.045  15.304 -0.1311  0.1739  0.3712
 4385SOL    HW124614   1.430   3.110  15.351  1.1529  0.5494  1.2922
 4385SOL    HW224615   1.540   3.013  15.373  0.1273 -0.7733 -0.2869
 4386SOL     OW24616   1.349   1.175   6.427  0.1823 -0.6926 -0.2871
 4386SOL    HW124617   1.274   1.145   6.479 -1.1916  1.2804 -1.1325
 4386SOL    HW224618   1.315   1.154   6.341  1.6722  0.1446 -1.0770
 4387SOL     OW24619   0.858   0.184   8.383 -0.2539 -0.3524 -0.1550
 4387SOL    HW124620   0.806   0.256   8.347 -0.4691  0.3700  1.6177
 4387SOL    HW224621   0.818   0.172   8.469  2.1078 -3.4838  0.5055
 4388SOL     OW24622   1.712   1.926   6.980 -0.7056 -0.0875  0.3774
 4388SOL    HW124623   1.743   1.851   6.930  0.1216  0.6189 -0.1575
 4388SOL    HW224624   1.700   1.891   7.069  1.7251  1.6123  1.3908
 4389SOL     OW24625   4.320   3.293   8.901  0.4437  0.0064  0.7390
 4389SOL    HW124626   4.326   3.378   8.944 -1.0449  0.7100 -0.4261
 4389SOL    HW224627   4.277   3.231   8.960  0.3701 -0.7048 -0.0537
 4390SOL     OW24628   0.752   3.272   9.497  0.1404  1.1430  0.0294
 4390SOL    HW124629   0.806   3.242   9.570  2.0388  1.3285 -1.2893
 4390SOL    HW224630   0.736   3.361   9.526 -1.6781  0.1260  2.1646
 4391SOL     OW24631   4.397   1.915   9.691 -0.2714  0.1984 -0.4457
 4391SOL    HW124632   4.368   1.895   9.602 -0.3222 -1.8356  0.0224
 4391SOL    HW224633   4.361   1.842   9.741  1.7082 -1.4870 -1.5068
 4392SOL     OW24634   0.346   1.361   6.700 -0.0356 -0.1240  0.6651
 4392SOL    HW124635   0.314   1.423   6.634  0.7977  2.8448  3.0327
 4392SOL    HW224636   0.269   1.358   6.757 -0.9242  0.6061 -0.5015
 4393SOL     OW24637   1.250   3.624   0.861 -0.2037  0.0683  0.0064
 4393SOL    HW124638   1.232   3.538   0.900  1.0268 -0.1284  0.1613
 4393SOL    HW224639   1.284   3.599   0.775  1.0403 -1.1306  0.8403
 4394SOL     OW24640   3.871   4.094   3.955  0.1659 -0.2279  0.4108
 4394SOL    HW124641   3.903   4.157   3.891 -0.4292 -0.3208  0.0293
 4394SOL    HW224642   3.813   4.149   4.007 -0.9358  0.7858 -1.8883
 4395SOL     OW24643   4.158   2.185   6.690  0.5236  0.5621  0.2488
 4395SOL    HW124644   4.146   2.099   6.650  1.1118  0.0198  1.2460
 4395SOL    HW224645   4.092   2.183   6.760 -0.2792  0.9816 -0.5035
 4396SOL     OW24646   1.469   4.100   9.069 -0.0266 -0.4912 -0.1876
 4396SOL    HW124647   1.421   4.137   8.995  1.2031  0.2284 -0.6218
 4396SOL    HW224648   1.555   4.088   9.029 -0.3804 -2.9255 -0.1949
 4397SOL     OW24649   4.643   1.987   7.511  0.2715  0.1795  0.0798
 4397SOL    HW124650   0.012   1.964   7.523 -0.2462 -0.9980  1.8262
 4397SOL    HW224651   4.647   2.024   7.423  0.8519 -0.2232 -0.0638
 4398SOL     OW24652   4.444   2.670   7.666 -0.0003 -0.1394  0.0407
 4398SOL    HW124653   4.407   2.596   7.618 -2.0176  0.2675  0.9655
 4398SOL    HW224654   4.533   2.636   7.678  0.7030  0.6240 -2.9983
 4399SOL     OW24655   3.322   1.225  10.537 -0.3575 -0.0314  0.1947
 4399SOL    HW124656   3.338   1.279  10.460 -0.0585 -1.1853 -0.5538
 4399SOL    HW224657   3.315   1.294  10.603  1.8290  1.0590 -0.7224
 4400SOL     OW24658   2.449   0.985   5.662 -0.5707 -0.5644  1.0248
 4400SOL    HW124659   2.542   0.994   5.642 -0.4902  0.6683  1.9771
 4400SOL    HW224660   2.451   0.995   5.757 -1.2466 -0.1904  0.9986
 4401SOL     OW24661   1.579   4.337  14.423  0.0044  0.0589  0.0146
 4401SOL    HW124662   1.488   4.311  14.409 -0.0238  0.2337 -0.1312
 4401SOL    HW224663   1.612   4.271  14.362 -0.4158 -0.9199  0.8489
 4402SOL     OW24664   1.565   3.294   0.883  0.5539  0.1456 -0.0672
 4402SOL    HW124665   1.557   3.201   0.904  0.6627 -0.2133 -1.6107
 4402SOL    HW224666   1.659   3.291   0.866  0.6661 -1.0570  0.7952
 4403SOL     OW24667   4.655   1.207  12.858  0.1633  0.0223 -0.3429
 4403SOL    HW124668   4.580   1.249  12.899  1.5182  0.7289  1.4334
 4403SOL    HW224669   4.669   1.268  12.786 -1.5068  0.9256  0.1087
 4404SOL     OW24670   0.082   3.093  17.282 -0.7450  0.2116  0.0303
 4404SOL    HW124671   0.161   3.047  17.253 -1.9245 -2.9460  1.8736
 4404SOL    HW224672   0.013   3.051  17.231 -1.7490  0.2327  1.3587
 4405SOL     OW24673   1.428   2.815  14.564  0.5619 -0.1251 -0.4158
 4405SOL    HW124674   1.390   2.735  14.600  1.3049 -0.4161 -0.2869
 4405SOL    HW224675   1.350   2.868  14.548  0.4237 -0.0420  0.5182
 4406SOL     OW24676   0.314   0.252   6.462  0.6036  0.3179 -0.1509
 4406SOL    HW124677   0.275   0.316   6.403  1.4713  2.0180  1.1271
 4406SOL    HW224678   0.406   0.276   6.452  0.3065  1.7187  0.4920
 4407SOL     OW24679   0.990   3.006  12.316  0.9262 -0.2273 -0.5182
 4407SOL    HW124680   0.991   2.934  12.379 -0.5469 -1.0745 -1.4669
 4407SOL    HW224681   0.929   3.068  12.355  2.2875  1.5144 -1.1589
 4408SOL     OW24682   4.558   3.998   5.993 -0.2933  0.1070 -0.5757
 4408SOL    HW124683   4.598   4.054   6.060  0.4841 -0.8976 -0.1938
 4408SOL    HW224684   4.621   3.998   5.921 -2.4951  1.1865 -2.5094
 4409SOL     OW24685   0.684   0.972   4.772 -0.0368  0.2438 -0.4774
 4409SOL    HW124686   0.686   0.884   4.735 -2.5963  0.9968 -2.4908
 4409SOL    HW224687   0.589   0.987   4.765  0.1004  1.0966 -0.5112
 4410SOL     OW24688   4.327   0.365   6.925 -0.0566 -0.5480 -0.1333
 4410SOL    HW124689   4.246   0.317   6.942 -1.6985  1.8520 -1.2486
 4410SOL    HW224690   4.296   0.439   6.873 -1.4227  0.5000  2.1401
 4411SOL     OW24691   3.229   3.515  13.815  0.3876  0.1395 -0.0257
 4411SOL    HW124692   3.239   3.483  13.726  0.0854 -0.2940  0.0971
 4411SOL    HW224693   3.264   3.446  13.871 -1.7720 -0.0211  1.1036
 4412SOL     OW24694   4.335   0.698   2.564  0.2221  0.5976 -0.4167
 4412SOL    HW124695   4.288   0.779   2.543 -3.3981 -0.9409  1.5786
 4412SOL    HW224696   4.416   0.715   2.516 -0.5823  1.4491 -1.4782
 4413SOL     OW24697   1.597   4.333   1.665 -0.2594 -0.8321  0.2731
 4413SOL    HW124698   1.570   4.282   1.741 -1.4455 -1.4693 -0.5654
 4413SOL    HW224699   1.543   4.279   1.607 -2.3566 -2.4180  3.7189
 4414SOL     OW24700   1.966   4.292   5.090 -0.7088 -0.0297 -0.7977
 4414SOL    HW124701   1.958   4.205   5.051  0.0424 -0.4008 -0.1398
 4414SOL    HW224702   1.934   4.348   5.020 -1.2454  0.8297  0.1210
 4415SOL     OW24703   3.957   3.249  16.823  0.3851 -0.1119  0.2667
 4415SOL    HW124704   3.877   3.236  16.772 -0.6042 -0.1584  1.8623
 4415SOL    HW224705   3.995   3.161  16.823 -2.3823 -1.3048  0.5001
 4416SOL     OW24706   0.060   0.746   2.688  0.2138  0.0237  0.1123
 4416SOL    HW124707   4.722   0.672   2.687 -1.3077  1.2803  1.0000
 4416SOL    HW224708   0.139   0.697   2.710  0.2943 -0.1112 -0.4955
 4417SOL     OW24709   1.532   2.222   7.294 -1.1702  0.4044  0.3362
 4417SOL    HW124710   1.461   2.275   7.329 -1.2863  0.0530  0.6235
 4417SOL    HW224711   1.568   2.283   7.229 -0.8800 -0.2107 -0.0753
 4418SOL     OW24712   3.730   0.464   2.138 -0.4291  0.7462 -0.3569
 4418SOL    HW124713   3.767   0.551   2.148  0.6040  0.1550  1.0741
 4418SOL    HW224714   3.801   0.400   2.147 -1.8627 -0.6819  1.0306
 4419SOL     OW24715   1.845   0.459   5.738 -0.0205  0.4225  0.0087
 4419SOL    HW124716   1.823   0.425   5.824 -1.3143  1.1667 -0.0348
 4419SOL    HW224717   1.920   0.401   5.725  0.3680  0.8295  0.4106
 4420SOL     OW24718   0.638   3.664   0.823 -0.1311 -0.6678  0.4935
 4420SOL    HW124719   0.613   3.743   0.870  1.7184 -0.7281  1.5698
 4420SOL    HW224720   0.564   3.643   0.765  1.2268 -3.8096 -0.0951
 4421SOL     OW24721   0.998   1.759   8.011 -0.5536 -0.3812  0.0338
 4421SOL    HW124722   0.976   1.802   7.928 -1.4816  1.5351  1.2736
 4421SOL    HW224723   0.958   1.817   8.076  1.7877 -1.3185  2.3441
 4422SOL     OW24724   1.914   4.144  14.409  0.4983 -0.5454  0.4393
 4422SOL    HW124725   1.822   4.146  14.383  0.6047 -0.1581  0.0965
 4422SOL    HW224726   1.941   4.179  14.325  0.5297  0.0711  0.7061
 4423SOL     OW24727   4.114   1.162   2.167  0.1669  0.2917  0.3412
 4423SOL    HW124728   4.135   1.218   2.092 -0.2382 -1.0817 -0.8044
 4423SOL    HW224729   4.077   1.079   2.137  0.9002 -1.0926  3.2770
 4424SOL     OW24730   3.055   4.290   4.145  0.5187  0.0392  0.1920
 4424SOL    HW124731   3.093   4.259   4.063 -0.3973  2.1422 -1.0195
 4424SOL    HW224732   2.961   4.273   4.132  0.4654  0.3048  0.2380
 4425SOL     OW24733   2.168   2.054   2.684  0.3874 -0.0305  0.3488
 4425SOL    HW124734   2.223   2.118   2.638 -0.5797  1.3959  1.1743
 4425SOL    HW224735   2.210   2.051   2.770  2.6625 -2.1375 -0.8333
 4426SOL     OW24736   1.504   4.448   0.816  0.4722  0.1854  0.2142
 4426SOL    HW124737   1.585   4.432   0.865  1.0656 -0.8453 -1.1026
 4426SOL    HW224738   1.527   4.408   0.732 -1.2523 -1.6956  0.6393
 4427SOL     OW24739   1.760   3.468  11.874  0.4592 -0.0767 -0.1399
 4427SOL    HW124740   1.761   3.553  11.919 -1.5427  0.2213 -0.6556
 4427SOL    HW224741   1.667   3.446  11.877  0.4127  0.2002  0.6207
 4428SOL     OW24742   2.873   2.641  11.992  0.1386  0.3370  0.4201
 4428SOL    HW124743   2.858   2.700  11.918 -0.3327  1.5083  1.4601
 4428SOL    HW224744   2.898   2.704  12.060 -1.0500 -1.4643  2.5117
 4429SOL     OW24745   0.263   3.833   6.446  0.1592 -0.2284  0.4685
 4429SOL    HW124746   0.338   3.882   6.481  0.0599 -0.3460  0.8500
 4429SOL    HW224747   0.311   3.766   6.398 -2.2049 -2.1559  0.8236
 4430SOL     OW24748   3.512   2.216  11.406 -0.4523  0.2108 -0.0199
 4430SOL    HW124749   3.575   2.222  11.478 -0.7394  0.3448  0.2170
 4430SOL    HW224750   3.567   2.243  11.332  0.1536 -0.2030  0.2707
 4431SOL     OW24751   4.631   1.516   7.522 -0.1571 -0.6406  0.1046
 4431SOL    HW124752   4.660   1.601   7.487 -0.3476 -0.4202  0.4839
 4431SOL    HW224753   4.672   1.516   7.609  0.4792  0.3006 -0.1893
 4432SOL     OW24754   2.048   1.830   3.988 -0.4851 -0.1298  0.8631
 4432SOL    HW124755   1.988   1.891   4.031 -0.2162  1.0827 -0.4757
 4432SOL    HW224756   2.047   1.765   4.057  0.7232 -0.9396  0.1170
 4433SOL     OW24757   4.120   1.422   0.584 -0.5337  0.0910  0.6034
 4433SOL    HW124758   4.200   1.400   0.632 -1.0511  0.8523  1.8304
 4433SOL    HW224759   4.142   1.385   0.499 -0.3929 -1.3608  1.2669
 4434SOL     OW24760   3.844   3.014   0.142  0.4271 -0.3775 -0.1217
 4434SOL    HW124761   3.867   3.082   0.078  2.5638 -0.9223  0.0917
 4434SOL    HW224762   3.929   2.980   0.168  0.8108 -0.0411 -0.9228
 4435SOL     OW24763   4.276   1.299   0.754 -0.4486 -0.0175 -0.7373
 4435SOL    HW124764   4.252   1.313   0.845  1.1425  2.5208 -0.6942
 4435SOL    HW224765   4.351   1.243   0.774  1.4407  1.9633 -2.2439
 4436SOL     OW24766   0.889   0.826   1.454 -0.1649 -0.0670 -0.7448
 4436SOL    HW124767   0.920   0.784   1.374  0.1755 -0.1730 -0.5537
 4436SOL    HW224768   0.969   0.872   1.479  0.1363 -1.4074  0.7744
 4437SOL     OW24769   3.836   0.412   7.041  0.7732  0.1745 -0.1101
 4437SOL    HW124770   3.837   0.380   7.131 -0.3060 -0.3266 -0.2785
 4437SOL    HW224771   3.831   0.507   7.049  1.5738  0.2109  0.0421
 4438SOL     OW24772   1.498   2.278   8.644  0.1974  0.2829 -0.5944
 4438SOL    HW124773   1.483   2.372   8.650  0.7495  0.2283  1.7708
 4438SOL    HW224774   1.411   2.237   8.643 -0.6240  1.9833  0.3587
 4439SOL     OW24775   0.528   4.494   4.248  0.2878 -0.0171  0.3832
 4439SOL    HW124776   0.467   4.438   4.200  1.3186 -0.9747  0.2003
 4439SOL    HW224777   0.531   4.564   4.183 -0.4663  0.3076  0.7046
 4440SOL     OW24778   3.256   2.185  15.901  0.3679  0.8604 -0.6006
 4440SOL    HW124779   3.332   2.136  15.869 -0.3516 -1.1431  0.7946
 4440SOL    HW224780   3.272   2.183  15.995 -2.8299  1.4487 -0.0253
 4441SOL     OW24781   3.918   0.568   4.898 -1.4998 -0.5091 -0.6711
 4441SOL    HW124782   3.976   0.642   4.916 -1.4967 -0.5909 -0.3434
 4441SOL    HW224783   3.905   0.536   4.987 -0.8721  1.0993 -0.0021
 4442SOL     OW24784   3.168   4.115  15.674  0.3917 -0.0924  0.4950
 4442SOL    HW124785   3.151   4.118  15.580 -0.5209  0.6483  0.6869
 4442SOL    HW224786   3.212   4.031  15.684  1.7474  0.5640  0.0716
 4443SOL     OW24787   1.553   4.598   1.183 -0.0024 -0.7783 -0.1872
 4443SOL    HW124788   1.542   4.667   1.118 -0.0323 -1.3148 -0.7550
 4443SOL    HW224789   1.489   4.624   1.249  1.8005  1.1778  0.8015
 4444SOL     OW24790   2.856   4.308   6.442  0.4191  0.0497  0.3539
 4444SOL    HW124791   2.811   4.299   6.359  0.8739  1.3034 -0.0280
 4444SOL    HW224792   2.811   4.251   6.505  0.5487  2.1670  2.3601
 4445SOL     OW24793   4.562   3.884  17.477  0.3006 -0.1595 -0.3000
 4445SOL    HW124794   4.588   3.872  17.569  0.4306  0.7464 -0.2117
 4445SOL    HW224795   4.508   3.963  17.483  1.6480  0.6925  0.8624
 4446SOL     OW24796   4.007   3.145   8.003  0.2258 -0.2758 -0.1630
 4446SOL    HW124797   3.976   3.097   7.927  2.1336 -0.7085 -0.6729
 4446SOL    HW224798   4.090   3.182   7.973 -0.6138  1.1142 -0.7739
 4447SOL     OW24799   1.647   1.142   8.846  0.1469  0.2864 -0.2641
 4447SOL    HW124800   1.740   1.154   8.866  0.1867  0.3682 -0.4970
 4447SOL    HW224801   1.641   1.047   8.841 -0.8432  0.3084  0.3605
 4448SOL     OW24802   2.428   4.099  12.467 -0.3405 -0.6611 -0.0310
 4448SOL    HW124803   2.404   4.008  12.484 -0.8396 -0.7476 -1.2740
 4448SOL    HW224804   2.516   4.103  12.505 -0.6893 -0.6365  0.7829
 4449SOL     OW24805   0.805   4.328   4.594  0.2609  1.0312 -0.3178
 4449SOL    HW124806   0.743   4.258   4.614  1.0920  0.8812  1.7146
 4449SOL    HW224807   0.779   4.340   4.503 -1.6657 -2.6352 -0.2504
 4450SOL     OW24808   3.691   1.063   5.117 -0.0221  0.0824 -0.5759
 4450SOL    HW124809   3.742   1.142   5.130 -0.1408 -0.1070  1.0888
 4450SOL    HW224810   3.741   1.022   5.046 -2.7602 -3.0841 -0.6799
 4451SOL     OW24811   0.673   2.906   5.122 -0.2090 -0.4443 -0.2086
 4451SOL    HW124812   0.671   2.890   5.217 -0.0781  1.6512  0.1479
 4451SOL    HW224813   0.581   2.899   5.094  0.0447  0.9772 -1.4102
 4452SOL     OW24814   3.877   4.343   2.222 -0.1056 -0.1919  0.0416
 4452SOL    HW124815   3.792   4.330   2.179  0.1089 -1.5019 -0.0042
 4452SOL    HW224816   3.858   4.426   2.264  0.2884  0.0587 -0.2755
 4453SOL     OW24817   4.349   0.013   6.641 -1.4094 -0.9682  0.5762
 4453SOL    HW124818   4.325   4.670   6.575 -2.3532  0.6127 -0.6540
 4453SOL    HW224819   4.404   4.682   6.698 -1.3717 -1.1883  0.3307
 4454SOL     OW24820   4.655   3.037   2.448 -0.4181  0.2383  0.4094
 4454SOL    HW124821   4.677   3.126   2.423  1.5783 -0.0165  1.2838
 4454SOL    HW224822   4.583   3.044   2.511 -1.3649 -0.6986 -0.5514
 4455SOL     OW24823   0.950   3.281   3.310  0.1694 -0.0551 -0.1534
 4455SOL    HW124824   0.876   3.221   3.302  0.6754 -0.6817 -0.1119
 4455SOL    HW224825   0.907   3.360   3.344  3.1100  1.4528  0.0256
 4456SOL     OW24826   4.015   3.341   9.250 -0.0528 -0.4993 -0.1354
 4456SOL    HW124827   3.967   3.270   9.292  0.5073  0.1587  1.6209
 4456SOL    HW224828   4.063   3.299   9.179 -0.3471  1.2791 -1.3921
 4457SOL     OW24829   1.656   2.529   5.377  0.0322 -0.2502 -0.6017
 4457SOL    HW124830   1.629   2.614   5.414 -0.2350 -0.2132 -0.8832
 4457SOL    HW224831   1.570   2.490   5.364 -0.3163 -1.0625  3.8963
 4458SOL     OW24832   3.512   0.211  14.957 -0.4427  0.0254  0.0898
 4458SOL    HW124833   3.518   0.184  14.865 -0.5562 -2.4457  0.7960
 4458SOL    HW224834   3.454   0.138  14.980 -0.8605  0.3147 -0.0428
 4459SOL     OW24835   0.071   0.532   5.163 -0.1758  0.3541 -0.4783
 4459SOL    HW124836   0.068   0.626   5.177  1.4394  0.0514  1.8909
 4459SOL    HW224837   0.070   0.497   5.253 -1.4450  0.6834 -0.3650
 4460SOL     OW24838   3.935   2.011   8.537 -0.2772 -0.1163  0.0275
 4460SOL    HW124839   3.855   1.958   8.537 -1.4411  1.6692  0.4817
 4460SOL    HW224840   4.001   1.942   8.529 -0.3557 -0.1604 -0.2612
 4461SOL     OW24841   2.188   3.491  13.474 -0.2339  0.7708  0.2255
 4461SOL    HW124842   2.093   3.494  13.473 -0.2933  0.0236  2.8138
 4461SOL    HW224843   2.201   3.399  13.497 -0.7172  0.8727  0.8952
 4462SOL     OW24844   0.278   4.193   5.313  0.2274  0.1049 -0.2487
 4462SOL    HW124845   0.272   4.267   5.374  1.7555  1.5036 -1.8135
 4462SOL    HW224846   0.231   4.127   5.364  2.0144 -0.1525  1.0694
 4463SOL     OW24847   0.659   0.867  16.978  0.1848 -0.0235  0.6859
 4463SOL    HW124848   0.625   0.820  16.902 -1.7951  0.8126  1.0446
 4463SOL    HW224849   0.690   0.951  16.944 -0.8036 -0.2404 -0.7596
 4464SOL     OW24850   2.551   2.191  11.710  0.1357  0.4206 -0.5119
 4464SOL    HW124851   2.535   2.167  11.801 -1.2973  0.5495 -0.7221
 4464SOL    HW224852   2.594   2.109  11.686  0.1385 -0.1587  1.4957
 4465SOL     OW24853   3.166   2.978   3.696 -0.7720  0.5886  0.0581
 4465SOL    HW124854   3.210   2.969   3.781 -0.6832 -3.1181 -0.4028
 4465SOL    HW224855   3.082   2.941   3.723 -0.6534  0.4871  0.2939
 4466SOL     OW24856   3.797   1.834   0.552  0.3427 -0.3237  0.5804
 4466SOL    HW124857   3.766   1.788   0.630  0.7163  1.1506  1.5961
 4466SOL    HW224858   3.887   1.802   0.543  0.0652 -1.5291  1.9880
 4467SOL     OW24859   0.881   0.636   6.832 -0.1683 -0.4379 -0.0606
 4467SOL    HW124860   0.917   0.659   6.746  0.7286  0.1108  0.4608
 4467SOL    HW224861   0.803   0.588   6.803  0.0439 -1.1425  0.5460
 4468SOL     OW24862   0.952   2.900   8.596 -0.6004  0.0477 -0.3798
 4468SOL    HW124863   0.918   2.922   8.683 -0.2053  2.4251 -0.8360
 4468SOL    HW224864   0.886   2.923   8.531  0.3837 -2.1030 -2.1362
 4469SOL     OW24865   2.349   0.054   0.240 -0.0253  0.3187 -0.4908
 4469SOL    HW124866   2.321   0.107   0.314  0.1133  1.1251 -1.0182
 4469SOL    HW224867   2.266   0.055   0.192 -0.8792 -1.8466  0.9680
 4470SOL     OW24868   1.622   0.847   3.832  0.4036  0.1169  0.1860
 4470SOL    HW124869   1.656   0.759   3.814 -0.5211 -0.8383  3.0937
 4470SOL    HW224870   1.694   0.905   3.808  0.7755 -0.6396 -0.5327
 4471SOL     OW24871   4.366   3.391  16.503  0.4123  0.2243  0.4352
 4471SOL    HW124872   4.379   3.486  16.511 -1.2822  0.2260  3.2121
 4471SOL    HW224873   4.300   3.374  16.571 -1.7247  1.3316 -1.3581
 4472SOL     OW24874   4.578   4.475   4.586 -0.3207 -0.1966 -0.1463
 4472SOL    HW124875   4.488   4.508   4.591 -0.3558 -0.0561 -1.4992
 4472SOL    HW224876   4.602   4.464   4.677 -1.4570 -0.9204  0.0779
 4473SOL     OW24877   1.907   2.102   8.874 -0.2339  0.5381 -0.1943
 4473SOL    HW124878   1.870   2.146   8.797 -1.3953 -0.7417 -0.3810
 4473SOL    HW224879   1.846   2.130   8.942  0.3665 -0.1702  0.6235
 4474SOL     OW24880   2.398   3.834   6.536  0.2805 -0.2555  1.0233
 4474SOL    HW124881   2.448   3.908   6.500  1.0572 -1.6580 -0.8005
 4474SOL    HW224882   2.315   3.881   6.537  0.4944  0.1421  0.4204
 4475SOL     OW24883   2.057   4.350   5.879 -0.2964  0.1018 -0.0007
 4475SOL    HW124884   2.100   4.287   5.936  1.9507 -1.0832 -3.0214
 4475SOL    HW224885   2.018   4.405   5.948 -0.1995 -0.5479  0.5714
 4476SOL     OW24886   2.519   3.621   2.766 -0.1658 -0.1090 -0.0543
 4476SOL    HW124887   2.544   3.689   2.704 -2.4582  0.2265 -0.6003
 4476SOL    HW224888   2.424   3.635   2.771 -0.6038 -3.0637 -0.4053
 4477SOL     OW24889   4.268   0.272   7.581  0.2324 -0.3480  0.2977
 4477SOL    HW124890   4.212   0.329   7.529 -0.6265 -1.4812 -0.0132
 4477SOL    HW224891   4.199   0.253   7.645  0.5433 -2.4854  0.0176
 4478SOL     OW24892   0.713   4.348   3.298  0.0119  0.4025  0.0253
 4478SOL    HW124893   0.629   4.320   3.261  0.1048 -0.1147  0.1997
 4478SOL    HW224894   0.729   4.274   3.357 -1.4253 -0.5573 -0.7814
 4479SOL     OW24895   1.692   0.316   4.695 -0.4005  0.0780 -0.0579
 4479SOL    HW124896   1.619   0.347   4.748 -0.4006  0.0462 -0.0393
 4479SOL    HW224897   1.763   0.342   4.754  0.5488  2.4335 -2.2051
 4480SOL     OW24898   1.433   1.105   1.996 -0.4830 -0.4707  0.1890
 4480SOL    HW124899   1.427   1.160   2.075 -0.4897 -2.2524  1.4222
 4480SOL    HW224900   1.425   1.018   2.033 -0.1319  0.4614  2.4762
 4481SOL     OW24901   0.476   3.576   9.504 -0.1075  0.3720  0.2529
 4481SOL    HW124902   0.463   3.599   9.412  1.5851 -0.2999 -0.1660
 4481SOL    HW224903   0.403   3.522   9.533  0.4159 -0.2091  0.5025
 4482SOL     OW24904   1.948   1.161   7.161 -0.2351  0.2184 -0.2146
 4482SOL    HW124905   1.980   1.238   7.113  2.8620 -0.6272  0.5241
 4482SOL    HW224906   1.907   1.107   7.093 -2.2040  0.4147  0.7993
 4483SOL     OW24907   3.165   1.929   6.437 -0.3236 -0.0665  0.1304
 4483SOL    HW124908   3.213   1.951   6.517 -0.2040 -2.3831  0.6895
 4483SOL    HW224909   3.200   1.999   6.381  0.0550  0.3809  0.9279
 4484SOL     OW24910   3.112   1.560  12.348 -0.0710 -0.1841  0.2761
 4484SOL    HW124911   3.140   1.469  12.353 -0.4037 -0.3222 -0.3165
 4484SOL    HW224912   3.194   1.601  12.375 -0.4613  0.5782  0.3086
 4485SOL     OW24913   3.321   0.352   2.652 -0.1838 -0.3619  0.5015
 4485SOL    HW124914   3.364   0.425   2.697  0.5908 -0.7539  0.3873
 4485SOL    HW224915   3.386   0.282   2.652 -0.8432 -0.9612 -2.1397
 4486SOL     OW24916   2.796   2.469   0.026 -0.9012  0.4801  0.5430
 4486SOL    HW124917   2.859   2.412  17.677 -1.9342  1.0514 -1.7137
 4486SOL    HW224918   2.742   2.407   0.075 -0.7274  0.1347  0.2903
 4487SOL     OW24919   1.421   2.528   4.803  0.6955 -0.1475  0.0925
 4487SOL    HW124920   1.343   2.583   4.802  2.1742  1.9321 -0.0810
 4487SOL    HW224921   1.488   2.591   4.777  0.4968  0.2436  0.5189
 4488SOL     OW24922   1.089   4.319   3.854  0.4250 -0.1611  0.3381
 4488SOL    HW124923   1.122   4.408   3.868 -1.0342  0.1915  1.6426
 4488SOL    HW224924   1.151   4.277   3.795 -0.6427  1.9832 -2.3326
 4489SOL     OW24925   4.342   2.940   5.723 -0.2167  0.0200 -0.1149
 4489SOL    HW124926   4.408   2.934   5.654 -0.9516 -0.1901 -0.7922
 4489SOL    HW224927   4.290   3.016   5.698 -0.7837  0.6471  2.8996
 4490SOL     OW24928   1.091   2.936   5.351  0.0232  0.0741  0.1100
 4490SOL    HW124929   1.025   2.971   5.292 -1.5894 -0.8332  1.3831
 4490SOL    HW224930   1.136   2.876   5.291 -0.5311  0.4382 -0.6701
 4491SOL     OW24931   3.985   4.299   4.138  0.3400  0.1895 -0.4017
 4491SOL    HW124932   3.912   4.318   4.078 -2.5981 -3.3962  2.1056
 4491SOL    HW224933   4.008   4.386   4.170 -0.3128  0.9055 -1.8581
 4492SOL     OW24934   4.364   0.692  13.440 -0.1883 -0.2317 -0.2610
 4492SOL    HW124935   4.334   0.676  13.350 -4.8948  0.7927  1.1554
 4492SOL    HW224936   4.331   0.779  13.463 -0.6287  0.1884 -2.4530
 4493SOL     OW24937   3.979   1.646  12.993  0.0508  0.1402 -0.1255
 4493SOL    HW124938   3.981   1.669  12.900  0.5282  0.0973 -0.1255
 4493SOL    HW224939   3.892   1.679  13.016 -0.1707 -1.3051  1.0695
 4494SOL     OW24940   3.064   1.308   6.177  0.2463  0.1178 -0.2031
 4494SOL    HW124941   3.041   1.401   6.185 -1.7062 -0.1825 -2.6180
 4494SOL    HW224942   3.048   1.278   6.267  0.6272  0.6914  0.0639
 4495SOL     OW24943   4.147   2.000   3.205  0.0240 -0.3324  0.2694
 4495SOL    HW124944   4.198   2.052   3.142  2.4145 -1.0143  1.6666
 4495SOL    HW224945   4.131   2.069   3.270 -0.8611  0.1327 -0.4279
 4496SOL     OW24946   4.183   2.584   5.600 -0.0030 -0.1241  0.8432
 4496SOL    HW124947   4.134   2.658   5.563 -3.7051 -2.4729  0.9879
 4496SOL    HW224948   4.258   2.575   5.541 -0.3016  1.6057  0.2151
 4497SOL     OW24949   3.946   3.037   3.295 -0.1990  0.4650  0.0996
 4497SOL    HW124950   4.028   3.083   3.314 -0.1465 -0.6639  2.6295
 4497SOL    HW224951   3.920   3.090   3.220  0.0390  0.7079  0.1862
 4498SOL     OW24952   0.910   2.915   5.774  0.3568 -0.5654  0.0699
 4498SOL    HW124953   0.963   2.889   5.849  0.5622  0.8803  0.4303
 4498SOL    HW224954   0.820   2.911   5.806  0.2251 -1.4599 -0.4101
 4499SOL     OW24955   0.938   3.706   3.728  0.3493 -0.1302 -0.1313
 4499SOL    HW124956   0.847   3.726   3.705  0.2394 -2.5025 -1.8049
 4499SOL    HW224957   0.977   3.769   3.667 -2.5784  1.2487 -0.5846
 4500SOL     OW24958   2.600   4.215   7.575 -0.2033  0.4848 -0.2280
 4500SOL    HW124959   2.609   4.156   7.500 -2.3695 -0.1795  0.0598
 4500SOL    HW224960   2.678   4.188   7.623 -0.7621 -0.1842  0.2937
 4501SOL     OW24961   4.579   1.581   4.912 -0.4995  0.0452 -0.1017
 4501SOL    HW124962   4.645   1.602   4.845 -0.2679  1.2269  0.4977
 4501SOL    HW224963   4.545   1.670   4.915 -1.8534 -0.4369 -1.2287
 4502SOL     OW24964   0.825   1.748   5.063  0.0057 -0.1530  0.4915
 4502SOL    HW124965   0.855   1.658   5.054  0.1375  0.0461 -1.1983
 4502SOL    HW224966   0.821   1.751   5.158  0.2973  2.9835  0.4149
 4503SOL     OW24967   3.723   3.140   6.931 -0.8568 -1.0206  0.5634
 4503SOL    HW124968   3.755   3.062   6.884  0.1634 -0.1276 -0.2134
 4503SOL    HW224969   3.801   3.184   6.963 -0.7224 -0.3487 -0.6896
 4504SOL     OW24970   4.687   1.860   5.276  0.4425  0.0584  0.4320
 4504SOL    HW124971   0.012   1.933   5.314  1.2179  0.1136 -0.6587
 4504SOL    HW224972   4.652   1.904   5.199  1.1761 -2.7270 -1.5167
 4505SOL     OW24973   2.118   3.548   2.461 -0.2731 -0.2158  0.5394
 4505SOL    HW124974   2.066   3.529   2.539  0.5719 -3.0065  0.4150
 4505SOL    HW224975   2.199   3.594   2.483  0.6130 -0.6642 -1.7476
 4506SOL     OW24976   3.724   4.643   2.982 -0.3385 -0.0463  0.3606
 4506SOL    HW124977   3.675   4.580   3.035 -0.2603 -0.9617 -0.6515
 4506SOL    HW224978   3.813   4.616   3.005 -0.1857 -0.3318 -0.5331
 4507SOL     OW24979   4.262   0.234   6.497 -0.5508 -0.3084  0.0497
 4507SOL    HW124980   4.189   0.292   6.518  0.4274  1.0068 -0.1945
 4507SOL    HW224981   4.251   0.160   6.557  0.5691 -0.6849 -0.2206
 4508SOL     OW24982   3.820   0.371  14.782 -0.1332 -0.1933  0.9966
 4508SOL    HW124983   3.838   0.353  14.690 -0.9192  2.7825  0.2584
 4508SOL    HW224984   3.851   0.286  14.814  2.1549 -0.0028 -0.7007
 4509SOL     OW24985   2.847   1.322   7.053 -0.5207  0.4395  0.1434
 4509SOL    HW124986   2.844   1.385   6.981  0.6547 -1.9279 -2.0300
 4509SOL    HW224987   2.941   1.330   7.069 -0.0685 -1.3652 -1.4765
 4510SOL     OW24988   0.535   3.295   2.085  0.9249  0.1166  0.6287
 4510SOL    HW124989   0.618   3.255   2.062 -0.6109 -1.4442 -2.2375
 4510SOL    HW224990   0.521   3.276   2.178 -0.0014 -0.5706  0.3431
 4511SOL     OW24991   1.555   2.732   4.631  0.4192  0.5337 -0.0291
 4511SOL    HW124992   1.554   2.812   4.684 -1.1348 -0.5182  1.5317
 4511SOL    HW224993   1.646   2.740   4.604  0.1795 -0.0650 -1.0242
 4512SOL     OW24994   4.346   0.252   9.089 -0.8958  0.4388  0.1000
 4512SOL    HW124995   4.382   0.187   9.149 -1.6167 -1.4106 -1.4429
 4512SOL    HW224996   4.358   0.330   9.143  1.5942 -0.4418  0.8317
 4513SOL     OW24997   3.618   1.290   2.161 -0.3627 -0.9125 -0.4862
 4513SOL    HW124998   3.671   1.321   2.235 -0.4335  0.3352 -0.9515
 4513SOL    HW224999   3.608   1.372   2.113 -0.4421 -0.1470  0.8110
 4514SOL     OW25000   1.231   0.274   5.518  0.2317  0.4593 -0.3041
 4514SOL    HW125001   1.315   0.228   5.512  1.0263  1.9873 -0.9183
 4514SOL    HW225002   1.214   0.298   5.427  0.4304  0.0955 -0.4392
 4515SOL     OW25003   4.015   4.670   2.127 -0.2320  0.1957 -0.6816
 4515SOL    HW125004   3.994   4.642   2.216 -0.6849  0.8399 -0.5937
 4515SOL    HW225005   4.063   4.593   2.094 -0.0447  0.1405 -0.2774
 4516SOL     OW25006   1.243   4.275   7.831 -0.1751  0.0389 -0.7336
 4516SOL    HW125007   1.289   4.234   7.904  0.7009  2.3523 -0.0057
 4516SOL    HW225008   1.291   4.250   7.751 -1.9792  2.2011 -2.4946
 4517SOL     OW25009   0.520   2.122   4.720 -0.2160 -0.3729  0.6675
 4517SOL    HW125010   0.494   2.030   4.716 -0.3061 -0.3241  0.1204
 4517SOL    HW225011   0.613   2.108   4.738  0.3433  1.9407 -0.3990
 4518SOL     OW25012   2.309   1.734   2.894 -0.2143 -0.4314  0.4483
 4518SOL    HW125013   2.291   1.822   2.861 -1.0099 -0.3331  1.1648
 4518SOL    HW225014   2.289   1.749   2.986  0.4858  0.7513  0.4114
 4519SOL     OW25015   4.208   2.013  15.798  0.0326 -0.9069 -0.2128
 4519SOL    HW125016   4.277   2.010  15.731  0.9677 -1.8452  0.7806
 4519SOL    HW225017   4.270   2.024  15.870  0.3301  1.5235 -0.8363
 4520SOL     OW25018   2.262   0.724   4.162  0.0655  0.0937  0.0219
 4520SOL    HW125019   2.214   0.659   4.213 -1.3013 -0.7089 -2.2766
 4520SOL    HW225020   2.240   0.713   4.069 -0.8031 -1.7865  0.4465
 4521SOL     OW25021   4.639   1.624   9.086  0.0934  0.3651  0.1754
 4521SOL    HW125022   4.612   1.678   9.161  1.0077 -0.6945  1.2531
 4521SOL    HW225023   4.582   1.656   9.016  2.0871  2.0103 -0.6917
 4522SOL     OW25024   3.209   2.748   9.118  0.0455  0.9235 -0.1313
 4522SOL    HW125025   3.161   2.830   9.105 -1.1164  0.1266 -0.9059
 4522SOL    HW225026   3.148   2.706   9.179  1.5412 -0.9191  0.1088
 4523SOL     OW25027   1.768   0.338   5.234 -0.1096 -0.0982 -0.0216
 4523SOL    HW125028   1.676   0.362   5.223  0.3521  1.2885 -0.9610
 4523SOL    HW225029   1.776   0.362   5.326  0.1385  1.0060 -0.3263
 4524SOL     OW25030   4.016   2.842  11.031  0.1929 -0.1850  1.0141
 4524SOL    HW125031   4.085   2.827  11.095  0.0324 -0.7858  1.0410
 4524SOL    HW225032   4.068   2.859  10.953  0.1131 -0.5417  0.8820
 4525SOL     OW25033   2.689   4.492  10.638 -0.1326  0.1564 -0.2711
 4525SOL    HW125034   2.744   4.417  10.658 -0.9505 -0.2480  0.4652
 4525SOL    HW225035   2.760   4.546  10.603  0.4111 -0.1945  0.2796
 4526SOL     OW25036   1.724   3.362   0.570  0.3965 -0.1712 -0.0891
 4526SOL    HW125037   1.635   3.397   0.566  0.0249 -1.2383 -1.1697
 4526SOL    HW225038   1.725   3.269   0.593  1.3360 -0.1775 -0.1326
 4527SOL     OW25039   2.864   1.279   0.023  0.2774  0.2737 -0.0195
 4527SOL    HW125040   2.932   1.287  17.651  1.0050  0.0580  0.6905
 4527SOL    HW225041   2.879   1.350   0.085 -0.9965  0.1485  0.4271
 4528SOL     OW25042   4.256   3.362  17.418  0.1773 -0.5032  0.1161
 4528SOL    HW125043   4.279   3.452  17.441  0.3522 -1.5071  3.9074
 4528SOL    HW225044   4.260   3.318  17.503  1.6131 -0.9576 -0.1899
 4529SOL     OW25045   1.443   2.047   6.062  0.4381 -0.2107 -0.1515
 4529SOL    HW125046   1.446   1.969   6.117  0.0941 -0.0205  0.1363
 4529SOL    HW225047   1.468   2.014   5.976  0.5811  4.3143 -1.8753
 4530SOL     OW25048   0.793   2.288   7.970 -0.4864 -0.2254  0.5053
 4530SOL    HW125049   0.816   2.335   7.890  3.6419 -0.1317  1.7566
 4530SOL    HW225050   0.697   2.285   7.966 -0.4648  0.1866 -0.3174
 4531SOL     OW25051   1.570   0.944   1.752 -0.1712 -0.5672 -0.0702
 4531SOL    HW125052   1.605   0.982   1.833  3.4260 -2.1953 -0.8536
 4531SOL    HW225053   1.512   1.014   1.722 -0.5781 -0.6043  0.6115
 4532SOL     OW25054   1.114   2.512   0.658  0.2886  0.4708 -0.2930
 4532SOL    HW125055   1.092   2.581   0.720 -0.3801  0.2175 -0.2501
 4532SOL    HW225056   1.208   2.528   0.659  0.6962 -1.7773 -0.6593
 4533SOL     OW25057   2.531   3.560  12.599  0.2180  0.3931  0.3568
 4533SOL    HW125058   2.515   3.527  12.688 -1.9118 -0.8363 -0.4773
 4533SOL    HW225059   2.626   3.570  12.605  0.0298  1.2207  2.0935
 4534SOL     OW25060   0.403   4.184   1.866 -0.2256 -0.7577 -0.3047
 4534SOL    HW125061   0.479   4.195   1.809 -0.1717  2.1921  0.2992
 4534SOL    HW225062   0.443   4.210   1.949 -1.3032 -0.9739  0.2887
 4535SOL     OW25063   0.457   0.344   9.498 -0.3067  0.2075 -0.0369
 4535SOL    HW125064   0.530   0.299   9.541  0.5105  1.0713 -0.5000
 4535SOL    HW225065   0.471   0.325   9.405  0.9661  0.7621  0.0402
 4536SOL     OW25066   2.474   1.421   5.834 -0.3466  0.2903  0.3089
 4536SOL    HW125067   2.476   1.469   5.917  0.2849 -0.1817  0.5640
 4536SOL    HW225068   2.393   1.441   5.788  0.8909  0.2340 -1.8779
 4537SOL     OW25069   0.102   4.696  10.335 -0.0079  0.3101  0.2328
 4537SOL    HW125070   0.158   4.705  10.413 -0.6611 -0.7184  0.8218
 4537SOL    HW225071   0.141   4.620  10.291 -2.2998 -0.8367  0.2179
 4538SOL     OW25072   1.935   3.489   6.320  0.3270  0.9653 -0.1851
 4538SOL    HW125073   1.935   3.581   6.294 -0.3091  0.2397 -2.6742
 4538SOL    HW225074   1.957   3.438   6.243  0.4387  1.2514 -0.3415
 4539SOL     OW25075   3.076   0.518   9.153  0.1267 -0.3929  0.4016
 4539SOL    HW125076   3.079   0.422   9.159 -0.9168 -0.2399  3.2270
 4539SOL    HW225077   2.992   0.527   9.198 -0.5084  0.4166 -0.9333
 4540SOL     OW25078   0.274   1.666  16.142  0.1023 -0.2650 -0.0413
 4540SOL    HW125079   0.213   1.594  16.158  0.0937 -0.4562 -0.9215
 4540SOL    HW225080   0.258   1.692  16.051 -1.0978 -0.3386  0.1475
 4541SOL     OW25081   4.151   0.300   8.589  0.0917  0.0503 -0.0271
 4541SOL    HW125082   4.243   0.320   8.574  0.8549 -2.5296  1.2042
 4541SOL    HW225083   4.139   0.353   8.668 -0.3665 -0.1830  0.0597
 4542SOL     OW25084   2.106   0.076  12.522 -0.3338  0.3098  0.2580
 4542SOL    HW125085   2.089   0.155  12.574 -0.3252 -0.5848  1.6259
 4542SOL    HW225086   2.063   0.009  12.574  1.2919  0.1811  1.4398
 4543SOL     OW25087   2.904   1.218  12.389 -0.4923 -0.2360 -0.5415
 4543SOL    HW125088   2.998   1.237  12.391 -0.8875  1.7973 -1.3966
 4543SOL    HW225089   2.901   1.198  12.296 -0.4488 -0.5125 -0.4821
 4544SOL     OW25090   3.998   4.620  11.767 -0.0777 -0.1571 -0.6340
 4544SOL    HW125091   3.914   4.664  11.782  0.7898  1.2394  0.0485
 4544SOL    HW225092   4.052   4.682  11.718 -0.8384  0.0246 -1.2396
 4545SOL     OW25093   1.786   3.214   8.152  0.0544  0.5379 -0.2767
 4545SOL    HW125094   1.855   3.170   8.103  0.0270 -0.5017  0.6175
 4545SOL    HW225095   1.807   3.191   8.243  2.6549  1.6340 -0.6082
 4546SOL     OW25096   1.730   1.863   8.030 -0.0628 -0.0582  0.2930
 4546SOL    HW125097   1.714   1.954   8.057  1.6724  0.2290  0.3653
 4546SOL    HW225098   1.641   1.828   8.031  0.3273 -0.9999  1.7171
 4547SOL     OW25099   0.709   4.660   4.512  0.3082 -0.2579 -0.3262
 4547SOL    HW125100   0.638   4.600   4.534 -0.2592  0.9559  1.1388
 4547SOL    HW225101   0.759   4.673   4.593  1.6868 -1.4735 -0.9679
 4548SOL     OW25102   4.406   3.855   3.479  0.3352  0.0621 -0.9185
 4548SOL    HW125103   4.416   3.761   3.460  2.5318  0.0098  0.5118
 4548SOL    HW225104   4.340   3.856   3.548  1.2622 -0.3708 -0.0318
 4549SOL     OW25105   1.173   4.302   1.499 -0.3954 -0.1925 -0.0764
 4549SOL    HW125106   1.124   4.384   1.491  0.0865  0.2345  1.4659
 4549SOL    HW225107   1.109   4.231   1.503  0.3735 -0.8999 -0.0477
 4550SOL     OW25108   1.689   1.793   3.194 -0.5692 -0.0483  0.1132
 4550SOL    HW125109   1.707   1.725   3.130  0.1521 -0.4921  0.7852
 4550SOL    HW225110   1.737   1.760   3.270 -1.6863  0.9597  1.2883
 4551SOL     OW25111   0.962   4.567   8.600  0.0572 -0.0072 -0.1245
 4551SOL    HW125112   0.973   4.636   8.665 -0.9255  1.0009 -1.0308
 4551SOL    HW225113   0.900   4.516   8.652 -1.7275  1.5506 -0.7705
 4552SOL     OW25114   2.484   0.433  15.438  0.6751  0.0111  0.5460
 4552SOL    HW125115   2.552   0.368  15.459 -0.0209 -0.9457 -0.1321
 4552SOL    HW225116   2.531   0.516  15.430  1.0632 -0.1809  0.7894
 4553SOL     OW25117   4.303   2.669   6.557  0.2779  0.0532 -0.2927
 4553SOL    HW125118   4.247   2.669   6.480  0.9123 -1.8402 -0.7808
 4553SOL    HW225119   4.316   2.762   6.571  0.6606 -0.2013  1.0189
 4554SOL     OW25120   3.682   2.661  14.431  0.1419  0.2190 -0.2174
 4554SOL    HW125121   3.650   2.735  14.379 -0.1485  0.1792 -0.0951
 4554SOL    HW225122   3.764   2.635  14.389 -0.1412 -0.9020 -0.0690
 4555SOL     OW25123   0.881   1.178   3.396 -0.3610 -0.6930 -0.4716
 4555SOL    HW125124   0.834   1.198   3.315  1.0969  0.9410 -0.9175
 4555SOL    HW225125   0.881   1.083   3.407  0.8411 -0.6170  0.2547
 4556SOL     OW25126   1.496   3.654  17.394  0.0802  0.1759  0.8481
 4556SOL    HW125127   1.529   3.729  17.344  0.3107 -0.6512 -0.2740
 4556SOL    HW225128   1.501   3.680  17.485 -0.8239  0.1907  0.8930
 4557SOL     OW25129   3.489   4.024   5.172  0.2684  0.4863  0.2066
 4557SOL    HW125130   3.480   3.933   5.201 -1.1428 -0.1668 -2.2783
 4557SOL    HW225131   3.417   4.037   5.109 -0.4447 -1.0862  0.6849
 4558SOL     OW25132   3.149   3.565   9.528  0.4098  0.1521 -0.3627
 4558SOL    HW125133   3.163   3.561   9.433  1.5009  1.8578 -0.2733
 4558SOL    HW225134   3.074   3.507   9.539  0.1615  0.6740  0.6024
 4559SOL     OW25135   0.896   3.472   5.526 -0.4238 -0.4208 -0.1820
 4559SOL    HW125136   0.888   3.514   5.612 -0.0214 -1.5105  0.3899
 4559SOL    HW225137   0.832   3.405   5.546  0.4087 -1.0229  0.4888
 4560SOL     OW25138   0.872   3.124  12.824 -0.8503 -0.9950  0.4667
 4560SOL    HW125139   0.886   3.030  12.830  1.5820 -0.8858 -3.4646
 4560SOL    HW225140   0.864   3.127  12.729 -0.5444 -2.5261  0.3881
 4561SOL     OW25141   4.127   2.988   2.490  0.4861  1.0440 -0.2316
 4561SOL    HW125142   4.111   2.895   2.476  2.5100  0.6804 -0.2086
 4561SOL    HW225143   4.079   3.024   2.415  1.2846 -0.4046 -1.4445
 4562SOL     OW25144   3.055   4.133  15.137  0.0443  0.4572  0.1626
 4562SOL    HW125145   3.030   4.160  15.048  0.9613 -0.0901 -0.2639
 4562SOL    HW225146   2.971   4.094  15.160  0.8085 -0.3457  1.5691
 4563SOL     OW25147   4.716   0.278   1.831 -0.0749 -0.4488  0.4041
 4563SOL    HW125148   0.088   0.266   1.824 -0.0677  0.3150 -0.6568
 4563SOL    HW225149   4.703   0.342   1.762 -1.6905  1.0603  2.0917
 4564SOL     OW25150   1.530   0.577   3.170  0.4708 -0.1954 -0.0178
 4564SOL    HW125151   1.543   0.671   3.159  4.3869 -0.8030 -0.5869
 4564SOL    HW225152   1.604   0.564   3.230  0.4802 -2.1260 -0.4456
 4565SOL     OW25153   1.048   1.840   0.617 -0.2410 -0.4229  0.2172
 4565SOL    HW125154   0.959   1.853   0.648 -1.1054  1.3114 -2.9702
 4565SOL    HW225155   1.086   1.928   0.621 -0.3155 -0.4539  1.7158
 4566SOL     OW25156   4.534   4.098   7.697  0.7367  0.0951 -0.0784
 4566SOL    HW125157   4.495   4.047   7.768  1.0832  0.9261  0.7035
 4566SOL    HW225158   4.459   4.091   7.638  3.0967 -0.9304 -2.9276
 4567SOL     OW25159   0.709   0.516  17.204 -0.1534 -0.0529  0.2969
 4567SOL    HW125160   0.681   0.430  17.235 -1.3096  0.0293 -0.4987
 4567SOL    HW225161   0.771   0.491  17.135  0.5119 -2.8665  1.8988
 4568SOL     OW25162   3.011   1.688   3.436 -0.2369 -0.4854 -0.3231
 4568SOL    HW125163   3.023   1.762   3.377  0.1755 -0.9936 -0.8801
 4568SOL    HW225164   2.955   1.636   3.379 -1.6548  0.8829 -0.1577
 4569SOL     OW25165   3.634   3.820  11.070  0.2147 -0.3067  0.2092
 4569SOL    HW125166   3.576   3.814  10.994  0.0452  0.0812  0.3124
 4569SOL    HW225167   3.590   3.885  11.124  1.9805  1.9372 -1.0613
 4570SOL     OW25168   0.299   3.663   4.691 -0.0928  0.3561 -0.4756
 4570SOL    HW125169   0.273   3.669   4.783 -1.7725  2.0994 -1.0454
 4570SOL    HW225170   0.240   3.727   4.649 -0.0616  0.5160 -0.2747
 4571SOL     OW25171   4.110   1.823   0.754  0.4730  0.2458  0.0269
 4571SOL    HW125172   4.115   1.739   0.800 -1.7381  0.2687  0.2860
 4571SOL    HW225173   4.105   1.797   0.662 -1.3254  0.5431  0.0538
 4572SOL     OW25174   2.169   3.996   8.382 -0.6315  0.3738 -0.3549
 4572SOL    HW125175   2.134   3.933   8.445  2.2928 -0.3468  0.5426
 4572SOL    HW225176   2.087   4.029   8.345 -0.4999 -0.6640 -1.5612
 4573SOL     OW25177   1.981   3.472   0.517 -0.0421 -0.6096  0.2428
 4573SOL    HW125178   1.897   3.425   0.519 -0.7288  0.5162 -1.8954
 4573SOL    HW225179   2.004   3.472   0.424 -3.5336  0.2786 -0.6317
 4574SOL     OW25180   2.005   4.144  14.121 -0.2849 -0.1854 -0.4348
 4574SOL    HW125181   1.955   4.206  14.068 -0.5038  0.1047  0.1087
 4574SOL    HW225182   1.974   4.061  14.085 -3.0944  0.6942 -0.0202
 4575SOL     OW25183   0.189   1.405   8.770 -0.0564 -0.3941 -0.0067
 4575SOL    HW125184   0.252   1.459   8.722 -0.0058 -1.2634 -0.9229
 4575SOL    HW225185   0.165   1.467   8.840  0.8714  1.2502 -1.1283
 4576SOL     OW25186   4.124   3.474   7.778  0.2056 -0.1976  0.1671
 4576SOL    HW125187   4.139   3.485   7.684 -1.2683 -0.9208 -0.1445
 4576SOL    HW225188   4.029   3.482   7.785 -0.0420 -1.2269 -1.9805
 4577SOL     OW25189   3.908   3.451   3.536 -0.0985  0.6236  0.0237
 4577SOL    HW125190   3.886   3.359   3.548  2.2262  0.8831  5.8205
 4577SOL    HW225191   3.834   3.477   3.480 -0.1681 -0.0494 -0.2021
 4578SOL     OW25192   3.379   4.547   5.783  0.4741 -0.1706  0.0565
 4578SOL    HW125193   3.450   4.582   5.837 -1.1873  3.4938 -0.1242
 4578SOL    HW225194   3.420   4.558   5.698  0.8973  2.2532  0.5771
 4579SOL     OW25195   3.856   0.149   6.459  0.3438  0.2630  0.6357
 4579SOL    HW125196   3.778   0.205   6.469 -0.3869 -1.1070  2.7107
 4579SOL    HW225197   3.911   0.188   6.391 -2.2283  1.4809 -0.7652
 4580SOL     OW25198   1.846   3.781   1.000 -0.5059 -0.7882 -0.1726
 4580SOL    HW125199   1.800   3.704   1.031 -0.0102  0.3652  3.4242
 4580SOL    HW225200   1.920   3.740   0.954  0.9544  0.2078  1.2676
 4581SOL     OW25201   2.999   2.855   0.442 -0.0623 -0.3076  0.4310
 4581SOL    HW125202   2.919   2.859   0.389  0.6674 -2.0780 -0.8043
 4581SOL    HW225203   2.998   2.767   0.479  0.3826  0.0475  1.2803
 4582SOL     OW25204   0.754   4.065   3.532  0.1669 -0.3146 -0.3680
 4582SOL    HW125205   0.669   4.080   3.574  1.7590 -0.4402  2.9251
 4582SOL    HW225206   0.805   4.133   3.576  0.7332  0.5858 -2.3946
 4583SOL     OW25207   4.247   1.455   4.335  0.0985  0.1765 -0.1437
 4583SOL    HW125208   4.292   1.382   4.378 -2.2184 -1.9121 -1.2590
 4583SOL    HW225209   4.207   1.407   4.263 -0.4551  0.2406  0.1208
 4584SOL     OW25210   0.425   4.300   6.035 -0.3305  0.1063  0.3887
 4584SOL    HW125211   0.411   4.387   6.072 -2.5060  0.2082 -0.6804
 4584SOL    HW225212   0.335   4.268   6.027  0.5032 -2.0373 -0.3850
 4585SOL     OW25213   3.325   2.275   4.419  0.1733 -0.0416 -0.1511
 4585SOL    HW125214   3.359   2.255   4.506  2.7389  1.0602 -0.9011
 4585SOL    HW225215   3.368   2.356   4.390  2.8916 -0.8971  1.5276
 4586SOL     OW25216   3.921   2.484   6.874  0.1391  0.2270  0.1093
 4586SOL    HW125217   4.003   2.530   6.856 -0.5163  0.6951 -1.6728
 4586SOL    HW225218   3.872   2.524   6.803 -2.8683 -0.8330  1.5885
 4587SOL     OW25219   3.559   2.232   5.244  0.2589 -0.0684 -0.1167
 4587SOL    HW125220   3.605   2.162   5.199  0.5017 -1.0066  1.5882
 4587SOL    HW225221   3.616   2.261   5.315  0.1428  2.1717 -0.9373
 4588SOL     OW25222   2.759   2.368  17.264 -0.3627  0.2911 -0.0230
 4588SOL    HW125223   2.726   2.426  17.195 -3.5690 -0.6038  0.7272
 4588SOL    HW225224   2.738   2.412  17.347  0.4403 -2.2467  1.5093
 4589SOL     OW25225   2.441   4.670  12.660  0.2300  0.0029 -0.1717
 4589SOL    HW125226   2.430   0.038  12.632  2.2651  0.3323  0.0601
 4589SOL    HW225227   2.456   4.691  12.753 -0.9951  0.5327 -0.1004
 4590SOL     OW25228   3.069   4.231   3.267  0.6104  0.2028  0.0420
 4590SOL    HW125229   3.154   4.269   3.290  0.4686  1.9504 -2.2468
 4590SOL    HW225230   3.018   4.311   3.278 -0.8562 -0.4309 -2.1394
 4591SOL     OW25231   1.015   0.730   9.495 -0.2213 -0.2616  0.4365
 4591SOL    HW125232   1.026   0.640   9.525  0.7237 -0.6506 -1.1083
 4591SOL    HW225233   0.921   0.748   9.499 -0.6494 -1.9812 -1.8513
 4592SOL     OW25234   0.676   3.712   4.859  0.1665  0.1194  0.3629
 4592SOL    HW125235   0.630   3.752   4.785  1.0945  0.8563  0.1991
 4592SOL    HW225236   0.708   3.629   4.824  0.1984 -0.0975  0.8989
 4593SOL     OW25237   1.901   4.184   8.203  0.1611 -0.1352 -0.4713
 4593SOL    HW125238   1.902   4.173   8.108  1.0870  2.2114 -0.7351
 4593SOL    HW225239   1.992   4.211   8.215  0.1993 -0.2671 -0.4590
 4594SOL     OW25240   0.677   0.148   6.063 -0.0942  0.1872 -0.4892
 4594SOL    HW125241   0.614   0.161   6.133 -1.7504  1.5958 -2.2661
 4594SOL    HW225242   0.617   0.106   6.001  0.2514 -0.0843 -0.6424
 4595SOL     OW25243   0.991   0.137   4.648  0.1226 -0.4900  0.0885
 4595SOL    HW125244   0.976   0.207   4.585  2.4979  2.0324  2.3291
 4595SOL    HW225245   0.901   0.121   4.676  0.1160 -2.5404 -1.0609
 4596SOL     OW25246   1.106   3.554   7.781  0.1080  0.1836 -0.4127
 4596SOL    HW125247   1.157   3.589   7.854 -0.7556  2.4912 -0.9079
 4596SOL    HW225248   1.144   3.604   7.709 -0.2831  2.3727  0.8885
 4597SOL     OW25249   1.721   3.576  13.465  0.0595  0.1838 -0.3171
 4597SOL    HW125250   1.755   3.584  13.375  1.6315  2.4150  0.4770
 4597SOL    HW225251   1.787   3.517  13.502 -0.1903 -0.0108 -0.1772
 4598SOL     OW25252   3.629   3.278  16.571 -0.3405 -0.8684 -0.8590
 4598SOL    HW125253   3.589   3.219  16.636 -0.4218  2.2744  1.9734
 4598SOL    HW225254   3.688   3.224  16.518  2.5747  0.2004  1.2693
 4599SOL     OW25255   3.034   0.217   9.132  0.3562  0.4693  0.4006
 4599SOL    HW125256   3.056   0.127   9.156 -1.3869  0.4903  2.0643
 4599SOL    HW225257   2.969   0.185   9.070  0.5856 -1.3034  1.0635
 4600SOL     OW25258   3.133   3.699   1.619  0.0514 -0.1980  0.0220
 4600SOL    HW125259   3.178   3.684   1.702  1.2293  1.2395 -0.3511
 4600SOL    HW225260   3.090   3.782   1.641  4.3296  1.9834  0.2472
 4601SOL     OW25261   0.816   1.105   4.224 -0.0551 -0.0147 -0.0905
 4601SOL    HW125262   0.766   1.146   4.295  1.1431  0.5613  0.4285
 4601SOL    HW225263   0.739   1.079   4.174 -0.0075 -1.5717  0.6354
 4602SOL     OW25264   0.504   1.570   4.734  0.4251  0.0523  0.3756
 4602SOL    HW125265   0.419   1.526   4.732  0.4756 -0.0768  1.2037
 4602SOL    HW225266   0.550   1.513   4.795 -0.2062 -0.3620  0.4664
 4603SOL     OW25267   1.035   3.568   5.311 -0.7449 -0.2901 -0.4369
 4603SOL    HW125268   0.989   3.550   5.393 -0.9435 -0.8061 -0.6638
 4603SOL    HW225269   1.124   3.539   5.333 -0.0121  1.4988 -1.0215
 4604SOL     OW25270   0.924   1.942  11.365 -0.3867  0.2116 -0.0708
 4604SOL    HW125271   0.895   1.946  11.273 -1.4431  2.1152  0.3419
 4604SOL    HW225272   0.888   2.021  11.405  1.7105  0.3985  1.3967
 4605SOL     OW25273   3.091   0.080   6.483 -0.1836  0.0403 -0.1957
 4605SOL    HW125274   3.117   4.718   6.449  1.8745  0.7488 -0.4320
 4605SOL    HW225275   3.162   0.134   6.449  0.0057  0.5319  0.9568
 4606SOL     OW25276   4.611   2.780  13.017  0.6462 -0.2860  0.6475
 4606SOL    HW125277   4.698   2.814  13.036  0.6736  0.0694 -0.1524
 4606SOL    HW225278   4.605   2.727  13.097 -1.2054  0.1820  0.8368
 4607SOL     OW25279   3.710   1.251  15.852 -0.0973 -0.2736 -0.1697
 4607SOL    HW125280   3.617   1.272  15.860  0.4859  1.8967  0.8550
 4607SOL    HW225281   3.735   1.303  15.776 -0.6587  1.3232  0.7452
 4608SOL     OW25282   1.002   4.350   6.485 -0.2927  0.0567  0.1512
 4608SOL    HW125283   0.915   4.359   6.448 -0.1645  1.1901  0.1227
 4608SOL    HW225284   0.992   4.373   6.578 -0.7081 -1.2107  0.4296
 4609SOL     OW25285   1.902   0.741   5.724 -0.1747 -0.1787  0.6883
 4609SOL    HW125286   1.942   0.656   5.741 -0.0520  0.0946  1.7753
 4609SOL    HW225287   1.809   0.722   5.733 -0.5111  1.4067  0.6967
 4610SOL     OW25288   0.652   2.573   5.763 -0.0049 -0.2073 -0.2298
 4610SOL    HW125289   0.713   2.617   5.822  1.6473 -0.7800 -1.5138
 4610SOL    HW225290   0.652   2.482   5.794  2.5256  0.4427  1.6200
 4611SOL     OW25291   1.183   4.042  10.832 -0.6707  0.8604 -0.1798
 4611SOL    HW125292   1.146   3.961  10.869 -1.2965  0.9483 -0.6121
 4611SOL    HW225293   1.263   4.022  10.784 -0.2689  1.1793  0.3564
 4612SOL     OW25294   1.508   2.903   7.300  0.0993  0.6288  0.3551
 4612SOL    HW125295   1.455   2.922   7.378  0.0851 -1.3752  0.8331
 4612SOL    HW225296   1.557   2.983   7.284  1.9712 -0.9020 -1.5307
 4613SOL     OW25297   1.866   3.346   0.048 -0.0478  0.1073  0.3209
 4613SOL    HW125298   1.785   3.317   0.006  1.5967 -0.8128 -2.2002
 4613SOL    HW225299   1.877   3.280   0.116 -0.1738  0.9729  1.1760
 4614SOL     OW25300   4.000   4.607   2.706 -0.0366  0.1310  0.4056
 4614SOL    HW125301   4.034   4.528   2.664  1.6305  0.4183  1.2199
 4614SOL    HW225302   3.927   4.575   2.760 -3.3405  0.2246 -4.0309
 4615SOL     OW25303   4.470   2.899   4.922  0.3872  0.0801 -0.2231
 4615SOL    HW125304   4.458   2.816   4.875 -0.1639 -0.5553  1.0258
 4615SOL    HW225305   4.504   2.958   4.856  0.8943  0.1770  0.1215
 4616SOL     OW25306   2.277   0.097   6.370 -0.3718 -0.4920 -0.1365
 4616SOL    HW125307   2.326   0.037   6.314 -3.2804 -1.2081 -1.9171
 4616SOL    HW225308   2.207   0.036   6.393 -1.4543  0.1973 -1.5709
 4617SOL     OW25309   1.052   1.617   8.628  0.2436 -0.1098  0.7141
 4617SOL    HW125310   1.058   1.522   8.617 -0.2907 -0.1237  0.5177
 4617SOL    HW225311   1.066   1.624   8.722  2.0762 -0.0003  0.4256
 4618SOL     OW25312   1.840   1.622  14.569  0.1806 -0.1133  0.1757
 4618SOL    HW125313   1.915   1.615  14.510 -0.9398 -2.5368 -0.9757
 4618SOL    HW225314   1.860   1.701  14.620 -2.3265  0.0196  0.9587
 4619SOL     OW25315   4.049   2.961  16.835  0.2585  0.6789  0.3510
 4619SOL    HW125316   3.976   2.908  16.867  2.1017  0.0262  3.4882
 4619SOL    HW225317   4.109   2.886  16.827 -0.7163 -0.1067  0.3724
 4620SOL     OW25318   0.988   3.896   6.894  0.1213  1.0436  0.1715
 4620SOL    HW125319   1.078   3.871   6.916 -0.7441 -2.9054 -0.7808
 4620SOL    HW225320   0.946   3.882   6.979 -0.2804  0.1214 -0.1803
 4621SOL     OW25321   4.257   3.197  17.633 -0.3942  0.5374  0.2231
 4621SOL    HW125322   4.344   3.223  17.662  0.4349  0.6218 -2.3071
 4621SOL    HW225323   4.262   3.102  17.642 -0.5291  0.8487  3.4875
 4622SOL     OW25324   3.763   0.872   9.337  0.6037  0.2950  0.0365
 4622SOL    HW125325   3.692   0.860   9.275  2.3020  0.1098 -1.8937
 4622SOL    HW225326   3.816   0.803   9.297  0.2104  0.4135 -0.6796
 4623SOL     OW25327   0.769   4.128  14.569 -0.0640 -0.4636  0.0904
 4623SOL    HW125328   0.688   4.140  14.519  0.0536  0.5491  0.1473
 4623SOL    HW225329   0.758   4.185  14.645  0.2505 -2.7855  1.8941
 4624SOL     OW25330   0.286   3.730  14.162  0.4411 -0.4295  0.2773
 4624SOL    HW125331   0.321   3.645  14.190  1.1342 -0.5419 -0.9265
 4624SOL    HW225332   0.267   3.777  14.243 -2.8139  0.5587 -1.0751
 4625SOL     OW25333   2.277   0.899  14.289  0.3594 -0.3143  0.4810
 4625SOL    HW125334   2.322   0.815  14.279  0.9080  0.2370 -1.6755
 4625SOL    HW225335   2.206   0.892  14.225 -0.5115 -0.3815  1.4356
 4626SOL     OW25336   1.823   0.101   8.041  0.1233  0.5704  0.0377
 4626SOL    HW125337   1.782   0.182   8.010  1.7938  1.7267  0.8701
 4626SOL    HW225338   1.838   0.114   8.134  0.7374 -2.6951  0.4209
 4627SOL     OW25339   3.156   0.122   7.724  0.1208  0.5245  0.5849
 4627SOL    HW125340   3.136   0.213   7.703  0.1116  0.8707  2.0471
 4627SOL    HW225341   3.221   0.138   7.793  0.2919 -1.1048  0.8088
 4628SOL     OW25342   4.347   2.583  16.505  0.4636  0.2075  0.2725
 4628SOL    HW125343   4.278   2.526  16.470 -0.7823  1.0362  1.3575
 4628SOL    HW225344   4.367   2.625  16.422  2.2987  0.2267  0.7351
 4629SOL     OW25345   1.252   0.134   2.770  0.4209  0.1511 -0.1786
 4629SOL    HW125346   1.218   0.045   2.779 -2.2793  1.1932  0.0622
 4629SOL    HW225347   1.347   0.122   2.762  0.1607 -2.8049  1.2225
 4630SOL     OW25348   4.551   1.285  17.256  0.1403  0.2561 -0.0826
 4630SOL    HW125349   4.644   1.264  17.247 -0.0356 -0.9295  0.8500
 4630SOL    HW225350   4.550   1.362  17.312 -0.8670 -1.1145  1.7977
 4631SOL     OW25351   3.788   4.603   9.568 -0.5660  0.1678 -0.1469
 4631SOL    HW125352   3.818   4.633   9.654  1.6446 -1.1024 -0.4850
 4631SOL    HW225353   3.754   4.682   9.525  0.1177 -0.3531 -1.6251
 4632SOL     OW25354   1.284   2.856   2.960  0.1540 -0.0645 -0.3444
 4632SOL    HW125355   1.194   2.825   2.974  0.7121 -1.5262 -0.0174
 4632SOL    HW225356   1.332   2.775   2.972  0.7342  0.3498  0.1127
 4633SOL     OW25357   2.379   2.622  15.712  0.0475  0.0073 -0.1065
 4633SOL    HW125358   2.473   2.632  15.724 -0.5642  2.3246  2.7782
 4633SOL    HW225359   2.358   2.691  15.648 -4.6026 -1.2312  0.1069
 4634SOL     OW25360   2.684   2.768  13.693 -0.3123 -0.4532  0.2113
 4634SOL    HW125361   2.702   2.675  13.686  1.4211 -0.1975  1.3530
 4634SOL    HW225362   2.647   2.767  13.781  1.2574 -0.6246  0.8720
 4635SOL     OW25363   1.861   2.722   4.265 -0.7313 -0.2989  0.0344
 4635SOL    HW125364   1.917   2.659   4.220 -1.3525  1.7635 -3.6113
 4635SOL    HW225365   1.787   2.667   4.289  0.7077 -2.3726 -0.2441
 4636SOL     OW25366   0.934   2.951   3.972 -0.2328  0.4578  0.2094
 4636SOL    HW125367   0.897   3.024   3.923 -0.8566  0.1322  0.1924
 4636SOL    HW225368   0.861   2.932   4.031 -1.7689  0.7764 -1.5782
 4637SOL     OW25369   0.722   4.206  11.308  0.1914  0.4404 -0.1109
 4637SOL    HW125370   0.652   4.259  11.271  0.3091  0.7201  0.0670
 4637SOL    HW225371   0.670   4.176  11.383  0.1661  0.8664  0.0419
 4638SOL     OW25372   2.033   1.068  16.023  0.1459  0.2964 -0.3638
 4638SOL    HW125373   2.091   1.019  15.965 -0.5966 -0.2697 -0.6174
 4638SOL    HW225374   2.086   1.068  16.103 -2.0140  0.9658  1.0702
 4639SOL     OW25375   4.444   2.357   4.581  0.5794  0.0999 -0.4677
 4639SOL    HW125376   4.534   2.361   4.615  0.5117 -0.0414 -0.2776
 4639SOL    HW225377   4.389   2.377   4.656  0.3243 -0.9363 -0.3853
 4640SOL     OW25378   2.837   1.207   4.960  0.1977 -0.0993 -0.1248
 4640SOL    HW125379   2.828   1.153   4.882  0.4121 -1.5172  0.8252
 4640SOL    HW225380   2.748   1.205   4.996 -0.2349  2.4255 -1.0601
 4641SOL     OW25381   3.709   2.190  10.790 -0.5333  0.3425 -0.1584
 4641SOL    HW125382   3.661   2.116  10.752 -0.0040 -0.0898  0.0270
 4641SOL    HW225383   3.673   2.257  10.731 -0.0162 -1.2806 -2.3312
 4642SOL     OW25384   0.235   3.391  15.547  0.3102 -0.0143 -0.6442
 4642SOL    HW125385   0.176   3.331  15.591  0.8002  0.1060  0.1791
 4642SOL    HW225386   0.224   3.466  15.606 -1.2096 -0.5302 -0.2881
 4643SOL     OW25387   4.345   4.306   8.673  0.5287  1.0495  0.0645
 4643SOL    HW125388   4.304   4.367   8.612 -0.1972  1.0817  0.5771
 4643SOL    HW225389   4.331   4.346   8.759  1.6946 -1.3763  1.3900
 4644SOL     OW25390   2.626   3.195   3.797 -0.4471 -0.6411 -0.1383
 4644SOL    HW125391   2.589   3.241   3.872  2.6475 -0.3326  1.2202
 4644SOL    HW225392   2.719   3.193   3.822 -0.5661 -0.1009  0.3537
 4645SOL     OW25393   4.463   1.367   8.255 -0.2035  0.3057 -0.0272
 4645SOL    HW125394   4.469   1.432   8.185  1.5848  0.3394  0.1641
 4645SOL    HW225395   4.473   1.421   8.333 -1.3967  0.4824  0.0003
 4646SOL     OW25396   1.987   0.214   5.745  0.1373 -1.2537  0.2176
 4646SOL    HW125397   1.940   0.159   5.807 -0.6589 -0.2203  0.5253
 4646SOL    HW225398   1.991   0.153   5.671  0.7311  2.0517 -2.4653
 4647SOL     OW25399   4.115   3.861   7.756 -0.4541 -0.5674 -0.3496
 4647SOL    HW125400   4.111   3.886   7.849  0.4920 -0.9913 -0.2013
 4647SOL    HW225401   4.207   3.857   7.731 -0.3975 -1.9092  0.0944
 4648SOL     OW25402   0.598   4.499   0.479  0.8076  0.4890 -0.1700
 4648SOL    HW125403   0.561   4.500   0.567 -0.2046  1.0170 -0.5974
 4648SOL    HW225404   0.686   4.518   0.511  0.7390 -0.3321  0.4848
 4649SOL     OW25405   1.215   1.414   7.302  0.1827 -0.3780 -0.5024
 4649SOL    HW125406   1.160   1.362   7.361 -2.2215  0.1138 -2.3173
 4649SOL    HW225407   1.280   1.360   7.258  0.6151 -0.8201  0.6661
 4650SOL     OW25408   1.539   2.657  16.819 -0.3459  0.0083 -0.2354
 4650SOL    HW125409   1.611   2.615  16.771  1.1916  1.5062  0.7788
 4650SOL    HW225410   1.480   2.671  16.744 -0.1820  0.3612 -0.3022
 4651SOL     OW25411   2.131   2.882   3.578  0.3968 -0.7585 -0.6052
 4651SOL    HW125412   2.088   2.813   3.528  0.8386 -1.6016  0.1814
 4651SOL    HW225413   2.223   2.859   3.565  0.5921  1.6124 -3.5930
 4652SOL     OW25414   2.716   1.486   9.353 -0.1134 -0.0901 -0.0064
 4652SOL    HW125415   2.693   1.530   9.435 -1.5146 -1.9076  0.5792
 4652SOL    HW225416   2.754   1.550   9.293  3.1679 -0.0223  2.1537
 4653SOL     OW25417   4.025   1.033   3.749  0.1419  0.2481  0.0325
 4653SOL    HW125418   3.944   1.048   3.798 -1.5106 -2.5194 -1.8125
 4653SOL    HW225419   4.047   0.940   3.762  1.8638  0.4612 -1.3098
 4654SOL     OW25420   4.322   1.575   4.719  0.3455  0.1882 -0.1735
 4654SOL    HW125421   4.277   1.507   4.668 -0.8712  0.9036 -0.0543
 4654SOL    HW225422   4.409   1.539   4.737  0.9784  0.9305 -1.7131
 4655SOL     OW25423   3.011   4.052   6.000  0.0199 -0.1010 -0.5879
 4655SOL    HW125424   3.088   4.094   6.038  0.8160  0.4402 -2.8252
 4655SOL    HW225425   2.975   4.107   5.930 -0.3585  1.3421  0.7430
 4656SOL     OW25426   0.738   2.746   3.343  0.4655  0.5203  0.1790
 4656SOL    HW125427   0.757   2.654   3.357  3.3123  0.9547 -0.8907
 4656SOL    HW225428   0.687   2.733   3.263  1.0406  0.9065 -0.2466
 4657SOL     OW25429   2.255   1.579   3.480 -0.1794 -0.2201  0.8467
 4657SOL    HW125430   2.322   1.526   3.439 -0.6307  0.1871 -0.4278
 4657SOL    HW225431   2.283   1.568   3.571  1.6591  0.8721  0.4067
 4658SOL     OW25432   2.025   0.739   3.775 -0.2421  0.8183 -0.4705
 4658SOL    HW125433   1.973   0.702   3.704  1.1524 -0.4193 -0.8389
 4658SOL    HW225434   1.976   0.819   3.795 -0.3022  0.5283  0.5595
 4659SOL     OW25435   2.436   2.522   4.772  0.8015  0.4063  0.6890
 4659SOL    HW125436   2.431   2.612   4.739  0.3531  0.6171  1.3182
 4659SOL    HW225437   2.515   2.485   4.732 -0.9791 -1.6779 -0.8414
 4660SOL     OW25438   1.655   2.984  15.497  0.6121 -0.0328  0.5984
 4660SOL    HW125439   1.695   3.036  15.567  0.5965 -0.7221  1.1314
 4660SOL    HW225440   1.737   2.973  15.449  1.3419 -0.2478  1.8895
 4661SOL     OW25441   3.943   0.740   7.665  0.2167  0.4907 -0.1318
 4661SOL    HW125442   4.012   0.680   7.637 -0.2329  0.3746 -0.9888
 4661SOL    HW225443   3.987   0.823   7.684  0.0252  0.2430  1.3764
 4662SOL     OW25444   2.121   0.926  17.229  0.0839 -0.2422  0.5589
 4662SOL    HW125445   2.036   0.892  17.201  0.1075  1.1497 -1.2171
 4662SOL    HW225446   2.168   0.935  17.147 -1.8767  1.2086 -0.4191
 4663SOL     OW25447   3.404   2.052  17.671 -0.0944  0.1727  0.2700
 4663SOL    HW125448   3.394   1.987   0.046 -0.1941 -1.2541 -1.0566
 4663SOL    HW225449   3.497   2.072  17.678  0.4902 -2.2073 -0.6546
 4664SOL     OW25450   4.498   3.261  10.493  0.6687  0.4310  0.7374
 4664SOL    HW125451   4.428   3.326  10.487  0.8449  0.3691 -1.9837
 4664SOL    HW225452   4.544   3.273  10.410 -1.2709 -0.6391 -0.4792
 4665SOL     OW25453   2.757   1.741   8.909 -0.5171 -0.7658 -0.1410
 4665SOL    HW125454   2.770   1.829   8.874  0.8424 -1.2264 -0.7682
 4665SOL    HW225455   2.763   1.680   8.835 -1.2811  0.9471 -1.6391
 4666SOL     OW25456   4.238   1.688   0.025 -0.3684  0.4227  0.4250
 4666SOL    HW125457   4.282   1.604   0.008 -0.4933  0.8079 -1.7713
 4666SOL    HW225458   4.273   1.749  17.654 -0.6193 -0.1642 -0.2594
 4667SOL     OW25459   4.539   3.041   7.066  0.1427  0.2865  0.6311
 4667SOL    HW125460   4.560   2.963   7.015 -2.7521  0.8541 -1.4745
 4667SOL    HW225461   4.543   3.107   6.996 -2.4700 -0.6760 -0.4348
 4668SOL     OW25462   2.626   3.750   3.143 -0.4143 -0.2069 -0.3030
 4668SOL    HW125463   2.598   3.662   3.117 -2.7623  0.9699 -1.7357
 4668SOL    HW225464   2.661   3.718   3.226  0.5821 -1.7770 -1.3157
 4669SOL     OW25465   1.246   3.587  13.386 -0.0485 -0.6170 -0.4811
 4669SOL    HW125466   1.334   3.581  13.424 -0.6635 -0.6252  0.9340
 4669SOL    HW225467   1.259   3.549  13.299  2.9613  2.2472 -1.2858
 4670SOL     OW25468   1.189   2.154   3.006  0.1481  0.3451 -0.5112
 4670SOL    HW125469   1.269   2.139   2.954  1.2735  1.0484  1.0163
 4670SOL    HW225470   1.145   2.069   3.010  0.7098  0.0157 -1.3578
 4671SOL     OW25471   3.271   1.702  12.619 -0.1792  0.2332  0.1428
 4671SOL    HW125472   3.332   1.741  12.556  0.0591  3.0244  2.1044
 4671SOL    HW225473   3.317   1.735  12.696 -0.7937  0.4273  0.4256
 4672SOL     OW25474   0.763   2.108   0.707 -0.3168 -0.3112  0.2184
 4672SOL    HW125475   0.854   2.126   0.730 -0.6410  1.0525  0.4189
 4672SOL    HW225476   0.772   2.014   0.690 -0.5789 -0.1432 -0.8829
 4673SOL     OW25477   3.398   4.449  12.243  0.9509 -0.2884  0.0989
 4673SOL    HW125478   3.476   4.504  12.242 -0.1222  1.2956  2.2059
 4673SOL    HW225479   3.345   4.511  12.292 -0.0287 -1.4805  0.5366
 4674SOL     OW25480   3.018   3.519  16.819 -0.5336  0.6267 -0.2282
 4674SOL    HW125481   3.049   3.580  16.751 -0.5135  0.3618 -0.4562
 4674SOL    HW225482   2.928   3.546  16.836 -1.3856 -1.6527 -1.0969
 4675SOL     OW25483   3.870   3.132   5.943 -0.3185  0.1739 -0.1880
 4675SOL    HW125484   3.801   3.117   5.878  0.0068  0.8573 -0.6949
 4675SOL    HW225485   3.926   3.055   5.936  0.6768  0.9876 -1.2239
 4676SOL     OW25486   0.471   1.009   3.045  0.5167 -0.1177  0.2052
 4676SOL    HW125487   0.466   0.932   2.988  2.4713 -0.7486  0.8843
 4676SOL    HW225488   0.396   0.984   3.099  0.8385 -2.3186 -0.3765
 4677SOL     OW25489   1.570   1.472   2.129 -0.3599 -0.3485  0.9341
 4677SOL    HW125490   1.634   1.460   2.060 -1.2779 -1.5781  0.2942
 4677SOL    HW225491   1.574   1.568   2.137 -2.1188 -0.2129  0.3319
 4678SOL     OW25492   0.239   0.117   6.037  0.1029 -0.6061  0.6424
 4678SOL    HW125493   0.175   0.138   6.105 -0.7016 -3.1352  0.6673
 4678SOL    HW225494   0.281   0.046   6.086  2.8700  0.1432 -0.6315
 4679SOL     OW25495   2.682   2.347   5.680  0.5407  0.4730 -0.0259
 4679SOL    HW125496   2.740   2.271   5.677 -0.2432 -0.1064 -0.2945
 4679SOL    HW225497   2.625   2.320   5.608  1.3269 -0.8473 -0.1604
 4680SOL     OW25498   0.924   2.444   8.150 -0.3818 -0.2372  0.1758
 4680SOL    HW125499   0.845   2.395   8.127 -0.5357 -0.2145  0.6596
 4680SOL    HW225500   0.983   2.380   8.189  2.9778  2.1306 -0.9188
 4681SOL     OW25501   3.232   0.781   6.888 -0.0365  1.3049 -0.1999
 4681SOL    HW125502   3.147   0.793   6.931 -0.6475 -0.2332 -0.9591
 4681SOL    HW225503   3.205   0.804   6.799  0.9375  0.0842 -0.8057
 4682SOL     OW25504   4.523   2.346   6.446 -0.0953  0.3818  0.1001
 4682SOL    HW125505   4.430   2.335   6.464 -0.2674  2.2046  0.3824
 4682SOL    HW225506   4.552   2.269   6.397  0.9153  1.4875 -1.0401
 4683SOL     OW25507   1.555   2.514   3.738  0.3425 -0.1460  0.1406
 4683SOL    HW125508   1.549   2.421   3.759  0.4014  0.4402  2.6827
 4683SOL    HW225509   1.528   2.552   3.821  0.5031  1.0054 -0.3371
 4684SOL     OW25510   4.240   3.103  16.114  0.1995 -0.6208  0.5207
 4684SOL    HW125511   4.299   3.118  16.188 -0.5478 -1.8438  1.3826
 4684SOL    HW225512   4.219   3.192  16.087  2.0206 -1.2428 -2.8722
 4685SOL     OW25513   4.648   0.474   6.210 -0.2043 -0.6620 -0.5695
 4685SOL    HW125514   4.574   0.477   6.270  0.3745 -0.9368  0.1606
 4685SOL    HW225515   4.623   0.542   6.148 -0.5643  1.2074  1.6263
 4686SOL     OW25516   1.698   2.731   2.148  0.3309  0.3776  0.5746
 4686SOL    HW125517   1.772   2.676   2.173  0.0884 -0.2066 -0.0056
 4686SOL    HW225518   1.716   2.772   2.063 -3.3103 -0.6311 -0.6589
 4687SOL     OW25519   0.727   3.505   9.660  0.6747 -0.5772 -0.4790
 4687SOL    HW125520   0.643   3.534   9.623  0.1610 -1.4738 -0.0057
 4687SOL    HW225521   0.699   3.459   9.739 -1.3331 -0.1821 -0.9538
 4688SOL     OW25522   1.985   4.087   2.052 -0.7446  0.0973  0.3887
 4688SOL    HW125523   1.926   4.030   2.101  0.7246 -1.4493  0.3442
 4688SOL    HW225524   2.072   4.057   2.079 -1.4464 -0.8829  1.5245
 4689SOL     OW25525   2.271   2.594  11.282  0.2456 -0.1673  0.1765
 4689SOL    HW125526   2.329   2.520  11.295  1.5899  1.0800  1.3541
 4689SOL    HW225527   2.308   2.646  11.354 -3.1358  1.4292  0.8181
 4690SOL     OW25528   0.508   1.674   3.250 -0.6329  0.0113 -0.3802
 4690SOL    HW125529   0.578   1.636   3.197 -0.5855  0.1649 -0.4293
 4690SOL    HW225530   0.541   1.764   3.257 -0.4301 -0.0260 -0.8339
 4691SOL     OW25531   4.718   2.531   0.363 -0.2340  0.6799  0.1343
 4691SOL    HW125532   0.009   2.592   0.290 -3.3220 -0.2857 -1.2823
 4691SOL    HW225533   0.083   2.540   0.400  0.8047 -0.0767 -2.1333
 4692SOL     OW25534   1.016   0.761   6.003 -0.0331 -0.3525  0.0169
 4692SOL    HW125535   1.107   0.731   5.992 -0.6204 -1.8494 -0.8062
 4692SOL    HW225536   0.972   0.690   6.049 -0.4629 -0.0867  0.0105
 4693SOL     OW25537   1.515   2.115  11.854  0.7066  0.8825 -0.3071
 4693SOL    HW125538   1.595   2.150  11.893  0.7010  0.3696  0.1617
 4693SOL    HW225539   1.549   2.087  11.769  1.1440  1.0454 -0.1858
 4694SOL     OW25540   0.124   1.211  13.047 -0.0423  0.0426 -0.1735
 4694SOL    HW125541   0.060   1.182  12.982  0.3754 -1.1963 -0.0314
 4694SOL    HW225542   0.069   1.234  13.122  0.1990 -0.2635  0.0973
 4695SOL     OW25543   4.140   3.582   1.188 -0.3862 -0.3869  0.4978
 4695SOL    HW125544   4.153   3.541   1.273 -0.3172 -1.5035 -0.0595
 4695SOL    HW225545   4.209   3.649   1.189 -0.5563 -0.1613 -2.0292
 4696SOL     OW25546   1.836   4.054   1.604  0.2186  0.0281  0.3750
 4696SOL    HW125547   1.750   4.014   1.617  0.0844 -0.5289 -2.1435
 4696SOL    HW225548   1.883   4.020   1.680  0.7606 -1.5327 -0.6532
 4697SOL     OW25549   1.660   4.417  14.814 -0.3673 -0.1662 -0.0624
 4697SOL    HW125550   1.630   4.336  14.772  2.8009 -0.5498 -1.6257
 4697SOL    HW225551   1.655   4.475  14.738  3.9091  1.6018  1.0159
 4698SOL     OW25552   2.642   2.472   8.693  0.0855  0.3892 -0.3790
 4698SOL    HW125553   2.734   2.492   8.712  0.2631 -0.9533  0.1664
 4698SOL    HW225554   2.643   2.376   8.698 -1.1714  0.4119  0.1655
 4699SOL     OW25555   2.168   3.883   2.392 -0.0835 -0.0438  0.3517
 4699SOL    HW125556   2.161   3.975   2.418  0.6521  0.1586 -0.1663
 4699SOL    HW225557   2.225   3.844   2.458  1.0111 -0.5704 -0.9315
 4700SOL     OW25558   1.157   1.787   5.214 -0.0381 -0.0339 -0.1414
 4700SOL    HW125559   1.241   1.765   5.254 -0.3162  3.3428  2.2758
 4700SOL    HW225560   1.140   1.724   5.144  1.9504 -1.1911  0.4248
 4701SOL     OW25561   1.286   3.300   1.951  0.1028 -0.5428 -0.0241
 4701SOL    HW125562   1.342   3.239   1.998  2.4254  1.6263  0.0039
 4701SOL    HW225563   1.212   3.322   2.008 -0.7369 -1.7740 -0.6258
 4702SOL     OW25564   0.303   4.391   3.519 -0.1970  0.7573 -0.2695
 4702SOL    HW125565   0.280   4.467   3.572 -1.0851  0.2891  0.0028
 4702SOL    HW225566   0.396   4.382   3.542 -0.2566 -1.3319 -0.8566
 4703SOL     OW25567   2.172   0.682   8.128  0.1452  0.4725  0.0537
 4703SOL    HW125568   2.206   0.606   8.079 -1.1171 -1.0039  1.4756
 4703SOL    HW225569   2.247   0.720   8.175 -0.6699 -0.4919  2.1207
 4704SOL     OW25570   3.720   1.816  11.509 -0.1172  0.0078 -0.0878
 4704SOL    HW125571   3.745   1.904  11.482  1.1561  0.3877  2.3162
 4704SOL    HW225572   3.743   1.823  11.602  1.6705  2.2205 -0.7138
 4705SOL     OW25573   2.375   0.843  17.600  0.1837  0.5916  0.0800
 4705SOL    HW125574   2.438   0.810  17.664 -0.2204  1.8148  1.1361
 4705SOL    HW225575   2.427   0.818  17.525 -0.4090 -0.3088 -0.0246
 4706SOL     OW25576   0.595   1.617   6.012  0.2864 -0.1069 -0.5514
 4706SOL    HW125577   0.665   1.679   6.032  0.5894 -0.7235  0.3290
 4706SOL    HW225578   0.651   1.540   6.022 -1.7265 -1.4256  0.5678
 4707SOL     OW25579   3.838   0.081  11.895  0.0301  0.0518  0.1058
 4707SOL    HW125580   3.747   0.108  11.885  0.4736  1.7311  0.5797
 4707SOL    HW225581   3.858   0.104  11.986  1.7605  0.0935 -0.2900
 4708SOL     OW25582   0.517   1.589   7.315 -0.0809 -0.2623 -0.1510
 4708SOL    HW125583   0.490   1.504   7.281 -1.3475 -0.3772  1.1279
 4708SOL    HW225584   0.612   1.582   7.314 -0.0480  0.0025  0.9190
 4709SOL     OW25585   0.799   0.947  15.685 -0.7109 -0.6524 -0.4449
 4709SOL    HW125586   0.714   0.990  15.677  0.2686  1.3431 -0.0961
 4709SOL    HW225587   0.788   0.876  15.623 -0.4816  1.4249 -2.8484
 4710SOL     OW25588   1.985   3.267   6.612  0.1179  0.0036  0.0321
 4710SOL    HW125589   1.919   3.221   6.560 -0.9907  0.4597  1.0219
 4710SOL    HW225590   1.962   3.219   6.692  0.2097  1.7868  1.1317
 4711SOL     OW25591   3.162   0.483   2.318  0.7243 -0.0584  0.3830
 4711SOL    HW125592   3.166   0.576   2.339 -1.9116  0.4531 -1.3062
 4711SOL    HW225593   3.075   0.464   2.353  0.5672  1.7269  0.9701
 4712SOL     OW25594   1.926   0.962  15.108 -0.6183  0.3319  0.5069
 4712SOL    HW125595   1.900   0.894  15.045 -2.5487  1.5760 -0.0407
 4712SOL    HW225596   1.977   0.922  15.177 -0.1590  0.3542  0.1826
 4713SOL     OW25597   1.043   1.521  16.268 -0.6730 -0.1407 -0.1750
 4713SOL    HW125598   1.078   1.576  16.338  0.5047 -2.0486  0.7279
 4713SOL    HW225599   1.068   1.574  16.192 -0.5596  1.7558  1.1721
 4714SOL     OW25600   0.999   4.653  10.726 -0.7753  0.9316  0.2883
 4714SOL    HW125601   1.004   4.707  10.804 -2.8433  1.2427  0.1929
 4714SOL    HW225602   1.063   4.587  10.755  0.0198  2.4464  1.9864
 4715SOL     OW25603   3.875   0.422  11.310  0.1230 -0.1027  0.1174
 4715SOL    HW125604   3.808   0.365  11.272 -0.8061  0.9065  0.2253
 4715SOL    HW225605   3.872   0.392  11.400 -1.3705 -0.7087 -0.1385
 4716SOL     OW25606   4.686   0.173  16.686 -0.6445 -0.1185  0.6435
 4716SOL    HW125607   0.043   0.219  16.710 -1.3163  1.3336  0.1118
 4716SOL    HW225608   4.647   0.158  16.772  0.3850 -1.0414  0.9445
 4717SOL     OW25609   2.062   1.351   8.138 -0.4758 -0.5211  0.2502
 4717SOL    HW125610   2.068   1.366   8.232 -0.5914  3.1504 -0.3474
 4717SOL    HW225611   1.991   1.413   8.122 -0.5507 -0.2248  1.7173
 4718SOL     OW25612   2.981   1.231  17.259  0.3866 -0.2958  0.1697
 4718SOL    HW125613   2.887   1.245  17.247  0.1309 -1.8819  0.3091
 4718SOL    HW225614   3.005   1.183  17.180  0.5169  0.5744 -0.3256
 4719SOL     OW25615   3.515   0.959   4.288 -0.0249  0.6996  0.1881
 4719SOL    HW125616   3.537   0.897   4.219 -5.3694 -2.0450  0.9539
 4719SOL    HW225617   3.555   1.042   4.262 -1.8391  1.0548 -1.4812
 4720SOL     OW25618   4.632   1.391   5.338 -0.0156 -0.4579 -0.0674
 4720SOL    HW125619   4.606   1.361   5.251 -1.9803  1.0741  0.0085
 4720SOL    HW225620   4.627   1.486   5.333 -0.4849 -0.2401  3.9293
 4721SOL     OW25621   3.042   3.424   3.185  0.3362 -0.7523  0.2485
 4721SOL    HW125622   2.965   3.427   3.128  0.7685  0.9367 -0.2348
 4721SOL    HW225623   3.081   3.348   3.142  0.3291  0.5460 -2.0386
 4722SOL     OW25624   4.422   3.177   5.048 -0.0697  0.1845  0.2937
 4722SOL    HW125625   4.338   3.204   5.008 -0.2334 -1.8607 -0.7512
 4722SOL    HW225626   4.472   3.136   4.977 -0.3190  3.1978 -1.6390
 4723SOL     OW25627   1.078   4.161   1.972  1.1082  0.0030  0.0456
 4723SOL    HW125628   1.086   4.103   2.047 -1.2611 -0.4410 -0.0567
 4723SOL    HW225629   1.033   4.102   1.911 -0.9248  3.3064 -1.6569
 4724SOL     OW25630   0.514   0.565   2.944 -0.0341 -0.0089  1.1112
 4724SOL    HW125631   0.463   0.567   3.025 -0.0118 -0.8136  1.1518
 4724SOL    HW225632   0.498   0.658   2.931  3.7771  0.2410 -1.7003
 4725SOL     OW25633   3.520   2.876   6.636  0.0447  0.6609 -0.0060
 4725SOL    HW125634   3.485   2.962   6.659  0.3845  1.5254 -2.7694
 4725SOL    HW225635   3.538   2.895   6.544 -0.8915 -1.1206 -0.5504
 4726SOL     OW25636   2.606   0.451   3.417 -0.1887  0.1279  0.3041
 4726SOL    HW125637   2.677   0.467   3.355  0.1651  1.2065  0.9837
 4726SOL    HW225638   2.612   0.519   3.484 -0.2096 -0.1255  0.5614
 4727SOL     OW25639   3.536   2.425   6.809 -0.3563 -0.3750 -0.1180
 4727SOL    HW125640   3.576   2.512   6.813 -0.9301 -0.1273  0.2025
 4727SOL    HW225641   3.598   2.375   6.756  0.1211 -0.4522  0.5082
 4728SOL     OW25642   0.131   1.595   6.153  0.1771 -0.3033 -0.0416
 4728SOL    HW125643   0.199   1.624   6.093 -1.1021 -1.4060 -2.0339
 4728SOL    HW225644   0.057   1.558   6.104  0.9418 -0.1271 -1.3261
 4729SOL     OW25645   3.833   0.437  10.048  0.1115 -0.2929 -0.2653
 4729SOL    HW125646   3.770   0.366  10.062  0.1820 -0.3396 -0.1760
 4729SOL    HW225647   3.823   0.484  10.131  0.4844 -0.4576 -0.1248
 4730SOL     OW25648   2.348   0.539   7.317  0.2916  0.1599 -0.0662
 4730SOL    HW125649   2.305   0.457   7.293  0.1333  0.1569  0.2254
 4730SOL    HW225650   2.407   0.520   7.389 -1.6093 -3.2236  0.5853
 4731SOL     OW25651   4.691   2.953   6.338 -0.2132 -0.0766  0.3893
 4731SOL    HW125652   0.029   2.888   6.303 -0.1399 -0.5486  1.4049
 4731SOL    HW225653   4.719   3.039   6.307 -3.7344  1.3446  1.0985
 4732SOL     OW25654   0.729   2.156   9.052  0.7618  0.0864  0.6317
 4732SOL    HW125655   0.758   2.065   9.042  1.0694  0.3252 -0.6631
 4732SOL    HW225656   0.811   2.198   9.079  2.0993 -1.8535 -0.4023
 4733SOL     OW25657   2.877   3.248   5.577 -0.2494 -0.0235  0.1788
 4733SOL    HW125658   2.811   3.218   5.515 -1.5946  1.7962  0.7663
 4733SOL    HW225659   2.934   3.302   5.522 -0.7592  0.8029  0.4653
 4734SOL     OW25660   0.869   4.338   8.294 -0.6782 -0.8477 -0.1755
 4734SOL    HW125661   0.940   4.354   8.356  0.1820 -2.0855 -0.8486
 4734SOL    HW225662   0.913   4.359   8.211 -0.5303 -0.5082 -0.0105
 4735SOL     OW25663   3.393   2.670   4.738  0.1708  0.3829 -0.3155
 4735SOL    HW125664   3.438   2.598   4.696 -0.5340 -0.2910  0.0733
 4735SOL    HW225665   3.453   2.683   4.811 -0.4398 -0.4048  0.3295
 4736SOL     OW25666   2.931   2.635   1.157 -0.1678  0.2356  0.3004
 4736SOL    HW125667   2.902   2.558   1.109 -0.0128  0.5300 -0.2731
 4736SOL    HW225668   3.025   2.618   1.159 -0.2806 -0.1633  1.6262
 4737SOL     OW25669   1.041   4.024   8.360  0.5962  0.4396 -0.1351
 4737SOL    HW125670   0.968   4.028   8.298 -2.0305  1.3738  2.9429
 4737SOL    HW225671   1.101   3.989   8.296 -1.6758  1.4309 -2.8093
 4738SOL     OW25672   1.667   2.112   6.606 -0.4260  0.0354 -0.5932
 4738SOL    HW125673   1.641   2.115   6.698  3.0772 -0.8187  0.4334
 4738SOL    HW225674   1.758   2.080   6.610 -0.0191  0.9145 -2.6497
 4739SOL     OW25675   0.791   2.971  15.658  0.8169 -0.0347 -0.0747
 4739SOL    HW125676   0.729   3.027  15.612 -0.7061 -2.2984 -0.7576
 4739SOL    HW225677   0.869   2.971  15.601  0.3862 -1.9783 -0.6861
 4740SOL     OW25678   0.033   3.420   4.860  0.4143 -0.2728  0.2694
 4740SOL    HW125679   0.053   3.427   4.766 -1.7554 -2.2460 -0.3437
 4740SOL    HW225680   0.115   3.458   4.892  0.5866  0.9624 -1.6445
 4741SOL     OW25681   0.380   4.714   4.381 -0.9377  0.3302 -0.4240
 4741SOL    HW125682   0.436   4.645   4.344  1.3099  1.6213  0.6028
 4741SOL    HW225683   0.342   0.029   4.302 -1.6088  1.1518  0.3013
 4742SOL     OW25684   0.217   0.956  13.146  0.5648 -0.4712 -0.0822
 4742SOL    HW125685   0.177   0.882  13.101 -4.2583  2.5714 -0.8729
 4742SOL    HW225686   0.154   1.028  13.135  0.4523 -0.3633  1.3379
 4743SOL     OW25687   3.373   0.442   0.528 -0.0064  1.1764  0.0948
 4743SOL    HW125688   3.418   0.502   0.468 -0.6137  0.6306 -0.9097
 4743SOL    HW225689   3.345   0.506   0.592  2.5405  1.1064  1.2736
 4744SOL     OW25690   3.597   0.177  15.604  0.0811  0.2275  0.2766
 4744SOL    HW125691   3.682   0.139  15.629  1.7418  5.4928  2.6230
 4744SOL    HW225692   3.626   0.238  15.535  1.0258 -2.4291 -1.7020
 4745SOL     OW25693   4.588   4.119   3.742 -0.0914  0.5141  0.0844
 4745SOL    HW125694   4.495   4.140   3.732 -0.5478 -1.1293  0.8879
 4745SOL    HW225695   4.610   4.165   3.824  0.8308 -1.9218  1.2136
 4746SOL     OW25696   1.552   4.509   3.516  0.0164  0.6162 -0.3875
 4746SOL    HW125697   1.477   4.537   3.463  0.1539 -1.3019 -1.6176
 4746SOL    HW225698   1.624   4.553   3.473 -0.6409  0.6314 -1.4688
 4747SOL     OW25699   1.925   1.976   6.659 -0.5106  0.0032  0.3479
 4747SOL    HW125700   1.960   1.940   6.740 -2.6569  0.5900  1.5427
 4747SOL    HW225701   1.893   1.896   6.618  0.4928  0.4845 -1.3535
 4748SOL     OW25702   3.666   2.154   4.881  0.5657  0.5283 -0.2321
 4748SOL    HW125703   3.656   2.093   4.954  0.9797 -0.3315 -0.8973
 4748SOL    HW225704   3.584   2.202   4.875  1.1832  1.4174 -1.9212
 4749SOL     OW25705   3.419   2.142   3.431  0.1429  0.8076  0.2032
 4749SOL    HW125706   3.489   2.091   3.391  0.2486 -0.4075  1.8858
 4749SOL    HW225707   3.452   2.183   3.511  0.6611 -1.7433  1.3268
 4750SOL     OW25708   0.236   4.297   5.061 -0.1580 -0.4072 -0.0341
 4750SOL    HW125709   0.248   4.263   5.150  2.6143 -2.5373 -1.2197
 4750SOL    HW225710   0.329   4.308   5.043 -0.1000 -0.3450  0.2934
 4751SOL     OW25711   1.088   0.424   7.979  0.3768  0.3793  0.0451
 4751SOL    HW125712   1.065   0.333   7.997 -0.8214 -0.0011 -3.4825
 4751SOL    HW225713   1.170   0.416   7.931  0.1784  2.0511 -0.5743
 4752SOL     OW25714   4.074   1.810   5.035 -0.2047 -0.2703 -0.1504
 4752SOL    HW125715   4.120   1.750   4.977  0.3977 -0.2468  0.3030
 4752SOL    HW225716   4.147   1.819   5.096  0.4563 -0.3084 -0.9273
 4753SOL     OW25717   3.886   0.722  14.748  0.2682  0.5121  0.7656
 4753SOL    HW125718   3.853   0.633  14.756  1.6177  0.0020  0.5538
 4753SOL    HW225719   3.979   0.708  14.728 -0.0797  0.5143 -0.7942
 4754SOL     OW25720   0.013   3.212  10.653 -0.1019 -0.1803  0.3499
 4754SOL    HW125721   0.028   3.152  10.580 -0.4652  1.3939 -1.0279
 4754SOL    HW225722   4.653   3.252  10.627 -0.5013 -0.6862  0.8703
 4755SOL     OW25723   4.599   3.698  17.292 -0.0114  0.0579 -0.0348
 4755SOL    HW125724   4.570   3.618  17.336 -1.6679  0.0117 -1.2319
 4755SOL    HW225725   4.582   3.763  17.360 -0.8246  0.6386 -0.7862
 4756SOL     OW25726   0.631   3.619   1.630 -0.3764  0.0718 -0.0646
 4756SOL    HW125727   0.586   3.546   1.589 -0.5734 -0.0390  0.3584
 4756SOL    HW225728   0.703   3.569   1.669 -0.7979 -0.9144 -0.5558
 4757SOL     OW25729   1.808   3.741   6.257 -0.2028  0.1571  0.5303
 4757SOL    HW125730   1.790   3.818   6.311 -0.0763  1.6448 -1.5450
 4757SOL    HW225731   1.756   3.748   6.177 -0.4365  1.2648  0.7779
 4758SOL     OW25732   2.522   1.784   9.140 -0.0165 -0.3164 -0.0977
 4758SOL    HW125733   2.452   1.823   9.192  1.5685  1.9200  0.3620
 4758SOL    HW225734   2.479   1.736   9.070  1.6534  1.6831 -2.5295
 4759SOL     OW25735   3.059   1.999  16.935 -0.1214 -0.1985 -0.6499
 4759SOL    HW125736   3.092   1.931  16.993  2.4506  1.0496 -0.6650
 4759SOL    HW225737   3.089   1.962  16.852 -0.4964  1.7386 -1.6491
 4760SOL     OW25738   0.695   4.183  12.591 -0.3721  0.2330 -0.3147
 4760SOL    HW125739   0.638   4.110  12.564 -0.3444  1.2985 -3.2077
 4760SOL    HW225740   0.783   4.147  12.579  0.2198  1.4645  0.4104
 4761SOL     OW25741   2.390   0.040   4.296  0.0691 -0.0494  0.1523
 4761SOL    HW125742   2.359   0.068   4.209  1.1236  1.7610  0.3643
 4761SOL    HW225743   2.451   4.693   4.272 -0.8887 -0.5773 -0.7786
 4762SOL     OW25744   2.118   0.137   4.419 -0.2550  0.0289  0.4485
 4762SOL    HW125745   2.163   0.082   4.354 -0.1556  1.2425 -0.5145
 4762SOL    HW225746   2.098   0.072   4.486 -2.8466 -0.7232 -1.0577
 4763SOL     OW25747   1.806   3.690  14.727 -0.4522 -0.7381  0.2438
 4763SOL    HW125748   1.777   3.602  14.753 -0.6723 -0.7346  0.0135
 4763SOL    HW225749   1.736   3.733  14.678  0.3708 -0.8980 -1.0952
 4764SOL     OW25750   0.995   2.319   2.398  0.1888  0.4212  0.3672
 4764SOL    HW125751   1.026   2.341   2.310 -0.0691 -0.9856 -0.0740
 4764SOL    HW225752   0.989   2.410   2.427 -1.5932  0.1903  0.7391
 4765SOL     OW25753   0.013   2.803  17.487  0.2372 -0.1754  0.1161
 4765SOL    HW125754   4.695   2.888  17.503  0.9495  0.3972 -1.0002
 4765SOL    HW225755   4.674   2.775  17.421  0.2587 -0.1676  0.0922
 4766SOL     OW25756   0.085   1.334  17.037  0.0996 -0.1473 -0.1061
 4766SOL    HW125757   0.147   1.397  17.001  2.2718 -1.8060  0.7271
 4766SOL    HW225758   0.001   1.368  17.006 -0.4070 -0.7082  0.6523
 4767SOL     OW25759   2.448   0.591   0.215 -0.2759 -0.1867  0.1087
 4767SOL    HW125760   2.446   0.555   0.126 -0.4932 -0.7769  0.3516
 4767SOL    HW225761   2.385   0.548   0.273 -0.2448 -0.1422  0.1755
 4768SOL     OW25762   2.102   2.011   1.520 -0.9113  0.0330  0.1793
 4768SOL    HW125763   2.169   1.979   1.459  0.2012  1.1835  0.7922
 4768SOL    HW225764   2.035   2.012   1.452 -0.2879  1.4045 -0.4178
 4769SOL     OW25765   4.234   3.117   3.357  0.4091  0.0721 -0.1255
 4769SOL    HW125766   4.258   3.081   3.272  1.9372  0.6550  0.0740
 4769SOL    HW225767   4.294   3.064   3.409  0.9608  0.7033 -0.1185
 4770SOL     OW25768   1.160   1.006   5.706 -0.1104  0.3267 -0.2904
 4770SOL    HW125769   1.069   0.979   5.690 -0.3247 -0.0615  1.5614
 4770SOL    HW225770   1.157   1.001   5.802 -1.1807  0.3840 -0.3208
 4771SOL     OW25771   1.836   2.901   2.549 -0.1753  0.1523  0.2447
 4771SOL    HW125772   1.761   2.956   2.573 -0.0516  1.4055 -2.2431
 4771SOL    HW225773   1.888   2.974   2.516 -0.3636 -0.6846 -1.9150
 4772SOL     OW25774   0.813   0.776   2.888 -0.2482 -0.0168 -0.1463
 4772SOL    HW125775   0.728   0.794   2.929 -0.5449  0.8091 -1.1271
 4772SOL    HW225776   0.788   0.817   2.805  3.1572  2.2447 -0.0425
 4773SOL     OW25777   3.882   3.573   8.385  0.1481  0.1041 -0.6048
 4773SOL    HW125778   3.865   3.646   8.445 -1.8622 -1.2632  0.4893
 4773SOL    HW225779   3.836   3.614   8.312 -1.0834  1.2519  0.8041
 4774SOL     OW25780   4.470   0.391   5.688 -0.0658 -0.7048  0.0797
 4774SOL    HW125781   4.529   0.321   5.717  1.5651  0.4099 -0.5257
 4774SOL    HW225782   4.518   0.438   5.620 -0.6495 -0.8484 -0.4306
 4775SOL     OW25783   0.259   3.453   9.616 -0.4431  0.1930 -0.0371
 4775SOL    HW125784   0.259   3.427   9.708 -0.6653 -0.2465 -0.1594
 4775SOL    HW225785   0.166   3.448   9.593 -0.0378  3.2260 -2.2965
 4776SOL     OW25786   4.090   0.565  11.767 -0.4697  0.4166 -0.4748
 4776SOL    HW125787   4.162   0.599  11.820 -0.4586  0.1554 -0.3261
 4776SOL    HW225788   4.065   0.652  11.735  0.0161  0.4123 -0.8624
 4777SOL     OW25789   3.219   0.858   6.234  0.0658  0.0785  0.1166
 4777SOL    HW125790   3.211   0.780   6.288  1.2962  0.3200  0.6559
 4777SOL    HW225791   3.259   0.923   6.293  0.1805  1.5270 -1.5506
 4778SOL     OW25792   1.400   0.117   9.029 -0.1500  0.5738  0.3138
 4778SOL    HW125793   1.337   0.111   9.101 -0.5827  1.4445  0.0122
 4778SOL    HW225794   1.479   0.139   9.078 -0.2029 -0.0979  0.6994
 4779SOL     OW25795   2.452   1.214   4.171 -0.7184 -0.1671 -0.3619
 4779SOL    HW125796   2.389   1.181   4.236 -1.9276 -1.3314 -2.1201
 4779SOL    HW225797   2.399   1.271   4.115  1.1011  2.8698  1.0372
 4780SOL     OW25798   0.157   2.640   4.384  0.2248  0.0502  0.0579
 4780SOL    HW125799   0.241   2.596   4.401  0.5007  0.3170 -0.6189
 4780SOL    HW225800   0.185   2.722   4.425 -0.0680  0.2087 -0.0572
 4781SOL     OW25801   2.840   4.498   4.475 -0.2766  0.3367 -0.7523
 4781SOL    HW125802   2.815   4.582   4.514 -3.7158 -0.5725 -0.9959
 4781SOL    HW225803   2.901   4.455   4.535 -0.6262 -0.0895 -0.7032
 4782SOL     OW25804   4.266   0.359   3.990  0.1513 -0.3892  0.2223
 4782SOL    HW125805   4.270   0.263   3.987 -0.9002 -0.4259 -0.0820
 4782SOL    HW225806   4.351   0.388   3.955 -0.5847  0.6100 -0.7560
 4783SOL     OW25807   3.141   3.447   8.399  0.7237  0.0944 -0.8274
 4783SOL    HW125808   3.197   3.504   8.450  1.1063 -1.0325  0.0192
 4783SOL    HW225809   3.168   3.363   8.436  0.4333  0.5913  0.5124
 4784SOL     OW25810   4.052   0.147   9.454 -0.2011 -0.3295 -0.5730
 4784SOL    HW125811   4.139   0.142   9.493 -0.0539 -0.5265 -0.9293
 4784SOL    HW225812   3.989   0.141   9.525 -1.1898 -0.2644 -1.4409
 4785SOL     OW25813   4.217   0.751   6.492 -1.0365  0.4084  0.0574
 4785SOL    HW125814   4.211   0.801   6.573 -1.0914 -0.2497  0.4611
 4785SOL    HW225815   4.130   0.771   6.456 -0.9734 -1.3718 -1.1113
 4786SOL     OW25816   4.322   2.488  13.595  0.8172  0.0810 -0.2225
 4786SOL    HW125817   4.254   2.471  13.529  0.6638 -2.4374  0.6156
 4786SOL    HW225818   4.390   2.429  13.564 -0.1231 -0.2021 -1.7639
 4787SOL     OW25819   2.054   1.324   8.397 -0.3101  0.3066 -0.4083
 4787SOL    HW125820   2.104   1.364   8.468  0.6889 -0.3527 -0.7343
 4787SOL    HW225821   2.030   1.240   8.437  1.2446  0.0683  0.0148
 4788SOL     OW25822   4.513   0.891   6.757  0.6758  0.3431 -0.6337
 4788SOL    HW125823   4.607   0.890   6.740  0.3889 -0.6020 -2.1871
 4788SOL    HW225824   4.499   0.798   6.778 -0.7633  0.5054 -0.8732
 4789SOL     OW25825   1.530   0.032   6.913 -0.1399 -0.1756 -0.4896
 4789SOL    HW125826   1.564   0.106   6.963 -1.3744 -1.0727  1.6684
 4789SOL    HW225827   1.435   0.045   6.913 -0.2960 -1.2865  0.5787
 4790SOL     OW25828   0.105   1.202   5.594 -0.4216  0.4389 -0.0980
 4790SOL    HW125829   0.143   1.199   5.506  0.0217  0.0395  0.1091
 4790SOL    HW225830   0.170   1.156   5.646  1.4848  0.2557 -2.6500
 4791SOL     OW25831   3.860   3.984   5.156 -0.1896  0.1282 -0.5038
 4791SOL    HW125832   3.809   4.040   5.214 -0.8780 -1.1771  0.1473
 4791SOL    HW225833   3.944   4.025   5.136 -0.5567 -0.4607 -3.3309
 4792SOL     OW25834   1.993   3.789  14.314 -0.3295  0.3395  0.4108
 4792SOL    HW125835   2.028   3.703  14.337 -1.3095 -0.0770  0.3628
 4792SOL    HW225836   2.014   3.797  14.221  1.3186  1.9869  0.9288
 4793SOL     OW25837   3.076   0.197   4.275  0.0640  0.8189 -0.0802
 4793SOL    HW125838   3.072   0.254   4.352  0.5897  1.8801 -0.8403
 4793SOL    HW225839   3.169   0.178   4.284  0.1993  0.6222 -1.9045
 4794SOL     OW25840   0.258   3.652   6.771  0.5099  0.0930 -0.1876
 4794SOL    HW125841   0.330   3.661   6.709  1.7736  1.8428  1.5468
 4794SOL    HW225842   0.308   3.652   6.853  1.7887 -3.2915 -0.9767
 4795SOL     OW25843   4.542   2.338  13.250  0.3080 -0.0599  0.6098
 4795SOL    HW125844   4.615   2.284  13.221 -0.0704 -0.6368  0.7349
 4795SOL    HW225845   4.559   2.347  13.344  1.0298  0.1107  0.4586
 4796SOL     OW25846   4.109   2.404  12.653 -0.1955 -0.4037  0.0927
 4796SOL    HW125847   4.125   2.433  12.563 -1.4194  2.2687  0.7107
 4796SOL    HW225848   4.083   2.315  12.631  0.6600 -0.7130  0.3321
 4797SOL     OW25849   4.650   2.869   6.580  0.4679  0.0388 -0.1618
 4797SOL    HW125850   4.647   2.900   6.489  0.4711  0.7044  0.0585
 4797SOL    HW225851   4.564   2.896   6.614 -0.6013 -2.4844 -0.9044
 4798SOL     OW25852   1.814   3.780   7.779 -0.3766  0.3693 -0.3026
 4798SOL    HW125853   1.906   3.752   7.782 -0.4580  0.1305  0.0441
 4798SOL    HW225854   1.798   3.814   7.867  1.2523  1.4857 -0.4445
 4799SOL     OW25855   4.467   1.422   1.785 -0.0872  0.2614  0.4554
 4799SOL    HW125856   4.547   1.371   1.773 -1.5672 -2.1098  0.6135
 4799SOL    HW225857   4.506   1.508   1.797 -1.5139  1.0247 -0.3837
 4800SOL     OW25858   0.204   2.876  12.558 -0.2960  0.1531 -0.2794
 4800SOL    HW125859   0.164   2.859  12.472 -0.1264  0.5114 -0.4291
 4800SOL    HW225860   0.148   2.951  12.580 -0.4371  0.6754 -2.4096
 4801SOL     OW25861   4.503   0.728   4.227  0.5017 -0.0004  0.3307
 4801SOL    HW125862   4.571   0.768   4.174  0.3650 -2.0402 -1.3795
 4801SOL    HW225863   4.514   0.634   4.208 -2.6043 -0.0149 -1.3775
 4802SOL     OW25864   0.227   2.840  16.886  0.3043 -0.6795  0.4928
 4802SOL    HW125865   0.286   2.765  16.878  0.6860 -0.2440 -0.6770
 4802SOL    HW225866   0.196   2.857  16.798 -0.9365 -2.7194  0.5337
 4803SOL     OW25867   0.528   2.579  12.383 -0.6946  0.2895 -0.0973
 4803SOL    HW125868   0.502   2.613  12.469  1.4470  0.0106  0.6474
 4803SOL    HW225869   0.438   2.564  12.353 -1.6467  0.1829  2.7797
 4804SOL     OW25870   3.482   0.471   1.996  0.1614 -0.2936 -0.0901
 4804SOL    HW125871   3.505   0.528   1.923  2.1371 -1.9188 -0.7416
 4804SOL    HW225872   3.568   0.469   2.036 -0.5775  0.4171  1.5199
 4805SOL     OW25873   2.242   3.341   2.691  0.7656 -0.4520 -0.5911
 4805SOL    HW125874   2.311   3.283   2.657  0.4144 -0.2338 -1.6734
 4805SOL    HW225875   2.199   3.286   2.757  0.1060  0.7223 -0.0498
 4806SOL     OW25876   3.456   0.419  14.028 -0.0886 -0.4459  0.2368
 4806SOL    HW125877   3.377   0.407  13.975  0.2400 -0.4022 -0.2655
 4806SOL    HW225878   3.411   0.454  14.105 -1.7959 -3.0201  0.4046
 4807SOL     OW25879   3.948   2.178   0.573 -0.6404  0.7815  0.0834
 4807SOL    HW125880   3.989   2.210   0.493 -0.8764  0.0009 -0.3454
 4807SOL    HW225881   3.860   2.152   0.544  0.6143 -3.6256  0.2446
 4808SOL     OW25882   3.072   2.954   4.375 -0.3651  0.0643  0.9826
 4808SOL    HW125883   3.105   2.909   4.297 -1.9409 -0.5420  0.6643
 4808SOL    HW225884   3.146   2.949   4.434  0.5901  2.4275 -0.0178
 4809SOL     OW25885   0.160   4.613  12.683  0.2182 -0.1930 -0.0293
 4809SOL    HW125886   0.247   4.621  12.643  0.3617  0.8570  0.4872
 4809SOL    HW225887   0.171   4.673  12.757  1.6194  0.1247 -0.4826
 4810SOL     OW25888   3.852   2.833   6.464 -0.7419  0.0836 -0.4484
 4810SOL    HW125889   3.782   2.875   6.413 -2.7087 -2.3011  0.2787
 4810SOL    HW225890   3.875   2.745   6.435 -0.3429 -0.0452  0.2674
 4811SOL     OW25891   2.200   1.126   1.252  0.4598  0.2212  1.0166
 4811SOL    HW125892   2.219   1.132   1.345  0.3405  0.5635  1.0185
 4811SOL    HW225893   2.282   1.083   1.227 -0.0275 -0.7883  1.1767
 4812SOL     OW25894   1.840   2.977   4.180 -0.1062  0.5475 -0.7307
 4812SOL    HW125895   1.813   2.895   4.222 -1.3603  1.5023  0.3100
 4812SOL    HW225896   1.933   2.971   4.201 -0.4671 -0.1829  0.6621
 4813SOL     OW25897   0.540   0.879  13.025  0.1281  0.8479  0.2852
 4813SOL    HW125898   0.561   0.934  12.949 -0.6290  1.2768  0.3868
 4813SOL    HW225899   0.599   0.918  13.090  1.7097 -1.1663  0.0671
 4814SOL     OW25900   1.001   3.177  11.057  0.1769 -0.5107  0.1393
 4814SOL    HW125901   0.935   3.231  11.013 -1.0027  0.5789  3.3130
 4814SOL    HW225902   1.070   3.242  11.068  0.1935 -0.4272 -0.4547
 4815SOL     OW25903   3.723   1.447  13.786  0.5769  0.4226  0.0742
 4815SOL    HW125904   3.725   1.538  13.815 -1.9038  0.7315 -0.6614
 4815SOL    HW225905   3.632   1.446  13.755  0.6620  0.3975 -0.1670
 4816SOL     OW25906   3.375   2.589  11.922  0.0945 -0.4620  0.0221
 4816SOL    HW125907   3.424   2.667  11.950 -1.4314  0.0880  1.2082
 4816SOL    HW225908   3.298   2.637  11.890 -0.6736 -0.1015  2.4053
 4817SOL     OW25909   3.413   3.569   2.987 -0.8602 -0.1663  0.0265
 4817SOL    HW125910   3.330   3.572   2.940 -0.4773  2.6995 -0.4897
 4817SOL    HW225911   3.384   3.584   3.077 -2.3747  0.8198 -0.6311
 4818SOL     OW25912   3.348   2.125   8.653  0.2898 -0.5213 -0.3116
 4818SOL    HW125913   3.385   2.072   8.581 -0.9965  0.5765 -1.7786
 4818SOL    HW225914   3.394   2.091   8.730 -1.0926 -0.0274  0.7228
 4819SOL     OW25915   0.971   0.721   6.558 -0.1083  0.8954 -0.2188
 4819SOL    HW125916   0.956   0.812   6.584 -3.3418  0.2787  0.0752
 4819SOL    HW225917   1.024   0.748   6.483 -1.7797  1.8881 -1.0344
 4820SOL     OW25918   3.750   4.082  16.536 -0.4952  0.7220  0.0884
 4820SOL    HW125919   3.778   4.161  16.581 -2.4641  0.8715  1.0414
 4820SOL    HW225920   3.747   4.018  16.607  0.2029  0.6593  0.0578
 4821SOL     OW25921   2.730   3.766   2.676 -0.0546 -0.3686 -0.5527
 4821SOL    HW125922   2.743   3.683   2.630  1.8382  1.2712 -2.9917
 4821SOL    HW225923   2.691   3.814   2.603 -0.4870  0.0421 -0.0514
 4822SOL     OW25924   2.408   2.237  13.349 -0.3459  0.3948 -0.2981
 4822SOL    HW125925   2.335   2.256  13.408 -0.0818 -1.4449  0.6330
 4822SOL    HW225926   2.404   2.322  13.304  0.1965 -1.5356 -3.9491
 4823SOL     OW25927   1.086   1.775   8.378 -0.6589  0.1179 -0.0075
 4823SOL    HW125928   0.994   1.764   8.355 -0.7619  0.8881  0.0332
 4823SOL    HW225929   1.094   1.709   8.447 -0.0846 -0.3178 -0.4913
 4824SOL     OW25930   4.714   4.393   7.047 -0.0396  0.4287 -0.0597
 4824SOL    HW125931   4.674   4.478   7.028 -1.1149 -0.3482 -1.2782
 4824SOL    HW225932   4.662   4.374   7.124  1.1519  0.0157  0.6377
 4825SOL     OW25933   2.178   2.082   3.920  0.1047 -0.6932  0.1805
 4825SOL    HW125934   2.140   2.006   3.963  0.1487  0.0785  1.5773
 4825SOL    HW225935   2.254   2.042   3.878  0.4083  2.2072 -2.0126
 4826SOL     OW25936   2.029   0.555   7.136  0.0213 -0.5323  0.0388
 4826SOL    HW125937   2.089   0.575   7.064  2.0121  0.0564  1.8606
 4826SOL    HW225938   2.068   0.471   7.161  0.0998 -0.0911  1.3754
 4827SOL     OW25939   1.954   0.108   6.977 -0.4571  0.3368  0.0739
 4827SOL    HW125940   2.025   0.134   6.919 -1.4306 -1.3247 -1.8767
 4827SOL    HW225941   2.000   0.043   7.031  1.7797  1.8479 -0.0067
 4828SOL     OW25942   1.293   1.972   5.572  0.0624 -0.1356 -0.0201
 4828SOL    HW125943   1.319   2.064   5.574  1.2511 -0.4781  0.3321
 4828SOL    HW225944   1.217   1.978   5.514 -0.8186 -1.0126  1.0375
 4829SOL     OW25945   0.953   2.802   4.927  0.7232 -1.0333  1.0472
 4829SOL    HW125946   0.927   2.764   5.011  1.8533  2.5811  3.0694
 4829SOL    HW225947   0.969   2.895   4.943  1.4332 -0.8162 -0.8597
 4830SOL     OW25948   0.182   4.173   6.026  0.5164 -0.1698 -0.1834
 4830SOL    HW125949   0.217   4.120   6.097 -3.1310 -0.0465  1.7239
 4830SOL    HW225950   0.130   4.111   5.974  2.0985  0.2707 -2.2934
 4831SOL     OW25951   0.285   0.709  12.838  0.0118  0.3689  0.0204
 4831SOL    HW125952   0.270   0.803  12.838 -0.7921  0.2436 -0.4779
 4831SOL    HW225953   0.380   0.702  12.832 -0.1121 -0.6427 -0.8943
 4832SOL     OW25954   0.397   3.457  13.162  0.0120 -0.3051 -0.2305
 4832SOL    HW125955   0.324   3.482  13.106  2.9962  1.2313 -3.3855
 4832SOL    HW225956   0.478   3.482  13.120 -0.8573  3.0855  0.1252
 4833SOL     OW25957   4.521   3.317   1.529 -0.2224  0.2054  0.0975
 4833SOL    HW125958   4.547   3.407   1.551 -0.7210  0.3135  0.2409
 4833SOL    HW225959   4.466   3.330   1.452 -0.5521  2.4807  0.7070
 4834SOL     OW25960   0.053   3.395  13.390 -0.0466  0.1158  0.8892
 4834SOL    HW125961   4.708   3.414  13.454 -0.0903  2.5566  0.1055
 4834SOL    HW225962   0.027   3.309  13.356 -1.5514  0.5600  0.9182
 4835SOL     OW25963   1.323   3.816  13.676  0.1646 -0.0688  0.1946
 4835SOL    HW125964   1.379   3.770  13.614 -1.5120 -1.1331 -0.5354
 4835SOL    HW225965   1.236   3.792  13.644 -0.6590  0.8406  1.7463
 4836SOL     OW25966   4.398   0.665   7.729 -0.1250  0.3284 -0.4652
 4836SOL    HW125967   4.437   0.720   7.797  0.9177 -1.2810  0.2358
 4836SOL    HW225968   4.435   0.579   7.749 -2.4109 -0.5476 -0.0243
 4837SOL     OW25969   3.115   0.075   5.942 -0.3421 -0.4651 -0.4720
 4837SOL    HW125970   3.131   0.167   5.964 -2.2231  0.1480 -1.6474
 4837SOL    HW225971   3.172   0.032   6.005 -0.5095 -1.3301 -0.9179
 4838SOL     OW25972   0.971   0.619  15.476 -0.4724  0.4005 -0.7191
 4838SOL    HW125973   1.036   0.610  15.406  1.1211 -1.3256  0.9690
 4838SOL    HW225974   0.981   0.713  15.486 -1.1037  0.4307 -0.3788
 4839SOL     OW25975   2.418   4.373   6.659 -0.3908  0.2779 -0.6276
 4839SOL    HW125976   2.467   4.308   6.710 -1.1031  0.1126 -0.1538
 4839SOL    HW225977   2.481   4.413   6.599 -0.3860  0.0724 -0.7610
 4840SOL     OW25978   3.867   3.731   7.929 -0.0060  0.0933 -0.3216
 4840SOL    HW125979   3.921   3.792   7.879 -0.1542  0.8970  0.4885
 4840SOL    HW225980   3.863   3.654   7.873  2.9550  0.5302 -1.1400
 4841SOL     OW25981   4.467   0.330  10.572 -0.3635 -0.8023 -0.0811
 4841SOL    HW125982   4.536   0.312  10.508  0.4554  1.9621  0.0522
 4841SOL    HW225983   4.523   0.354  10.646 -0.8682 -1.8416  0.6318
 4842SOL     OW25984   3.942   0.658   5.538  0.0669  1.1338 -0.3942
 4842SOL    HW125985   3.856   0.668   5.499 -0.0593  0.9627 -0.1576
 4842SOL    HW225986   3.970   0.749   5.543 -0.0073  1.0876  0.7001
 4843SOL     OW25987   2.265   1.718   8.448  0.1550  0.5266  0.3635
 4843SOL    HW125988   2.198   1.777   8.413 -1.6339 -1.6542  0.0730
 4843SOL    HW225989   2.206   1.669   8.505  0.6216  1.0869  1.3156
 4844SOL     OW25990   0.069   4.514   4.297  0.8240  0.3010 -0.2550
 4844SOL    HW125991   4.697   4.521   4.290  0.7936  1.6678  1.6228
 4844SOL    HW225992   0.079   4.521   4.391  1.2990  0.0333 -0.2872
 4845SOL     OW25993   2.676   1.105   7.116  0.1200 -0.0988  0.4198
 4845SOL    HW125994   2.738   1.085   7.187  1.9393 -1.0937 -1.4652
 4845SOL    HW225995   2.727   1.175   7.076  1.1367 -0.7390  0.6053
 4846SOL     OW25996   2.774   1.496   2.368 -0.3485 -0.5204  0.2313
 4846SOL    HW125997   2.860   1.530   2.392 -0.8957 -0.1045  1.5613
 4846SOL    HW225998   2.739   1.567   2.314  1.1661  1.0881  1.3871
 4847SOL     OW25999   2.332   4.346   5.759 -0.7522  0.2050  0.0911
 4847SOL    HW126000   2.334   4.265   5.709  0.5538  0.3604 -0.1222
 4847SOL    HW226001   2.402   4.316   5.817  1.5221 -1.1783 -3.3582
 4848SOL     OW26002   0.420   2.182   0.744  0.3993 -0.1551  0.2551
 4848SOL    HW126003   0.513   2.203   0.753  1.4337 -4.5814 -0.3407
 4848SOL    HW226004   0.400   2.212   0.656  0.5989  0.6194  0.4675
 4849SOL     OW26005   0.305   4.406  16.743 -0.5485 -0.1958 -0.2637
 4849SOL    HW126006   0.276   4.464  16.673 -0.1339 -1.3383 -1.3689
 4849SOL    HW226007   0.262   4.323  16.722 -0.2614 -0.4132  0.0095
 4850SOL     OW26008   4.346   1.500   5.009  0.1515  0.3979  0.0792
 4850SOL    HW126009   4.337   1.538   4.921  2.9320  1.1271  0.1117
 4850SOL    HW226010   4.440   1.519   5.017 -0.4419  3.0992  0.5633
 4851SOL     OW26011   1.569   3.246   6.372  0.1644 -0.1435 -1.0032
 4851SOL    HW126012   1.601   3.189   6.442 -0.3856  0.1874 -0.4809
 4851SOL    HW226013   1.521   3.181   6.320  1.1488 -2.5325  1.0216
 4852SOL     OW26014   1.233   3.766   1.916 -0.0761 -0.2257 -0.2907
 4852SOL    HW126015   1.251   3.858   1.934 -1.2383 -0.8951  4.1894
 4852SOL    HW226016   1.177   3.750   1.992  1.3368 -0.7389  0.6376
 4853SOL     OW26017   1.043   3.121   4.676  0.6303 -0.4132 -0.5281
 4853SOL    HW126018   1.121   3.141   4.624  1.2347 -3.5150 -0.8046
 4853SOL    HW226019   1.047   3.180   4.751 -1.5758 -1.4090  0.3522
 4854SOL     OW26020   3.582   2.345   8.088 -0.4741 -0.0954 -0.0156
 4854SOL    HW126021   3.500   2.295   8.089 -0.4232 -0.1970 -0.8369
 4854SOL    HW226022   3.615   2.316   8.173  3.3772  1.2185 -1.1005
 4855SOL     OW26023   4.083   4.217   4.685 -0.5421 -0.0285 -0.1682
 4855SOL    HW126024   4.154   4.271   4.718 -0.6713 -0.5270  0.9072
 4855SOL    HW226025   4.092   4.133   4.730 -0.3117  0.3819  0.5447
 4856SOL     OW26026   3.058   2.292  13.159  0.7582 -0.6484 -0.2614
 4856SOL    HW126027   3.141   2.258  13.194  0.3766 -3.1267 -1.8110
 4856SOL    HW226028   3.051   2.366  13.219  0.0721  0.0264 -1.1826
 4857SOL     OW26029   0.965   0.573   0.462  0.8040 -0.0961 -0.2692
 4857SOL    HW126030   0.928   0.587   0.374 -0.7763  1.1241  0.5877
 4857SOL    HW226031   1.020   0.647   0.487 -1.1802  0.7318  1.6091
 4858SOL     OW26032   2.016   0.322  12.605  0.7922  0.2458 -0.1587
 4858SOL    HW126033   2.043   0.398  12.555  0.0528 -0.6275 -1.8929
 4858SOL    HW226034   1.996   0.368  12.687 -1.1564  1.9890 -1.6193
 4859SOL     OW26035   0.106   0.389   3.056 -0.1425 -0.7204  0.4408
 4859SOL    HW126036   0.164   0.365   3.128 -0.4171  2.2999  1.6530
 4859SOL    HW226037   0.176   0.372   2.993 -1.3745 -0.1360 -1.1085
 4860SOL     OW26038   0.951   3.518   8.111  0.1177 -0.4649  0.7401
 4860SOL    HW126039   0.942   3.575   8.188 -0.3683  1.5228 -0.7750
 4860SOL    HW226040   0.984   3.584   8.050 -0.5084 -1.9490 -1.2205
 4861SOL     OW26041   1.770   0.731   7.628  0.3754  0.4726 -0.2751
 4861SOL    HW126042   1.688   0.749   7.581  0.7066 -0.0581 -1.0593
 4861SOL    HW226043   1.748   0.786   7.703  0.9256 -1.6894  1.4584
 4862SOL     OW26044   2.494   1.549   7.283  0.1036 -0.1998 -0.1564
 4862SOL    HW126045   2.552   1.474   7.297 -0.8659 -1.5389 -3.3766
 4862SOL    HW226046   2.556   1.609   7.242 -0.4802 -0.3401 -1.2265
 4863SOL     OW26047   3.306   3.837   3.569 -0.0606 -0.3472 -0.2015
 4863SOL    HW126048   3.226   3.879   3.540 -0.9636 -0.1185  2.6281
 4863SOL    HW226049   3.289   3.744   3.554  1.0552 -0.7639  1.0730
 4864SOL     OW26050   4.127   1.951   5.835 -0.0865 -0.4976  0.2532
 4864SOL    HW126051   4.098   1.869   5.795  1.1307 -0.6522 -0.3242
 4864SOL    HW226052   4.037   1.982   5.849 -0.4768 -2.3373  1.7891
 4865SOL     OW26053   3.005   2.908   9.242 -0.5115  0.1794 -0.0365
 4865SOL    HW126054   2.969   2.820   9.228  1.0724 -0.4118 -0.4545
 4865SOL    HW226055   2.940   2.959   9.194 -1.0551  1.9607  2.6095
 4866SOL     OW26056   2.250   3.834   6.857  0.7567 -0.1037 -0.3801
 4866SOL    HW126057   2.292   3.753   6.886  0.2810 -0.5459 -0.9207
 4866SOL    HW226058   2.327   3.889   6.840  0.3680  1.3352  2.5036
 4867SOL     OW26059   1.905   1.987   4.685 -0.1593  0.1699 -0.1732
 4867SOL    HW126060   1.832   1.933   4.656  0.4708 -0.9946  0.4263
 4867SOL    HW226061   1.947   1.950   4.762 -2.7269  0.4529  1.3693
 4868SOL     OW26062   2.088   2.320  11.491 -0.4184 -0.0526 -0.0447
 4868SOL    HW126063   2.177   2.354  11.498 -0.3489 -0.3272  0.4188
 4868SOL    HW226064   2.106   2.276  11.407  0.8103  0.8032 -0.2264
 4869SOL     OW26065   3.400   1.507  12.341 -0.0688 -0.0567 -0.2531
 4869SOL    HW126066   3.450   1.514  12.260  0.5555  2.0943  0.3155
 4869SOL    HW226067   3.414   1.596  12.373 -0.3457  0.4451 -1.5426
 4870SOL     OW26068   1.087   2.222   6.452  0.4299 -0.1689  0.3254
 4870SOL    HW126069   1.076   2.131   6.424  1.3693  0.4523 -2.0609
 4870SOL    HW226070   0.999   2.256   6.469  0.1448 -0.9687  0.4839
 4871SOL     OW26071   2.568   3.284   2.410  0.0099  0.7582 -0.2351
 4871SOL    HW126072   2.566   3.302   2.504  0.2842 -0.7881  0.0684
 4871SOL    HW226073   2.482   3.313   2.381 -0.7607 -1.4348 -0.0901
 4872SOL     OW26074   2.858   2.058   2.483  0.3498 -0.2878  0.0464
 4872SOL    HW126075   2.819   2.144   2.501 -2.5759 -1.3969 -0.9022
 4872SOL    HW226076   2.943   2.079   2.444 -0.2781  0.2145 -1.0657
 4873SOL     OW26077   1.367   3.430   4.428  0.4182  0.0430  0.1147
 4873SOL    HW126078   1.449   3.439   4.477 -0.0308  0.7412  0.7349
 4873SOL    HW226079   1.388   3.447   4.337 -0.9903  0.1601 -0.1855
 4874SOL     OW26080   0.005   2.610  14.831  0.1991 -0.1522 -0.1446
 4874SOL    HW126081   0.053   2.649  14.758  0.9416  0.2595  0.5611
 4874SOL    HW226082   4.660   2.674  14.850  0.4133 -0.0984  0.4554
 4875SOL     OW26083   3.274   1.791   0.649 -0.1348  0.0901 -0.1507
 4875SOL    HW126084   3.278   1.886   0.652 -1.2855  0.1734 -1.1567
 4875SOL    HW226085   3.300   1.772   0.558  0.9202 -0.8148  0.3289
 4876SOL     OW26086   1.486   0.314  14.708 -0.6290  0.0004 -0.3154
 4876SOL    HW126087   1.474   0.222  14.729  1.5133 -0.7783 -2.4487
 4876SOL    HW226088   1.507   0.312  14.614  0.5597 -1.8614 -0.0066
 4877SOL     OW26089   0.749   0.355   8.797 -0.0799 -0.1031 -0.7863
 4877SOL    HW126090   0.734   0.332   8.889 -0.6893  0.1972 -0.8101
 4877SOL    HW226091   0.693   0.432   8.787 -0.8540 -0.4808  0.6131
 4878SOL     OW26092   2.378   2.163   3.526 -0.1981  0.4244  1.0371
 4878SOL    HW126093   2.453   2.167   3.584  1.1332 -1.6662 -0.5230
 4878SOL    HW226094   2.361   2.257   3.532 -1.0379  0.3916 -0.6000
 4879SOL     OW26095   3.051   4.578   6.170 -0.2447  0.5765 -0.6344
 4879SOL    HW126096   3.059   4.494   6.216  2.3649  0.7124 -0.8264
 4879SOL    HW226097   3.144   4.578   6.146 -0.3531  0.3089 -1.0395
 4880SOL     OW26098   4.086   0.696   4.393  0.2438 -0.0166 -0.4802
 4880SOL    HW126099   4.132   0.656   4.319  0.0220 -1.5383  0.1931
 4880SOL    HW226100   4.016   0.745   4.351  0.8750  1.5409  0.2717
 4881SOL     OW26101   2.923   0.205  10.128  0.5184 -0.3023  0.4180
 4881SOL    HW126102   2.923   0.161  10.043  0.2267  0.0123  0.2551
 4881SOL    HW226103   2.962   0.290  10.108  1.9610 -0.8743  0.8541
 4882SOL     OW26104   1.609   4.299  12.743  0.2199  0.6931 -0.2823
 4882SOL    HW126105   1.671   4.237  12.782  0.4750  0.4488 -1.0793
 4882SOL    HW226106   1.668   4.369  12.715  0.4521  0.2252 -0.9602
 4883SOL     OW26107   4.109   0.100   0.259  0.2830 -0.3409  0.0614
 4883SOL    HW126108   4.187   0.045   0.262  0.7388  0.4133  2.0957
 4883SOL    HW226109   4.138   0.182   0.300 -0.0123 -0.1222 -0.1679
 4884SOL     OW26110   0.024   4.116   9.133  0.2451  0.0478 -0.1655
 4884SOL    HW126111   0.109   4.154   9.156  0.1271  0.2711 -0.0971
 4884SOL    HW226112   0.042   4.049   9.067 -1.2500 -3.2464  2.7852
 4885SOL     OW26113   2.487   0.585   2.408 -0.6418  0.7146 -0.0607
 4885SOL    HW126114   2.569   0.550   2.372 -0.3823 -0.8334  2.0790
 4885SOL    HW226115   2.432   0.512   2.380  0.3652  0.7077 -2.0140
 4886SOL     OW26116   0.448   1.706   7.803 -0.4816  0.3589 -0.5156
 4886SOL    HW126117   0.428   1.780   7.745 -1.6784  1.3772  1.1973
 4886SOL    HW226118   0.496   1.652   7.739  3.0145  0.3895  2.0787
 4887SOL     OW26119   0.240   2.803   3.855 -0.5148 -0.2969  0.0928
 4887SOL    HW126120   0.227   2.851   3.936 -0.5860 -2.1268  1.1665
 4887SOL    HW226121   0.150   2.797   3.823 -1.0148 -1.4339  1.7103
 4888SOL     OW26122   2.103   4.347   7.290 -0.1250  0.2309 -0.0199
 4888SOL    HW126123   2.023   4.312   7.250  0.5777 -1.4776  0.0869
 4888SOL    HW226124   2.124   4.407   7.219  0.7426  1.6717  1.4643
 4889SOL     OW26125   4.720   0.497   2.700  0.7816 -0.2303 -0.7597
 4889SOL    HW126126   4.635   0.462   2.676  1.4180 -1.5212 -1.1280
 4889SOL    HW226127   0.060   0.427   2.683  1.4662 -0.0906  1.2632
 4890SOL     OW26128   1.877   2.934   7.000 -0.1339  0.3028 -0.4834
 4890SOL    HW126129   1.889   2.942   7.095 -1.5645  0.6838 -0.3448
 4890SOL    HW226130   1.809   2.999   6.983 -2.9690 -2.1918  1.4759
 4891SOL     OW26131   2.875   2.065   5.029 -0.8512  0.0458  0.1991
 4891SOL    HW126132   2.880   2.089   5.122 -1.1671 -1.5283  0.6233
 4891SOL    HW226133   2.787   2.030   5.014  0.0148 -1.8762 -0.3693
 4892SOL     OW26134   3.533   3.662   1.157 -0.3149  0.0681 -0.1095
 4892SOL    HW126135   3.492   3.656   1.243  0.0296  0.2968  0.0735
 4892SOL    HW226136   3.457   3.684   1.104  1.4275 -2.9880 -3.8659
 4893SOL     OW26137   4.500   2.301  13.527  0.1236 -0.3461 -0.2814
 4893SOL    HW126138   4.472   2.211  13.548 -0.1524  0.2698  1.9487
 4893SOL    HW226139   4.552   2.313  13.606  0.6629 -2.6501 -0.2661
 4894SOL     OW26140   1.702   3.155   7.006 -0.2865  0.0559  0.0653
 4894SOL    HW126141   1.612   3.168   6.975 -0.1932 -0.6938 -0.5185
 4894SOL    HW226142   1.683   3.149   7.099 -0.6648 -2.1809 -0.1488
 4895SOL     OW26143   0.172   0.143   1.487 -0.0843 -0.2941  0.2050
 4895SOL    HW126144   0.126   0.060   1.502  0.0523 -0.4082 -0.0064
 4895SOL    HW226145   0.093   0.196   1.473 -0.0243 -0.1611  0.3828
 4896SOL     OW26146   0.748   4.663   6.512  0.1836  0.3549 -0.0260
 4896SOL    HW126147   0.658   4.682   6.538 -0.5348  0.7204 -2.7708
 4896SOL    HW226148   0.740   4.573   6.480 -3.1394  0.3155  0.9855
 4897SOL     OW26149   1.110   0.489   6.967 -0.3992  0.3188 -0.1447
 4897SOL    HW126150   1.121   0.430   6.893  0.3976 -0.8022  0.8700
 4897SOL    HW226151   1.015   0.504   6.967 -0.1357  2.0656  1.1491
 4898SOL     OW26152   4.272   2.128  17.620  0.0601 -0.1845 -0.0960
 4898SOL    HW126153   4.309   2.216  17.621  0.4592 -0.3244 -1.7929
 4898SOL    HW226154   4.213   2.127   0.001 -0.4123 -0.2003 -0.4647
 4899SOL     OW26155   3.454   3.995  15.299 -0.3927 -0.6929  0.0523
 4899SOL    HW126156   3.423   4.031  15.216 -1.8022 -2.3518 -0.1379
 4899SOL    HW226157   3.537   3.950  15.283 -0.3368 -0.6739  0.3002
 4900SOL     OW26158   1.512   0.152   5.589  0.0353  0.2397 -0.3131
 4900SOL    HW126159   1.503   0.119   5.678  1.6386 -1.7331 -0.8923
 4900SOL    HW226160   1.533   0.072   5.541  0.9640 -0.9756  2.1518
 4901SOL     OW26161   1.749   3.924  13.410 -0.2113 -0.1493 -0.2196
 4901SOL    HW126162   1.708   3.891  13.490 -0.0849  1.8640  0.6757
 4901SOL    HW226163   1.696   3.880  13.343 -0.7900 -2.7969  1.9748
 4902SOL     OW26164   3.795   3.759   3.186 -0.2316  0.2203  0.2618
 4902SOL    HW126165   3.881   3.795   3.164 -0.9247  2.4532  1.2330
 4902SOL    HW226166   3.749   3.831   3.229 -0.5237 -0.5212  1.1816
 4903SOL     OW26167   0.345   2.757   3.162  0.2223  0.2010  0.3882
 4903SOL    HW126168   0.398   2.833   3.185  0.4849 -0.3693  1.7106
 4903SOL    HW226169   0.324   2.715   3.246 -1.6865 -0.7549 -0.5697
 4904SOL     OW26170   4.268   4.357   4.014 -0.3072  0.1847  0.3193
 4904SOL    HW126171   4.314   4.418   4.072  0.0184  1.3750 -1.2058
 4904SOL    HW226172   4.177   4.357   4.045 -0.2397 -1.1375  0.5351
 4905SOL     OW26173   2.424   0.771  17.095  0.6075 -0.4262  0.1559
 4905SOL    HW126174   2.335   0.737  17.102 -0.2580  1.4704 -1.6797
 4905SOL    HW226175   2.474   0.710  17.149  1.7871  0.9423  0.6274
 4906SOL     OW26176   1.612   4.279  15.425 -0.2265  0.0599 -0.1045
 4906SOL    HW126177   1.536   4.237  15.465 -0.6187  0.9706  0.1155
 4906SOL    HW226178   1.684   4.249  15.480 -1.0832 -1.0968  0.3799
 4907SOL     OW26179   3.124   0.878   3.424 -0.0460  0.4022 -0.1721
 4907SOL    HW126180   3.216   0.888   3.400  0.3742  2.5807  2.4431
 4907SOL    HW226181   3.139   0.885   3.518  0.9746 -0.0235 -0.3078
 4908SOL     OW26182   1.029   3.946  13.954 -0.2995  0.4313 -0.2266
 4908SOL    HW126183   0.940   3.916  13.972 -0.2974 -0.6876 -2.0355
 4908SOL    HW226184   1.003   4.033  13.923 -3.5899 -0.2373  0.6621
 4909SOL     OW26185   0.782   1.472   8.813  0.0362 -0.5609  0.1076
 4909SOL    HW126186   0.703   1.523   8.834  1.8356  0.7871  3.5696
 4909SOL    HW226187   0.825   1.466   8.898 -1.4210  1.3882  0.9931
 4910SOL     OW26188   0.516   4.425   0.240 -0.4597 -0.1947 -0.0988
 4910SOL    HW126189   0.549   4.457   0.323  2.4890 -1.0271 -0.9226
 4910SOL    HW226190   0.423   4.411   0.260 -0.6045 -1.2264 -1.4568
 4911SOL     OW26191   0.215   3.618   1.471  0.5483 -0.4656  0.0820
 4911SOL    HW126192   0.221   3.568   1.390 -1.7553 -0.5492 -0.0225
 4911SOL    HW226193   0.187   3.544   1.526 -0.8417 -1.1893 -1.6028
 4912SOL     OW26194   0.392   0.793   2.421  0.4907  0.1523  0.2885
 4912SOL    HW126195   0.472   0.772   2.372  0.2426 -1.1533  0.4225
 4912SOL    HW226196   0.351   0.706   2.419 -0.7114  0.7992 -3.4473
 4913SOL     OW26197   4.630   4.687   5.148 -0.6073  0.0964 -0.1675
 4913SOL    HW126198   4.683   4.607   5.141  0.9592  1.0343  1.2371
 4913SOL    HW226199   4.595   4.699   5.059 -0.5352 -0.8737 -0.3310
 4914SOL     OW26200   3.629   0.805  17.473  0.0412  0.1790  0.1665
 4914SOL    HW126201   3.695   0.739  17.495 -0.4168 -0.6873 -1.1146
 4914SOL    HW226202   3.673   0.857  17.406  0.5612  0.2479  0.5619
 4915SOL     OW26203   0.022   0.795  13.518  0.6498  0.8634 -0.2311
 4915SOL    HW126204   0.089   0.728  13.526 -0.5490 -0.4274 -0.9859
 4915SOL    HW226205   4.712   0.806  13.607  0.2743 -0.8988 -0.1586
 4916SOL     OW26206   0.745   2.065  13.330  0.6985  0.3015 -0.2689
 4916SOL    HW126207   0.753   2.037  13.421  1.4458  1.9260  0.1726
 4916SOL    HW226208   0.679   2.134  13.334  0.2972 -0.0562 -0.8106
 4917SOL     OW26209   4.379   4.361  11.796  0.5659  0.0920 -0.3530
 4917SOL    HW126210   4.384   4.266  11.805 -0.7771 -0.0251 -0.8283
 4917SOL    HW226211   4.295   4.385  11.836  0.5744  0.4216 -0.5322
 4918SOL     OW26212   2.481   3.301   7.067 -0.3154  0.2533  0.0745
 4918SOL    HW126213   2.520   3.311   7.154 -1.1616  2.5010  0.1819
 4918SOL    HW226214   2.463   3.207   7.071 -0.5400  0.2358 -1.5810
 4919SOL     OW26215   3.944   4.280  13.212  0.5652  0.5553 -0.2970
 4919SOL    HW126216   3.961   4.190  13.183  1.5598  0.3657  0.8881
 4919SOL    HW226217   3.935   4.327  13.129  3.9119  1.2409 -0.2748
 4920SOL     OW26218   2.565   1.309   4.789 -0.3482  0.1306  0.1894
 4920SOL    HW126219   2.492   1.299   4.727  0.3332 -0.1071 -0.5667
 4920SOL    HW226220   2.549   1.235   4.848 -2.3858  0.6480  0.2904
 4921SOL     OW26221   3.600   0.664  15.393  0.6745 -0.1796  0.1568
 4921SOL    HW126222   3.622   0.751  15.361 -1.3175  0.1298 -0.4057
 4921SOL    HW226223   3.655   0.661  15.471  2.2093  0.3425 -0.9011
 4922SOL     OW26224   2.127   3.078  16.472 -0.0923 -0.4393 -0.2012
 4922SOL    HW126225   2.154   3.035  16.391 -0.2182  1.3710 -1.1848
 4922SOL    HW226226   2.131   3.167  16.438  0.0860  0.2403  1.6057
 4923SOL     OW26227   1.551   0.310   6.272 -0.3969 -0.1417 -0.5174
 4923SOL    HW126228   1.474   0.320   6.327  0.7439 -0.5659  1.1514
 4923SOL    HW226229   1.539   0.378   6.205  2.1448  0.1235 -0.7153
 4924SOL     OW26230   1.256   0.320   5.230  0.2841 -0.3041  0.1744
 4924SOL    HW126231   1.318   0.301   5.159  2.9275  0.0112  2.4250
 4924SOL    HW226232   1.198   0.244   5.223 -0.1910  0.0431  0.3315
 4925SOL     OW26233   2.138   1.581  17.657  0.1797  0.3816 -0.7479
 4925SOL    HW126234   2.178   1.494  17.660 -1.4442 -0.3748 -1.1444
 4925SOL    HW226235   2.092   1.584  17.573 -0.9675 -1.3272 -0.1623
 4926SOL     OW26236   0.240   0.955   3.922 -0.1358 -0.0819  0.4430
 4926SOL    HW126237   0.318   0.900   3.933 -1.2018 -1.2323  2.2129
 4926SOL    HW226238   0.245   1.000   3.837 -0.8346 -0.5051  0.1802
 4927SOL     OW26239   4.638   2.790   7.211 -0.7155  0.0311 -0.1045
 4927SOL    HW126240   4.689   2.768   7.289 -0.9041  0.3955  0.1193
 4927SOL    HW226241   4.581   2.856   7.251  1.0950 -0.0615  2.6013
 4928SOL     OW26242   2.493   2.892   0.134 -0.2317 -0.2025 -0.1150
 4928SOL    HW126243   2.483   2.801   0.105 -0.7371  0.4632 -2.0842
 4928SOL    HW226244   2.579   2.906   0.095 -0.8580 -0.4376 -1.5876
 4929SOL     OW26245   3.471   3.136   9.203  0.1797 -0.0881 -0.0116
 4929SOL    HW126246   3.438   3.094   9.123 -0.1248 -2.4040  1.3479
 4929SOL    HW226247   3.527   3.207   9.169 -1.7838  1.1394 -0.6955
 4930SOL     OW26248   0.805   3.375   2.200  0.0712  0.0569  0.3227
 4930SOL    HW126249   0.846   3.422   2.273  2.5084 -0.6352 -0.6162
 4930SOL    HW226250   0.749   3.319   2.254 -1.3439 -0.4196 -1.6248
 4931SOL     OW26251   3.926   0.508   5.188 -0.0604 -0.3566  0.0718
 4931SOL    HW126252   4.004   0.512   5.244 -0.3368  2.7760  0.2347
 4931SOL    HW226253   3.874   0.436   5.224  2.6291 -0.7722  3.1771
 4932SOL     OW26254   2.947   3.413   0.337 -0.4100  0.4799 -0.5189
 4932SOL    HW126255   3.021   3.363   0.305  0.3008  0.2171  1.5355
 4932SOL    HW226256   2.987   3.467   0.405 -0.4291 -0.3678  0.1514
 4933SOL     OW26257   0.992   3.889  16.614  0.1410 -0.0128 -0.4252
 4933SOL    HW126258   1.014   3.798  16.636  0.5240  0.2501  0.2613
 4933SOL    HW226259   0.993   3.897  16.519 -0.0931  1.9358 -0.2532
 4934SOL     OW26260   1.065   2.403  14.562 -0.1276 -0.1741 -0.2616
 4934SOL    HW126261   1.003   2.404  14.490  1.5661 -0.3433 -1.7292
 4934SOL    HW226262   1.120   2.333  14.526  2.5154  1.0038  1.4731
 4935SOL     OW26263   3.521   3.260   1.326  0.0662  0.0077  0.3786
 4935SOL    HW126264   3.526   3.312   1.406  0.3982 -0.4921  0.6815
 4935SOL    HW226265   3.441   3.293   1.285  0.9586  0.0526 -1.3438
 4936SOL     OW26266   2.261   0.098  16.837  0.3310  0.4510 -0.5524
 4936SOL    HW126267   2.184   0.052  16.869  0.1479 -0.8083 -2.7463
 4936SOL    HW226268   2.302   0.119  16.921 -0.8831 -1.9596  0.6362
 4937SOL     OW26269   3.473   0.049   0.814  0.8867  0.2984 -0.2344
 4937SOL    HW126270   3.498   0.116   0.751 -2.4854  1.5723 -0.2330
 4937SOL    HW226271   3.467   0.099   0.895  0.3791 -0.6662  0.3261
 4938SOL     OW26272   2.593   3.390  11.240 -0.5861  0.2450  0.1931
 4938SOL    HW126273   2.523   3.452  11.259  0.3019  1.2908  0.0343
 4938SOL    HW226274   2.583   3.353  11.327  2.3323  0.7717  0.7350
 4939SOL     OW26275   0.274   1.271   0.472 -0.3968  0.0801 -0.1658
 4939SOL    HW126276   0.338   1.242   0.536 -1.1439 -0.3642  0.3804
 4939SOL    HW226277   0.332   1.287   0.398 -2.1869 -1.6675 -1.9441
 4940SOL     OW26278   0.525   0.535  15.915 -0.3925  0.0681 -0.5769
 4940SOL    HW126279   0.570   0.527  15.999 -0.8355  2.6748 -0.0905
 4940SOL    HW226280   0.566   0.617  15.889 -1.3317  0.1551 -1.7857
 4941SOL     OW26281   4.237   0.323   2.940 -0.3510 -0.2343 -0.1075
 4941SOL    HW126282   4.248   0.375   2.860 -1.5645 -1.9071 -1.3456
 4941SOL    HW226283   4.299   0.366   2.999 -0.4655  0.4472 -0.4774
 4942SOL     OW26284   2.147   4.174   4.554  0.1012 -0.1161  0.0306
 4942SOL    HW126285   2.164   4.230   4.629 -1.0952  0.3193 -0.0211
 4942SOL    HW226286   2.212   4.104   4.562  2.9800  2.5317 -0.1490
 4943SOL     OW26287   4.496   0.677   4.853  0.0745 -0.1223  0.0721
 4943SOL    HW126288   4.504   0.619   4.928 -1.2224 -1.0793 -0.5436
 4943SOL    HW226289   4.587   0.659   4.827 -0.4842 -1.3754 -0.9604
 4944SOL     OW26290   4.646   2.207   5.003  0.2944  0.3609 -0.0104
 4944SOL    HW126291   4.708   2.263   5.050 -0.9713 -0.9075  3.1948
 4944SOL    HW226292   4.697   2.175   4.929 -2.1415 -1.1838 -1.0278
 4945SOL     OW26293   0.586   2.046   2.717 -0.0896 -0.1835  0.3378
 4945SOL    HW126294   0.554   2.125   2.761 -0.8663 -0.6893  0.6714
 4945SOL    HW226295   0.607   1.982   2.785  0.5372 -2.1311 -1.6750
 4946SOL     OW26296   1.852   0.382   6.428 -0.3103  0.4276  0.1849
 4946SOL    HW126297   1.848   0.477   6.415 -0.9184  0.3020 -0.5606
 4946SOL    HW226298   1.768   0.355   6.391 -0.1426  0.6689 -0.3750
 4947SOL     OW26299   2.277   2.765  14.664 -0.0996  0.0584  0.4327
 4947SOL    HW126300   2.373   2.770  14.659 -0.1191  0.0983  0.1333
 4947SOL    HW226301   2.267   2.685  14.612  0.0337 -0.2377  0.8541
 4948SOL     OW26302   2.399   3.407  14.106  0.1640  0.1515 -0.4704
 4948SOL    HW126303   2.381   3.476  14.169  0.0285 -1.1345  0.8969
 4948SOL    HW226304   2.370   3.338  14.165  1.0734  1.7640  1.8600
 4949SOL     OW26305   4.482   1.928   2.857 -0.1431 -0.6773 -0.5626
 4949SOL    HW126306   4.430   2.006   2.836 -0.6936 -0.9374 -0.1636
 4949SOL    HW226307   4.452   1.915   2.947  0.6815 -0.0841 -0.2021
 4950SOL     OW26308   4.656   0.827  13.772 -0.0570  0.2942  0.0528
 4950SOL    HW126309   4.595   0.834  13.845  1.4820 -0.1369  1.3901
 4950SOL    HW226310   4.718   0.896  13.794  1.0348 -0.5415 -0.3963
 4951SOL     OW26311   3.969   3.083   6.349  0.0978 -0.4178 -0.2226
 4951SOL    HW126312   4.014   3.045   6.274 -0.2416  1.2967 -1.2808
 4951SOL    HW226313   3.968   3.002   6.400  3.4749 -0.7736 -0.7449
 4952SOL     OW26314   3.231   0.360   7.599 -0.0279 -0.2208 -0.0111
 4952SOL    HW126315   3.238   0.423   7.527  0.8190 -0.5755 -0.2408
 4952SOL    HW226316   3.292   0.392   7.665 -0.9621  1.9562 -0.2116
 4953SOL     OW26317   0.412   2.466   7.830  0.2884 -0.5298 -0.5288
 4953SOL    HW126318   0.496   2.493   7.794 -0.7857  0.1778 -2.5371
 4953SOL    HW226319   0.415   2.501   7.919 -2.5609 -0.0417 -0.6108
 4954SOL     OW26320   0.112   0.384   7.886  0.4701 -0.1006  0.1224
 4954SOL    HW126321   0.054   0.365   7.812  1.3132  0.6359 -0.7310
 4954SOL    HW226322   0.074   0.467   7.916 -1.6305 -1.5830  1.5484
 4955SOL     OW26323   3.365   3.482   9.632  0.0855  0.2578  0.3777
 4955SOL    HW126324   3.276   3.500   9.603  0.8625  1.4844 -1.2309
 4955SOL    HW226325   3.371   3.555   9.694 -0.8703  1.1807 -0.6362
 4956SOL     OW26326   1.979   4.345   2.072  0.2581  0.1902  0.1440
 4956SOL    HW126327   2.073   4.352   2.087  0.4175 -1.9631  0.1302
 4956SOL    HW226328   1.968   4.253   2.047 -0.3090  0.6961 -1.4918
 4957SOL     OW26329   3.426   0.264   0.992 -0.0870 -0.1781 -0.0070
 4957SOL    HW126330   3.334   0.290   0.999  0.1351  0.9044 -1.2613
 4957SOL    HW226331   3.457   0.318   1.065 -0.2031 -1.6953  1.1770
 4958SOL     OW26332   1.510   0.128  17.094 -0.4184 -0.5113  0.6145
 4958SOL    HW126333   1.489   0.094  17.180 -0.2895  1.7912  1.5592
 4958SOL    HW226334   1.578   0.193  17.112 -0.6477 -0.3738  0.9879
 4959SOL     OW26335   2.230   4.609   8.069  0.3111  0.5327 -0.1268
 4959SOL    HW126336   2.164   4.678   8.075  0.1496  0.3451  0.3019
 4959SOL    HW226337   2.195   4.547   8.005 -1.4349  1.7743 -0.3829
 4960SOL     OW26338   0.875   2.850   7.527 -0.2245 -0.6007 -0.2900
 4960SOL    HW126339   0.782   2.872   7.527  0.5107  2.6204  1.0186
 4960SOL    HW226340   0.880   2.809   7.614 -2.1083  1.6182  0.8908
 4961SOL     OW26341   3.324   2.375  14.283  0.2142 -0.0908 -0.0407
 4961SOL    HW126342   3.243   2.422  14.262 -0.2811  0.2453  2.6797
 4961SOL    HW226343   3.297   2.286  14.259 -1.3384  0.0668  1.0981
 4962SOL     OW26344   2.215   1.274   3.658  0.6265  0.0336  0.4389
 4962SOL    HW126345   2.269   1.232   3.725  0.6772 -0.1541  0.2800
 4962SOL    HW226346   2.260   1.232   3.584  2.4836  1.0531  0.9921
 4963SOL     OW26347   0.349   3.602  10.678  0.2761 -0.1097  0.6553
 4963SOL    HW126348   0.312   3.623  10.763  2.1243  1.6150  1.0377
 4963SOL    HW226349   0.440   3.631  10.689 -0.2284  1.4619  0.6415
 4964SOL     OW26350   4.543   3.758   5.460  0.2819 -0.0048  1.0339
 4964SOL    HW126351   4.502   3.700   5.396  1.2760 -1.7254  1.9227
 4964SOL    HW226352   4.517   3.846   5.435  1.5635  0.7784  2.4574
 4965SOL     OW26353   0.936   0.272   6.057 -0.6005 -0.2716 -0.7964
 4965SOL    HW126354   0.845   0.264   6.085 -0.6282  3.0503  0.0712
 4965SOL    HW226355   0.962   0.181   6.049 -0.5199 -0.3906  0.8460
 4966SOL     OW26356   0.848   2.781   9.081  0.4620  0.1100 -0.5209
 4966SOL    HW126357   0.817   2.814   9.165  0.2248 -0.7564 -0.2633
 4966SOL    HW226358   0.799   2.701   9.059  1.1348 -0.6736  0.8483
 4967SOL     OW26359   1.021   0.861  11.488 -0.4400  0.0570  0.5405
 4967SOL    HW126360   0.926   0.869  11.495 -0.3572  1.2953  0.2132
 4967SOL    HW226361   1.038   0.944  11.443 -0.5925 -2.2918 -3.8628
 4968SOL     OW26362   3.760   0.865  11.150 -0.4189  0.2860 -0.2251
 4968SOL    HW126363   3.784   0.830  11.065 -3.0772  0.1847 -0.9388
 4968SOL    HW226364   3.841   0.907  11.179 -0.8362 -0.7016  2.4128
 4969SOL     OW26365   3.958   2.133   8.145 -0.2294 -0.1451 -0.1863
 4969SOL    HW126366   4.047   2.153   8.116 -0.6064 -0.9726 -1.9202
 4969SOL    HW226367   3.955   2.173   8.232 -0.6604 -0.7149  0.0691
 4970SOL     OW26368   1.173   3.339  10.187  0.7322  0.5236  0.4711
 4970SOL    HW126369   1.236   3.376  10.126 -1.4134  2.1191 -0.7867
 4970SOL    HW226370   1.092   3.383  10.159  1.6786  2.9586  1.4792
 4971SOL     OW26371   3.302   3.366   5.014 -0.4323 -0.2456 -0.1451
 4971SOL    HW126372   3.223   3.359   4.960 -1.0953 -0.1026  0.7852
 4971SOL    HW226373   3.263   3.314   5.085 -0.2458 -0.6910 -0.3685
 4972SOL     OW26374   1.509   3.647  16.143 -0.9263 -0.0507 -0.0181
 4972SOL    HW126375   1.493   3.578  16.206 -2.6636 -0.6703 -1.1262
 4972SOL    HW226376   1.604   3.660  16.149 -0.6953 -0.2631 -3.3022
 4973SOL     OW26377   2.382   2.112   6.578  0.7653  0.3171 -0.5805
 4973SOL    HW126378   2.443   2.145   6.644  0.3292  0.9001 -0.4669
 4973SOL    HW226379   2.365   2.024   6.612  0.2882  1.2618  1.6639
 4974SOL     OW26380   3.055   2.443   5.191 -0.4704  0.7821  0.2132
 4974SOL    HW126381   3.150   2.450   5.186 -0.2541 -1.3954  1.4613
 4974SOL    HW226382   3.043   2.402   5.105 -0.9948  1.2771  0.0479
 4975SOL     OW26383   3.546   0.746  15.672  0.4425  0.0434  0.0518
 4975SOL    HW126384   3.506   0.818  15.624 -0.5529  0.2814  1.2586
 4975SOL    HW226385   3.503   0.670  15.632  0.9873 -0.5612  0.6168
 4976SOL     OW26386   3.788   3.747   7.101 -0.5105 -0.3765  0.0883
 4976SOL    HW126387   3.861   3.725   7.160  1.6601 -0.2541 -2.5668
 4976SOL    HW226388   3.714   3.740   7.161  0.2041 -1.7753  0.8209
 4977SOL     OW26389   2.346   4.262  17.411  0.3271 -0.1031 -0.2767
 4977SOL    HW126390   2.290   4.193  17.375  0.5010  0.4202 -1.5576
 4977SOL    HW226391   2.290   4.306  17.474  1.9411 -0.3886  1.3648
 4978SOL     OW26392   0.457   1.039   9.547  0.1862 -0.0806 -0.3784
 4978SOL    HW126393   0.453   1.074   9.458  1.7507  0.3651 -0.2662
 4978SOL    HW226394   0.550   1.057   9.559  0.2507 -0.9026  0.3484
 4979SOL     OW26395   0.047   2.435  13.504  0.7025  0.1690  0.2408
 4979SOL    HW126396   0.059   2.498  13.433 -0.0196 -1.0117 -0.9173
 4979SOL    HW226397   0.018   2.485  13.580  0.7185  1.7901 -0.8230
 4980SOL     OW26398   4.443   4.068   8.158  0.1564 -0.4949 -0.0958
 4980SOL    HW126399   4.455   4.162   8.172 -1.0937 -0.5809  1.6443
 4980SOL    HW226400   4.400   4.032   8.236  1.3941 -1.8410 -0.0463
 4981SOL     OW26401   2.840   4.286  12.262  0.6067  0.3657 -0.1031
 4981SOL    HW126402   2.794   4.201  12.259 -1.0781  1.1951  2.3496
 4981SOL    HW226403   2.778   4.348  12.301  1.6146  1.3893 -0.1411
 4982SOL     OW26404   4.011   4.537   7.913 -0.2531 -0.1287  0.0043
 4982SOL    HW126405   4.004   4.449   7.878  2.9322 -0.4977  0.3698
 4982SOL    HW226406   3.916   4.554   7.914 -0.3386 -0.6331  0.3651
 4983SOL     OW26407   0.426   0.780   0.155 -0.5591 -0.2206 -0.3333
 4983SOL    HW126408   0.508   0.806   0.112 -0.9943  1.4514 -0.1617
 4983SOL    HW226409   0.461   0.707   0.206  3.1663  2.0326  0.3746
 4984SOL     OW26410   0.162   2.154  13.826  1.2112  0.2709  0.1283
 4984SOL    HW126411   0.120   2.213  13.763  1.4824 -0.4175 -0.6994
 4984SOL    HW226412   0.087   2.151  13.885  0.6290 -0.5546 -0.6572
 4985SOL     OW26413   2.153   0.055   1.139 -0.2431 -0.5241 -0.3365
 4985SOL    HW126414   2.215   0.110   1.091 -1.8090  0.4475 -1.2568
 4985SOL    HW226415   2.198   4.695   1.130  2.9547  0.9764  1.9635
 4986SOL     OW26416   1.310   3.246   6.157 -0.5357  0.0652  0.1285
 4986SOL    HW126417   1.360   3.169   6.184  2.0058  1.6485 -0.1737
 4986SOL    HW226418   1.376   3.265   6.091 -0.8087  0.0386 -0.1530
 4987SOL     OW26419   0.210   1.013   1.694 -0.7346  0.9466  0.3095
 4987SOL    HW126420   0.123   1.016   1.734  0.0027 -2.0208  2.1261
 4987SOL    HW226421   0.222   0.928   1.651  0.9601  0.5284  1.6087
 4988SOL     OW26422   3.337   4.424   7.080  0.2115  0.0022  0.0377
 4988SOL    HW126423   3.305   4.345   7.123 -0.9650  0.4931  0.0621
 4988SOL    HW226424   3.268   4.433   7.014  0.7303 -2.6191 -0.8704
 4989SOL     OW26425   3.227   3.214   8.486  0.1515  0.0510 -0.1423
 4989SOL    HW126426   3.200   3.172   8.567 -1.0669 -1.3385 -1.2521
 4989SOL    HW226427   3.319   3.190   8.498  0.0220  0.4183  1.5692
 4990SOL     OW26428   2.145   0.841   6.712 -0.2933 -0.2606 -0.2868
 4990SOL    HW126429   2.159   0.871   6.802  0.2219 -1.1522 -0.0766
 4990SOL    HW226430   2.235   0.830   6.684  0.1048  3.1338 -0.2898
 4991SOL     OW26431   0.978   2.630   8.871  0.5935  0.0089  0.3084
 4991SOL    HW126432   0.916   2.671   8.931  2.2165  1.9707  0.6450
 4991SOL    HW226433   1.053   2.688   8.884  2.2591 -1.4337 -2.8601
 4992SOL     OW26434   4.562   1.447  16.899 -0.4375  0.1080 -0.0711
 4992SOL    HW126435   4.557   1.355  16.924  0.7519  0.5478  1.8336
 4992SOL    HW226436   4.511   1.455  16.818 -0.6770 -2.4191 -0.1680
 4993SOL     OW26437   0.128   1.025  12.119 -0.3854 -0.9442 -0.6833
 4993SOL    HW126438   0.044   1.057  12.153  0.3385 -0.9673  1.1604
 4993SOL    HW226439   0.100   1.022  12.028 -1.3519  2.0713 -0.5050
 4994SOL     OW26440   2.841   4.631  14.589 -0.2938  0.2099 -0.3320
 4994SOL    HW126441   2.843   0.003  14.597 -0.8805  0.0956  1.0737
 4994SOL    HW226442   2.932   4.603  14.581 -0.1078  0.9793 -0.9872
 4995SOL     OW26443   4.487   4.267  10.218  0.3655 -0.4077  0.3882
 4995SOL    HW126444   4.491   4.357  10.253 -2.5219  0.1786 -0.7361
 4995SOL    HW226445   4.423   4.227  10.277 -1.5434 -1.3118 -2.2801
 4996SOL     OW26446   2.108   3.935   6.342 -0.0920 -0.2111  0.5236
 4996SOL    HW126447   2.117   3.918   6.436  2.1991 -0.6271  0.2076
 4996SOL    HW226448   2.023   3.979   6.349  0.5056  0.6808  2.0506
 4997SOL     OW26449   2.501   1.986   7.546  0.1898  0.0910  0.0435
 4997SOL    HW126450   2.573   2.041   7.577 -0.1776  0.6133 -0.0170
 4997SOL    HW226451   2.430   2.022   7.599 -1.6443  1.1337 -3.0816
 4998SOL     OW26452   2.174   1.683   5.549 -0.4188 -0.4361 -0.3142
 4998SOL    HW126453   2.126   1.739   5.609  1.8091  0.2566  0.8491
 4998SOL    HW226454   2.111   1.681   5.477 -2.1949  0.4169  1.2404
 4999SOL     OW26455   0.761   1.171  16.353 -0.1023  0.2826 -0.3501
 4999SOL    HW126456   0.748   1.235  16.422  1.4107 -0.3197  0.4841
 4999SOL    HW226457   0.845   1.201  16.320 -0.0668  0.0690 -0.4554
 5000SOL     OW26458   2.861   4.704   1.536 -0.0096 -0.4127 -0.3564
 5000SOL    HW126459   2.884   4.681   1.446 -0.6623  0.8753 -0.8599
 5000SOL    HW226460   2.908   4.638   1.587 -0.2711  0.4760  1.0408
 5001SOL     OW26461   2.427   2.234   5.865  0.2257 -0.3240 -0.2176
 5001SOL    HW126462   2.498   2.214   5.803  0.8895  1.9583 -0.1927
 5001SOL    HW226463   2.472   2.238   5.950  0.9572 -0.9939 -0.5720
 5002SOL     OW26464   2.318   4.076   0.637  0.6074 -0.2731  0.3184
 5002SOL    HW126465   2.363   4.009   0.689  1.7653  0.8605  0.7595
 5002SOL    HW226466   2.320   4.026   0.555  1.8840 -0.3062  0.3618
 5003SOL     OW26467   0.084   3.606   5.368  0.1421  0.4842 -0.2265
 5003SOL    HW126468   0.067   3.517   5.337  1.9968  0.8426 -2.2394
 5003SOL    HW226469   0.018   3.656   5.319 -0.5096  1.6109  1.8144
 5004SOL     OW26470   3.419   0.240  11.956  0.2124 -0.3141 -0.0578
 5004SOL    HW126471   3.454   0.163  11.911 -1.5363 -1.5308  0.6839
 5004SOL    HW226472   3.451   0.314  11.903 -0.6228 -0.4470 -0.7542
 5005SOL     OW26473   3.476   2.455   5.782  0.9521  0.2228 -0.1704
 5005SOL    HW126474   3.486   2.493   5.868  2.2564  3.6736 -1.8636
 5005SOL    HW226475   3.422   2.377   5.794 -1.2528  2.0319  1.4680
 5006SOL     OW26476   4.065   2.454  11.908 -0.1246  0.1388  0.7766
 5006SOL    HW126477   3.999   2.429  11.973  0.3391 -0.4049  1.0410
 5006SOL    HW226478   4.002   2.486  11.844 -1.4259 -2.0952  0.9311
 5007SOL     OW26479   4.183   0.598   8.478  0.6837  0.0677  0.1841
 5007SOL    HW126480   4.180   0.567   8.387  0.9696  0.2333  0.1196
 5007SOL    HW226481   4.166   0.692   8.473 -0.8586 -0.1814  0.7394
 5008SOL     OW26482   1.431   2.513   8.564 -0.1216  0.3729  0.3680
 5008SOL    HW126483   1.484   2.593   8.568  0.9794 -0.3707  0.8530
 5008SOL    HW226484   1.404   2.517   8.472 -2.3750  0.4817  1.0580
 5009SOL     OW26485   0.931   3.118   2.573  0.0239 -0.3282 -0.6144
 5009SOL    HW126486   1.026   3.105   2.578  0.1245  0.3869 -0.7420
 5009SOL    HW226487   0.916   3.189   2.635  1.3510 -0.8626  0.3201
 5010SOL     OW26488   3.934   3.390   9.557 -0.0614  0.6540  0.1821
 5010SOL    HW126489   3.881   3.466   9.532  1.8280  2.0975  0.5890
 5010SOL    HW226490   3.863   3.331   9.583  0.5372 -0.1640 -0.0460
 5011SOL     OW26491   4.648   2.967   4.241 -0.1764 -0.1808  0.3255
 5011SOL    HW126492   4.631   2.976   4.335 -0.5473 -1.0124  0.3432
 5011SOL    HW226493   4.651   2.871   4.243 -2.8972 -0.2983 -1.9725
 5012SOL     OW26494   4.490   3.754  12.761  0.2703  0.1775  0.6450
 5012SOL    HW126495   4.496   3.661  12.739  1.2679 -0.0712  1.9735
 5012SOL    HW226496   4.431   3.788  12.694  2.3511  2.2781 -0.1471
 5013SOL     OW26497   3.534   3.065  16.772 -0.1960 -0.1116  0.0684
 5013SOL    HW126498   3.468   3.007  16.809  0.4353  0.0349  1.4264
 5013SOL    HW226499   3.573   3.099  16.852 -2.5546  4.5166 -0.7640
 5014SOL     OW26500   2.519   3.962   6.011 -0.3194  0.3189  0.2234
 5014SOL    HW126501   2.464   3.958   6.090  0.6569  2.1367  0.9949
 5014SOL    HW226502   2.604   3.988   6.046 -0.7471 -1.9628  2.9717
 5015SOL     OW26503   1.350   1.481   2.980 -0.2171 -0.3925 -0.1176
 5015SOL    HW126504   1.392   1.516   2.902  1.5940  2.8300  2.2935
 5015SOL    HW226505   1.361   1.548   3.047  0.4069  1.0839 -1.7152
 5016SOL     OW26506   3.213   3.855   7.842 -0.1502 -0.4215 -0.0045
 5016SOL    HW126507   3.257   3.771   7.852 -0.5963 -0.7555 -0.7701
 5016SOL    HW226508   3.188   3.864   7.933 -0.6662  1.7899 -0.3738
 5017SOL     OW26509   2.461   0.338   3.861  0.3667  0.4999 -0.1194
 5017SOL    HW126510   2.526   0.321   3.793  0.2433 -1.4624  0.2524
 5017SOL    HW226511   2.416   0.415   3.827  2.0205  2.2144  1.5729
 5018SOL     OW26512   1.780   4.523   3.366  0.8926 -0.2907 -0.4323
 5018SOL    HW126513   1.865   4.503   3.405  1.6833 -0.1031 -2.0879
 5018SOL    HW226514   1.800   4.502   3.275  1.4506  2.0355 -0.8500
 5019SOL     OW26515   0.484   1.949  13.595  0.2894  0.2643  0.0042
 5019SOL    HW126516   0.422   1.954  13.668 -2.0075  1.0519 -1.9780
 5019SOL    HW226517   0.573   1.963  13.627  0.4811  2.7247 -1.5561
 5020SOL     OW26518   0.618   0.246   5.286  0.4322  0.0612  0.1959
 5020SOL    HW126519   0.608   0.153   5.303  0.1899  0.0338 -0.0836
 5020SOL    HW226520   0.712   0.247   5.268  0.3451 -0.6230 -0.3201
 5021SOL     OW26521   4.702   1.564   3.108  0.6935 -0.3224  0.2404
 5021SOL    HW126522   0.025   1.484   3.132  1.7281  0.7567  1.8198
 5021SOL    HW226523   0.046   1.632   3.115 -0.2326  0.3720  2.2544
 5022SOL     OW26524   0.480   1.743   8.226 -0.2620  0.2920 -0.2463
 5022SOL    HW126525   0.523   1.822   8.258  1.9135 -0.7479 -0.6335
 5022SOL    HW226526   0.415   1.775   8.163 -1.8844 -1.3681  0.5520
 5023SOL     OW26527   2.491   4.618  10.786 -0.2405 -0.1943 -0.6280
 5023SOL    HW126528   2.560   4.598  10.722  1.4350 -0.1330  1.1537
 5023SOL    HW226529   2.496   4.541  10.842 -1.3946 -0.1074 -0.4069
 5024SOL     OW26530   0.072   2.581   8.184  0.1607 -0.1081  0.1099
 5024SOL    HW126531   0.076   2.674   8.203 -1.8151 -0.1722  0.8629
 5024SOL    HW226532   0.019   2.569   8.104 -0.3695  0.2998  0.4042
 5025SOL     OW26533   0.244   2.282  13.255 -0.0568  0.5010  0.1082
 5025SOL    HW126534   0.228   2.374  13.277 -1.2283 -0.3436  2.7762
 5025SOL    HW226535   0.174   2.259  13.193  0.1209  2.1455 -0.6992
 5026SOL     OW26536   3.631   1.705   7.032  0.2604 -0.9060 -0.1724
 5026SOL    HW126537   3.718   1.673   7.055  0.5558 -0.3303 -0.4804
 5026SOL    HW226538   3.654   1.774   6.970  0.2424  0.3003  1.1525
 5027SOL     OW26539   1.832   3.893   4.091 -0.0425 -0.5049 -0.4644
 5027SOL    HW126540   1.921   3.876   4.060 -1.3078 -1.0705 -3.7589
 5027SOL    HW226541   1.817   3.814   4.145 -3.3636 -0.0678 -0.7565
 5028SOL     OW26542   2.625   1.933  11.623  0.1371  0.9042  0.0411
 5028SOL    HW126543   2.590   1.854  11.664 -0.4398  1.9483  1.5590
 5028SOL    HW226544   2.698   1.906  11.567  1.8100 -0.2881  2.7807
 5029SOL     OW26545   2.103   0.663   3.311  0.2248  0.0750 -1.1482
 5029SOL    HW126546   2.153   0.732   3.267 -0.7786  1.1147 -0.6740
 5029SOL    HW226547   2.161   0.632   3.381 -1.0981  0.1607 -0.0111
 5030SOL     OW26548   2.357   4.639   6.200  0.4354 -0.1076 -0.5436
 5030SOL    HW126549   2.362   4.615   6.107  4.9700  1.1368 -0.5822
 5030SOL    HW226550   2.448   4.663   6.215  0.0525  0.9966 -0.0142
 5031SOL     OW26551   2.080   0.462  14.937  0.4245  0.8167 -0.2466
 5031SOL    HW126552   2.115   0.475  15.025 -2.4546  1.5862  0.7849
 5031SOL    HW226553   2.150   0.495  14.881  0.2033 -1.7095 -1.9928
 5032SOL     OW26554   2.695   4.223   8.574 -0.2380 -0.0823  0.3004
 5032SOL    HW126555   2.751   4.299   8.554 -0.9793  0.4219  0.1190
 5032SOL    HW226556   2.760   4.154   8.586 -0.3527  0.0616  1.7035
 5033SOL     OW26557   2.510   2.745   9.112  0.4443 -0.4772 -0.3522
 5033SOL    HW126558   2.546   2.680   9.172 -2.2986 -0.5235  1.2548
 5033SOL    HW226559   2.431   2.765   9.162 -0.9141  0.3660 -2.8487
 5034SOL     OW26560   2.653   1.703   7.989 -0.7816  0.0314 -0.8440
 5034SOL    HW126561   2.585   1.640   8.013 -0.1895 -0.6845 -1.0782
 5034SOL    HW226562   2.629   1.707   7.897 -3.4124 -3.3447 -0.2950
 5035SOL     OW26563   0.410   3.843  14.740  0.6969 -0.1989 -0.2903
 5035SOL    HW126564   0.328   3.851  14.691  0.5657  3.2495  0.4843
 5035SOL    HW226565   0.466   3.785  14.688 -0.9408 -0.7185 -1.4883
 5036SOL     OW26566   3.144   2.409   6.535 -0.1047 -0.2747 -0.3563
 5036SOL    HW126567   3.060   2.454   6.549 -0.0323 -1.1663  2.9113
 5036SOL    HW226568   3.110   2.337   6.482  0.3455 -2.0450  1.7844
 5037SOL     OW26569   0.340   3.499   2.764 -0.0416  0.5637  0.3225
 5037SOL    HW126570   0.373   3.525   2.679 -0.9490  0.9210  0.0803
 5037SOL    HW226571   0.364   3.574   2.818 -0.2825  2.1804 -1.8174
 5038SOL     OW26572   0.328   3.458  14.196 -0.1219 -0.7397 -0.0381
 5038SOL    HW126573   0.260   3.440  14.131 -1.2216  1.8640  0.3719
 5038SOL    HW226574   0.311   3.388  14.258  1.5950 -0.3228  0.9107
 5039SOL     OW26575   0.462   0.824   2.848 -0.7132  0.3297 -0.2368
 5039SOL    HW126576   0.397   0.770   2.802  0.4961 -0.3812 -1.0875
 5039SOL    HW226577   0.518   0.843   2.774 -0.3814  3.4190  0.8056
 5040SOL     OW26578   1.799   1.367   4.411  0.5319  0.2915 -0.2179
 5040SOL    HW126579   1.865   1.418   4.457  2.3051 -0.1705 -2.2411
 5040SOL    HW226580   1.829   1.277   4.422 -1.2081 -0.1428  0.9532
 5041SOL     OW26581   0.289   0.611   5.755  0.4980 -0.5653 -0.4178
 5041SOL    HW126582   0.328   0.547   5.696  0.3672  0.0512 -1.1696
 5041SOL    HW226583   0.302   0.572   5.842 -0.4484  0.7106  0.2943
 5042SOL     OW26584   3.989   2.607  10.814 -0.1380 -0.0955  0.1965
 5042SOL    HW126585   4.068   2.556  10.798  0.1532  0.5842 -0.5817
 5042SOL    HW226586   4.032   2.691  10.828 -0.1208 -0.3304  1.5101
 5043SOL     OW26587   1.479   1.726   6.699 -0.2403  0.0223  0.0507
 5043SOL    HW126588   1.477   1.801   6.758 -1.4620 -0.2334  0.3313
 5043SOL    HW226589   1.516   1.663   6.760 -0.6948  0.0166  0.3186
 5044SOL     OW26590   2.357   0.508   4.802 -0.4623 -0.5189  0.2158
 5044SOL    HW126591   2.371   0.482   4.711 -0.4459 -1.6316  0.5288
 5044SOL    HW226592   2.357   0.603   4.803 -0.5134 -0.5369  2.1125
 5045SOL     OW26593   4.042   2.793   8.383 -0.9277 -0.1987 -0.1840
 5045SOL    HW126594   3.999   2.774   8.467 -0.1336 -0.3813  0.1812
 5045SOL    HW226595   4.087   2.877   8.388  0.0266 -0.6616 -1.0290
 5046SOL     OW26596   2.551   4.321  16.021 -0.4893  0.3799 -0.0809
 5046SOL    HW126597   2.566   4.332  15.927 -0.6811 -1.2409 -0.2993
 5046SOL    HW226598   2.633   4.362  16.047  0.6076 -0.6643 -1.8994
 5047SOL     OW26599   0.818   3.495   6.536 -0.0850  0.3671  0.1604
 5047SOL    HW126600   0.845   3.553   6.607 -0.2251  0.8044 -0.1420
 5047SOL    HW226601   0.892   3.499   6.476 -0.2140  0.8132  0.0270
 5048SOL     OW26602   3.636   3.672   0.281  0.0677  0.1958 -0.0637
 5048SOL    HW126603   3.729   3.693   0.271  0.4317 -1.0902  0.6021
 5048SOL    HW226604   3.587   3.742   0.239 -0.0212  0.6209  0.7569
 5049SOL     OW26605   1.600   2.586   8.019  0.6774 -0.4392  0.1701
 5049SOL    HW126606   1.518   2.635   8.014  0.8736 -0.0301  1.0010
 5049SOL    HW226607   1.576   2.510   8.071 -2.0552  1.4159  1.6355
 5050SOL     OW26608   1.395   4.212   1.101  0.3298 -0.0626  0.6602
 5050SOL    HW126609   1.477   4.263   1.106 -1.3149  2.5692  0.8918
 5050SOL    HW226610   1.426   4.122   1.092  2.7400  0.9750 -1.5136
 5051SOL     OW26611   3.370   4.020   8.848 -0.2029 -0.8057 -0.1015
 5051SOL    HW126612   3.461   4.008   8.875  0.5984  2.2841 -1.4243
 5051SOL    HW226613   3.374   4.105   8.803 -1.3692 -1.4954 -1.5228
 5052SOL     OW26614   0.558   2.981   6.460 -0.2514 -0.5041  0.3424
 5052SOL    HW126615   0.637   3.005   6.510  0.7192 -0.4334 -1.2289
 5052SOL    HW226616   0.486   3.013   6.515 -1.2747 -1.3557 -0.5184
 5053SOL     OW26617   4.178   0.099   4.674  0.2629 -0.0902 -0.5227
 5053SOL    HW126618   4.106   0.161   4.670 -0.0035 -0.3789 -0.1626
 5053SOL    HW226619   4.155   0.048   4.596 -1.3182  1.2625 -0.9070
 5054SOL     OW26620   3.592   1.114   9.695 -0.0411 -0.3559 -0.2272
 5054SOL    HW126621   3.626   1.024   9.692 -1.5128 -0.9929  2.6090
 5054SOL    HW226622   3.660   1.157   9.747  0.5641 -0.8204 -0.6265
 5055SOL     OW26623   4.660   0.970   5.666 -0.3483 -0.2072 -0.3835
 5055SOL    HW126624   4.684   0.882   5.696  1.1935  0.0857 -0.7263
 5055SOL    HW226625   4.690   0.967   5.574  0.8449  2.3476 -0.0700
 5056SOL     OW26626   0.178   3.942   2.115  0.0373  0.0445 -0.3120
 5056SOL    HW126627   0.253   3.991   2.149  0.3871 -1.8560  1.6442
 5056SOL    HW226628   0.176   3.862   2.167  2.8362  0.4621  0.4555
 5057SOL     OW26629   4.652   1.432   2.841  0.0215 -0.2604 -0.6838
 5057SOL    HW126630   4.671   1.495   2.771  1.1339 -1.2257 -1.2710
 5057SOL    HW226631   4.659   1.487   2.919 -0.8632 -1.1166 -0.0088
 5058SOL     OW26632   3.798   1.755   7.616 -0.1134 -0.3124  0.0631
 5058SOL    HW126633   3.723   1.812   7.636  1.0674  0.5834  1.9255
 5058SOL    HW226634   3.782   1.731   7.525  2.2452 -0.0811 -0.4081
 5059SOL     OW26635   0.690   3.268   6.651  0.4810 -0.3984  0.2865
 5059SOL    HW126636   0.733   3.197   6.603  0.0641 -2.2786  2.7024
 5059SOL    HW226637   0.735   3.345   6.616 -1.0737 -0.1495 -1.1949
 5060SOL     OW26638   3.780   3.564  14.312 -0.3750 -0.3370 -0.2007
 5060SOL    HW126639   3.753   3.533  14.398 -0.5380 -0.9390 -0.4700
 5060SOL    HW226640   3.875   3.557  14.326 -0.1846  0.1617 -1.2216
 5061SOL     OW26641   2.257   0.322  13.726 -0.4453 -0.6466 -0.3067
 5061SOL    HW126642   2.312   0.258  13.682  0.3051 -0.8393  0.9126
 5061SOL    HW226643   2.234   0.266  13.801  0.2879  1.6875  1.6578
 5062SOL     OW26644   0.272   2.646   0.925  0.0888 -0.3187  0.4918
 5062SOL    HW126645   0.287   2.574   0.863  0.1367  1.4103 -1.5254
 5062SOL    HW226646   0.302   2.607   1.007 -1.7835 -0.6634  1.0030
 5063SOL     OW26647   0.293   4.235   9.150 -0.0454  0.5145  0.3843
 5063SOL    HW126648   0.328   4.162   9.200  0.9096  0.2438 -0.6699
 5063SOL    HW226649   0.372   4.277   9.116  1.3754 -2.5959 -0.2085
 5064SOL     OW26650   1.469   0.249   8.333 -0.4187  0.0206 -0.2637
 5064SOL    HW126651   1.512   0.164   8.324 -0.3198 -0.0023  0.4670
 5064SOL    HW226652   1.432   0.268   8.246 -2.2527 -0.5557  0.3899
 5065SOL     OW26653   1.023   0.708   5.468  0.0411  0.3541  0.2627
 5065SOL    HW126654   0.997   0.712   5.560  1.3041 -3.2432  0.7916
 5065SOL    HW226655   0.939   0.709   5.421  1.0326  0.1434 -1.4875
 5066SOL     OW26656   3.508   3.823   6.296  0.0630  0.3371  0.3627
 5066SOL    HW126657   3.496   3.770   6.374 -0.8042 -0.4129 -0.2809
 5066SOL    HW226658   3.429   3.789   6.253  2.0660  0.2155 -3.2688
 5067SOL     OW26659   4.221   2.760  16.751 -0.3386 -0.1389  0.0689
 5067SOL    HW126660   4.266   2.774  16.668 -0.8039  2.5449  0.2491
 5067SOL    HW226661   4.216   2.665  16.753  0.4598 -0.1446  1.9294
 5068SOL     OW26662   3.526   3.733  10.567  0.2779 -0.5078  0.3042
 5068SOL    HW126663   3.588   3.673  10.610 -1.0462 -1.7268  0.5090
 5068SOL    HW226664   3.573   3.722  10.485  1.9811  1.3515  1.0530
 5069SOL     OW26665   3.588   1.486   5.239 -0.4404 -0.1136  0.3855
 5069SOL    HW126666   3.495   1.466   5.241 -0.2292 -1.3110 -1.5511
 5069SOL    HW226667   3.587   1.568   5.189  1.3377 -0.9589 -1.0404
 5070SOL     OW26668   0.614   0.949   9.015  0.3424 -0.6138  0.0135
 5070SOL    HW126669   0.692   1.001   8.996 -0.9275  1.3552  0.0750
 5070SOL    HW226670   0.635   0.889   8.944  1.5952  0.1212 -0.2287
 5071SOL     OW26671   2.383   2.124  12.537 -0.0134  0.4809 -0.1829
 5071SOL    HW126672   2.422   2.175  12.466  0.1535  2.1911  1.1327
 5071SOL    HW226673   2.369   2.034  12.506  1.0664  0.6494 -1.1670
 5072SOL     OW26674   3.556   1.655   3.853  0.3632 -0.1154  0.4223
 5072SOL    HW126675   3.501   1.730   3.832  0.6952 -0.0565 -0.2741
 5072SOL    HW226676   3.622   1.713   3.891  2.6107 -1.0588 -2.0056
 5073SOL     OW26677   2.630   3.294   2.097 -0.1761  0.0453  0.1561
 5073SOL    HW126678   2.580   3.298   2.016  0.5017 -0.2715 -0.2838
 5073SOL    HW226679   2.561   3.296   2.163 -1.3015 -0.1427 -1.0172
 5074SOL     OW26680   2.907   2.570   7.505 -0.1222  0.1852  0.1188
 5074SOL    HW126681   2.827   2.524   7.534  0.8892 -1.5301  0.1736
 5074SOL    HW226682   2.905   2.531   7.418 -0.8611  1.3013 -0.3619
 5075SOL     OW26683   1.203   0.466  15.861 -0.3585  0.5414 -0.1412
 5075SOL    HW126684   1.139   0.405  15.822  0.8966 -1.0295  0.2338
 5075SOL    HW226685   1.172   0.461  15.951 -1.7452 -0.1693 -0.6578
 5076SOL     OW26686   0.803   4.243  16.759 -0.0202 -0.3937 -0.0561
 5076SOL    HW126687   0.786   4.240  16.853 -2.5274  1.9939 -0.4451
 5076SOL    HW226688   0.741   4.308  16.727 -1.1753 -2.0125 -1.1358
 5077SOL     OW26689   3.326   1.154  12.560 -0.2451  0.2303 -0.1456
 5077SOL    HW126690   3.322   1.231  12.616  0.3418 -0.0875  0.3343
 5077SOL    HW226691   3.416   1.147  12.529 -0.7513  2.2781 -2.0609
 5078SOL     OW26692   2.633   1.608   9.576  0.3567 -0.0449 -0.2479
 5078SOL    HW126693   2.561   1.625   9.637 -0.7284  0.5183 -1.6538
 5078SOL    HW226694   2.702   1.661   9.615 -0.4170  1.4216 -0.8366
 5079SOL     OW26695   0.125   2.462   9.821 -0.1777 -0.5209  0.1431
 5079SOL    HW126696   0.077   2.394   9.773  1.6623 -0.6481 -1.5024
 5079SOL    HW226697   0.054   2.506   9.869 -1.6595 -2.2912 -0.4036
 5080SOL     OW26698   1.005   0.507  16.356  0.3012 -0.7274 -0.0021
 5080SOL    HW126699   0.958   0.544  16.431  1.8756  1.4218 -0.0839
 5080SOL    HW226700   0.937   0.448  16.325 -2.0805  0.4655  3.0210
 5081SOL     OW26701   4.354   3.451   4.313  0.2027  0.3754 -0.1082
 5081SOL    HW126702   4.343   3.360   4.340  0.6365  0.8003  1.5102
 5081SOL    HW226703   4.261   3.474   4.304 -0.2101 -0.1823  2.5674
 5082SOL     OW26704   3.659   4.605  12.324  0.1345 -0.7916 -0.6534
 5082SOL    HW126705   3.719   4.671  12.289 -0.8175  1.0927  1.2993
 5082SOL    HW226706   3.592   4.666  12.354  1.7415  0.2923  0.6577
 5083SOL     OW26707   3.986   1.501  11.090 -1.0009  0.0686 -0.1153
 5083SOL    HW126708   3.908   1.547  11.121 -3.4568 -1.6712 -3.7332
 5083SOL    HW226709   3.941   1.447  11.025  1.2776 -1.7404 -0.1943
 5084SOL     OW26710   3.092   3.428   5.546  0.3073 -0.2074 -0.4265
 5084SOL    HW126711   3.157   3.493   5.573  1.8932 -1.7958 -0.4167
 5084SOL    HW226712   3.014   3.482   5.564  0.2688 -0.5544  0.4619
 5085SOL     OW26713   0.093   3.764   7.154  0.0903 -0.1949 -0.9418
 5085SOL    HW126714   0.158   3.694   7.159  2.2608  1.8568 -0.4635
 5085SOL    HW226715   0.031   3.738   7.223 -0.7452  0.8318 -1.2986
 5086SOL     OW26716   4.533   2.346   7.465  0.0524 -0.6455  0.1577
 5086SOL    HW126717   4.439   2.358   7.451  0.1831  0.4909  0.2964
 5086SOL    HW226718   4.574   2.308   7.387  0.4869 -0.2238  0.1828
 5087SOL     OW26719   3.594   3.843  16.028  0.2188  0.0789 -0.3749
 5087SOL    HW126720   3.676   3.866  16.072 -0.6819  2.8258 -0.1346
 5087SOL    HW226721   3.636   3.811  15.948 -0.2340 -1.6332  0.0750
 5088SOL     OW26722   1.014   0.465  14.600 -0.3371 -0.1666 -0.3705
 5088SOL    HW126723   0.966   0.406  14.657 -0.5037  1.1980  0.9046
 5088SOL    HW226724   1.100   0.459  14.642  0.6549  1.2776 -2.1409
 5089SOL     OW26725   4.103   2.665   6.756  0.6762  0.2952 -0.1064
 5089SOL    HW126726   4.180   2.630   6.712  0.8406  2.5944 -1.6113
 5089SOL    HW226727   4.114   2.760   6.760 -0.6219  0.4797 -0.9374
 5090SOL     OW26728   2.132   2.930  14.841  0.0257  0.3200 -0.0165
 5090SOL    HW126729   2.062   2.969  14.788  0.2083  0.3090 -0.2677
 5090SOL    HW226730   2.181   2.872  14.782 -4.3488 -3.3511 -0.0654
 5091SOL     OW26731   0.527   3.206  16.136 -0.0172  0.3249 -0.4359
 5091SOL    HW126732   0.501   3.179  16.048 -1.7215 -0.4060  0.2937
 5091SOL    HW226733   0.549   3.298  16.126  1.2586 -0.0837 -1.3841
 5092SOL     OW26734   3.576   2.680   4.938 -0.5527 -0.5910  0.1209
 5092SOL    HW126735   3.612   2.720   5.016  0.6349  1.5675 -1.5435
 5092SOL    HW226736   3.547   2.596   4.975  0.3003 -1.8568 -2.0624
 5093SOL     OW26737   2.043   3.042  13.902  0.1211 -0.1792 -0.3746
 5093SOL    HW126738   2.044   3.135  13.921 -0.5262 -0.9602  3.5073
 5093SOL    HW226739   2.044   3.014  13.993 -0.0256 -0.3338 -0.4183
 5094SOL     OW26740   0.390   2.088   2.447 -0.5709  0.4112 -0.8486
 5094SOL    HW126741   0.315   2.029   2.445 -1.1388  1.1023  0.6733
 5094SOL    HW226742   0.369   2.148   2.518  0.7572 -0.1755  0.0518
 5095SOL     OW26743   2.864   3.161   3.615 -0.2306 -0.4327 -0.1977
 5095SOL    HW126744   2.874   3.207   3.532 -1.7460  0.6897  0.2125
 5095SOL    HW226745   2.877   3.235   3.675 -2.1121 -3.0651  3.4577
 5096SOL     OW26746   4.432   0.710  13.032  0.0458  0.6313 -0.2554
 5096SOL    HW126747   4.364   0.693  13.097  0.0360  0.4905 -0.3026
 5096SOL    HW226748   4.388   0.727  12.949  0.1858 -0.0487 -0.4668
 5097SOL     OW26749   1.014   0.907  13.628  0.1221 -0.7041  0.3548
 5097SOL    HW126750   1.087   0.966  13.647 -0.8635  0.2679  1.2076
 5097SOL    HW226751   0.949   0.930  13.695 -0.5506 -1.2932 -0.0986
 5098SOL     OW26752   3.944   1.390   7.558 -0.0062  0.3300  0.2034
 5098SOL    HW126753   3.983   1.320   7.611  0.4245  2.1133  2.2068
 5098SOL    HW226754   3.867   1.415   7.609 -0.2975  0.1139 -0.1290
 5099SOL     OW26755   0.676   3.307   3.354  0.3302 -0.2520  0.3836
 5099SOL    HW126756   0.593   3.346   3.379 -0.2142 -1.2104  0.0760
 5099SOL    HW226757   0.719   3.312   3.439  0.6001 -0.9147  0.2883
 5100SOL     OW26758   2.523   1.947   8.598  0.0084 -0.0417  0.3305
 5100SOL    HW126759   2.567   1.895   8.530 -1.1752 -0.3209 -0.2115
 5100SOL    HW226760   2.487   1.883   8.659  1.8543 -3.0714 -1.7561
 5101SOL     OW26761   2.041   2.031   8.611 -0.5930 -0.0518  0.1138
 5101SOL    HW126762   2.061   1.952   8.561 -1.1594  1.7078 -2.8742
 5101SOL    HW226763   2.008   1.992   8.692  1.8920 -2.8350 -0.1915
 5102SOL     OW26764   4.416   2.949   7.274  0.3081 -0.8027  0.8149
 5102SOL    HW126765   4.331   2.960   7.231  1.4549 -0.9743 -1.4776
 5102SOL    HW226766   4.470   2.980   7.202 -0.3340 -0.5071  0.4597
 5103SOL     OW26767   3.123   0.309   9.663  0.0197 -0.1063  0.3345
 5103SOL    HW126768   3.092   0.373   9.727 -0.2834 -0.3303  0.4121
 5103SOL    HW226769   3.160   0.359   9.590 -0.3609  1.2698  1.0807
 5104SOL     OW26770   3.067   2.824   1.764 -0.3957 -0.0434  0.3535
 5104SOL    HW126771   3.066   2.775   1.682 -2.5944 -0.4935  0.6264
 5104SOL    HW226772   3.159   2.848   1.769  0.3166 -2.7931  0.2738
 5105SOL     OW26773   1.397   0.289   0.399  0.4110  0.4315  0.6130
 5105SOL    HW126774   1.315   0.293   0.351  0.9273  0.8170 -0.2382
 5105SOL    HW226775   1.458   0.353   0.362 -0.1995  0.3892 -0.4579
 5106SOL     OW26776   1.840   3.102  12.623 -0.3648 -0.1527  0.4449
 5106SOL    HW126777   1.802   3.121  12.536  1.8077  3.4536  0.2886
 5106SOL    HW226778   1.855   3.012  12.594  0.7232  0.2690 -0.2994
 5107SOL     OW26779   1.553   3.706   8.551 -0.0536  0.8017 -0.4285
 5107SOL    HW126780   1.626   3.728   8.609  2.1055 -1.2975 -2.3840
 5107SOL    HW226781   1.589   3.743   8.471  0.6356  1.5562  0.2270
 5108SOL     OW26782   1.637   2.802   6.521 -0.4795 -0.5386 -0.2380
 5108SOL    HW126783   1.661   2.783   6.612 -3.4341 -2.4021  0.1716
 5108SOL    HW226784   1.654   2.728   6.464  0.7946 -1.0604  0.8165
 5109SOL     OW26785   4.274   3.510   8.266 -0.3436  0.7718 -0.3004
 5109SOL    HW126786   4.290   3.585   8.323  0.3261 -0.5051  1.1501
 5109SOL    HW226787   4.249   3.553   8.184 -0.4229 -0.7248 -1.0592
 5110SOL     OW26788   2.803   4.452  15.995 -0.1106 -0.2929 -0.4280
 5110SOL    HW126789   2.863   4.519  16.027  0.2615 -0.5806 -0.5240
 5110SOL    HW226790   2.829   4.424  15.908  0.1393  0.2079 -0.5153
 5111SOL     OW26791   1.651   2.832   1.439  0.0719 -0.2076  0.3195
 5111SOL    HW126792   1.678   2.894   1.372  1.7775  0.3051  1.5016
 5111SOL    HW226793   1.739   2.817   1.473 -0.3192 -0.0364  1.4161
 5112SOL     OW26794   2.972   3.601  12.841  0.0769  0.3519  0.2202
 5112SOL    HW126795   3.030   3.667  12.879  0.5238  0.8661 -1.3672
 5112SOL    HW226796   3.023   3.521  12.853 -2.1506 -0.9075  1.3869
 5113SOL     OW26797   0.847   0.451   2.638 -0.0289 -0.5541  0.3047
 5113SOL    HW126798   0.785   0.386   2.606  1.4783 -0.4197 -2.9266
 5113SOL    HW226799   0.832   0.443   2.732 -1.5271  1.7302  0.2481
 5114SOL     OW26800   2.772   4.012  16.294  0.9314  0.0547  0.0918
 5114SOL    HW126801   2.821   3.930  16.288  1.1261  0.2114 -0.4147
 5114SOL    HW226802   2.734   4.014  16.206  0.0787 -0.6285  0.4525
 5115SOL     OW26803   2.838   0.476   9.267  0.2140 -0.7664  0.1908
 5115SOL    HW126804   2.846   0.382   9.284  1.1473 -0.9601 -1.3341
 5115SOL    HW226805   2.749   0.481   9.233 -0.7198 -1.8904  2.5100
 5116SOL     OW26806   0.004   0.774   7.565  0.0700 -0.3295 -0.4027
 5116SOL    HW126807   0.054   0.844   7.523  2.1475 -0.9077  1.1419
 5116SOL    HW226808   4.641   0.781   7.525  0.5051  0.8753 -1.1350
 5117SOL     OW26809   4.187   2.349   4.699 -0.1691  0.0546  0.5829
 5117SOL    HW126810   4.242   2.322   4.773  0.4024  2.3481  1.0146
 5117SOL    HW226811   4.139   2.268   4.686 -1.0327  0.6186  0.2402
 5118SOL     OW26812   2.537   2.506   2.654 -0.0982 -0.1765 -0.0364
 5118SOL    HW126813   2.450   2.466   2.656 -0.2815  0.3580  2.1604
 5118SOL    HW226814   2.522   2.572   2.587  1.2523 -1.7123 -1.8595
 5119SOL     OW26815   0.371   2.792   6.641  0.5696 -0.2060 -0.5704
 5119SOL    HW126816   0.341   2.881   6.623  0.6901  0.0137  0.3131
 5119SOL    HW226817   0.417   2.814   6.723  0.0094 -0.3551 -0.2134
 5120SOL     OW26818   0.611   0.157  14.187  0.4859  0.3969  0.1330
 5120SOL    HW126819   0.680   0.118  14.242 -1.0747 -1.3869  0.8540
 5120SOL    HW226820   0.627   0.250  14.202  1.3886  0.0147  1.5547
 5121SOL     OW26821   1.821   1.969   5.733 -0.0854 -0.0093 -0.3840
 5121SOL    HW126822   1.862   2.036   5.678 -1.3347 -0.3155 -1.6770
 5121SOL    HW226823   1.747   1.940   5.680 -0.2444 -0.0076 -0.1680
 5122SOL     OW26824   3.593   0.195  12.155  0.2484  0.1951 -0.4369
 5122SOL    HW126825   3.535   0.199  12.079  0.1590 -0.6045 -0.4046
 5122SOL    HW226826   3.589   0.285  12.188  2.2853 -0.6818  2.1261
 5123SOL     OW26827   1.314   3.595   5.588  0.1450  0.2688 -0.5001
 5123SOL    HW126828   1.290   3.605   5.496  0.3299 -1.0203 -0.6876
 5123SOL    HW226829   1.267   3.517   5.619  0.9243 -0.0253 -0.0635
 5124SOL     OW26830   3.389   3.630  16.580  0.1040 -0.4253 -0.0969
 5124SOL    HW126831   3.396   3.539  16.607  2.2713 -0.6582 -1.4717
 5124SOL    HW226832   3.474   3.670  16.598  1.4834 -2.8910 -1.0544
 5125SOL     OW26833   4.442   0.756   1.450  0.1389 -0.5908 -0.1666
 5125SOL    HW126834   4.483   0.674   1.422 -2.0611 -1.5319 -0.6054
 5125SOL    HW226835   4.369   0.729   1.506 -1.2703 -1.1498 -2.2420
 5126SOL     OW26836   3.522   4.376   3.007  0.1541  0.6155  0.1493
 5126SOL    HW126837   3.434   4.340   2.997  0.4132 -0.3203  1.2864
 5126SOL    HW226838   3.560   4.332   2.930  1.7938 -0.6690  1.6677
 5127SOL     OW26839   2.263   0.813   3.857 -0.4809  0.1490  0.5070
 5127SOL    HW126840   2.184   0.766   3.832 -1.2381  1.2825  0.7944
 5127SOL    HW226841   2.238   0.889   3.909  0.4761  0.0948  1.0475
 5128SOL     OW26842   2.120   3.172   9.313 -0.5088  0.1313  0.1590
 5128SOL    HW126843   2.134   3.266   9.307  1.9926 -0.1963  0.8747
 5128SOL    HW226844   2.113   3.182   9.408 -0.9897 -3.3960  0.5223
 5129SOL     OW26845   4.286   2.847   8.762 -0.0716  0.0224 -0.1785
 5129SOL    HW126846   4.220   2.778   8.752  0.1561  0.0004 -1.4846
 5129SOL    HW226847   4.296   2.860   8.857 -0.3883  0.4371 -0.2031
 5130SOL     OW26848   1.624   2.016  12.180 -0.0702  0.6097 -0.6022
 5130SOL    HW126849   1.576   1.993  12.259 -2.0792 -1.1941 -2.3705
 5130SOL    HW226850   1.610   2.111  12.181  0.3416  0.6701  0.0239
 5131SOL     OW26851   2.531   1.191  17.434  0.1924  0.1784 -0.1742
 5131SOL    HW126852   2.547   1.117  17.492 -0.0717  0.0271 -0.2903
 5131SOL    HW226853   2.555   1.140  17.357 -1.6468  0.8933 -1.2338
 5132SOL     OW26854   0.685   0.480   3.679  0.2729 -0.1547 -0.1429
 5132SOL    HW126855   0.646   0.556   3.722 -1.9432 -1.8403  0.8239
 5132SOL    HW226856   0.736   0.438   3.748  1.2637  2.5841  0.7838
 5133SOL     OW26857   1.803   3.781   2.441  0.6705 -0.5037  0.1338
 5133SOL    HW126858   1.719   3.792   2.486 -0.1561 -0.3689 -1.4234
 5133SOL    HW226859   1.866   3.830   2.493 -0.9263 -0.4393  2.0141
 5134SOL     OW26860   3.547   2.086  14.970 -0.5103 -1.3126 -0.2822
 5134SOL    HW126861   3.595   2.037  15.037 -0.4402  0.5884  1.0817
 5134SOL    HW226862   3.614   2.141  14.929 -0.1898 -0.6204  1.1568
 5135SOL     OW26863   2.063   0.827   7.154 -0.1345  0.0936 -0.1678
 5135SOL    HW126864   2.066   0.732   7.165 -0.3961 -0.1668 -2.4086
 5135SOL    HW226865   1.985   0.837   7.100 -0.2366  0.0322 -0.0297
 5136SOL     OW26866   1.924   3.208  17.395  0.0653 -0.2962  0.0216
 5136SOL    HW126867   1.901   3.121  17.427 -1.2336 -0.9536 -2.7417
 5136SOL    HW226868   1.994   3.197  17.330 -0.1550  1.6638 -0.5535
 5137SOL     OW26869   1.829   1.137   2.213 -0.4034 -0.5976 -0.0249
 5137SOL    HW126870   1.811   1.210   2.272 -1.1394  0.5020 -1.6101
 5137SOL    HW226871   1.827   1.062   2.272  0.6115 -0.1049  0.6393
 5138SOL     OW26872   0.131   0.997   7.472  0.0961 -0.3666 -0.1173
 5138SOL    HW126873   0.210   1.006   7.419  2.0919  1.6097  3.2165
 5138SOL    HW226874   0.103   1.088   7.483 -0.8674 -0.7011  0.2289
 5139SOL     OW26875   0.524   3.983   5.230  0.3173 -0.3210  0.8953
 5139SOL    HW126876   0.433   3.994   5.257 -0.4490  1.3494 -2.3330
 5139SOL    HW226877   0.562   4.047   5.290  0.7969 -0.2524  0.5191
 5140SOL     OW26878   2.701   1.558   9.948 -0.0551  0.2914  0.1223
 5140SOL    HW126879   2.630   1.525   9.893  2.5151 -0.1230 -2.9658
 5140SOL    HW226880   2.761   1.484   9.947  0.3433  0.6155  0.1860
 5141SOL     OW26881   0.769   2.621   6.693  0.0091  0.5046  0.1862
 5141SOL    HW126882   0.763   2.676   6.771 -0.6322  0.1308  0.4014
 5141SOL    HW226883   0.702   2.658   6.635  0.6311  1.0728 -0.1692
 5142SOL     OW26884   1.968   1.765   4.247 -0.5919 -0.1750 -0.3828
 5142SOL    HW126885   2.038   1.785   4.310  0.0067 -0.2538 -1.0218
 5142SOL    HW226886   1.908   1.838   4.260 -0.4270 -0.0704 -0.1878
 5143SOL     OW26887   3.999   3.636   0.598  0.0237  0.5084 -0.6328
 5143SOL    HW126888   3.931   3.701   0.618  1.1560  1.5627 -0.2292
 5143SOL    HW226889   4.076   3.693   0.598 -0.6756  1.4526  0.7034
 5144SOL     OW26890   0.180   2.770   9.971 -0.5201 -0.5622  0.0058
 5144SOL    HW126891   0.127   2.692   9.957 -1.5799  0.1373  0.1663
 5144SOL    HW226892   0.114   2.837   9.957  0.2901  0.0500 -0.9723
 5145SOL     OW26893   2.507   0.078   4.936 -0.1103 -0.4727  0.1637
 5145SOL    HW126894   2.489   0.093   5.029 -2.4233  0.7858 -0.4894
 5145SOL    HW226895   2.541   0.166   4.916 -1.9250 -0.2624 -1.9978
 5146SOL     OW26896   3.299   0.319   4.947  0.1012  0.2330 -0.2343
 5146SOL    HW126897   3.292   0.405   4.988 -0.1318  1.1893 -2.2366
 5146SOL    HW226898   3.252   0.269   5.013 -2.1179  2.8475  0.1466
 5147SOL     OW26899   2.764   2.555   6.853 -0.2768  0.0105  0.2729
 5147SOL    HW126900   2.713   2.631   6.826 -0.2007 -0.2639 -0.6451
 5147SOL    HW226901   2.773   2.580   6.945 -1.7436  0.1805  0.3738
 5148SOL     OW26902   0.165   3.795  12.001 -0.6247 -0.0739  0.0276
 5148SOL    HW126903   0.132   3.724  12.057 -3.9492  0.2604 -1.5311
 5148SOL    HW226904   0.260   3.785  12.014 -0.7573 -0.9021  0.4092
 5149SOL     OW26905   1.198   3.194   0.774  0.5636 -0.2064 -0.5054
 5149SOL    HW126906   1.196   3.170   0.681  0.5604 -1.3817 -0.1934
 5149SOL    HW226907   1.292   3.191   0.790  0.5379  2.4577  0.1860
 5150SOL     OW26908   4.184   3.356   6.545  0.3882  0.0388  0.3314
 5150SOL    HW126909   4.190   3.379   6.452 -1.0483 -1.0767 -0.0282
 5150SOL    HW226910   4.272   3.370   6.579 -0.2237 -1.0634  2.3469
 5151SOL     OW26911   0.309   3.495  13.425 -0.3813  0.3518  0.1326
 5151SOL    HW126912   0.332   3.465  13.337  1.4709  2.6253 -0.1523
 5151SOL    HW226913   0.217   3.472  13.436 -0.4655  0.3272 -0.6503
 5152SOL     OW26914   1.773   4.594   5.390 -0.5275  0.0653 -0.6242
 5152SOL    HW126915   1.817   4.515   5.358  0.6366  0.4264  0.0860
 5152SOL    HW226916   1.778   4.649   5.311  0.0591 -2.9355 -2.6864
 5153SOL     OW26917   2.576   2.804   2.916  0.4369  0.5090  0.3524
 5153SOL    HW126918   2.591   2.763   2.831  1.0356 -3.0197  2.1550
 5153SOL    HW226919   2.514   2.739   2.949  1.0685 -0.4847 -0.4224
 5154SOL     OW26920   2.678   3.331  10.972 -0.3788  0.3491  0.1105
 5154SOL    HW126921   2.586   3.306  10.980  0.2483 -1.1528  2.4750
 5154SOL    HW226922   2.679   3.355  10.879 -1.3038 -2.5268 -0.6388
 5155SOL     OW26923   0.818   0.286   7.785 -0.0834 -0.0371 -0.1901
 5155SOL    HW126924   0.736   0.307   7.832  1.4662  1.7964  1.7122
 5155SOL    HW226925   0.868   0.366   7.802  0.0036 -0.4057  1.3419
 5156SOL     OW26926   0.204   4.116   2.546  0.3856  0.4472 -0.5155
 5156SOL    HW126927   0.213   4.207   2.575  1.1647  0.0886  0.3861
 5156SOL    HW226928   0.283   4.076   2.581 -0.5640 -1.4823 -0.6078
 5157SOL     OW26929   3.119   1.943   2.393  0.3889 -0.3429  0.3474
 5157SOL    HW126930   3.178   1.909   2.460  2.8779  0.2841 -1.5140
 5157SOL    HW226931   3.153   2.031   2.376 -1.4097 -0.2901 -3.0169
 5158SOL     OW26932   1.916   0.576   0.774 -0.2419  0.0354  0.3733
 5158SOL    HW126933   1.988   0.513   0.780  1.8672  2.2138 -1.9827
 5158SOL    HW226934   1.850   0.511   0.749 -0.6838 -0.4411  2.7620
 5159SOL     OW26935   4.530   1.826   1.645 -0.4065 -0.7003 -0.1991
 5159SOL    HW126936   4.451   1.811   1.696 -0.1759 -0.6698  0.1626
 5159SOL    HW226937   4.583   1.748   1.660 -0.8879 -0.8508  0.6713
 5160SOL     OW26938   2.226   1.015   8.110  0.5246  0.5444  0.0225
 5160SOL    HW126939   2.198   0.924   8.124 -2.8265  1.2907 -1.7885
 5160SOL    HW226940   2.142   1.060   8.096 -0.2134 -1.1537 -1.0539
 5161SOL     OW26941   1.599   4.103  13.933 -0.5239  0.4322  0.4977
 5161SOL    HW126942   1.563   4.176  13.883  1.9437 -0.2343 -2.2548
 5161SOL    HW226943   1.525   4.042  13.933 -0.6204  0.5495  0.0299
 5162SOL     OW26944   0.923   3.607   5.759  0.1667 -0.3151 -0.2005
 5162SOL    HW126945   0.863   3.608   5.834 -0.7313 -4.4231 -0.8454
 5162SOL    HW226946   1.008   3.600   5.803  0.8470  4.6166 -0.7441
 5163SOL     OW26947   3.876   3.106   9.804 -0.2808  0.1784 -0.4581
 5163SOL    HW126948   3.878   3.010   9.807 -0.0545  0.1232 -2.4279
 5163SOL    HW226949   3.967   3.134   9.811 -0.4423  0.5198  0.2395
 5164SOL     OW26950   2.951   1.345   6.735  0.3285  0.0270  0.1678
 5164SOL    HW126951   2.978   1.436   6.722 -1.7006  0.4380 -1.2428
 5164SOL    HW226952   2.999   1.312   6.810  2.0331 -1.1106 -1.4169
 5165SOL     OW26953   0.386   4.154   0.853 -0.4923  0.3503  0.0086
 5165SOL    HW126954   0.370   4.148   0.947  0.3658  0.6217  0.1738
 5165SOL    HW226955   0.302   4.133   0.813 -1.1187  1.2041  0.8534
 5166SOL     OW26956   3.193   1.886  16.210  0.0462  0.6663  0.4726
 5166SOL    HW126957   3.097   1.879  16.206  0.3038 -1.4841 -1.6444
 5166SOL    HW226958   3.213   1.825  16.281 -0.9019  2.3199  2.1589
 5167SOL     OW26959   3.625   2.634   7.938  0.7039  0.1443  0.3735
 5167SOL    HW126960   3.543   2.684   7.933  1.4607  1.2172 -1.4301
 5167SOL    HW226961   3.604   2.544   7.963 -0.5512  0.9942  2.4161
 5168SOL     OW26962   0.545   2.735   8.213 -0.1621  0.1223 -0.1833
 5168SOL    HW126963   0.534   2.710   8.305  1.4603 -0.0950 -0.0411
 5168SOL    HW226964   0.595   2.816   8.219  0.2527  0.0295 -2.3560
 5169SOL     OW26965   1.297   1.822   4.830 -0.5675 -0.5191  0.8979
 5169SOL    HW126966   1.300   1.802   4.924  1.0232 -0.3863  0.8708
 5169SOL    HW226967   1.205   1.812   4.808 -0.8911  2.7011  0.8528
 5170SOL     OW26968   4.599   1.433   9.339 -0.2153 -0.0781 -0.2303
 5170SOL    HW126969   4.504   1.438   9.348 -0.2140  1.3106 -0.9980
 5170SOL    HW226970   4.604   1.338   9.333  2.1554  0.1009 -1.0838
 5171SOL     OW26971   3.189   2.168   4.734  0.4465 -0.2759 -0.1100
 5171SOL    HW126972   3.150   2.139   4.816 -0.5193  0.8949 -0.1577
 5171SOL    HW226973   3.189   2.089   4.679 -0.2307 -1.0603  1.0255
 5172SOL     OW26974   0.679   2.049   7.704 -0.3904  0.1941  0.1026
 5172SOL    HW126975   0.651   2.096   7.782  2.7269  2.4198 -0.1070
 5172SOL    HW226976   0.593   2.018   7.676  0.4227 -0.9287 -1.1784
 5173SOL     OW26977   3.820   3.930   0.327  0.4970  0.5890  0.5635
 5173SOL    HW126978   3.773   3.896   0.403  0.9392 -0.2955  0.4398
 5173SOL    HW226979   3.782   4.018   0.323  0.8642  0.6331 -1.8498
 5174SOL     OW26980   3.622   2.023   6.771  0.3859 -0.1703 -0.0652
 5174SOL    HW126981   3.588   2.036   6.682  2.6020 -0.5845 -0.9834
 5174SOL    HW226982   3.540   2.022   6.820 -0.1724  1.1194 -0.9519
 5175SOL     OW26983   3.013   1.395  14.771  0.3220  0.0663 -0.7295
 5175SOL    HW126984   2.919   1.408  14.782  0.0149 -2.0248 -0.8595
 5175SOL    HW226985   3.049   1.478  14.741  0.4946 -0.1183 -1.0385
 5176SOL     OW26986   2.135   1.159   5.985 -0.1162  0.3556 -0.0847
 5176SOL    HW126987   2.100   1.082   5.940 -0.5973  0.5486 -0.0368
 5176SOL    HW226988   2.071   1.228   5.969  0.6541  1.2952  0.9385
 5177SOL     OW26989   0.941   4.155   5.404 -0.2263  0.4965 -0.3428
 5177SOL    HW126990   0.999   4.220   5.444  1.0560 -1.5148  1.0128
 5177SOL    HW226991   0.996   4.079   5.387  0.5021  0.3657  2.5478
 5178SOL     OW26992   3.342   0.194  13.819 -0.3625  0.5501  0.1965
 5178SOL    HW126993   3.344   0.264  13.754 -0.2842 -0.8134 -1.2770
 5178SOL    HW226994   3.289   0.233  13.888  0.0076  0.5686  0.4648
 5179SOL     OW26995   1.183   3.545   3.902 -0.4674 -0.2575  0.2648
 5179SOL    HW126996   1.151   3.592   3.825 -0.8715 -2.3401 -0.8280
 5179SOL    HW226997   1.186   3.457   3.866  1.7869  0.6071 -1.6693
 5180SOL     OW26998   3.568   1.006   6.865  0.7764 -0.3334  0.2199
 5180SOL    HW126999   3.500   0.941   6.847  0.7800 -0.7656  1.8004
 5180SOL    HW227000   3.550   1.023   6.957  0.4951  1.1708 -0.1200
 5181SOL     OW27001   2.932   2.363   0.328  0.0725  0.0218  0.1929
 5181SOL    HW127002   2.877   2.407   0.263  1.1470  1.4402  0.2383
 5181SOL    HW227003   2.926   2.272   0.299  1.0840  0.9103 -2.7779
 5182SOL     OW27004   3.460   3.691  10.826  0.4124 -0.2092  0.2047
 5182SOL    HW127005   3.469   3.709  10.732  0.9086 -2.6244 -0.2174
 5182SOL    HW227006   3.383   3.739  10.855  1.3015  1.5491 -0.3880
 5183SOL     OW27007   4.257   3.761   5.668  0.0774  0.2938 -0.1649
 5183SOL    HW127008   4.230   3.692   5.608  1.2133  0.7861 -1.2228
 5183SOL    HW227009   4.348   3.744   5.690  0.5445  0.6237 -1.9263
 5184SOL     OW27010   2.218   3.576  14.432 -0.8342 -0.4718  0.0580
 5184SOL    HW127011   2.223   3.577  14.527 -1.9959 -1.6251  0.1154
 5184SOL    HW227012   2.305   3.609  14.407 -0.5482 -0.9419  0.4223
 5185SOL     OW27013   3.961   1.381   3.932  0.3220 -0.1857  0.2388
 5185SOL    HW127014   3.960   1.441   3.857  1.2537 -0.9254 -0.3730
 5185SOL    HW227015   3.895   1.321   3.899  0.1536  0.0842  0.0801
 5186SOL     OW27016   3.754   2.315   6.645  0.1164 -0.5923  0.2591
 5186SOL    HW127017   3.764   2.229   6.605 -1.6619 -1.2468  1.2234
 5186SOL    HW227018   3.798   2.308   6.730  0.8013  2.0558  0.1428
 5187SOL     OW27019   3.466   0.930   3.013 -0.2204  0.4556 -0.1883
 5187SOL    HW127020   3.525   0.861   2.984  0.1981  0.6302  0.2508
 5187SOL    HW227021   3.413   0.937   2.934  0.3690  2.9335 -0.3623
 5188SOL     OW27022   3.553   1.667   7.812  0.1942 -0.1359 -0.0514
 5188SOL    HW127023   3.626   1.606   7.818 -1.5142 -2.0419  1.2001
 5188SOL    HW227024   3.589   1.745   7.856  1.1767 -0.4167 -0.3470
 5189SOL     OW27025   0.525   1.836   4.715  0.0253 -0.9305 -0.3150
 5189SOL    HW127026   0.526   1.741   4.723 -1.0784 -0.7832  1.7123
 5189SOL    HW227027   0.567   1.862   4.797  0.1369  0.8917 -0.9368
 5190SOL     OW27028   1.966   2.985   2.167  0.4689  0.0488  0.0869
 5190SOL    HW127029   1.961   2.894   2.194 -0.5029 -0.2765 -1.1753
 5190SOL    HW227030   2.061   2.990   2.170  0.5520 -0.4347 -1.5073
 5191SOL     OW27031   4.224   4.053   3.344 -0.4934 -0.9187  0.2784
 5191SOL    HW127032   4.191   4.097   3.422  0.1365 -1.7257  0.9928
 5191SOL    HW227033   4.287   3.992   3.381 -0.5681 -0.4116  1.2337
 5192SOL     OW27034   2.299   3.215   6.137  0.0059  0.2153  0.6174
 5192SOL    HW127035   2.378   3.165   6.115 -0.1311  1.4226 -2.5889
 5192SOL    HW227036   2.274   3.234   6.047  1.8095 -0.4460 -0.0282
 5193SOL     OW27037   3.963   2.074   3.733 -0.2725 -0.2412 -0.3576
 5193SOL    HW127038   3.880   2.121   3.723 -0.4094 -0.0873  1.3684
 5193SOL    HW227039   3.963   2.015   3.659 -0.7132  1.5733 -1.8091
 5194SOL     OW27040   1.722   2.060   6.207 -0.3295 -0.2104  0.6995
 5194SOL    HW127041   1.697   1.982   6.256  2.4563 -2.3541 -1.3485
 5194SOL    HW227042   1.787   2.016   6.153 -0.4451  0.0092  0.3798
 5195SOL     OW27043   4.613   1.678   4.427  0.0426 -0.4736 -0.4854
 5195SOL    HW127044   4.519   1.691   4.417  0.3878  3.7185  1.7862
 5195SOL    HW227045   4.620   1.583   4.428  2.6788 -0.3044 -1.8871
 5196SOL     OW27046   1.544   1.549  16.091  0.5057 -0.3738 -0.3322
 5196SOL    HW127047   1.477   1.488  16.058 -1.0034  0.3400  1.3884
 5196SOL    HW227048   1.506   1.629  16.056  0.7250 -0.2213 -0.2171
 5197SOL     OW27049   4.298   1.422   7.343  0.2483 -0.2439 -0.0357
 5197SOL    HW127050   4.362   1.466   7.287  0.7164 -0.1174  0.6011
 5197SOL    HW227051   4.217   1.471   7.340 -1.5129 -3.1434  0.0023
 5198SOL     OW27052   4.292   0.867   4.006 -0.0893  0.5030 -0.0755
 5198SOL    HW127053   4.297   0.949   4.054  2.3833 -0.4564  1.2778
 5198SOL    HW227054   4.385   0.863   3.982 -0.1042  0.5847 -0.1480
 5199SOL     OW27055   3.823   0.396  16.395  0.9256  0.1745  0.0117
 5199SOL    HW127056   3.760   0.328  16.369 -0.6320  0.6932  2.3900
 5199SOL    HW227057   3.907   0.353  16.383  0.7958 -0.2473  0.6129
 5200SOL     OW27058   2.849   2.471   6.364  0.1583  0.3293 -0.2912
 5200SOL    HW127059   2.841   2.414   6.440  0.8845  0.7521  0.1015
 5200SOL    HW227060   2.761   2.507   6.351 -0.6719 -1.0808  1.3325
 5201SOL     OW27061   3.602   0.931   6.550 -0.0353 -0.1514  0.6184
 5201SOL    HW127062   3.694   0.952   6.570  0.0984  0.1451 -0.3164
 5201SOL    HW227063   3.602   0.836   6.560  0.7786 -0.2922 -0.7403
 5202SOL     OW27064   3.471   0.720  11.653 -0.1679  0.5724 -0.6078
 5202SOL    HW127065   3.461   0.694  11.561  0.8713 -1.4077 -0.1634
 5202SOL    HW227066   3.480   0.814  11.635  0.7651  0.8131  1.0891
 5203SOL     OW27067   0.082   3.612  15.988 -0.5510 -0.0261  0.3001
 5203SOL    HW127068   0.153   3.574  16.038 -1.4092 -3.0174 -0.7504
 5203SOL    HW227069   0.071   3.700  16.023 -1.4821  0.0087 -0.0714
 5204SOL     OW27070   0.301   1.412   6.238  0.9813 -0.2363 -0.2632
 5204SOL    HW127071   0.379   1.467   6.235 -0.7774  2.2882 -0.1556
 5204SOL    HW227072   0.229   1.475   6.228  0.8899 -0.3347 -0.2278
 5205SOL     OW27073   3.310   3.274   4.415 -0.6307 -0.4791  0.2073
 5205SOL    HW127074   3.376   3.331   4.374 -0.9457 -0.7455 -0.6615
 5205SOL    HW227075   3.360   3.208   4.463  1.5701  0.3376 -0.9683
 5206SOL     OW27076   1.392   2.043  12.360 -0.4640  0.3928 -0.6800
 5206SOL    HW127077   1.350   1.959  12.382 -1.1744  1.3875  1.7823
 5206SOL    HW227078   1.317   2.098  12.337  0.9552  1.8705 -1.7179
 5207SOL     OW27079   0.025   4.263   8.429  0.5470 -0.2505  0.5778
 5207SOL    HW127080   0.012   4.320   8.505 -2.8277 -1.7034  1.1039
 5207SOL    HW227081   0.074   4.190   8.467  0.4180 -0.1144  1.0090
 5208SOL     OW27082   1.751   0.945   7.349 -0.4971  0.7152 -0.0299
 5208SOL    HW127083   1.845   0.939   7.366 -0.0985 -1.1573 -2.8855
 5208SOL    HW227084   1.734   0.908   7.263  1.9632  1.2667 -0.7636
 5209SOL     OW27085   1.753   3.848  13.915 -0.1588 -0.0867 -0.5865
 5209SOL    HW127086   1.758   3.826  13.822  1.4904 -0.7284 -0.3468
 5209SOL    HW227087   1.699   3.927  13.910  1.3019  0.9580  0.0255
 5210SOL     OW27088   4.668   2.872  15.333 -0.0881 -0.1121  0.3529
 5210SOL    HW127089   4.714   2.833  15.259  1.1921  0.1673  1.0012
 5210SOL    HW227090   4.616   2.938  15.287 -1.4096 -0.9078  0.7173
 5211SOL     OW27091   1.188   2.798   5.147 -0.6038  0.4070  0.5595
 5211SOL    HW127092   1.162   2.748   5.069 -0.3398 -0.1049  0.8064
 5211SOL    HW227093   1.256   2.742   5.183  0.2964  0.3470 -1.2398
 5212SOL     OW27094   4.412   0.317   3.328  0.0109  0.1790 -0.5866
 5212SOL    HW127095   4.440   0.229   3.302  0.4856  0.4221 -0.9067
 5212SOL    HW227096   4.403   0.306   3.422 -1.2380  0.7247 -0.6408
 5213SOL     OW27097   3.447   1.179  14.489 -0.8502 -0.0707 -0.2079
 5213SOL    HW127098   3.511   1.109  14.474 -0.9149  0.0889 -1.2599
 5213SOL    HW227099   3.373   1.148  14.438 -0.0371 -1.8925 -0.2829
 5214SOL     OW27100   2.240   3.091   3.114  0.2972 -0.3371  0.3563
 5214SOL    HW127101   2.225   3.144   3.192 -1.8409  0.9072 -0.8803
 5214SOL    HW227102   2.242   3.002   3.150 -0.9729 -0.3717  0.3434
 5215SOL     OW27103   2.294   1.067  15.506 -1.2754  0.4915  0.6653
 5215SOL    HW127104   2.296   1.061  15.410 -0.7682  0.0017  0.7024
 5215SOL    HW227105   2.300   0.977  15.538 -1.4175 -0.0408 -0.7561
 5216SOL     OW27106   2.184   0.904  15.871  0.3768 -0.0311 -0.0992
 5216SOL    HW127107   2.120   0.848  15.826 -0.9185  0.7197  0.8160
 5216SOL    HW227108   2.261   0.899  15.813 -0.1719 -0.6644 -0.7814
 5217SOL     OW27109   3.832   3.851   6.601  0.0499  0.3084  0.1290
 5217SOL    HW127110   3.923   3.851   6.630 -0.7903  0.6449  2.7633
 5217SOL    HW227111   3.837   3.913   6.529 -2.0490  1.4384  0.9638
 5218SOL     OW27112   0.909   0.569  14.387  0.2860 -0.2685 -0.3506
 5218SOL    HW127113   0.940   0.512  14.458 -0.2713  0.9719  0.8825
 5218SOL    HW227114   0.989   0.587  14.339  0.3652 -3.6543 -1.5008
 5219SOL     OW27115   0.899   2.887  13.504  0.5153 -0.0928  0.2111
 5219SOL    HW127116   0.961   2.959  13.512  1.0274 -0.4822 -0.2527
 5219SOL    HW227117   0.930   2.832  13.576  1.1195 -0.5500 -0.3939
 5220SOL     OW27118   0.682   1.378   1.940  0.1443 -0.2308  0.1122
 5220SOL    HW127119   0.677   1.329   1.858 -2.0699  1.8089 -0.9765
 5220SOL    HW227120   0.776   1.372   1.958 -0.1565 -3.3141  0.5931
 5221SOL     OW27121   1.010   2.057   5.995  0.1247  0.0576  0.2454
 5221SOL    HW127122   1.021   1.997   6.068 -0.6150 -2.7213 -1.9246
 5221SOL    HW227123   1.090   2.030   5.949  0.8091 -1.2472  2.2120
 5222SOL     OW27124   3.985   1.371   8.722 -0.2105  0.0983  0.1358
 5222SOL    HW127125   4.076   1.373   8.692  0.9109  0.2659  3.6311
 5222SOL    HW227126   3.939   1.395   8.641 -0.7242 -2.2316 -0.2535
 5223SOL     OW27127   1.367   3.744   9.449 -0.0808 -0.5433 -0.1914
 5223SOL    HW127128   1.309   3.815   9.474  0.5745  0.3233 -1.1628
 5223SOL    HW227129   1.431   3.753   9.520 -0.7909 -1.2804  0.5476
 5224SOL     OW27130   0.138   1.424  14.656  0.4061 -0.3546  0.4585
 5224SOL    HW127131   0.214   1.479  14.672 -0.7525  1.5618 -0.6863
 5224SOL    HW227132   0.108   1.403  14.744 -0.4451 -0.5890  0.1139
 5225SOL     OW27133   3.381   1.774   4.623  0.4252 -0.0045  0.1013
 5225SOL    HW127134   3.375   1.782   4.718  0.3952  2.2575 -0.0990
 5225SOL    HW227135   3.442   1.843   4.598  0.1600  0.4087  0.6169
 5226SOL     OW27136   2.440   1.546  16.092 -0.3251 -0.1043  0.2525
 5226SOL    HW127137   2.413   1.509  16.175 -0.2293  1.6711  1.0802
 5226SOL    HW227138   2.357   1.586  16.067 -0.3668 -1.4233 -1.7571
 5227SOL     OW27139   0.364   0.501   8.306  0.8911 -0.6590 -0.3338
 5227SOL    HW127140   0.338   0.451   8.228 -0.2222  0.4669 -0.6820
 5227SOL    HW227141   0.331   0.588   8.287  2.0783 -0.1739 -0.1967
 5228SOL     OW27142   1.892   3.457   0.889  0.1993 -0.3585 -0.4378
 5228SOL    HW127143   1.923   3.390   0.828  0.2345 -1.1733  0.4666
 5228SOL    HW227144   1.971   3.506   0.908 -0.7132 -0.1239  2.9012
 5229SOL     OW27145   4.201   1.228   3.246  0.0306  0.0674  0.0037
 5229SOL    HW127146   4.296   1.237   3.250  0.0335 -1.0017  1.9702
 5229SOL    HW227147   4.192   1.151   3.303  0.1080  1.0830  1.3881
 5230SOL     OW27148   0.009   4.563   6.149 -0.4208  0.5959  0.2297
 5230SOL    HW127149   4.656   4.619   6.140 -0.2617  0.7207 -0.3623
 5230SOL    HW227150   4.688   4.494   6.199  1.8778 -1.6085 -0.7527
 5231SOL     OW27151   3.463   0.404  15.151  0.7248  0.0442  0.0505
 5231SOL    HW127152   3.490   0.332  15.094  3.1947 -0.1952  1.5410
 5231SOL    HW227153   3.529   0.468  15.126  1.9035 -1.2965 -0.2836
 5232SOL     OW27154   1.518   0.091   7.193 -0.1105  0.0524  0.0732
 5232SOL    HW127155   1.478   0.174   7.220 -0.2104  0.2646 -0.7143
 5232SOL    HW227156   1.593   0.081   7.251 -0.1384 -0.6787 -0.0186
 5233SOL     OW27157   3.980   1.994   4.338 -0.0614  0.6886 -0.2179
 5233SOL    HW127158   4.071   1.983   4.309  1.1032  1.1456  3.1737
 5233SOL    HW227159   3.957   2.021   4.250 -0.2366 -2.4116 -1.1082
 5234SOL     OW27160   1.528   3.011   2.948 -0.5076  0.1343 -0.5610
 5234SOL    HW127161   1.458   2.975   3.002 -0.5120  0.6975 -0.1953
 5234SOL    HW227162   1.515   2.960   2.868 -0.2018 -2.4694  1.0794
 5235SOL     OW27163   1.796   2.344   2.126  0.7560 -0.4848 -0.6791
 5235SOL    HW127164   1.747   2.369   2.204  1.8173 -1.2556  0.2276
 5235SOL    HW227165   1.823   2.258   2.158  0.3474  0.5998  2.5396
 5236SOL     OW27166   1.073   4.641   1.159 -0.5311  0.3951 -0.1750
 5236SOL    HW127167   1.129   4.568   1.185 -1.2498 -0.6990 -1.7006
 5236SOL    HW227168   1.043   4.688   1.237 -0.3331  1.5900 -0.8216
 5237SOL     OW27169   0.449   0.366   2.788  0.2420  0.2819  0.1250
 5237SOL    HW127170   0.522   0.304   2.778  0.1259  0.6782 -3.2314
 5237SOL    HW227171   0.480   0.430   2.852 -3.1644 -0.7611  2.8080
 5238SOL     OW27172   4.398   3.665  16.522 -0.1752 -0.7648  0.5027
 5238SOL    HW127173   4.471   3.719  16.551 -1.9402  1.4187  0.9254
 5238SOL    HW227174   4.328   3.705  16.574 -1.3397 -2.3936  0.2107
 5239SOL     OW27175   3.949   1.990   8.860 -0.5328 -0.0178  0.1142
 5239SOL    HW127176   3.954   1.994   8.956 -0.3714  0.9448  0.0671
 5239SOL    HW227177   3.965   1.898   8.839 -1.4555  0.3571 -2.2441
 5240SOL     OW27178   3.810   4.138   8.321  0.1723 -0.2361 -0.2302
 5240SOL    HW127179   3.881   4.169   8.378 -1.9331  2.3376  0.9941
 5240SOL    HW227180   3.784   4.225   8.293 -0.3153 -0.0674  0.7524
 5241SOL     OW27181   3.430   3.675   7.868  0.0146 -0.0418 -0.2467
 5241SOL    HW127182   3.448   3.739   7.800 -1.3522  0.0992 -0.4770
 5241SOL    HW227183   3.471   3.704   7.949  1.8897 -1.4670 -0.6766
 5242SOL     OW27184   2.206   4.296   0.041 -0.4545  0.4797 -0.1393
 5242SOL    HW127185   2.249   4.372   0.081  0.7979 -0.1099 -0.3355
 5242SOL    HW227186   2.115   4.321   0.052 -0.5195 -0.0666  0.6185
 5243SOL     OW27187   4.490   1.670   6.869 -0.6048  0.3614 -0.5992
 5243SOL    HW127188   4.482   1.588   6.918 -0.5227  1.4525  1.2128
 5243SOL    HW227189   4.486   1.733   6.941 -1.5959  0.1160 -0.4303
 5244SOL     OW27190   4.030   1.656   7.686  0.7223 -0.5516  0.0768
 5244SOL    HW127191   3.943   1.689   7.662  1.8094  0.7142 -2.1475
 5244SOL    HW227192   4.038   1.666   7.781 -0.5022  1.7895 -0.0684
 5245SOL     OW27193   0.365   0.286  13.731 -0.3335  0.6587 -0.0406
 5245SOL    HW127194   0.311   0.353  13.688  0.9680  2.0591  0.4889
 5245SOL    HW227195   0.329   0.200  13.712  0.1241  0.0375  1.9266
 5246SOL     OW27196   3.591   1.977   7.638 -0.0830 -0.2218  0.0351
 5246SOL    HW127197   3.520   2.032   7.672 -1.1211 -2.3763  1.2658
 5246SOL    HW227198   3.644   2.038   7.586  0.8212 -0.7129  0.3912
 5247SOL     OW27199   0.546   3.299   9.283 -0.0541 -0.1207  0.5457
 5247SOL    HW127200   0.558   3.305   9.188  0.5225  0.9283  0.6807
 5247SOL    HW227201   0.634   3.319   9.314  0.4760  0.4231 -1.3119
 5248SOL     OW27202   2.969   2.289  10.824  0.0080  0.4964 -0.3026
 5248SOL    HW127203   3.051   2.334  10.843 -0.6326  1.4502  0.2432
 5248SOL    HW227204   2.968   2.223  10.894  0.0870  1.6886  0.8110
 5249SOL     OW27205   3.365   0.241   6.445 -0.1509 -0.2612  0.2644
 5249SOL    HW127206   3.430   0.214   6.510  0.1244  0.0584  0.1224
 5249SOL    HW227207   3.417   0.260   6.367  0.3866 -1.7524  0.2459
 5250SOL     OW27208   0.829   0.758   7.211  0.3564 -0.1333 -0.2110
 5250SOL    HW127209   0.807   0.685   7.152  1.2468  0.6920 -1.5601
 5250SOL    HW227210   0.759   0.750   7.276  1.8537 -1.0426  1.2823
 5251SOL     OW27211   4.377   1.687   4.254 -0.1591 -0.5698  0.5098
 5251SOL    HW127212   4.461   1.674   4.211  0.8410  0.4603  2.1384
 5251SOL    HW227213   4.356   1.602   4.294  0.5381 -0.5704  0.8672
 5252SOL     OW27214   3.637   2.172   1.374 -0.1404 -0.4056 -0.0673
 5252SOL    HW127215   3.637   2.087   1.417  1.2229  0.6940  2.1469
 5252SOL    HW227216   3.700   2.218   1.430 -0.7055 -1.9316  1.8529
 5253SOL     OW27217   0.667   3.400  10.183  0.5717  0.1016  0.1264
 5253SOL    HW127218   0.666   3.313  10.224  3.8914 -1.2228 -2.6264
 5253SOL    HW227219   0.644   3.456  10.256  0.7606 -0.4518  0.6107
 5254SOL     OW27220   3.759   4.668   1.558 -0.6041  0.4617  0.2702
 5254SOL    HW127221   3.760   4.671   1.654  3.8267 -2.0101  0.3024
 5254SOL    HW227222   3.686   0.005   1.545 -1.3036 -0.2016  1.1896
 5255SOL     OW27223   3.857   4.103   0.757  0.2260  0.3193  0.7151
 5255SOL    HW127224   3.792   4.170   0.779 -0.7215 -0.7765  1.3132
 5255SOL    HW227225   3.911   4.153   0.697  0.5465  0.3874  1.0650
 5256SOL     OW27226   3.966   4.440   7.271  0.2579  0.4456  0.2621
 5256SOL    HW127227   3.914   4.359   7.271  1.7431 -0.4958  0.0335
 5256SOL    HW227228   3.902   4.504   7.240  0.2364 -1.6363 -3.9775
 5257SOL     OW27229   4.387   0.258   9.502 -0.3773 -0.9971 -0.0341
 5257SOL    HW127230   4.332   0.311   9.560  0.4974  0.4896 -0.5598
 5257SOL    HW227231   4.461   0.317   9.489 -2.0971  0.4690 -3.0706
 5258SOL     OW27232   3.981   4.338  14.694  0.1099 -0.3033  0.1353
 5258SOL    HW127233   3.956   4.249  14.720  1.1382 -0.1543  1.5863
 5258SOL    HW227234   4.036   4.364  14.767 -2.3354  1.6260  1.2986
 5259SOL     OW27235   4.515   2.271   3.067  0.3037 -0.7229  0.3301
 5259SOL    HW127236   4.567   2.351   3.076 -0.1924 -0.4135  0.4397
 5259SOL    HW227237   4.481   2.294   2.980  0.3859 -1.5371  0.0845
 5260SOL     OW27238   3.940   0.514  12.206 -0.1612  0.2287 -0.0399
 5260SOL    HW127239   3.857   0.555  12.180 -1.2194 -1.0531  1.2727
 5260SOL    HW227240   3.953   0.474  12.119  4.2642 -0.9280  1.2057
 5261SOL     OW27241   4.629   3.074   3.165 -0.2925  0.4375  0.1050
 5261SOL    HW127242   4.537   3.085   3.140 -0.6116 -0.4508  0.8859
 5261SOL    HW227243   4.623   3.013   3.239  1.9955 -0.3384 -0.3342
 5262SOL     OW27244   0.150   4.198  11.922 -0.1033  0.0500 -0.1484
 5262SOL    HW127245   0.117   4.287  11.911  1.5798  0.7035  0.1133
 5262SOL    HW227246   0.077   4.140  11.901 -0.6312  0.6026  0.1533
 5263SOL     OW27247   3.753   2.561  14.687  0.7186  0.5354  0.7316
 5263SOL    HW127248   3.789   2.473  14.671 -1.0585  0.1395 -1.1068
 5263SOL    HW227249   3.709   2.573  14.603  0.4760 -2.1065  0.4712
 5264SOL     OW27250   1.763   3.888  17.438  0.4748 -0.1503  0.0517
 5264SOL    HW127251   1.700   3.867  17.369 -1.1617  1.5767  1.0548
 5264SOL    HW227252   1.825   3.818  17.417 -1.6553 -1.4105 -1.9971
 5265SOL     OW27253   3.715   4.337   4.018 -0.3178  0.1412 -0.1332
 5265SOL    HW127254   3.740   4.426   3.994 -0.9351 -0.2311 -2.1312
 5265SOL    HW227255   3.630   4.330   3.974 -0.5357  0.6805  0.1988
 5266SOL     OW27256   0.010   2.802  17.025 -0.0221  0.1699 -0.8493
 5266SOL    HW127257   0.097   2.801  16.987  1.4689 -2.8853  2.6370
 5266SOL    HW227258   4.716   2.896  17.031  2.2493  0.4672  0.7758
 5267SOL     OW27259   0.676   0.485  14.476 -0.4312  0.3495  0.7828
 5267SOL    HW127260   0.764   0.498  14.440  0.0109  0.0036  1.7260
 5267SOL    HW227261   0.679   0.527  14.563  0.9987 -0.4208  1.1047
 5268SOL     OW27262   1.129   0.732  10.359 -0.2968 -0.2160  0.3793
 5268SOL    HW127263   1.105   0.779  10.439  2.4078 -0.0802  1.0991
 5268SOL    HW227264   1.199   0.792  10.332  1.2128 -0.8829  2.9040
 5269SOL     OW27265   3.648   2.216   5.965 -0.1597  0.0379  0.0447
 5269SOL    HW127266   3.653   2.194   6.058 -0.1317 -1.9396 -0.4328
 5269SOL    HW227267   3.552   2.215   5.958 -0.2006 -1.7809  0.9245
 5270SOL     OW27268   0.999   2.746   2.702  0.0213 -0.3069 -0.9647
 5270SOL    HW127269   0.943   2.795   2.763  2.2269 -1.0663  1.6681
 5270SOL    HW227270   1.032   2.688   2.771  1.8081 -1.7795 -3.0838
 5271SOL     OW27271   1.492   2.964   8.689 -0.2469 -0.0570  0.4451
 5271SOL    HW127272   1.455   3.048   8.662 -1.0620 -0.3055  0.7668
 5271SOL    HW227273   1.423   2.902   8.664 -3.0002  3.0953  0.2437
 5272SOL     OW27274   1.667   3.097   3.816  0.0116 -0.6972  0.3138
 5272SOL    HW127275   1.747   3.051   3.841  1.4330  1.6946  0.1391
 5272SOL    HW227276   1.668   3.167   3.881 -0.3671  1.0288 -1.5281
 5273SOL     OW27277   3.829   4.010   6.380 -0.2384 -0.1331 -0.4221
 5273SOL    HW127278   3.780   3.976   6.305 -1.6147 -0.3905  0.6022
 5273SOL    HW227279   3.784   4.094   6.380  2.0074  1.0654  0.1886
 5274SOL     OW27280   0.998   0.134   9.676  0.1901 -0.1092  0.4942
 5274SOL    HW127281   1.052   0.185   9.736  0.4834 -1.5643  1.4544
 5274SOL    HW227282   0.988   0.053   9.726  1.0333 -1.3124 -1.2865
 5275SOL     OW27283   0.433   0.111   0.762 -0.2674  0.2188  0.2958
 5275SOL    HW127284   0.386   0.085   0.842  1.6577 -2.0654  0.6621
 5275SOL    HW227285   0.388   0.191   0.735 -2.9754 -1.6425 -0.7214
 5276SOL     OW27286   2.585   2.821   8.609 -0.3462  0.4610 -0.0284
 5276SOL    HW127287   2.658   2.856   8.661 -0.7975 -1.9957  2.2289
 5276SOL    HW227288   2.621   2.848   8.524  0.3845  0.7368  0.3609
 5277SOL     OW27289   3.178   1.700  15.773 -0.6357  0.3036  0.2511
 5277SOL    HW127290   3.224   1.620  15.795  0.4332  1.0255  0.6563
 5277SOL    HW227291   3.088   1.673  15.794  0.2157 -2.4893  0.1921
 5278SOL     OW27292   4.067   4.239   3.511  0.7743 -0.7201  0.8884
 5278SOL    HW127293   4.080   4.317   3.565  3.1205 -0.2076 -0.4033
 5278SOL    HW227294   4.003   4.186   3.559 -2.0140  0.0502 -2.0123
 5279SOL     OW27295   3.582   1.319  16.693  0.1312 -0.3341  0.1255
 5279SOL    HW127296   3.617   1.302  16.606  2.6929 -0.0754  1.1032
 5279SOL    HW227297   3.624   1.402  16.716 -0.1938  1.0528 -4.4250
 5280SOL     OW27298   1.354   3.593  15.314  0.1449 -0.1790 -0.0841
 5280SOL    HW127299   1.422   3.653  15.284 -0.2916  1.2344  1.7471
 5280SOL    HW227300   1.287   3.638  15.366  0.4422  1.2625 -0.9691
 5281SOL     OW27301   1.706   2.816   5.145  0.4157  0.5606  0.1938
 5281SOL    HW127302   1.750   2.864   5.075 -2.4169  3.7372  0.6129
 5281SOL    HW227303   1.762   2.740   5.164 -2.0361 -2.0123 -2.8891
 5282SOL     OW27304   1.149   3.105   3.006  1.0034 -0.4238  0.3530
 5282SOL    HW127305   1.191   3.181   2.967  1.1576 -1.3112 -1.2194
 5282SOL    HW227306   1.213   3.037   2.987  2.4915  1.1104 -0.0528
 5283SOL     OW27307   1.678   1.728   8.424  0.2149  0.2309  0.6044
 5283SOL    HW127308   1.647   1.798   8.367 -0.1884 -0.1077  0.4145
 5283SOL    HW227309   1.610   1.661   8.421  3.2108 -2.6432 -3.3827
 5284SOL     OW27310   3.366   1.827   3.742  0.1427 -0.0253  0.1331
 5284SOL    HW127311   3.329   1.811   3.655  0.8817 -0.7665 -0.0438
 5284SOL    HW227312   3.312   1.900   3.772 -0.8807  0.0815 -1.9504
 5285SOL     OW27313   2.198   4.365   6.315  0.2433  0.4084  0.2542
 5285SOL    HW127314   2.291   4.348   6.304 -0.5192 -1.3495 -3.6490
 5285SOL    HW227315   2.168   4.337   6.228  0.4359 -3.5038  1.4561
 5286SOL     OW27316   1.483   2.473   0.428  0.5228 -0.1135 -0.2069
 5286SOL    HW127317   1.567   2.492   0.385  0.1305  1.1795 -0.4005
 5286SOL    HW227318   1.429   2.481   0.350 -2.2838  0.9120  1.8424
 5287SOL     OW27319   3.885   2.590   8.273  0.3882  0.1275  0.1753
 5287SOL    HW127320   3.922   2.581   8.186  2.5706  0.1649  1.1083
 5287SOL    HW227321   3.945   2.650   8.317  1.3414 -1.8477  1.5478
 5288SOL     OW27322   0.555   3.414   4.394  0.1198 -0.6168 -0.0533
 5288SOL    HW127323   0.498   3.403   4.470  1.0132 -0.2582  0.6682
 5288SOL    HW227324   0.519   3.495   4.358 -1.5690 -1.1665  0.4231
 5289SOL     OW27325   1.803   2.160   4.455  0.1727  0.0603 -0.3807
 5289SOL    HW127326   1.728   2.219   4.463 -0.0141  0.0380 -1.8213
 5289SOL    HW227327   1.820   2.137   4.546 -0.4037 -0.1361 -0.3235
 5290SOL     OW27328   3.615   1.809   0.017 -0.2966 -0.3953  0.0932
 5290SOL    HW127329   3.647   1.853   0.096  0.9903 -0.5871 -0.3211
 5290SOL    HW227330   3.628   1.876  17.644 -2.2645  0.0608  0.1453
 5291SOL     OW27331   4.565   1.046   4.617 -0.0831 -0.1077  0.2960
 5291SOL    HW127332   4.514   0.967   4.634 -0.4810 -0.2869 -1.6711
 5291SOL    HW227333   4.627   1.015   4.550 -1.5913  0.3923 -1.3268
 5292SOL     OW27334   3.020   3.323   7.126  0.6427 -0.1764 -0.3155
 5292SOL    HW127335   3.067   3.332   7.209 -0.0038 -0.4542  0.0792
 5292SOL    HW227336   3.081   3.258   7.089  2.7276  1.8170 -0.3589
 5293SOL     OW27337   1.524   4.281  16.013 -0.3096 -0.4636  0.0863
 5293SOL    HW127338   1.492   4.348  16.074  0.9989  0.5969 -0.3780
 5293SOL    HW227339   1.610   4.314  15.986 -1.9293  1.8224 -2.2832
 5294SOL     OW27340   0.388   0.787   7.236 -0.1154  0.0942  0.2656
 5294SOL    HW127341   0.394   0.724   7.164  1.9066  1.0687 -0.3968
 5294SOL    HW227342   0.294   0.772   7.244 -0.0485 -0.6506 -0.3479
 5295SOL     OW27343   3.362   0.965  13.596 -0.0267 -0.8171  0.0493
 5295SOL    HW127344   3.383   0.876  13.569  0.2278 -0.1837 -1.8059
 5295SOL    HW227345   3.443   0.983  13.644  0.3323 -2.3958  0.0356
 5296SOL     OW27346   0.448   0.754  16.502  0.3941  0.2882 -0.2745
 5296SOL    HW127347   0.389   0.717  16.436 -0.5512  0.9028  0.2194
 5296SOL    HW227348   0.500   0.809  16.444  1.0870 -0.4770 -0.3806
 5297SOL     OW27349   2.187   0.274   6.804 -0.1072 -0.1470  0.0807
 5297SOL    HW127350   2.177   0.362   6.840  0.6081  0.9925 -2.5273
 5297SOL    HW227351   2.160   0.276   6.712 -2.0616  3.2191  0.6991
 5298SOL     OW27352   3.488   1.769   6.130  0.7956 -0.0254 -0.3196
 5298SOL    HW127353   3.479   1.684   6.087  1.6051 -0.0735 -0.3908
 5298SOL    HW227354   3.579   1.758   6.157  1.2400  0.0041 -1.7939
 5299SOL     OW27355   2.971   3.909   6.615  0.3001 -0.6903  0.0705
 5299SOL    HW127356   2.956   3.845   6.685  0.0948 -1.2115 -0.4515
 5299SOL    HW227357   3.064   3.907   6.596  0.0585  1.4958 -1.3844
 5300SOL     OW27358   3.139   1.373   4.773  0.0064  0.6115 -0.3973
 5300SOL    HW127359   3.221   1.370   4.823 -0.1078  2.0379 -0.1385
 5300SOL    HW227360   3.129   1.298   4.714 -3.2156 -0.6474  1.7525
 5301SOL     OW27361   1.979   1.424   9.296 -1.0807 -0.1484  0.5450
 5301SOL    HW127362   2.061   1.456   9.335 -1.6653 -1.5886  2.9921
 5301SOL    HW227363   1.931   1.396   9.374 -0.4884  1.8320  1.6399
 5302SOL     OW27364   1.430   3.422   3.395  0.0793  0.0171  1.0668
 5302SOL    HW127365   1.384   3.344   3.364  0.6394  0.5844 -1.1926
 5302SOL    HW227366   1.506   3.394   3.445 -0.1194 -0.8828  0.8591
 5303SOL     OW27367   0.025   0.079  13.451  0.0161 -0.1342  0.4428
 5303SOL    HW127368   4.711   0.138  13.386  1.0350  0.2368  0.1928
 5303SOL    HW227369   0.117   0.082  13.425 -0.7441 -1.1741 -2.4214
 5304SOL     OW27370   0.376   4.051  10.911  0.0493 -0.2195 -0.0994
 5304SOL    HW127371   0.322   3.973  10.903 -1.0896  0.4824  0.8450
 5304SOL    HW227372   0.450   4.016  10.961 -0.5887  0.7397  1.5064
 5305SOL     OW27373   2.600   1.620  12.275 -0.1400 -0.2923 -0.2689
 5305SOL    HW127374   2.690   1.610  12.307 -0.5005 -0.7181  0.6275
 5305SOL    HW227375   2.582   1.528  12.255  0.4830 -1.1766  3.2287
 5306SOL     OW27376   1.604   1.486   8.971  0.3085  0.1197 -0.0176
 5306SOL    HW127377   1.565   1.417   9.025  1.4639 -0.3978  0.1372
 5306SOL    HW227378   1.685   1.495   9.020 -0.3459  0.5399  0.9861
 5307SOL     OW27379   4.133   3.737   2.609 -0.3315 -0.1145  0.3600
 5307SOL    HW127380   4.199   3.692   2.556 -0.5926  1.2799 -1.1489
 5307SOL    HW227381   4.181   3.820   2.614  1.3261 -1.0084 -0.6825
 5308SOL     OW27382   0.588   4.624   4.969  0.2301 -0.5549  0.2516
 5308SOL    HW127383   0.627   4.542   4.939 -1.4494 -0.9224 -0.9142
 5308SOL    HW227384   0.663   4.666   5.012  2.5678 -3.1877 -1.2472
 5309SOL     OW27385   3.870   2.987   5.439 -0.1775 -0.2369 -0.1786
 5309SOL    HW127386   3.849   3.079   5.454  2.8894  0.1760  1.6249
 5309SOL    HW227387   3.795   2.966   5.494 -0.7027  0.3782 -0.6670
 5310SOL     OW27388   0.678   0.936  13.260  0.6378 -0.5187 -0.7252
 5310SOL    HW127389   0.762   0.901  13.290  0.4250 -0.2437  0.1665
 5310SOL    HW227390   0.616   0.893  13.319 -0.4380 -0.0210 -1.4842
 5311SOL     OW27391   4.141   1.429  13.029 -0.1695 -0.8759  0.6136
 5311SOL    HW127392   4.081   1.385  13.090 -0.6962 -1.0423 -0.0338
 5311SOL    HW227393   4.086   1.502  13.002  1.6022  0.1858 -0.1549
 5312SOL     OW27394   1.886   2.421   3.274  0.0601 -0.5752 -0.5919
 5312SOL    HW127395   1.879   2.359   3.202 -1.0162 -1.0645 -0.0723
 5312SOL    HW227396   1.931   2.367   3.339  0.1547  2.1977  1.6547
 5313SOL     OW27397   3.068   2.829  16.708  0.2569 -0.1781  0.0466
 5313SOL    HW127398   3.050   2.747  16.755  1.6154  0.2795  1.3965
 5313SOL    HW227399   3.114   2.791  16.634  2.7481 -0.5354  1.7597
 5314SOL     OW27400   2.345   1.871   6.686 -0.6608 -0.8473  0.7779
 5314SOL    HW127401   2.295   1.924   6.749  0.3493  1.3602 -0.2794
 5314SOL    HW227402   2.415   1.828   6.735  1.5283  0.1392 -1.4725
 5315SOL     OW27403   1.015   0.906  15.460  0.0079  0.0677  0.3341
 5315SOL    HW127404   1.102   0.916  15.422 -0.6248 -1.1604 -1.4392
 5315SOL    HW227405   1.022   0.958  15.540  0.7092 -2.6170  2.0280
 5316SOL     OW27406   4.561   4.000  15.902 -0.1014 -0.8743  0.0879
 5316SOL    HW127407   4.590   3.924  15.950  3.1385 -0.9480 -2.0085
 5316SOL    HW227408   4.597   3.984  15.815  0.5629 -0.9088  0.3687
 5317SOL     OW27409   2.872   3.716   4.637 -0.2499  0.2856  0.3630
 5317SOL    HW127410   2.869   3.668   4.554  0.9334  0.4059  0.2616
 5317SOL    HW227411   2.795   3.771   4.620  0.9217  1.6392 -0.5420
 5318SOL     OW27412   1.220   3.025   8.541  0.0172  0.4383  0.7432
 5318SOL    HW127413   1.218   2.934   8.571 -1.4958  0.6995  1.4581
 5318SOL    HW227414   1.132   3.045   8.508  1.1235 -0.8274 -2.8959
 5319SOL     OW27415   2.615   1.295  14.505  0.1271 -0.3217 -0.3499
 5319SOL    HW127416   2.567   1.377  14.497 -1.0371 -1.0155 -0.5011
 5319SOL    HW227417   2.561   1.226  14.466  0.6330  0.6732 -2.7988
 5320SOL     OW27418   0.606   3.690   5.486  0.1269 -0.4793  0.1836
 5320SOL    HW127419   0.590   3.595   5.489 -2.7116  0.0295  1.0312
 5320SOL    HW227420   0.589   3.708   5.393 -0.4190 -1.7318  0.0352
 5321SOL     OW27421   1.965   3.288  12.782 -0.2000 -0.2372  0.6865
 5321SOL    HW127422   1.907   3.219  12.749  0.9188 -0.0727 -1.6767
 5321SOL    HW227423   2.026   3.289  12.708  0.0470 -4.0835  0.8629
 5322SOL     OW27424   2.102   3.981  14.891  0.8327  0.2132 -0.1661
 5322SOL    HW127425   2.061   4.032  14.961  0.0338 -0.2374 -0.3131
 5322SOL    HW227426   2.197   3.995  14.897  0.7923  0.4830 -0.1748
 5323SOL     OW27427   0.905   2.791  17.206 -0.0298  0.1622 -0.4302
 5323SOL    HW127428   0.931   2.704  17.178 -0.5639 -0.2199  0.2755
 5323SOL    HW227429   0.869   2.824  17.123 -1.8278  0.7998  0.5936
 5324SOL     OW27430   2.713   0.744  13.500  0.2005  0.5991  0.0486
 5324SOL    HW127431   2.778   0.807  13.533 -1.2125  2.5532 -0.8828
 5324SOL    HW227432   2.648   0.750  13.569  1.9742 -0.0922  1.7863
 5325SOL     OW27433   0.405   0.206   8.692  0.4409 -0.5581 -0.0846
 5325SOL    HW127434   0.394   0.124   8.644 -1.0128 -1.2707  1.4903
 5325SOL    HW227435   0.386   0.268   8.621  0.7151  0.5697  0.8295
 5326SOL     OW27436   2.509   3.878   7.679 -0.0432  0.3880 -0.1693
 5326SOL    HW127437   2.547   3.858   7.764 -0.4277 -2.8077 -0.7405
 5326SOL    HW227438   2.413   3.872   7.686  0.0490 -2.3342 -1.1001
 5327SOL     OW27439   3.455   0.169   5.901 -0.0227  0.1632  0.2287
 5327SOL    HW127440   3.546   0.153   5.923 -0.2118 -0.5054  0.5401
 5327SOL    HW227441   3.445   0.264   5.895 -2.1451 -0.0005  0.9812
 5328SOL     OW27442   3.580   2.301   9.320  0.1374 -0.1842  0.1369
 5328SOL    HW127443   3.510   2.287   9.384  0.4074  1.1008  0.7067
 5328SOL    HW227444   3.606   2.383   9.360 -0.6241  0.5973 -0.9825
 5329SOL     OW27445   2.970   3.390   5.236  0.1330 -0.2480  0.7472
 5329SOL    HW127446   2.985   3.387   5.142  2.0644  1.9961  0.9987
 5329SOL    HW227447   3.035   3.451   5.270 -0.5684  0.3114  1.1045
 5330SOL     OW27448   4.333   0.955   5.622 -0.7783 -0.7409 -0.2095
 5330SOL    HW127449   4.396   0.908   5.676  1.0183 -3.2496 -4.5109
 5330SOL    HW227450   4.365   0.959   5.532  1.0690  0.4132  0.5020
 5331SOL     OW27451   0.322   4.393  10.931  0.5399 -0.0561 -0.3074
 5331SOL    HW127452   0.301   4.486  10.936  0.2942 -0.1465  0.3257
 5331SOL    HW227453   0.320   4.373  11.025  0.5567 -0.0533 -0.3064
 5332SOL     OW27454   0.132   2.114  13.523 -0.3689 -0.4697 -0.0788
 5332SOL    HW127455   0.042   2.088  13.542 -0.5689  1.0100  0.9873
 5332SOL    HW227456   0.121   2.207  13.507 -0.3489 -0.2804  1.0044
 5333SOL     OW27457   4.134   4.625  12.846 -0.3727  0.0093 -0.0198
 5333SOL    HW127458   4.182   4.575  12.780  0.6911  1.0029 -0.0014
 5333SOL    HW227459   4.167   4.584  12.926 -4.8593  0.0161  1.8506
 5334SOL     OW27460   2.282   0.308   2.669  0.0838  0.3990  0.4945
 5334SOL    HW127461   2.351   0.370   2.691 -0.2813  0.9002  0.2238
 5334SOL    HW227462   2.267   0.266   2.754  2.8249 -0.9327  0.3186
 5335SOL     OW27463   3.218   4.620  15.822 -0.0349  0.1290 -0.4670
 5335SOL    HW127464   3.195   4.584  15.907  0.1278 -2.1726 -1.3904
 5335SOL    HW227465   3.193   4.539  15.777  2.5305  0.8886 -3.2713
 5336SOL     OW27466   2.563   1.791   4.691 -0.0725  0.4167 -0.1960
 5336SOL    HW127467   2.574   1.796   4.596 -2.1227  0.4169 -0.4328
 5336SOL    HW227468   2.650   1.816   4.723 -0.2581 -0.3631  0.9295
 5337SOL     OW27469   2.223   4.058   4.814 -0.2247 -0.4963 -0.5777
 5337SOL    HW127470   2.297   4.087   4.761 -1.0368  0.0588 -1.4146
 5337SOL    HW227471   2.260   4.077   4.900 -1.7716  1.3184 -0.3241
 5338SOL     OW27472   2.346   1.843   7.364 -0.1807 -0.2010  0.3150
 5338SOL    HW127473   2.383   1.906   7.426 -0.0497  0.6574 -0.6370
 5338SOL    HW227474   2.342   1.767   7.422  0.3789 -0.5911 -0.1643
 5339SOL     OW27475   1.402   1.847   9.366 -0.6259 -0.7468  0.3220
 5339SOL    HW127476   1.396   1.930   9.412 -0.6808 -0.7058  0.2408
 5339SOL    HW227477   1.361   1.860   9.280  0.8269  0.3316 -0.1904
 5340SOL     OW27478   3.157   2.613   9.470 -0.2045  0.1720 -0.1387
 5340SOL    HW127479   3.098   2.597   9.544 -1.4393 -1.1008 -1.3901
 5340SOL    HW227480   3.211   2.689   9.489  0.6178 -0.2222 -0.8712
 5341SOL     OW27481   4.106   1.040   8.246 -0.2448 -0.5439 -0.4416
 5341SOL    HW127482   4.010   1.039   8.239 -0.4016  0.5342  1.2533
 5341SOL    HW227483   4.117   1.127   8.208 -1.6481 -0.7140 -1.2380
 5342SOL     OW27484   4.315   1.811   5.183 -0.0380  0.6437  0.1692
 5342SOL    HW127485   4.323   1.905   5.203 -1.0321  1.0940 -1.5365
 5342SOL    HW227486   4.383   1.776   5.241 -1.8559 -6.0495 -1.8204
 5343SOL     OW27487   3.361   2.237   5.936 -0.1945 -0.1134 -0.0322
 5343SOL    HW127488   3.322   2.156   5.970  0.9790 -0.4475  0.5300
 5343SOL    HW227489   3.295   2.303   5.956 -0.4231 -0.2294 -0.4132
 5344SOL     OW27490   3.148   0.253   1.295  0.1428  0.0075 -0.0558
 5344SOL    HW127491   3.189   0.317   1.353  2.2537  0.5658 -2.2155
 5344SOL    HW227492   3.149   0.295   1.209 -0.9702  1.5180  0.6676
 5345SOL     OW27493   2.581   3.504   3.005  0.0695  0.3614 -0.3966
 5345SOL    HW127494   2.531   3.540   2.932 -1.7462 -0.9121  0.2438
 5345SOL    HW227495   2.526   3.430   3.029 -0.0137 -0.3361 -2.7016
 5346SOL     OW27496   2.235   3.758   4.188 -0.6273 -0.5732 -0.4428
 5346SOL    HW127497   2.278   3.843   4.175 -1.3278 -0.2705 -0.7593
 5346SOL    HW227498   2.166   3.764   4.254 -0.0244 -0.1334  0.1522
 5347SOL     OW27499   1.273   1.097   3.556  0.0180 -0.1453  0.7996
 5347SOL    HW127500   1.352   1.106   3.504  0.2508 -0.9824  1.0092
 5347SOL    HW227501   1.284   1.012   3.599  0.2577 -0.4200  0.1840
 5348SOL     OW27502   4.576   4.263   3.446  0.6198  0.0452 -0.5256
 5348SOL    HW127503   4.486   4.266   3.476  0.9950  1.1348  0.5120
 5348SOL    HW227504   4.618   4.191   3.494 -0.9137 -1.4300 -1.4231
 5349SOL     OW27505   4.382   3.134  17.283  0.6711 -0.2557  0.7590
 5349SOL    HW127506   4.324   3.162  17.213  0.2284 -1.8915  0.4526
 5349SOL    HW227507   4.378   3.200  17.352 -0.8922 -1.3089  1.6752
 5350SOL     OW27508   0.374   1.548   8.619  0.3133 -0.6491  0.0206
 5350SOL    HW127509   0.338   1.619   8.565 -0.3382 -1.2310 -0.3056
 5350SOL    HW227510   0.437   1.602   8.667 -1.1362  0.0767  1.0978
 5351SOL     OW27511   2.974   0.486  13.834  0.4418  0.7983  0.0039
 5351SOL    HW127512   2.919   0.500  13.912  0.3550  2.7821 -0.4145
 5351SOL    HW227513   2.985   0.577  13.809 -1.8048  1.2744  0.7396
 5352SOL     OW27514   1.395   4.106  12.832 -0.0477 -0.1193 -0.0391
 5352SOL    HW127515   1.441   4.049  12.893 -1.7945 -1.4843 -0.0070
 5352SOL    HW227516   1.470   4.159  12.803  0.2402  0.8949  2.5510
 5353SOL     OW27517   3.241   0.751   7.694  0.4617  0.1683 -0.0447
 5353SOL    HW127518   3.311   0.775   7.754 -0.4653 -0.0262  1.1044
 5353SOL    HW227519   3.251   0.656   7.688 -1.6685 -0.1129  0.8747
 5354SOL     OW27520   0.676   3.002   2.829 -0.2216  1.0997  0.0161
 5354SOL    HW127521   0.612   3.072   2.843 -0.6677  0.8979 -0.9578
 5354SOL    HW227522   0.757   3.039   2.864  0.9223 -0.4129 -1.0353
 5355SOL     OW27523   0.874   3.093   2.993 -1.0099 -0.8747  0.2620
 5355SOL    HW127524   0.838   3.076   3.080 -1.1427 -1.9465  0.0006
 5355SOL    HW227525   0.968   3.103   3.009 -0.8324 -1.7969 -0.2490
 5356SOL     OW27526   1.991   3.767  13.431 -0.6915 -0.4107 -0.6950
 5356SOL    HW127527   1.907   3.798  13.398 -2.0716 -4.4082 -0.8793
 5356SOL    HW227528   2.010   3.693  13.374 -0.1364  0.9207 -2.2461
 5357SOL     OW27529   4.552   0.195   3.048 -0.1052  0.7348 -0.3790
 5357SOL    HW127530   4.542   0.283   3.012  1.9606  1.1974  0.2073
 5357SOL    HW227531   4.616   0.168   2.982  0.9769 -1.2217  1.4728
 5358SOL     OW27532   0.063   1.960   2.951  0.3834  0.1710  0.4384
 5358SOL    HW127533   4.693   1.955   2.974  0.9419 -0.7834  2.4720
 5358SOL    HW227534   0.099   1.890   3.005  0.6442  0.2313  0.3397
 5359SOL     OW27535   2.776   1.229  13.473 -0.1587  0.4875  0.9478
 5359SOL    HW127536   2.830   1.230  13.552  1.7995 -0.1162 -0.3820
 5359SOL    HW227537   2.774   1.136  13.451  0.7081  0.9753 -1.1436
 5360SOL     OW27538   1.407   4.161   1.542 -0.3083  0.1153 -0.3347
 5360SOL    HW127539   1.366   4.103   1.606 -1.4330  1.4877  0.2112
 5360SOL    HW227540   1.336   4.193   1.487  0.1571  4.3890  1.5473
 5361SOL     OW27541   3.434   1.287   4.300 -0.3009 -0.0603 -0.0711
 5361SOL    HW127542   3.522   1.272   4.266 -0.5314 -1.2318 -0.1574
 5361SOL    HW227543   3.456   1.345   4.373 -2.8872  1.8389 -0.7796
 5362SOL     OW27544   0.113   2.760   6.238 -0.0395  0.5015 -0.0379
 5362SOL    HW127545   0.096   2.674   6.277 -0.4226  1.4505  1.8696
 5362SOL    HW227546   0.207   2.770   6.252 -0.1578  1.5958 -0.0538
 5363SOL     OW27547   4.415   3.547   0.770  0.2809 -0.0731  0.6416
 5363SOL    HW127548   4.472   3.624   0.772  0.8118 -0.5357  2.5788
 5363SOL    HW227549   4.441   3.506   0.852 -0.5347 -1.0711  0.3922
 5364SOL     OW27550   2.094   2.591   4.171  0.1039 -0.6641 -0.2165
 5364SOL    HW127551   2.168   2.629   4.218  0.2930 -1.1438 -0.1269
 5364SOL    HW227552   2.050   2.536   4.235  2.1382  0.2807  1.9918
 5365SOL     OW27553   1.557   1.043  15.474  0.6745 -0.3700 -0.4057
 5365SOL    HW127554   1.637   1.089  15.449  1.2614 -1.6621 -0.9097
 5365SOL    HW227555   1.551   0.971  15.412  1.0681 -1.3797  0.7365
 5366SOL     OW27556   4.328   1.298   5.694 -0.0094  0.6149  0.4749
 5366SOL    HW127557   4.345   1.337   5.780  1.5260  0.3754  0.2789
 5366SOL    HW227558   4.416   1.279   5.661 -0.6901  0.5852 -1.3238
 5367SOL     OW27559   1.257   4.419   2.275 -0.1300 -0.5119  0.1845
 5367SOL    HW127560   1.171   4.413   2.317 -0.9056 -0.0346 -1.3233
 5367SOL    HW227561   1.244   4.501   2.228  1.0196 -0.1827  0.4534
 5368SOL     OW27562   1.791   4.470   1.532  0.5667  0.1761  0.6182
 5368SOL    HW127563   1.719   4.466   1.594  0.2496 -0.0115  0.2381
 5368SOL    HW227564   1.864   4.424   1.574  0.9311  0.3308  0.1633
 5369SOL     OW27565   1.603   4.194  14.677 -0.0849  0.2393  0.1656
 5369SOL    HW127566   1.583   4.141  14.600  0.6762  1.7246 -1.0486
 5369SOL    HW227567   1.695   4.173  14.690 -0.8776 -2.4548  1.5001
 5370SOL     OW27568   0.654   0.983   7.679 -0.4035  0.5421 -0.1326
 5370SOL    HW127569   0.597   0.913   7.648  1.0225 -0.0247 -1.4519
 5370SOL    HW227570   0.621   1.061   7.634 -1.1904  0.2670 -0.0326
 5371SOL     OW27571   3.165   1.183   4.238  0.1222  0.0867  0.2099
 5371SOL    HW127572   3.209   1.099   4.253 -1.2862 -0.9579 -1.5990
 5371SOL    HW227573   3.230   1.245   4.271  0.7102 -0.6698  0.4754
 5372SOL     OW27574   2.111   0.692   2.632  0.5181  0.1374  0.6706
 5372SOL    HW127575   2.131   0.630   2.702 -1.7163 -0.7082  0.5619
 5372SOL    HW227576   2.072   0.639   2.563 -0.6840  1.0458  0.6709
 5373SOL     OW27577   0.554   0.632   7.663  0.6489  0.1412  0.6321
 5373SOL    HW127578   0.613   0.558   7.648 -0.1588 -0.5913  1.0866
 5373SOL    HW227579   0.472   0.594   7.631 -0.4944  2.0064  1.3840
 5374SOL     OW27580   4.349   3.111  16.373  0.0539 -0.3629 -0.2783
 5374SOL    HW127581   4.348   3.204  16.398 -0.4830 -0.8641  1.5008
 5374SOL    HW227582   4.297   3.060  16.434  1.0505 -0.7706  0.2276
 5375SOL     OW27583   3.007   0.108  14.344 -0.7345  0.0542  0.8318
 5375SOL    HW127584   2.919   0.126  14.379 -1.2972  0.9656 -1.0687
 5375SOL    HW227585   3.058   0.185  14.368 -1.6029  0.9403 -0.1452
 5376SOL     OW27586   2.458   2.183  14.770  0.7249  0.0023 -0.1212
 5376SOL    HW127587   2.457   2.269  14.727 -1.5030 -0.4791 -1.0593
 5376SOL    HW227588   2.365   2.173  14.791  0.5913  1.6738  0.1085
 5377SOL     OW27589   3.902   1.632   7.088 -0.3832 -0.9297  0.1770
 5377SOL    HW127590   3.974   1.609   7.030  0.3934  1.5741  0.1452
 5377SOL    HW227591   3.928   1.577   7.162 -0.3617 -1.5896 -0.3214
 5378SOL     OW27592   0.028   4.057   3.541  0.4642  0.0392 -0.0131
 5378SOL    HW127593   0.018   3.962   3.548 -0.0712  0.2002  1.5144
 5378SOL    HW227594   0.003   4.078   3.631 -0.3096  2.5995 -0.8169
 5379SOL     OW27595   1.402   2.961  16.817 -0.2130  0.0814 -0.5354
 5379SOL    HW127596   1.428   2.939  16.906  1.5536 -1.0792 -1.3524
 5379SOL    HW227597   1.323   2.907  16.809  1.8764 -3.3449  1.7206
 5380SOL     OW27598   0.160   3.381   1.546 -0.4232 -0.0064 -0.1657
 5380SOL    HW127599   0.156   3.300   1.495 -0.7971 -0.8463  1.2206
 5380SOL    HW227600   0.109   3.363   1.625  0.3555  3.0147  1.0225
 5381SOL     OW27601   1.103   4.310   4.658  0.0080 -0.1033 -0.9835
 5381SOL    HW127602   1.031   4.251   4.636 -0.6106  1.4395 -3.1195
 5381SOL    HW227603   1.110   4.352   4.572 -1.9907  1.3086 -0.4738
 5382SOL     OW27604   3.842   2.293   9.690 -0.3668  0.0902 -0.0071
 5382SOL    HW127605   3.873   2.366   9.636  0.6649 -1.0072 -0.8964
 5382SOL    HW227606   3.784   2.338   9.751 -2.0689 -0.8228 -0.9743
 5383SOL     OW27607   2.170   2.938   7.094 -0.1429 -0.3859  0.7922
 5383SOL    HW127608   2.081   2.945   7.130 -1.1918  2.3601 -2.3405
 5383SOL    HW227609   2.218   2.924   7.175  0.3623 -2.1351  0.1919
 5384SOL     OW27610   2.411   3.927  10.036 -0.6266  0.0397 -0.0294
 5384SOL    HW127611   2.449   4.015  10.039 -0.0907 -0.1960  0.2061
 5384SOL    HW227612   2.474   3.881  10.092  1.5454  1.6686 -1.1397
 5385SOL     OW27613   0.840   4.713  14.242  0.6217 -0.1991 -0.2449
 5385SOL    HW127614   0.874   0.078  14.225 -0.6036  0.7112  1.9452
 5385SOL    HW227615   0.872   4.660  14.169 -2.2135 -2.1077 -0.1174
 5386SOL     OW27616   2.962   1.170   8.529  0.2100  0.1690  0.3013
 5386SOL    HW127617   2.895   1.113   8.489 -0.1509 -0.3614  1.6790
 5386SOL    HW227618   2.999   1.104   8.588 -2.3710 -0.9949  0.6056
 5387SOL     OW27619   3.986   0.081   1.103  0.5287 -0.8017 -0.3982
 5387SOL    HW127620   4.067   0.031   1.104  0.0588 -1.5592 -0.5647
 5387SOL    HW227621   3.946   0.061   1.187 -2.1147  0.7061 -1.3067
 5388SOL     OW27622   4.422   0.694   3.723 -0.7124  0.0496 -0.0257
 5388SOL    HW127623   4.332   0.697   3.692 -1.5653  1.1828  2.5110
 5388SOL    HW227624   4.464   0.740   3.651 -0.2288  0.3059  0.4160
 5389SOL     OW27625   4.567   3.422   7.638 -0.1577 -0.5776  0.1938
 5389SOL    HW127626   4.619   3.503   7.637 -1.6149  0.3831  1.7070
 5389SOL    HW227627   4.556   3.402   7.731  0.2324  1.3244  0.6598
 5390SOL     OW27628   2.642   3.239   8.589 -0.2143  0.2250  0.4159
 5390SOL    HW127629   2.668   3.191   8.511  1.3464 -1.2815  1.8633
 5390SOL    HW227630   2.731   3.256   8.620 -0.0673 -0.5695  0.4306
 5391SOL     OW27631   1.713   0.207   7.399  0.3602  0.7346  0.0399
 5391SOL    HW127632   1.674   0.156   7.469  1.1624  3.1447  2.2390
 5391SOL    HW227633   1.761   0.138   7.354 -2.4875 -2.9147  2.6214
 5392SOL     OW27634   0.816   4.617   2.441  0.5946 -0.1578 -0.0284
 5392SOL    HW127635   0.868   4.696   2.458  0.1140 -0.0563  0.9261
 5392SOL    HW227636   0.751   4.655   2.381  1.2642  0.1883 -0.5332
 5393SOL     OW27637   0.074   0.883   4.572 -0.4908 -0.0475  0.2712
 5393SOL    HW127638   0.128   0.813   4.608 -0.9020  0.0828  1.1390
 5393SOL    HW227639   0.098   0.853   4.484 -0.3827 -2.3994  1.1130
 5394SOL     OW27640   1.769   3.422   7.991 -0.2794 -0.1426 -0.2524
 5394SOL    HW127641   1.764   3.339   8.038  0.2733  1.1778  2.1815
 5394SOL    HW227642   1.863   3.428   7.977 -0.0315 -2.6679  0.3510
 5395SOL     OW27643   1.300   4.472   4.745  0.0580  0.5077  0.1371
 5395SOL    HW127644   1.248   4.545   4.710  0.9872  0.5812 -1.0953
 5395SOL    HW227645   1.240   4.400   4.726 -0.5808  0.7269  1.3571
 5396SOL     OW27646   3.360   1.000  10.663 -0.5310 -0.3453 -0.7018
 5396SOL    HW127647   3.327   1.086  10.635  0.4518  0.0801 -0.5665
 5396SOL    HW227648   3.279   0.958  10.691 -0.4508  0.2984  0.4890
 5397SOL     OW27649   1.641   2.269   5.933 -0.5353  0.1515  0.4928
 5397SOL    HW127650   1.678   2.246   5.848 -1.4928  1.4816 -0.2938
 5397SOL    HW227651   1.686   2.353   5.949 -1.2759  0.0078  3.1912
 5398SOL     OW27652   2.197   0.580   6.865 -0.1919  0.0194 -0.7768
 5398SOL    HW127653   2.277   0.607   6.911 -0.4246 -0.5708 -0.0207
 5398SOL    HW227654   2.225   0.580   6.773  0.2186 -1.7988 -0.6570
 5399SOL     OW27655   4.066   2.440  12.935 -0.2390  0.1478 -0.3817
 5399SOL    HW127656   4.087   2.400  12.851  0.3693 -1.0667  0.3485
 5399SOL    HW227657   3.971   2.431  12.933 -0.1985  0.0764 -2.5310
 5400SOL     OW27658   2.022   0.036   2.073  0.6694 -0.3037  0.1540
 5400SOL    HW127659   2.075   0.002   2.145 -2.0445 -1.0069  1.8242
 5400SOL    HW227660   2.074   4.719   2.004 -1.0238 -1.7016 -0.3250
 5401SOL     OW27661   1.223   1.177  17.342 -0.0457  0.7163  0.5871
 5401SOL    HW127662   1.220   1.120  17.418 -0.0938  1.6481  1.2881
 5401SOL    HW227663   1.172   1.248  17.380  1.1316  0.4973  2.5576
 5402SOL     OW27664   3.191   1.290   8.557  0.0514  0.2741  0.3144
 5402SOL    HW127665   3.102   1.254   8.550 -0.0878  0.7376 -0.3518
 5402SOL    HW227666   3.186   1.347   8.633 -1.8711 -0.8871  1.0570
 5403SOL     OW27667   1.829   1.986  12.423  0.1948  0.3671 -0.3805
 5403SOL    HW127668   1.812   1.984  12.329  0.1942  1.6959 -0.4013
 5403SOL    HW227669   1.921   1.958  12.420  0.4989  1.4352 -0.9167
 5404SOL     OW27670   2.851   2.203   9.035  0.0356 -0.2953  0.4635
 5404SOL    HW127671   2.882   2.179   8.947  1.0664 -1.3442  1.1126
 5404SOL    HW227672   2.774   2.147   9.033 -1.5335  1.8543  1.0110
 5405SOL     OW27673   0.604   0.249  14.978  0.4088  0.1125  0.5400
 5405SOL    HW127674   0.542   0.222  14.910  0.5800  0.6842  0.1593
 5405SOL    HW227675   0.686   0.265  14.930  0.2724 -1.0572 -0.0756
 5406SOL     OW27676   3.262   3.577   1.058 -0.4208 -0.0432 -0.4301
 5406SOL    HW127677   3.178   3.543   1.027 -0.8455  0.3249  0.3313
 5406SOL    HW227678   3.278   3.528   1.139  1.5434 -0.4370 -1.0480
 5407SOL     OW27679   0.364   4.193   4.230  0.6275 -0.2048 -0.5974
 5407SOL    HW127680   0.326   4.269   4.186 -0.2223 -1.5370 -2.1619
 5407SOL    HW227681   0.312   4.192   4.311  2.2017 -2.7085  0.3894
 5408SOL     OW27682   1.966   3.412   7.233 -0.2481  0.4792 -0.4596
 5408SOL    HW127683   2.027   3.485   7.223  1.2698 -0.5060  1.5345
 5408SOL    HW227684   1.921   3.422   7.149 -2.0771  0.2029  0.5093
 5409SOL     OW27685   0.024   1.153   3.370  0.2584 -0.0514 -0.0342
 5409SOL    HW127686   4.711   1.067   3.347 -0.7293  0.6485 -1.0678
 5409SOL    HW227687   4.680   1.201   3.418  0.5978  0.4910 -0.1006
 5410SOL     OW27688   0.190   2.493  14.385 -0.1604  0.2736  0.4070
 5410SOL    HW127689   0.133   2.570  14.382 -0.1843  0.2801  1.2248
 5410SOL    HW227690   0.246   2.515  14.459 -0.0253 -1.4285  0.8080
 5411SOL     OW27691   3.078   2.624   5.667 -0.1244 -0.8819  0.1952
 5411SOL    HW127692   3.100   2.716   5.663  0.3014 -1.0131 -0.4051
 5411SOL    HW227693   3.153   2.582   5.625  1.5338  1.1460  1.1554
 5412SOL     OW27694   2.331   0.364   2.348 -0.3099  0.2648 -0.0885
 5412SOL    HW127695   2.329   0.322   2.434  0.2388  2.8305  1.1734
 5412SOL    HW227696   2.243   0.339   2.320  0.0127 -0.4799 -0.4698
 5413SOL     OW27697   2.661   4.184  11.924 -0.0737  0.2088  0.4530
 5413SOL    HW127698   2.703   4.150  12.002 -2.3593 -2.4739  0.4976
 5413SOL    HW227699   2.614   4.106  11.895  2.0354  0.0865 -2.6576
 5414SOL     OW27700   3.730   1.316   2.965  0.0446  0.2199 -0.4245
 5414SOL    HW127701   3.684   1.388   3.009  1.1298  0.0375  0.9961
 5414SOL    HW227702   3.749   1.260   3.040 -0.2940 -0.5150 -0.8842
 5415SOL     OW27703   3.434   0.056  15.799 -0.2960 -0.1294 -0.4273
 5415SOL    HW127704   3.369   4.711  15.781 -1.1160 -0.0420  2.0505
 5415SOL    HW227705   3.441   0.090  15.710  0.2110  2.5866  0.6427
 5416SOL     OW27706   4.719   2.471  12.960 -0.2099 -0.6283  0.0988
 5416SOL    HW127707   4.686   2.557  12.935 -0.9955 -1.2766 -1.0904
 5416SOL    HW227708   0.091   2.480  12.951 -0.1718 -0.7532  0.3525
 5417SOL     OW27709   0.289   2.285  14.566  0.7559  0.0122  0.1052
 5417SOL    HW127710   0.303   2.368  14.611  1.9456 -1.1902  1.9137
 5417SOL    HW227711   0.207   2.261  14.609  1.5374 -0.8317  1.1000
 5418SOL     OW27712   1.536   3.281   3.009 -0.3832  0.0789  1.3216
 5418SOL    HW127713   1.538   3.193   2.972  2.2800  0.8316 -0.3279
 5418SOL    HW227714   1.631   3.292   3.013 -0.3927  0.9882 -0.7542
 5419SOL     OW27715   3.692   1.814  13.671  0.1800 -0.0146 -0.3108
 5419SOL    HW127716   3.689   1.779  13.760  3.1636 -1.2474 -0.7004
 5419SOL    HW227717   3.772   1.774  13.636 -0.3219  0.3620 -1.8893
 5420SOL     OW27718   0.489   4.435  16.145  0.3973  0.0129 -0.2927
 5420SOL    HW127719   0.452   4.482  16.070  2.5858 -0.2081 -1.5179
 5420SOL    HW227720   0.578   4.432  16.110  1.0076  1.9101  1.1159
 5421SOL     OW27721   2.902   2.529   3.214 -0.1062 -0.5722 -0.2112
 5421SOL    HW127722   2.979   2.487   3.175  1.0212 -0.2880  1.7303
 5421SOL    HW227723   2.886   2.600   3.151 -1.7243 -1.6784 -1.0463
 5422SOL     OW27724   4.426   2.939   7.556 -0.1891 -0.0378 -0.5965
 5422SOL    HW127725   4.449   2.847   7.566  0.6088  0.2392  0.0371
 5422SOL    HW227726   4.438   2.946   7.461  1.2227 -0.5544 -0.4574
 5423SOL     OW27727   2.736   2.336   4.116  0.2651  0.5320  0.6562
 5423SOL    HW127728   2.808   2.287   4.157 -0.3816  0.4318  1.6742
 5423SOL    HW227729   2.780   2.420   4.103 -0.2105  0.3483 -2.0145
 5424SOL     OW27730   4.119   2.560   8.010  0.1769 -0.1268  0.0111
 5424SOL    HW127731   4.030   2.588   7.989 -0.4881  0.3355  3.3237
 5424SOL    HW227732   4.175   2.614   7.954  1.3021  0.7493  1.9282
 5425SOL     OW27733   2.359   2.476   6.951  0.1218 -0.3379  0.0693
 5425SOL    HW127734   2.402   2.535   7.012  1.7906 -0.3749 -1.0909
 5425SOL    HW227735   2.328   2.411   7.014  0.8885 -1.5366 -0.8013
 5426SOL     OW27736   1.472   3.526  13.545  0.2041 -0.3077  0.1678
 5426SOL    HW127737   1.491   3.551  13.635  1.9566 -0.0789 -0.2745
 5426SOL    HW227738   1.562   3.530  13.515 -0.2116 -0.3393 -1.0916
 5427SOL     OW27739   1.794   3.339   3.055  0.1658 -0.0035 -0.1124
 5427SOL    HW127740   1.883   3.339   3.020 -0.1603 -0.1693 -0.9584
 5427SOL    HW227741   1.803   3.320   3.148  0.4089  0.8322  0.0377
 5428SOL     OW27742   2.553   0.353   4.900  0.0960  0.0908 -0.1136
 5428SOL    HW127743   2.608   0.410   4.954 -0.1099 -0.8436  1.0871
 5428SOL    HW227744   2.487   0.415   4.870 -0.7521  0.2087  2.0040
 5429SOL     OW27745   3.567   4.621  13.378 -0.3019 -0.1961 -0.4262
 5429SOL    HW127746   3.608   4.663  13.454 -1.4082 -0.5847  0.4034
 5429SOL    HW227747   3.483   4.665  13.365  0.8589  1.3344 -2.6802
 5430SOL     OW27748   3.234   1.962   4.428 -0.1323 -0.4120  0.0338
 5430SOL    HW127749   3.150   1.955   4.474 -0.1688  0.2980  0.0700
 5430SOL    HW227750   3.289   1.917   4.492 -0.1860  0.6088  0.8044
 5431SOL     OW27751   2.965   1.682   2.483  0.3382 -0.3368 -0.2513
 5431SOL    HW127752   2.902   1.730   2.537  2.2026  0.0768  1.6075
 5431SOL    HW227753   2.984   1.750   2.418  0.8666 -0.1022  0.1422
 5432SOL     OW27754   0.313   0.810   5.548 -0.1764  0.3404  0.2085
 5432SOL    HW127755   0.297   0.757   5.626 -0.6020 -1.2479 -0.9742
 5432SOL    HW227756   0.287   0.749   5.480  1.4134  0.6026 -0.6303
 5433SOL     OW27757   0.202   4.404   0.853 -0.4536 -0.0106  0.0694
 5433SOL    HW127758   0.218   4.377   0.944 -3.0026 -0.3910  0.4029
 5433SOL    HW227759   0.110   4.430   0.862  0.0182  1.5812  0.3206
 5434SOL     OW27760   3.267   2.806   8.749 -0.1483 -0.1376  0.1365
 5434SOL    HW127761   3.296   2.715   8.760 -0.3214 -0.0981  0.9258
 5434SOL    HW227762   3.178   2.801   8.782  0.0620  0.2957  0.7796
 5435SOL     OW27763   2.489   4.513   7.976 -0.2783 -0.2047 -0.2054
 5435SOL    HW127764   2.466   4.421   7.990 -1.0704  0.1169  0.6026
 5435SOL    HW227765   2.410   4.547   8.018 -1.3302 -0.0566 -2.2962
 5436SOL     OW27766   2.756   3.752   2.117  0.3535  0.8921  0.7289
 5436SOL    HW127767   2.814   3.727   2.044  0.0923 -0.9644  1.1750
 5436SOL    HW227768   2.729   3.837   2.082 -1.6379 -0.7124 -1.6401
 5437SOL     OW27769   1.862   3.928   0.009 -0.2545  0.0680 -0.1508
 5437SOL    HW127770   1.907   4.012  17.692  1.4359 -0.6450  1.1951
 5437SOL    HW227771   1.857   3.894  17.615 -0.0989 -0.3500  0.0019
 5438SOL     OW27772   0.839   2.265  12.207 -0.3272  0.1048  0.5480
 5438SOL    HW127773   0.852   2.347  12.159  3.5017 -2.2062 -2.3342
 5438SOL    HW227774   0.887   2.288  12.287  0.7747  1.9218 -0.6107
 5439SOL     OW27775   0.543   2.179  14.239  0.0360 -0.6763 -0.1370
 5439SOL    HW127776   0.598   2.250  14.206 -1.1739  0.6252  0.6269
 5439SOL    HW227777   0.542   2.128  14.158  1.6488 -0.3909 -0.3398
 5440SOL     OW27778   2.111   0.131   0.636  0.1911  0.2262  0.1845
 5440SOL    HW127779   2.085   0.106   0.725  1.7974  0.1522  0.6397
 5440SOL    HW227780   2.140   0.045   0.605  0.3612 -0.1768  1.4669
 5441SOL     OW27781   0.699   2.249   8.419 -0.1974 -0.3024 -0.4095
 5441SOL    HW127782   0.710   2.342   8.437  1.1560 -0.3109 -1.1886
 5441SOL    HW227783   0.783   2.208   8.442  0.1108 -2.0868 -4.7793
 5442SOL     OW27784   1.677   1.938   3.478 -0.1550 -0.2318 -0.3326
 5442SOL    HW127785   1.707   1.855   3.442  0.1713  0.0176 -0.6291
 5442SOL    HW227786   1.752   1.994   3.461 -0.2919  0.1199  0.2083
 5443SOL     OW27787   1.297   4.174   8.891 -0.3685  0.1724 -0.1396
 5443SOL    HW127788   1.217   4.132   8.863 -1.2447  1.5367  0.3043
 5443SOL    HW227789   1.251   4.257   8.902  3.3023  1.9839  1.5734
 5444SOL     OW27790   2.885   4.229   4.411  0.2004 -0.5790 -0.5203
 5444SOL    HW127791   2.870   4.165   4.481 -0.2347 -0.3161 -0.3728
 5444SOL    HW227792   2.956   4.279   4.452  0.1466 -2.7071  2.1999
 5445SOL     OW27793   1.644   4.126  17.545  0.2844  0.3767  0.4506
 5445SOL    HW127794   1.702   4.061  17.505 -0.8986  0.2202 -0.9634
 5445SOL    HW227795   1.561   4.117  17.499  0.0438  0.5684  0.8475
 5446SOL     OW27796   1.945   2.133  12.132  0.2180 -0.3861  0.5909
 5446SOL    HW127797   2.011   2.066  12.151  1.9081  0.9560 -0.5528
 5446SOL    HW227798   1.995   2.213  12.149 -1.3760  0.5362  0.8921
 5447SOL     OW27799   2.817   4.235  15.499 -0.0429  0.4334 -0.3339
 5447SOL    HW127800   2.776   4.151  15.479  0.7211 -0.2219  0.8403
 5447SOL    HW227801   2.910   4.224  15.481  0.3586 -0.5494  2.2887
 5448SOL     OW27802   0.398   2.401   3.157 -0.2021  0.1147  0.2501
 5448SOL    HW127803   0.327   2.369   3.212  0.2092 -0.0671  0.6700
 5448SOL    HW227804   0.353   2.417   3.074 -0.2692 -0.1409  0.2364
 5449SOL     OW27805   4.530   0.499   7.068 -0.4202  0.3906 -0.1138
 5449SOL    HW127806   4.594   0.491   7.139  1.4697  2.9053 -1.5170
 5449SOL    HW227807   4.475   0.421   7.072  2.1157 -1.4320 -0.5960
 5450SOL     OW27808   4.715   0.754   9.458 -0.0511  0.1372 -0.2023
 5450SOL    HW127809   0.028   0.793   9.379  1.5189  0.1002  0.5028
 5450SOL    HW227810   0.053   0.794   9.519 -0.6617  3.0442 -1.4994
 5451SOL     OW27811   0.337   3.710   1.949  0.0159  0.2205  0.5732
 5451SOL    HW127812   0.410   3.732   2.006 -0.6769  1.3391  1.0160
 5451SOL    HW227813   0.335   3.793   1.903  0.6211 -0.8211 -1.3548
 5452SOL     OW27814   4.053   4.371   2.543 -0.6591  0.2711 -0.4986
 5452SOL    HW127815   3.993   4.330   2.605  0.0795  0.9003  0.6255
 5452SOL    HW227816   4.010   4.342   2.462  0.6343 -2.4850 -0.1782
 5453SOL     OW27817   2.540   4.203   9.049  0.4952 -0.1159 -0.2122
 5453SOL    HW127818   2.548   4.147   9.126 -1.6100  0.8465  0.7164
 5453SOL    HW227819   2.622   4.182   9.004 -0.4509 -2.1651 -0.9884
 5454SOL     OW27820   1.224   0.004   3.886 -0.2439  0.1319 -0.1626
 5454SOL    HW127821   1.244   0.042   3.801 -1.2355 -0.2734 -0.5796
 5454SOL    HW227822   1.278   4.649   3.883  2.5855  2.0617  0.4594
 5455SOL     OW27823   2.747   3.835   7.116  0.2545 -0.2993 -0.1032
 5455SOL    HW127824   2.727   3.750   7.078 -1.8298  0.5661 -0.9463
 5455SOL    HW227825   2.730   3.820   7.209 -0.6259  1.5255  0.0453
 5456SOL     OW27826   0.354   1.773   5.561  0.4328  0.0941  0.1086
 5456SOL    HW127827   0.326   1.682   5.575  0.9069 -0.5422 -3.2025
 5456SOL    HW227828   0.270   1.818   5.552  2.2003  3.3966  0.1977
 5457SOL     OW27829   2.201   1.007   6.393 -0.4057  0.0896  0.4737
 5457SOL    HW127830   2.233   0.951   6.464 -0.4214 -0.0673  0.3566
 5457SOL    HW227831   2.277   1.023   6.337 -0.5278  0.4587  0.4149
 5458SOL     OW27832   3.491   3.203  10.569  0.6450 -0.4872  0.8874
 5458SOL    HW127833   3.402   3.226  10.596  0.0949 -0.0395 -1.3305
 5458SOL    HW227834   3.477   3.132  10.506  3.1371  0.7671 -1.0706
 5459SOL     OW27835   2.168   1.234   7.765  0.8956  0.0793 -0.2671
 5459SOL    HW127836   2.215   1.152   7.756 -0.3578 -0.7944  1.0943
 5459SOL    HW227837   2.126   1.214   7.849  0.8596 -0.7289 -0.4821
 5460SOL     OW27838   2.890   3.705   7.987  0.9896  0.8506  0.5423
 5460SOL    HW127839   2.923   3.790   8.015  1.7193  0.7284  0.0366
 5460SOL    HW227840   2.950   3.646   8.033 -0.2880 -0.5200  0.4821
 5461SOL     OW27841   4.687   4.124   6.890 -0.0586 -0.1860 -0.0968
 5461SOL    HW127842   4.598   4.093   6.872  0.3237 -0.5164 -1.3782
 5461SOL    HW227843   4.671   4.200   6.946  0.5809 -0.8296  0.9703
 5462SOL     OW27844   0.070   1.342   5.849  0.2169  0.0945 -0.0698
 5462SOL    HW127845   0.158   1.356   5.812 -0.6075 -0.2016 -2.1495
 5462SOL    HW227846   0.044   1.288   5.774 -0.5041  1.7081 -0.9827
 5463SOL     OW27847   3.130   0.192   2.190 -0.5142  0.1510 -0.8206
 5463SOL    HW127848   3.128   0.268   2.247 -2.1639 -1.2099  0.9052
 5463SOL    HW227849   3.187   0.222   2.118 -0.1156 -2.6904 -1.7050
 5464SOL     OW27850   4.488   4.195  17.088 -0.1701 -0.2738  0.3001
 5464SOL    HW127851   4.571   4.225  17.052  0.6014 -1.3247  1.2169
 5464SOL    HW227852   4.467   4.121  17.032 -1.1583 -1.2839  2.0141
 5465SOL     OW27853   4.149   0.595   5.743 -0.4748 -0.2358  0.6738
 5465SOL    HW127854   4.092   0.629   5.674 -3.2603 -4.3257  0.9261
 5465SOL    HW227855   4.235   0.636   5.739 -0.9951  0.6987 -0.7721
 5466SOL     OW27856   2.979   0.376   4.893  0.3426  0.0411  0.1417
 5466SOL    HW127857   2.989   0.445   4.958  0.7327  2.1594 -2.1753
 5466SOL    HW227858   2.934   0.305   4.938  0.6945 -0.2672  0.0045
 5467SOL     OW27859   3.030   0.487  11.010  0.0091 -0.3097 -0.3193
 5467SOL    HW127860   2.965   0.545  10.971 -0.0859  0.4720  0.9887
 5467SOL    HW227861   3.066   0.546  11.076 -2.4766  1.0148 -0.1650
 5468SOL     OW27862   2.238   1.509   9.354  0.2821  0.8953  0.2034
 5468SOL    HW127863   2.324   1.466   9.357 -0.0331  0.2041 -0.8204
 5468SOL    HW227864   2.252   1.593   9.398  0.2997  1.0244 -0.0468
 5469SOL     OW27865   2.299   1.938  17.177 -0.5761  0.5151 -0.1866
 5469SOL    HW127866   2.224   1.881  17.162  0.2061 -1.0639  1.8618
 5469SOL    HW227867   2.307   1.928  17.272 -0.5517  4.0252  0.1706
 5470SOL     OW27868   4.404   2.584   2.909 -0.5699  0.0853 -0.1108
 5470SOL    HW127869   4.497   2.596   2.928 -0.6542 -1.2694  1.1808
 5470SOL    HW227870   4.402   2.494   2.875 -0.1460 -0.5345  1.5058
 5471SOL     OW27871   1.193   1.741  11.334  0.8486  0.2922 -0.0700
 5471SOL    HW127872   1.159   1.780  11.254  0.4620  0.4243  0.1623
 5471SOL    HW227873   1.287   1.723  11.322  0.6561 -0.3772 -0.6012
 5472SOL     OW27874   2.974   2.471  12.421  0.0832 -0.3150 -0.4365
 5472SOL    HW127875   2.891   2.517  12.432 -0.3987 -0.8412 -1.8200
 5472SOL    HW227876   2.980   2.467  12.516  0.1321  0.2445 -0.4146
 5473SOL     OW27877   0.209   4.332   8.852 -0.4529  0.9108  0.0591
 5473SOL    HW127878   0.236   4.261   8.794 -3.3857  0.1077 -0.3243
 5473SOL    HW227879   0.254   4.303   8.932  1.8624  0.0351 -1.5686
 5474SOL     OW27880   0.308   4.420   2.028  0.1085  0.0929  0.2750
 5474SOL    HW127881   0.212   4.420   2.036  0.0311  0.0368 -0.7129
 5474SOL    HW227882   0.323   4.334   2.066 -2.0957 -1.2092 -1.8037
 5475SOL     OW27883   1.922   2.077   4.077 -0.0450  0.1709  1.0209
 5475SOL    HW127884   1.989   2.140   4.050 -0.1598  0.7027  1.9723
 5475SOL    HW227885   1.850   2.137   4.094 -1.3840 -1.8421  2.3941
 5476SOL     OW27886   3.424   2.802   4.305  0.0131 -0.3887 -0.8540
 5476SOL    HW127887   3.505   2.766   4.341  0.5210 -0.6811 -2.2598
 5476SOL    HW227888   3.367   2.726   4.314 -0.7926  0.2776 -0.3045
 5477SOL     OW27889   3.138   1.570   0.723  0.3348  0.9341  0.1445
 5477SOL    HW127890   3.179   1.648   0.686  1.4046  0.0861 -0.4765
 5477SOL    HW227891   3.106   1.601   0.807  1.3713  0.7154  0.6118
 5478SOL     OW27892   1.366   3.357   1.065  0.3383  0.7204  0.2582
 5478SOL    HW127893   1.426   3.321   0.999 -0.1465  0.6154 -0.1257
 5478SOL    HW227894   1.424   3.379   1.138  0.5588  0.5310  0.1412
 5479SOL     OW27895   2.032   2.792   5.996  0.4189 -0.1541  0.0090
 5479SOL    HW127896   2.073   2.738   5.928 -0.6398 -0.8082 -0.1024
 5479SOL    HW227897   2.003   2.720   6.052 -1.1018  0.8622  0.5077
 5480SOL     OW27898   3.028   1.817  12.645 -0.0082  0.3371  0.5809
 5480SOL    HW127899   3.053   1.887  12.584 -0.4069 -0.0854 -0.0626
 5480SOL    HW227900   3.108   1.765  12.634 -0.6534 -0.3095 -1.1803
 5481SOL     OW27901   0.654   1.966  16.638 -0.6683  0.3044 -0.0702
 5481SOL    HW127902   0.642   1.924  16.553 -2.0170  1.0276 -0.2290
 5481SOL    HW227903   0.725   1.910  16.671  0.1499  2.0645  1.1980
 5482SOL     OW27904   3.114   2.700   4.595  0.1391 -0.7180  0.5167
 5482SOL    HW127905   3.187   2.738   4.644  0.2813 -0.3100 -0.0097
 5482SOL    HW227906   3.099   2.616   4.638 -1.9505 -0.5783  0.0565
 5483SOL     OW27907   0.804   1.910   3.818  0.0720  0.4548  0.3239
 5483SOL    HW127908   0.840   1.835   3.864 -1.5595 -0.5462 -0.0269
 5483SOL    HW227909   0.884   1.956   3.791 -0.0038  1.6263  2.0789
 5484SOL     OW27910   1.373   2.365   6.112  0.4312 -0.0235  0.1504
 5484SOL    HW127911   1.293   2.347   6.063 -0.7194  0.3099  1.9273
 5484SOL    HW227912   1.391   2.454   6.080  0.7306  0.2623  1.1286
 5485SOL     OW27913   1.381   2.712  10.409 -0.8482 -0.5015  0.0945
 5485SOL    HW127914   1.475   2.728  10.409 -0.9110 -0.1654 -3.5439
 5485SOL    HW227915   1.372   2.623  10.443 -2.5838  0.4485  2.1442
 5486SOL     OW27916   1.464   1.239   4.031  0.0796  0.4037  0.8713
 5486SOL    HW127917   1.412   1.235   3.950  0.8557 -1.6754  0.4645
 5486SOL    HW227918   1.509   1.323   4.020  0.7953  0.0715  1.2709
 5487SOL     OW27919   2.583   0.808  17.409 -0.3164  0.5767  0.1736
 5487SOL    HW127920   2.672   0.802  17.442 -0.3122  2.1722  0.4607
 5487SOL    HW227921   2.584   0.882  17.349 -1.2727  0.9035  0.5592
 5488SOL     OW27922   4.064   4.512   3.522  0.3318 -0.3429  0.4360
 5488SOL    HW127923   4.104   4.552   3.445  1.3148 -0.5201  0.8536
 5488SOL    HW227924   3.978   4.548   3.501  0.6963 -0.0641 -0.5857
 5489SOL     OW27925   0.967   0.712   4.774  0.2810 -0.1685  0.4034
 5489SOL    HW127926   0.968   0.778   4.705  0.2261 -1.3517 -0.7347
 5489SOL    HW227927   0.925   0.757   4.847 -1.8599 -1.6467  0.0589
 5490SOL     OW27928   4.153   3.674   6.759  0.7728  0.2044 -0.1034
 5490SOL    HW127929   4.101   3.755   6.759  0.4353 -0.0042 -1.8347
 5490SOL    HW227930   4.167   3.665   6.664 -2.9112 -2.9795 -0.3523
 5491SOL     OW27931   3.920   1.886   3.170  0.8052 -0.5675 -0.3939
 5491SOL    HW127932   3.920   1.807   3.225 -1.2183 -0.5764 -0.3932
 5491SOL    HW227933   4.006   1.922   3.188  0.0526  0.5520  0.9357
 5492SOL     OW27934   4.331   2.504   6.114 -0.0167 -0.7341 -0.2273
 5492SOL    HW127935   4.336   2.545   6.027  0.9198 -0.0034  0.1715
 5492SOL    HW227936   4.424   2.483   6.129 -0.0355 -1.5680 -1.2000
 5493SOL     OW27937   1.916   1.609   8.462 -0.4802  0.2448 -0.4235
 5493SOL    HW127938   1.825   1.639   8.457 -0.5764  0.2663  1.3939
 5493SOL    HW227939   1.917   1.520   8.498  0.7064  0.3845 -0.1146
 5494SOL     OW27940   3.940   3.495   0.085  0.0377 -0.2607  0.3163
 5494SOL    HW127941   3.923   3.564   0.149  0.7210  1.4369 -1.2944
 5494SOL    HW227942   3.915   3.418   0.134 -1.8979  1.6021  2.2423
 5495SOL     OW27943   3.120   3.868   0.029  0.0552  0.0120  0.3997
 5495SOL    HW127944   3.070   3.940   0.067 -0.2663 -0.5840  1.1038
 5495SOL    HW227945   3.119   3.902  17.634  4.0513 -5.4328 -1.6698
 5496SOL     OW27946   0.646   2.144   0.945  0.0007 -0.1905  0.1881
 5496SOL    HW127947   0.684   2.152   0.857 -1.5704 -1.7428 -0.6532
 5496SOL    HW227948   0.722   2.186   0.983  0.1294 -0.5357  0.3091
 5497SOL     OW27949   4.671   3.597   8.260 -0.0604 -0.0246 -0.3629
 5497SOL    HW127950   4.662   3.574   8.353 -0.6903 -1.8880 -0.8698
 5497SOL    HW227951   4.652   3.507   8.232  1.3624 -1.3293  2.7624
 5498SOL     OW27952   2.355   2.408  11.547  0.3557  0.0117 -0.3602
 5498SOL    HW127953   2.406   2.489  11.551 -3.6583  2.6756 -3.3401
 5498SOL    HW227954   2.382   2.365  11.628 -0.3100  1.4703  0.6402
 5499SOL     OW27955   1.989   3.746   6.831  0.1903  0.1360  0.0100
 5499SOL    HW127956   2.082   3.767   6.842  0.1775  0.9587 -1.4084
 5499SOL    HW227957   1.994   3.651   6.833 -0.3273  0.1509  1.8714
 5500SOL     OW27958   4.090   3.405   3.829 -0.2178  0.5193  0.3774
 5500SOL    HW127959   3.996   3.425   3.825 -0.5324 -0.8205  1.0167
 5500SOL    HW227960   4.106   3.313   3.807  1.8168  0.7763  0.8639
 5501SOL     OW27961   3.014   2.541   4.868 -0.4780 -1.1226  0.3233
 5501SOL    HW127962   2.929   2.583   4.852 -0.0648 -0.1559  0.6807
 5501SOL    HW227963   3.025   2.484   4.792 -2.1087  0.5282 -1.1433
 5502SOL     OW27964   0.369   1.720   3.782 -0.0414 -0.1614 -0.4493
 5502SOL    HW127965   0.419   1.800   3.766 -1.2926  0.3684 -1.7265
 5502SOL    HW227966   0.436   1.658   3.752  2.4437  2.5147 -0.3478
 5503SOL     OW27967   4.590   2.494   8.895  0.0684 -0.1311  0.5347
 5503SOL    HW127968   4.542   2.573   8.868  1.1057  0.3432  0.0796
 5503SOL    HW227969   4.666   2.495   8.837 -0.3320  2.2239  0.0415
 5504SOL     OW27970   4.337   1.815   3.251 -0.8407  0.1896 -0.2526
 5504SOL    HW127971   4.259   1.866   3.231  0.3525  1.2357 -2.2364
 5504SOL    HW227972   4.406   1.870   3.214  3.4627 -3.6401  1.9907
 5505SOL     OW27973   1.978   1.864  10.026 -0.2270  0.1998 -0.3571
 5505SOL    HW127974   1.921   1.853   9.949  0.0021  1.9876 -0.7969
 5505SOL    HW227975   1.929   1.825  10.098  1.2215 -0.3382  0.3360
 5506SOL     OW27976   0.561   2.294   8.899  0.5452 -0.1783  0.1807
 5506SOL    HW127977   0.624   2.247   8.953  0.7956  0.4452  0.4356
 5506SOL    HW227978   0.554   2.239   8.821 -1.2954 -0.9548  0.8935
 5507SOL     OW27979   3.130   2.002   4.964 -0.0453  0.0294  0.1219
 5507SOL    HW127980   3.111   1.910   4.946  0.3100  0.4761 -2.4205
 5507SOL    HW227981   3.046   2.037   4.995 -1.7439 -1.3294 -2.9866
 5508SOL     OW27982   4.426   4.531   7.669 -0.3571 -0.0885  0.0665
 5508SOL    HW127983   4.336   4.538   7.636 -0.7755  0.5518  1.3559
 5508SOL    HW227984   4.483   4.581   7.611 -0.8793  3.3994  2.6175
 5509SOL     OW27985   2.598   1.291  13.850  0.0286 -0.5163  0.4665
 5509SOL    HW127986   2.616   1.223  13.785 -2.2332  1.8319 -2.6133
 5509SOL    HW227987   2.535   1.348  13.804 -0.2530 -0.0565  1.4287
 5510SOL     OW27988   1.524   2.909   1.931  0.6723 -0.4690 -0.1809
 5510SOL    HW127989   1.585   2.863   1.874 -0.6176 -1.0587 -1.0820
 5510SOL    HW227990   1.447   2.914   1.874  0.3636 -0.5071  0.2305
 5511SOL     OW27991   2.868   3.291  11.545 -0.0970 -0.2910  0.3396
 5511SOL    HW127992   2.797   3.353  11.560 -0.9673 -1.1307 -0.3392
 5511SOL    HW227993   2.927   3.342  11.489 -0.5279  0.9215  0.9894
 5512SOL     OW27994   3.265   1.937  15.675 -0.1221 -0.4073  0.1712
 5512SOL    HW127995   3.254   1.851  15.716 -1.3467  0.4028  1.5436
 5512SOL    HW227996   3.189   1.932  15.618 -1.5438 -0.5700  2.0629
 5513SOL     OW27997   3.100   0.361  14.419  0.2828  0.2792  0.3862
 5513SOL    HW127998   3.036   0.400  14.359  0.5887  0.2155  0.0180
 5513SOL    HW227999   3.187   0.381  14.384 -0.1999  2.0514  0.1903
 5514SOL     OW28000   3.017   3.256  16.896  0.1630 -0.0720  0.1449
 5514SOL    HW128001   2.936   3.235  16.851  0.6749 -1.4977 -0.1056
 5514SOL    HW228002   3.021   3.349  16.875 -1.6556  0.0882  0.5206
 5515SOL     OW28003   1.361   1.335   5.723  0.0272  0.6402  0.3596
 5515SOL    HW128004   1.411   1.372   5.797 -1.3126  2.2671  0.4408
 5515SOL    HW228005   1.437   1.296   5.678 -1.9998 -2.8750  0.0223
 5516SOL     OW28006   2.687   1.233   3.354 -0.5046  0.2291  0.0749
 5516SOL    HW128007   2.775   1.196   3.343 -1.1264 -1.3366  0.3343
 5516SOL    HW228008   2.664   1.213   3.263  2.1732  0.5556 -0.6847
 5517SOL     OW28009   2.986   3.875   3.331  0.2565  0.2710 -0.2675
 5517SOL    HW128010   2.965   3.814   3.260 -2.1627  3.0153 -1.9258
 5517SOL    HW228011   2.939   3.816   3.390 -1.1330  3.2889  1.6398
 5518SOL     OW28012   0.090   0.388   0.863  0.9242 -0.0164 -0.2505
 5518SOL    HW128013   0.001   0.394   0.898  0.1130  1.5021 -2.5790
 5518SOL    HW228014   0.141   0.387   0.944  0.5614 -0.3857 -0.0262
 5519SOL     OW28015   3.744   3.536   6.931  0.0678  0.0180  0.5775
 5519SOL    HW128016   3.825   3.530   6.880  0.8735  0.4500  1.8131
 5519SOL    HW228017   3.762   3.605   6.994 -4.5848 -0.1676  2.1438
 5520SOL     OW28018   0.310   0.082  10.857  0.0632 -0.4178 -0.5078
 5520SOL    HW128019   0.271   0.149  10.914 -2.2452  0.2511 -2.9005
 5520SOL    HW228020   0.310   0.012  10.922  0.9597 -1.1943 -1.3345
 5521SOL     OW28021   1.183   4.594   8.796  0.2525  0.0283 -0.0312
 5521SOL    HW128022   1.112   4.656   8.812  0.6386  1.0339 -2.2842
 5521SOL    HW228023   1.144   4.516   8.835 -0.6657  1.5091  2.0611
 5522SOL     OW28024   4.664   3.724   2.004 -0.3795 -0.1295 -0.2782
 5522SOL    HW128025   4.612   3.645   1.992 -1.7588  1.0802 -2.3094
 5522SOL    HW228026   0.000   3.717   1.929 -0.4654  0.2512 -0.3860
 5523SOL     OW28027   0.404   4.079  11.839 -0.6805  0.3896 -0.0177
 5523SOL    HW128028   0.383   4.064  11.932  3.3256  0.2887  0.8571
 5523SOL    HW228029   0.492   4.115  11.851 -0.9538  0.6834  1.1577
 5524SOL     OW28030   2.480   2.190  11.425  0.3132  0.0410 -0.4888
 5524SOL    HW128031   2.442   2.274  11.450  1.3151 -0.1891  1.8827
 5524SOL    HW228032   2.519   2.170  11.511  0.3513  0.6828 -0.3550
 5525SOL     OW28033   3.633   4.613   5.874 -0.0561  0.1276  0.2599
 5525SOL    HW128034   3.697   4.566   5.822  0.3238  1.4095 -0.4398
 5525SOL    HW228035   3.663   4.602   5.964  1.7541 -2.7760 -0.7263
 5526SOL     OW28036   0.422   4.029   2.921  0.4883 -0.5990 -0.1636
 5526SOL    HW128037   0.365   4.041   2.997  1.7819 -2.2593  1.0645
 5526SOL    HW228038   0.484   3.971   2.964 -2.1021 -2.0956  1.4992
 5527SOL     OW28039   1.187   1.731  16.032  0.2974 -0.0029  0.4439
 5527SOL    HW128040   1.280   1.734  16.056  0.3843  1.1041 -0.0324
 5527SOL    HW228041   1.181   1.801  15.968  0.6449 -0.4003 -0.0266
 5528SOL     OW28042   1.521   1.133   1.112  0.3262 -0.1016 -0.1311
 5528SOL    HW128043   1.528   1.101   1.022 -1.5292 -0.2717 -0.2081
 5528SOL    HW228044   1.427   1.138   1.128  0.5325 -0.0995  1.1190
 5529SOL     OW28045   1.417   4.185   5.063  0.2262  0.2477 -0.8777
 5529SOL    HW128046   1.374   4.147   4.986 -2.4183  0.9382  0.2604
 5529SOL    HW228047   1.435   4.274   5.033  0.8681  0.9407  1.5953
 5530SOL     OW28048   1.054   3.424   2.841 -0.6429 -0.4455 -0.2921
 5530SOL    HW128049   1.039   3.518   2.849 -1.4553 -0.6751  0.8936
 5530SOL    HW228050   1.104   3.419   2.923 -0.7607  0.5079 -0.1616
 5531SOL     OW28051   2.162   1.543  16.209  0.1760 -0.5837 -0.3635
 5531SOL    HW128052   2.236   1.515  16.263 -1.4762  0.0071  2.1805
 5531SOL    HW228053   2.156   1.480  16.137  1.5389  0.3751 -1.3176
 5532SOL     OW28054   1.687   3.682   4.219 -0.0125 -0.0697  0.2860
 5532SOL    HW128055   1.631   3.644   4.151  0.1598 -0.4931  0.3850
 5532SOL    HW228056   1.661   3.774   4.220 -1.6332 -0.5358  2.0427
 5533SOL     OW28057   0.762   1.259   7.206  0.1868 -0.0100 -0.4713
 5533SOL    HW128058   0.827   1.208   7.255  2.1612 -0.3015 -3.4587
 5533SOL    HW228059   0.790   1.348   7.227 -1.8333 -0.2304  3.2360
 5534SOL     OW28060   2.147   4.347   6.567 -0.1763 -0.1477  0.9416
 5534SOL    HW128061   2.157   4.327   6.474  0.0254 -0.4158  1.0217
 5534SOL    HW228062   2.237   4.338   6.599  1.0922  0.5143 -2.4370
 5535SOL     OW28063   2.643   1.852   6.321 -0.3544  0.0002 -0.5164
 5535SOL    HW128064   2.732   1.882   6.304 -0.4699  1.1064  0.7876
 5535SOL    HW228065   2.607   1.898   6.245 -0.4784 -1.5199 -1.3754
 5536SOL     OW28066   4.039   3.874   4.862  0.2638  0.0263  0.4026
 5536SOL    HW128067   4.106   3.870   4.794 -0.0369 -0.7082  0.1604
 5536SOL    HW228068   3.993   3.793   4.843  1.0068  0.1372 -1.8260
 5537SOL     OW28069   1.347   3.438  17.547  0.2488 -0.2210 -0.0404
 5537SOL    HW128070   1.269   3.474  17.589 -0.2241 -3.4956  1.9102
 5537SOL    HW228071   1.381   3.506  17.489  1.2203 -0.5954  0.0759
 5538SOL     OW28072   3.612   1.387   3.728  0.1082 -0.1275 -0.6730
 5538SOL    HW128073   3.633   1.470   3.770 -0.9334 -0.2277  0.0341
 5538SOL    HW228074   3.559   1.420   3.655 -1.3156  1.7248  1.1857
 5539SOL     OW28075   1.582   1.083  12.826 -0.6793  0.0543  0.0997
 5539SOL    HW128076   1.633   1.144  12.879  0.7429 -0.1545 -1.0144
 5539SOL    HW228077   1.567   1.023  12.899 -0.4374 -0.4996 -0.3063
 5540SOL     OW28078   1.078   1.708   4.478 -0.1835  0.5934 -0.1869
 5540SOL    HW128079   1.121   1.627   4.450 -0.7587  1.0727 -2.4594
 5540SOL    HW228080   1.148   1.771   4.460 -0.4430  1.4061  1.6390
 5541SOL     OW28081   4.508   1.374   3.629  0.3787 -0.1312 -0.1659
 5541SOL    HW128082   4.421   1.359   3.591  0.5976 -1.4203 -0.1554
 5541SOL    HW228083   4.560   1.396   3.551  2.3815  1.3756  1.6076
 5542SOL     OW28084   1.769   3.117   0.821 -0.4733 -0.0853  0.1932
 5542SOL    HW128085   1.854   3.081   0.846 -0.2739 -0.7243 -1.4093
 5542SOL    HW228086   1.711   3.043   0.839  0.7673 -1.9099 -3.4031
 5543SOL     OW28087   4.057   3.357   4.338  0.0810  0.0444 -0.2369
 5543SOL    HW128088   4.010   3.300   4.277  0.5148 -0.2482 -0.2963
 5543SOL    HW228089   4.125   3.304   4.378 -1.5475  0.0086  2.4433
 5544SOL     OW28090   1.430   0.418   4.764 -0.7838  0.1746 -0.6260
 5544SOL    HW128091   1.388   0.349   4.714 -0.5772 -1.4624  1.4649
 5544SOL    HW228092   1.353   0.474   4.776  1.1842  2.7458  0.1536
 5545SOL     OW28093   2.158   3.504   2.095  0.1815  0.0944 -0.4985
 5545SOL    HW128094   2.117   3.538   2.175 -0.5674 -1.9504 -0.0087
 5545SOL    HW228095   2.096   3.522   2.025 -0.3577  0.4312  0.0645
 5546SOL     OW28096   2.548   4.076  13.797 -0.2455  0.2993 -0.0547
 5546SOL    HW128097   2.631   4.100  13.757 -0.4393  1.5927  0.3279
 5546SOL    HW228098   2.490   4.053  13.724 -0.0438 -1.3594  0.2921
 5547SOL     OW28099   4.479   0.999   5.395 -0.9489  0.8470 -0.0790
 5547SOL    HW128100   4.557   1.028   5.442  0.6949 -0.1630 -2.1664
 5547SOL    HW228101   4.455   1.078   5.346  2.8439  1.6680 -0.6244
 5548SOL     OW28102   1.051   3.539   1.826  0.0286 -0.4485  0.0366
 5548SOL    HW128103   0.971   3.540   1.879 -0.5085 -2.1577 -0.7278
 5548SOL    HW228104   1.100   3.595   1.887  0.2855 -0.1758 -0.4238
 5549SOL     OW28105   0.904   3.656   3.330 -0.0224  0.2440 -0.2786
 5549SOL    HW128106   0.898   3.622   3.241 -1.8045  0.6334 -0.3066
 5549SOL    HW228107   0.992   3.691   3.336  0.9291 -1.5748 -3.6096
 5550SOL     OW28108   3.468   4.477   0.097  0.4637 -0.7126  0.0734
 5550SOL    HW128109   3.535   4.436   0.153 -1.2166 -1.1713  1.7224
 5550SOL    HW228110   3.518   4.461   0.017  2.0548  0.3576  0.8451
 5551SOL     OW28111   0.494   4.254   5.013 -0.4150 -0.4539 -0.2248
 5551SOL    HW128112   0.536   4.282   4.931  0.6823  0.5190  0.6788
 5551SOL    HW228113   0.547   4.176   5.031  0.4123  0.6701  2.2369
 5552SOL     OW28114   1.489   2.710   7.733  0.0836 -0.1351  0.5854
 5552SOL    HW128115   1.557   2.644   7.744  1.2630  1.1270  0.8695
 5552SOL    HW228116   1.500   2.773   7.804 -0.4756  0.7167 -0.0820
 5553SOL     OW28117   0.112   0.417   5.418  0.0131 -0.2079 -0.4675
 5553SOL    HW128118   0.198   0.390   5.387 -0.9047 -3.6147 -0.0515
 5553SOL    HW228119   0.095   0.387   5.507 -1.1615  0.9472 -0.2915
 5554SOL     OW28120   0.993   4.190   5.733  0.3236 -0.1461  0.1525
 5554SOL    HW128121   0.911   4.237   5.717  0.5491  1.2827  3.2443
 5554SOL    HW228122   0.989   4.108   5.685 -2.0485 -0.5318  0.9992
 5555SOL     OW28123   3.501   3.756   5.237  0.0416 -1.1424 -0.0749
 5555SOL    HW128124   3.527   3.718   5.321 -1.3505 -0.6607  0.5722
 5555SOL    HW228125   3.466   3.678   5.194 -0.6703 -0.6602 -0.3628
 5556SOL     OW28126   2.720   4.680   7.147 -0.7231 -0.4142 -0.1536
 5556SOL    HW128127   2.627   4.687   7.128 -0.6336 -2.0033 -1.2256
 5556SOL    HW228128   2.724   4.643   7.235  1.3903 -0.1248 -0.1269
 5557SOL     OW28129   4.466   2.123   8.212  0.1086  0.2077 -0.6717
 5557SOL    HW128130   4.449   2.113   8.118 -0.4731  1.4805 -0.6986
 5557SOL    HW228131   4.539   2.185   8.204  0.1874  0.2879  0.6957
 5558SOL     OW28132   3.425   4.617   8.086  0.1905 -0.2871  0.5050
 5558SOL    HW128133   3.495   4.623   8.020  0.1929 -1.0219  0.4402
 5558SOL    HW228134   3.454   4.672   8.158 -1.5435 -1.2745  1.9424
 5559SOL     OW28135   2.242   0.863   3.136 -0.3955 -0.2694 -0.5125
 5559SOL    HW128136   2.195   0.895   3.059 -1.5969  0.5085  0.5349
 5559SOL    HW228137   2.325   0.831   3.102 -1.1175 -1.2567 -1.3394
 5560SOL     OW28138   3.766   4.527   5.421  0.2933  0.1159 -0.2674
 5560SOL    HW128139   3.830   4.470   5.463 -0.6500 -0.3115  0.6020
 5560SOL    HW228140   3.698   4.465   5.398  0.5247 -0.1960 -0.1064
 5561SOL     OW28141   4.472   4.221   5.321 -0.3044 -0.0354 -0.2263
 5561SOL    HW128142   4.546   4.253   5.373 -1.5718  0.8034  1.0381
 5561SOL    HW228143   4.516   4.142   5.289  2.8910  1.9093 -0.6423
 5562SOL     OW28144   2.435   2.207   9.177  0.1898  0.2652 -0.1097
 5562SOL    HW128145   2.453   2.285   9.125  0.3422 -0.0364 -0.5031
 5562SOL    HW228146   2.515   2.159   9.158 -1.1203 -0.8426 -2.7052
 5563SOL     OW28147   3.454   0.489  11.852 -0.6631 -0.1658 -0.4243
 5563SOL    HW128148   3.413   0.545  11.917 -2.2627  0.6118 -2.1132
 5563SOL    HW228149   3.432   0.540  11.775 -0.9401 -1.6054 -1.2864
 5564SOL     OW28150   2.677   3.569  10.475 -0.3448 -0.0262  0.8006
 5564SOL    HW128151   2.750   3.583  10.415 -0.3403  0.7048  0.9747
 5564SOL    HW228152   2.610   3.583  10.409  0.0741  0.0604  0.3954
 5565SOL     OW28153   3.955   1.677   3.381  0.1533 -0.1989 -0.4882
 5565SOL    HW128154   3.967   1.592   3.338  1.9577 -0.1783 -0.0426
 5565SOL    HW228155   4.026   1.666   3.445 -0.1427 -3.0170 -0.6590
 5566SOL     OW28156   0.358   2.416  13.555  0.1558 -0.3372  0.2760
 5566SOL    HW128157   0.271   2.401  13.518 -0.4761  0.4720  1.4370
 5566SOL    HW228158   0.376   2.500  13.513 -1.2692  0.7581  1.8520
 5567SOL     OW28159   3.521   4.028   5.475  0.4144  0.4904  0.2961
 5567SOL    HW128160   3.612   4.003   5.461  0.4370  1.2691 -0.9273
 5567SOL    HW228161   3.489   4.037   5.385  0.6813 -3.0581 -0.1500
 5568SOL     OW28162   0.277   2.476   2.920 -0.1813 -0.4831  0.3659
 5568SOL    HW128163   0.263   2.571   2.922 -1.2525 -0.5748 -2.4724
 5568SOL    HW228164   0.251   2.455   2.830 -1.5695 -1.7498  1.0665
 5569SOL     OW28165   1.620   4.348   0.044  0.0534  0.1281  0.4058
 5569SOL    HW128166   1.646   4.264   0.006 -1.7029 -0.1729 -0.1432
 5569SOL    HW228167   1.534   4.333   0.084 -1.0640  0.0994 -2.0100
 5570SOL     OW28168   1.516   0.432   5.268  0.3358  0.3053  0.2557
 5570SOL    HW128169   1.463   0.381   5.207  0.3998 -1.5018  1.7162
 5570SOL    HW228170   1.452   0.443   5.338  0.0912  0.8493 -0.0514
 5571SOL     OW28171   1.819   0.942   2.440  0.5513 -0.5899 -0.2836
 5571SOL    HW128172   1.826   0.972   2.530  0.5153  0.6111 -0.6754
 5571SOL    HW228173   1.897   0.887   2.439  1.5167  0.7777  0.2269
 5572SOL     OW28174   3.453   0.181   4.779 -0.1266 -0.3509 -0.1007
 5572SOL    HW128175   3.538   0.201   4.820  0.0009 -2.3006  0.5618
 5572SOL    HW228176   3.400   0.232   4.840  0.6228 -1.8913  1.8673
 5573SOL     OW28177   0.374   4.025   1.383 -0.3811  0.0356  0.1459
 5573SOL    HW128178   0.403   3.951   1.329 -1.7487 -1.5500  1.5958
 5573SOL    HW228179   0.311   3.987   1.444  0.2666 -2.7277 -0.9218
 5574SOL     OW28180   2.442   2.366   3.241  0.3171 -0.1049 -0.4750
 5574SOL    HW128181   2.526   2.391   3.280 -0.3930  2.5268 -0.6734
 5574SOL    HW228182   2.389   2.386   3.318 -0.0062 -0.4131 -0.6156
 5575SOL     OW28183   3.966   0.780  10.957 -0.1372  0.1803 -0.3843
 5575SOL    HW128184   4.046   0.785  10.905 -0.5273  0.8723 -0.9024
 5575SOL    HW228185   3.992   0.837  11.029 -2.5732  1.6124 -0.6430
 5576SOL     OW28186   0.109   0.950   7.805 -0.4007  0.2053 -0.1626
 5576SOL    HW128187   0.150   0.949   7.719 -0.3454  1.9159 -0.1461
 5576SOL    HW228188   0.154   1.028   7.837 -0.5872  1.0648 -2.0285
 5577SOL     OW28189   4.516   3.284  17.680  0.4016 -0.7132 -0.5117
 5577SOL    HW128190   4.584   3.283   0.053  0.5857 -0.3747 -0.6921
 5577SOL    HW228191   4.533   3.362  17.627 -0.7660  0.3993  0.7589
 5578SOL     OW28192   2.847   3.304  10.024  0.9252  0.3460 -0.3987
 5578SOL    HW128193   2.799   3.225  10.048  0.7351 -0.3275 -2.9873
 5578SOL    HW228194   2.776   3.366  10.007  1.1297  0.4840 -0.7752
 5579SOL     OW28195   0.357   2.441   9.988 -0.5416  0.2836 -0.1681
 5579SOL    HW128196   0.381   2.499   9.916 -0.2835  1.9316  1.2651
 5579SOL    HW228197   0.275   2.410   9.949  1.5708 -2.0017 -2.7728
 5580SOL     OW28198   2.236   3.610   2.760  0.3000 -0.1927 -0.4430
 5580SOL    HW128199   2.168   3.626   2.825  1.8012 -0.0545  1.0812
 5580SOL    HW228200   2.212   3.523   2.729 -1.7198  0.4254 -0.6271
 5581SOL     OW28201   2.654   1.238  15.243 -0.2256  0.2994 -0.3996
 5581SOL    HW128202   2.708   1.288  15.304 -1.3932 -1.5182  2.1301
 5581SOL    HW228203   2.571   1.258  15.287 -0.1027 -2.5713  1.1150
 5582SOL     OW28204   0.490   2.493   6.984 -0.4111 -0.0846  0.3561
 5582SOL    HW128205   0.585   2.501   6.979 -0.3985 -0.9388 -0.8190
 5582SOL    HW228206   0.483   2.487   7.080  0.0624  1.3270  0.4790
 5583SOL     OW28207   3.293   1.435  10.694  0.4063 -0.0563  0.1482
 5583SOL    HW128208   3.297   1.464  10.785 -1.1663  0.2375  0.1256
 5583SOL    HW228209   3.199   1.454  10.685  0.2529 -0.8507  0.0545
 5584SOL     OW28210   3.569   0.635   8.842 -0.1847 -0.2751  0.1959
 5584SOL    HW128211   3.620   0.564   8.802  1.6563  0.2045  1.7187
 5584SOL    HW228212   3.546   0.588   8.922  1.5289 -1.0734  0.2310
 5585SOL     OW28213   1.475   1.619   8.087 -0.0729  0.3217  0.1131
 5585SOL    HW128214   1.390   1.645   8.123  0.7743  1.3709  1.3672
 5585SOL    HW228215   1.505   1.555   8.152 -0.6876  1.0625  1.1285
 5586SOL     OW28216   4.091   3.990   5.710  1.2089  0.0486 -0.1838
 5586SOL    HW128217   4.165   4.018   5.765 -0.7607  1.1905  1.8495
 5586SOL    HW228218   4.129   3.908   5.676  0.5600 -0.6320  0.7175
 5587SOL     OW28219   2.912   3.086   4.832 -0.4071 -0.7870  0.6064
 5587SOL    HW128220   2.940   3.118   4.746 -0.3757  0.1368  0.9613
 5587SOL    HW228221   2.817   3.089   4.823 -0.6912 -0.9639  3.6262
 5588SOL     OW28222   0.463   0.022   5.503  0.3392  0.2216  0.2107
 5588SOL    HW128223   0.409   4.692   5.562  1.1996 -1.1457 -0.2311
 5588SOL    HW228224   0.543   4.692   5.506  0.4235  0.4590  1.8872
 5589SOL     OW28225   1.393   0.395   3.439 -0.2272 -0.5518  0.3148
 5589SOL    HW128226   1.362   0.436   3.358 -1.5377 -1.0765  0.5488
 5589SOL    HW228227   1.315   0.393   3.495 -0.1530 -1.5053  0.3776
 5590SOL     OW28228   2.202   4.350  10.965 -0.1478 -0.1948 -0.6840
 5590SOL    HW128229   2.292   4.381  10.977 -0.3527 -0.5591  1.8209
 5590SOL    HW228230   2.214   4.351  10.870  2.5751 -3.0204 -0.3649
 5591SOL     OW28231   3.903   0.566  12.691 -0.0979 -0.8800  0.1337
 5591SOL    HW128232   3.975   0.534  12.746  1.0481  2.1878  0.3950
 5591SOL    HW228233   3.905   0.507  12.616 -1.3450 -0.8966  0.1148
 5592SOL     OW28234   2.967   2.145  16.001  0.3833 -0.2447 -0.2929
 5592SOL    HW128235   2.997   2.208  16.067  1.5653 -0.1953 -0.8679
 5592SOL    HW228236   3.047   2.127  15.952 -1.2423  1.8447 -3.7269
 5593SOL     OW28237   1.004   3.895   6.291  0.1168 -0.4965 -0.1031
 5593SOL    HW128238   1.048   3.818   6.328 -1.7475 -2.3457 -1.7474
 5593SOL    HW228239   0.915   3.861   6.294  0.0354 -0.3079 -0.3814
 5594SOL     OW28240   2.660   3.753   6.465 -0.0905  0.4861 -0.0416
 5594SOL    HW128241   2.566   3.764   6.453  0.0916  0.9334 -1.0772
 5594SOL    HW228242   2.673   3.827   6.526 -0.7026  1.3821 -0.9970
 5595SOL     OW28243   3.862   0.437   9.086  0.4242 -0.5701  0.3131
 5595SOL    HW128244   3.858   0.348   9.123 -1.0117  0.5233  2.7884
 5595SOL    HW228245   3.887   0.427   8.994  2.3375  1.4247  0.6278
 5596SOL     OW28246   1.235   3.710   9.768 -0.6135  0.3303 -0.1329
 5596SOL    HW128247   1.224   3.769   9.693  1.0194  1.6529  0.6727
 5596SOL    HW228248   1.294   3.766   9.818 -1.8356 -2.0030  3.8585
 5597SOL     OW28249   0.774   3.283   9.135  0.4227  0.2179 -0.1348
 5597SOL    HW128250   0.778   3.265   9.041  1.4573  0.0955 -0.0659
 5597SOL    HW228251   0.843   3.229   9.174  1.7195  1.1762 -1.1048
 5598SOL     OW28252   1.216   1.534  12.347  0.0833  0.5974  0.0479
 5598SOL    HW128253   1.241   1.623  12.373 -2.9538  1.0450  1.4146
 5598SOL    HW228254   1.265   1.487  12.414  2.2013  1.9432 -0.5681
 5599SOL     OW28255   2.683   3.873   5.550 -0.0188  0.2084  0.1915
 5599SOL    HW128256   2.593   3.841   5.547 -0.8945  2.5772  1.0465
 5599SOL    HW228257   2.700   3.896   5.459 -1.3405 -0.5835 -0.2481
 5600SOL     OW28258   1.626   4.373   0.575  0.0784  0.1854 -0.1903
 5600SOL    HW128259   1.619   4.303   0.510 -1.2952 -0.5177  0.7101
 5600SOL    HW228260   1.718   4.398   0.572  0.1017 -0.0336 -1.2464
 5601SOL     OW28261   2.790   4.196   5.182  0.1385  0.2480 -0.3966
 5601SOL    HW128262   2.779   4.256   5.256 -2.0169  0.3576 -0.8115
 5601SOL    HW228263   2.777   4.112   5.227 -0.0862 -0.2673 -1.4352
 5602SOL     OW28264   4.261   4.633   7.372 -0.9217  0.0362  0.2405
 5602SOL    HW128265   4.216   4.609   7.454 -1.3372  0.6175  0.1836
 5602SOL    HW228266   4.289   4.547   7.341  1.7854  1.6563 -1.8459
 5603SOL     OW28267   1.502   2.219   6.378 -0.7521 -0.2746 -0.5116
 5603SOL    HW128268   1.571   2.166   6.416 -0.1961 -0.3125 -1.5746
 5603SOL    HW228269   1.427   2.166   6.406  0.5304 -2.5767 -1.5124
 5604SOL     OW28270   0.060   3.161   5.690  0.2454  0.0876 -0.0495
 5604SOL    HW128271   0.011   3.220   5.748  0.6884  1.1448 -0.7621
 5604SOL    HW228272   0.010   3.080   5.699  0.6019 -0.1877 -0.5716
 5605SOL     OW28273   1.953   3.850   3.806  0.1937  0.4985  0.1461
 5605SOL    HW128274   1.967   3.901   3.727 -0.0413 -0.1908 -0.3397
 5605SOL    HW228275   2.038   3.857   3.851  0.7013 -0.3572 -0.6844
 5606SOL     OW28276   2.026   3.782   8.069  0.2594  0.4055 -0.4721
 5606SOL    HW128277   2.116   3.814   8.081 -0.0281  0.3873  1.7843
 5606SOL    HW228278   2.041   3.690   8.091 -2.8282 -0.2264 -1.0990
 5607SOL     OW28279   2.772   0.674   5.531 -0.2686 -0.3796  0.1080
 5607SOL    HW128280   2.781   0.738   5.461 -1.9560  0.9283  1.0956
 5607SOL    HW228281   2.748   0.729   5.605 -0.3742 -1.2872  0.7499
 5608SOL     OW28282   2.740   0.208   3.064 -0.3851  0.7067 -0.2322
 5608SOL    HW128283   2.741   0.212   2.968 -1.2133 -3.6140 -0.4255
 5608SOL    HW228284   2.702   0.294   3.083  0.6177  0.7163  1.7018
 5609SOL     OW28285   2.242   1.796  14.786 -0.2082 -1.0392  0.3478
 5609SOL    HW128286   2.204   1.761  14.867  1.4799  0.6983  1.8965
 5609SOL    HW228287   2.335   1.795  14.809  0.0784 -1.0199 -0.8225
 5610SOL     OW28288   4.600   0.065   4.886  0.1242  0.5535 -0.0940
 5610SOL    HW128289   4.536   0.113   4.833 -1.9747  0.3443  2.2741
 5610SOL    HW228290   4.654   0.038   4.812 -0.8637 -0.7557 -0.3374
 5611SOL     OW28291   4.234   4.448  13.005 -0.0308  0.3645  0.8220
 5611SOL    HW128292   4.293   4.386  13.048  0.4333  0.9301  0.9999
 5611SOL    HW228293   4.174   4.392  12.956 -1.1599  0.6399  1.9018
 5612SOL     OW28294   3.607   1.789   8.768 -0.1456 -0.2479  0.2670
 5612SOL    HW128295   3.614   1.741   8.851  0.0193  1.0511  1.0227
 5612SOL    HW228296   3.616   1.719   8.704  1.6907  1.0701 -0.9280
 5613SOL     OW28297   2.897   2.723  10.934 -1.0268 -0.1815 -1.0482
 5613SOL    HW128298   2.892   2.753  11.025  0.1627  0.7946 -1.2968
 5613SOL    HW228299   2.819   2.768  10.904 -0.3461  1.2664 -0.6626
 5614SOL     OW28300   4.290   1.896   0.399  0.2414  0.1867 -0.0092
 5614SOL    HW128301   4.314   1.985   0.424  0.9891 -0.0812  0.2470
 5614SOL    HW228302   4.341   1.896   0.318 -1.2135  0.5897 -0.9189
 5615SOL     OW28303   0.741   3.946   4.035  0.4753  0.0446  0.2668
 5615SOL    HW128304   0.776   3.863   4.067  1.7556  0.4935  0.0368
 5615SOL    HW228305   0.821   3.981   3.994 -0.1645  0.0635 -0.9641
 5616SOL     OW28306   3.609   3.354  16.878 -0.3585  0.2260  0.1299
 5616SOL    HW128307   3.697   3.378  16.850 -1.1437  3.1596  0.2310
 5616SOL    HW228308   3.633   3.293  16.949 -0.5427 -1.4476 -1.2398
 5617SOL     OW28309   3.627   4.288  11.948  0.3253  0.1969  0.2317
 5617SOL    HW128310   3.596   4.211  11.996 -1.6608 -0.8720 -2.7648
 5617SOL    HW228311   3.702   4.310  12.003  0.9288 -0.4889 -0.3092
 5618SOL     OW28312   2.963   1.304   5.872 -0.4415 -0.5152  0.1048
 5618SOL    HW128313   2.960   1.328   5.965 -0.7078 -0.8127  0.1702
 5618SOL    HW228314   3.033   1.239   5.883 -0.1404 -0.4529 -1.5399
 5619SOL     OW28315   1.232   3.871   1.011  0.6407 -1.1518  0.8459
 5619SOL    HW128316   1.262   3.799   0.955  0.4124 -0.0183 -0.7308
 5619SOL    HW228317   1.151   3.896   0.967  1.5494  0.1301 -0.0875
 5620SOL     OW28318   4.316   3.303   8.105 -0.2133 -0.0981  0.3828
 5620SOL    HW128319   4.370   3.261   8.172 -1.0308  1.4049  2.0138
 5620SOL    HW228320   4.294   3.377   8.162 -1.5599  0.4346 -0.8472
 5621SOL     OW28321   2.259   1.319  17.397  0.1981 -0.4406 -0.1089
 5621SOL    HW128322   2.353   1.306  17.407  0.5603  2.3226  0.1630
 5621SOL    HW228323   2.226   1.230  17.410 -0.4394  0.0565  1.6018
 5622SOL     OW28324   2.563   1.742   5.222  0.1228  0.1628 -0.4236
 5622SOL    HW128325   2.511   1.690   5.283  2.3757  0.6179  1.8509
 5622SOL    HW228326   2.641   1.741   5.277 -0.3135 -0.3266  0.1880
 5623SOL     OW28327   4.456   3.601   4.569  0.3673  0.4804  0.0819
 5623SOL    HW128328   4.421   3.559   4.490  0.1180  0.3117  0.2850
 5623SOL    HW228329   4.547   3.571   4.562 -0.3193 -0.7388 -3.5003
 5624SOL     OW28330   4.618   4.297   8.945  0.5669 -0.3788  0.2906
 5624SOL    HW128331   4.556   4.360   8.982 -0.9143 -2.6370  1.6355
 5624SOL    HW228332   4.681   4.279   9.014 -0.6726  0.3929  1.6240
 5625SOL     OW28333   3.712   1.304   4.487  0.2620  0.6907 -0.1766
 5625SOL    HW128334   3.759   1.289   4.405  0.0124 -0.0026 -0.1926
 5625SOL    HW228335   3.759   1.248   4.549 -0.6885  1.0160  0.8550
 5626SOL     OW28336   3.028   0.039   3.761  0.1018  0.0749 -0.2331
 5626SOL    HW128337   2.954   0.070   3.813  0.8316  0.3481  0.6396
 5626SOL    HW228338   3.014   0.098   3.687  1.0231 -1.0291 -1.2746
 5627SOL     OW28339   0.270   4.013   1.059  0.1319 -0.3210 -0.7533
 5627SOL    HW128340   0.204   3.991   0.993  1.5741 -1.7435 -1.7208
 5627SOL    HW228341   0.219   4.029   1.138  0.6282 -1.4231 -0.2129
 5628SOL     OW28342   2.457   3.848  12.532  0.0276 -0.7121 -0.3212
 5628SOL    HW128343   2.477   3.756  12.546 -0.8379 -0.3892  3.0457
 5628SOL    HW228344   2.524   3.885  12.589 -0.7916 -0.4071  0.4594
 5629SOL     OW28345   1.312   0.870   3.690  0.0475 -0.2991 -0.4381
 5629SOL    HW128346   1.245   0.814   3.652  1.2208 -2.3317  0.5209
 5629SOL    HW228347   1.346   0.816   3.761  0.0662  1.5722  0.9898
 5630SOL     OW28348   3.975   0.512   2.318 -0.1919 -0.0223  0.3475
 5630SOL    HW128349   3.995   0.423   2.347 -1.8695  0.4771  2.9606
 5630SOL    HW228350   3.951   0.553   2.400  2.3111 -0.4457  1.3017
 5631SOL     OW28351   2.027   0.619  13.263 -1.1530 -0.3650  0.3946
 5631SOL    HW128352   2.054   0.593  13.175 -0.0137  0.2489  0.5606
 5631SOL    HW228353   1.987   0.540  13.299 -1.3022 -0.9795 -1.1017
 5632SOL     OW28354   2.188   3.620   5.931 -0.3176  1.2018  0.0580
 5632SOL    HW128355   2.149   3.673   6.001 -0.2087 -0.4202  1.3392
 5632SOL    HW228356   2.230   3.551   5.982 -2.9232  0.3983  1.0970
 5633SOL     OW28357   2.459   3.627  10.351  0.0057  0.1374 -0.7482
 5633SOL    HW128358   2.424   3.542  10.326 -1.4131  0.5552 -0.2469
 5633SOL    HW228359   2.377   3.668  10.381  1.9318  3.1839  0.3156
 5634SOL     OW28360   4.176   1.893   2.783 -0.0611 -0.5320  0.2127
 5634SOL    HW128361   4.086   1.864   2.771 -0.6751  1.7348 -0.6685
 5634SOL    HW228362   4.166   1.988   2.793 -1.5551 -0.7206  0.5087
 5635SOL     OW28363   0.680   1.394   6.897  0.4746  0.2121  0.1795
 5635SOL    HW128364   0.666   1.301   6.878  0.1247  0.2879  0.0616
 5635SOL    HW228365   0.591   1.427   6.910  0.4780  0.8648 -1.4838
 5636SOL     OW28366   2.706   2.253  12.533  0.1553  0.5876  0.6284
 5636SOL    HW128367   2.628   2.222  12.487 -0.1076  0.9773  0.8133
 5636SOL    HW228368   2.695   2.347  12.520 -0.1972  0.4649  0.0584
 5637SOL     OW28369   0.563   1.318   5.881 -0.3028  0.3713 -0.2389
 5637SOL    HW128370   0.658   1.325   5.886 -0.3826  1.1780  0.1913
 5637SOL    HW228371   0.544   1.284   5.969  0.1667  1.7393  0.3984
 5638SOL     OW28372   3.064   3.252   2.955 -0.1922 -0.3127  0.2115
 5638SOL    HW128373   3.012   3.177   2.925 -2.1476  0.8895  0.6107
 5638SOL    HW228374   3.050   3.321   2.890  0.6148  0.2148  0.5986
 5639SOL     OW28375   3.931   4.343   2.804 -0.2401 -0.1299 -0.0494
 5639SOL    HW128376   3.911   4.249   2.798 -0.6214  0.0044 -0.9456
 5639SOL    HW228377   3.980   4.348   2.886 -1.9278  2.0111  0.8179
 5640SOL     OW28378   3.118   2.237   8.576 -0.0117  0.1067 -0.1539
 5640SOL    HW128379   3.203   2.197   8.594  1.4915  4.0467  1.4792
 5640SOL    HW228380   3.119   2.288   8.657 -0.4359  1.6042 -1.1116
 5641SOL     OW28381   3.722   2.582   7.482  0.2496 -0.5570  0.8369
 5641SOL    HW128382   3.725   2.522   7.556  0.7952  0.0019  1.2686
 5641SOL    HW228383   3.673   2.529   7.419 -0.6946  1.3452 -0.0415
 5642SOL     OW28384   1.893   3.459   9.577 -0.1591  0.7179 -0.1135
 5642SOL    HW128385   1.839   3.513   9.635  1.5953  2.2753  0.0347
 5642SOL    HW228386   1.831   3.431   9.509  3.0712  1.0366 -3.1790
 5643SOL     OW28387   3.680   3.554   0.644  0.2352  0.2405  0.1749
 5643SOL    HW128388   3.606   3.510   0.686  0.1507 -0.1568 -0.3924
 5643SOL    HW228389   3.641   3.570   0.558  1.7380 -0.5757 -0.6721
 5644SOL     OW28390   0.604   3.749   8.765  0.0406  0.3835  0.8615
 5644SOL    HW128391   0.697   3.770   8.762  0.3243 -1.2366 -2.1022
 5644SOL    HW228392   0.550   3.826   8.746 -0.6481 -0.2098  0.4236
 5645SOL     OW28393   2.626   2.157  15.339 -0.4635  0.2495  0.0859
 5645SOL    HW128394   2.690   2.112  15.395 -1.7132 -0.0916  1.2606
 5645SOL    HW228395   2.641   2.248  15.364 -1.4840  0.7537 -1.1522
 5646SOL     OW28396   3.086   4.216  15.408 -0.0408 -0.1908  0.2311
 5646SOL    HW128397   3.179   4.241  15.414 -0.0542  0.0815 -0.7435
 5646SOL    HW228398   3.072   4.213  15.314 -0.1261  2.3435  0.1525
 5647SOL     OW28399   4.419   1.013   1.301 -0.3297  0.1439 -0.4852
 5647SOL    HW128400   4.431   0.936   1.355 -0.7987 -1.5782 -2.8343
 5647SOL    HW228401   4.474   1.070   1.355 -1.9946  0.9226  0.3729
 5648SOL     OW28402   3.485   0.915  12.354  0.2826  0.0888 -0.2652
 5648SOL    HW128403   3.528   0.836  12.387 -0.5130 -0.3462 -0.2761
 5648SOL    HW228404   3.488   0.971  12.431 -0.4071  1.4509 -1.2189
 5649SOL     OW28405   0.848   1.100   4.973 -0.4770  0.2518  0.1709
 5649SOL    HW128406   0.825   1.056   4.891  0.2306  0.0531  0.0819
 5649SOL    HW228407   0.764   1.100   5.020  0.4678 -3.4576  1.8377
 5650SOL     OW28408   3.871   0.056   1.337 -0.3327 -0.0639 -0.2578
 5650SOL    HW128409   3.884   4.692   1.374 -2.7806 -0.8498 -1.2509
 5650SOL    HW228410   3.851   0.115   1.410  0.8433 -0.8233  0.6795
 5651SOL     OW28411   0.191   3.346   5.274 -0.4596  0.1845 -0.2416
 5651SOL    HW128412   0.240   3.408   5.329  1.2996  0.3999 -2.0482
 5651SOL    HW228413   0.266   3.325   5.218  0.8810  2.0911  0.8137
 5652SOL     OW28414   2.613   3.873   2.462  0.6288  0.3427 -0.1688
 5652SOL    HW128415   2.654   3.959   2.456 -0.7028  1.0461  0.9295
 5652SOL    HW228416   2.614   3.851   2.369  0.2637  0.3864 -0.1832
 5653SOL     OW28417   2.095   2.735   7.969 -0.2610 -0.5601 -0.6767
 5653SOL    HW128418   2.007   2.719   7.934 -0.5726 -0.9550  0.2763
 5653SOL    HW228419   2.093   2.689   8.053 -1.5450  0.4636 -0.1472
 5654SOL     OW28420   3.247   2.306   9.088  0.1105  0.5079 -0.6977
 5654SOL    HW128421   3.321   2.347   9.134  1.2459 -1.4774 -0.7520
 5654SOL    HW228422   3.181   2.354   9.138 -0.7380 -1.7774  0.3954
 5655SOL     OW28423   1.501   2.839   7.020  0.0974 -0.0687  0.0129
 5655SOL    HW128424   1.521   2.920   6.972 -0.4216 -1.3406 -2.2837
 5655SOL    HW228425   1.517   2.862   7.112 -0.0066 -1.2458  0.3263
 5656SOL     OW28426   2.042   4.582   4.556  0.3201 -0.1000  0.4057
 5656SOL    HW128427   2.132   4.606   4.534  0.3372  0.7645  1.3824
 5656SOL    HW228428   2.061   4.489   4.560 -1.7497 -0.4900  1.3366
 5657SOL     OW28429   2.338   0.043   8.578  0.5803  0.3213  0.7891
 5657SOL    HW128430   2.266   0.034   8.516  2.4394 -2.5193 -0.9546
 5657SOL    HW228431   2.334   0.135   8.603 -0.8179  0.5573 -0.2794
 5658SOL     OW28432   3.640   3.114  17.021  0.0465  0.2024  0.2982
 5658SOL    HW128433   3.571   3.108  17.086  1.1786  1.8142  1.6623
 5658SOL    HW228434   3.714   3.141  17.075  0.0413 -1.5091  1.1334
 5659SOL     OW28435   0.443   4.244   1.265  0.5534 -0.1231  0.3776
 5659SOL    HW128436   0.437   4.273   1.356  2.5155 -0.2686  0.5544
 5659SOL    HW228437   0.428   4.152   1.284 -0.3744 -0.2588 -1.0113
 5660SOL     OW28438   4.411   0.048   0.079 -0.6016 -0.0052 -0.4782
 5660SOL    HW128439   4.392   0.017   0.168 -2.0158  0.4915 -0.6212
 5660SOL    HW228440   4.404   0.142   0.093  0.0258  0.0189 -0.3061
 5661SOL     OW28441   3.016   0.429   9.967 -0.0405  0.2873 -0.0766
 5661SOL    HW128442   3.101   0.472   9.953  0.3660  0.2581  2.3818
 5661SOL    HW228443   2.964   0.508   9.984  0.1671  0.3943  0.0667
 5662SOL     OW28444   1.279   2.295   7.387 -0.1467 -0.5575  0.3775
 5662SOL    HW128445   1.283   2.215   7.440 -0.0071 -0.1459  0.9867
 5662SOL    HW228446   1.263   2.260   7.299 -0.6241  1.2382 -0.2570
 5663SOL     OW28447   3.096   1.741   7.803  0.2047  0.4507 -0.3246
 5663SOL    HW128448   3.159   1.726   7.874 -2.4444  2.1417  2.3631
 5663SOL    HW228449   3.145   1.809   7.757 -3.0681  1.6297 -2.0416
 5664SOL     OW28450   3.546   4.547   4.329 -0.2275  0.0066  0.5149
 5664SOL    HW128451   3.616   4.612   4.319 -0.0581 -0.2196  0.2276
 5664SOL    HW228452   3.603   4.471   4.342 -0.2730 -0.2613 -0.8630
 5665SOL     OW28453   0.100   2.550  17.494 -0.7440 -0.2094  0.2570
 5665SOL    HW128454   0.183   2.541  17.449  0.1619  1.7427  1.4923
 5665SOL    HW228455   0.070   2.637  17.467  1.0907  1.1824  2.6501
 5666SOL     OW28456   1.000   0.927   8.639  0.3559  0.0433  0.5178
 5666SOL    HW128457   0.960   0.938   8.552  0.7189 -0.0491  0.3408
 5666SOL    HW228458   1.009   0.832   8.635 -0.2818  0.1072 -3.2973
 5667SOL     OW28459   0.675   0.877   2.699 -0.2679  0.3923  0.5171
 5667SOL    HW128460   0.671   0.972   2.712 -1.8453  0.4778 -0.6657
 5667SOL    HW228461   0.676   0.877   2.603 -1.5353 -0.6181  0.5007
 5668SOL     OW28462   4.689   1.033   7.185 -0.2735  0.7696  0.0844
 5668SOL    HW128463   4.630   1.096   7.144 -1.6803 -0.1883  0.6240
 5668SOL    HW228464   4.654   1.045   7.273  0.2178 -0.1265  0.4060
 5669SOL     OW28465   4.047   1.012   8.785 -0.1895 -0.2621 -0.0199
 5669SOL    HW128466   3.975   1.075   8.779  1.8901  2.2435  1.7338
 5669SOL    HW228467   4.037   1.001   8.879  0.1861 -0.0411  0.0428
 5670SOL     OW28468   2.463   1.264   7.002 -0.3567  0.5244 -0.4226
 5670SOL    HW128469   2.456   1.255   7.097 -1.0672 -0.1393 -0.5434
 5670SOL    HW228470   2.487   1.175   6.977 -1.5065 -0.3745  1.6577
 5671SOL     OW28471   0.576   3.013   4.818  0.4357  0.1098  0.1624
 5671SOL    HW128472   0.574   3.058   4.903  2.0000 -2.0981  1.3693
 5671SOL    HW228473   0.661   3.038   4.780 -0.3795  1.4165 -0.8089
 5672SOL     OW28474   4.568   0.856   7.830  0.2188  0.6886 -0.2305
 5672SOL    HW128475   4.547   0.926   7.769  0.1556  1.1067  0.2717
 5672SOL    HW228476   4.663   0.850   7.820  0.1886  0.0273 -0.1207
 5673SOL     OW28477   2.170   2.059   8.956 -0.1432  0.2672  0.3707
 5673SOL    HW128478   2.076   2.078   8.956 -0.1355  0.2963 -0.9406
 5673SOL    HW228479   2.204   2.125   8.896 -0.4764 -0.3691 -0.5111
 5674SOL     OW28480   2.429   2.614  17.543 -0.0532  0.3686  0.0365
 5674SOL    HW128481   2.397   2.524  17.554  0.9617 -0.0204 -0.2503
 5674SOL    HW228482   2.521   2.603  17.520 -0.1032 -0.0355  0.0319
 5675SOL     OW28483   4.148   4.541  11.973 -0.1246  0.0884  0.9101
 5675SOL    HW128484   4.077   4.552  11.911  1.5629  0.8247 -0.8944
 5675SOL    HW228485   4.160   4.632  11.998 -0.4281 -0.0474  1.5497
 5676SOL     OW28486   2.114   0.088   9.721 -0.4852 -0.7238 -0.6243
 5676SOL    HW128487   2.187   0.028   9.734  0.1779 -0.0688 -1.3388
 5676SOL    HW228488   2.131   0.098   9.627  1.9394  1.3821  0.0466
 5677SOL     OW28489   2.699   3.220  10.255  0.1187  0.2916  0.3438
 5677SOL    HW128490   2.791   3.209  10.281 -0.2462  0.7552  1.8557
 5677SOL    HW228491   2.688   3.160  10.182  2.3004  1.0567 -0.6131
 5678SOL     OW28492   2.337   0.124   4.015 -0.6479 -0.2997  0.7651
 5678SOL    HW128493   2.375   0.180   3.947  1.3827 -1.1119  1.2365
 5678SOL    HW228494   2.254   0.172   4.021 -1.1890 -0.9683 -1.2912
 5679SOL     OW28495   0.095   0.634   8.486  0.1466 -0.5193 -0.4635
 5679SOL    HW128496   0.096   0.686   8.405 -0.9357 -1.7549 -1.2575
 5679SOL    HW228497   0.155   0.683   8.543  0.0950 -1.7416  0.6491
 5680SOL     OW28498   3.227   2.973   7.413  0.0653  0.4725 -0.3467
 5680SOL    HW128499   3.226   2.960   7.319 -0.9285  1.4222 -0.4686
 5680SOL    HW228500   3.164   2.907   7.441 -0.3423  0.2733 -1.7516
 5681SOL     OW28501   4.185   3.237   8.633 -0.5976 -0.5608  0.5431
 5681SOL    HW128502   4.159   3.327   8.613 -0.3270 -0.6037 -0.0046
 5681SOL    HW228503   4.227   3.248   8.718 -3.4282 -1.6023  2.1086
 5682SOL     OW28504   1.553   1.397   7.361  0.1987 -0.4638 -0.6250
 5682SOL    HW128505   1.484   1.462   7.349 -0.4971 -1.2272 -0.7906
 5682SOL    HW228506   1.618   1.461   7.389  0.2964  0.0257 -2.0097
 5683SOL     OW28507   3.254   2.098   3.902 -0.0345  0.5990  0.3681
 5683SOL    HW128508   3.173   2.049   3.888 -0.4114  0.9144  1.4517
 5683SOL    HW228509   3.275   2.080   3.994  2.2897 -2.3986 -0.7452
 5684SOL     OW28510   4.128   0.766   7.968 -0.2980 -0.4916  0.5443
 5684SOL    HW128511   4.204   0.819   7.946 -0.7761 -0.1297 -0.2259
 5684SOL    HW228512   4.053   0.826   7.963  0.6172  0.4324 -1.8607
 5685SOL     OW28513   1.256   2.474   9.116  0.0759  0.1763 -0.5065
 5685SOL    HW128514   1.202   2.536   9.165 -0.6962 -0.5777 -0.4002
 5685SOL    HW228515   1.344   2.504   9.140  0.3930  0.4354 -1.9755
 5686SOL     OW28516   2.789   4.285   7.869  0.0980  0.0613  0.1289
 5686SOL    HW128517   2.831   4.338   7.937  0.4593  0.6493 -0.5499
 5686SOL    HW228518   2.815   4.338   7.793  1.2548  2.0971  1.9434
 5687SOL     OW28519   4.554   4.353  14.230 -0.0341  0.1247 -0.3951
 5687SOL    HW128520   4.498   4.344  14.308 -0.6912 -0.3601 -0.9157
 5687SOL    HW228521   4.506   4.422  14.185  0.3377  1.3926  1.1882
 5688SOL     OW28522   1.117   0.490   7.476  0.0359 -0.3068 -0.0591
 5688SOL    HW128523   1.151   0.563   7.424  0.6734  1.3125  2.6136
 5688SOL    HW228524   1.111   0.532   7.562  2.4400 -0.9933  0.4512
 5689SOL     OW28525   2.397   3.550   5.145 -0.1375  0.3342  0.4896
 5689SOL    HW128526   2.305   3.545   5.118 -0.0534  0.3250  0.2063
 5689SOL    HW228527   2.426   3.615   5.081  1.7765 -0.8499  0.1689
 5690SOL     OW28528   2.245   3.323   4.750  0.0266 -0.1479 -0.3302
 5690SOL    HW128529   2.240   3.414   4.776  0.0512 -0.3341  0.3194
 5690SOL    HW228530   2.328   3.327   4.702 -0.7227 -0.4280 -1.6624
 5691SOL     OW28531   3.566   0.925  16.175 -0.2370  0.1728  0.1836
 5691SOL    HW128532   3.600   0.845  16.135 -2.6717 -0.4458 -0.6466
 5691SOL    HW228533   3.505   0.964  16.113  0.4643  1.9131  0.5855
 5692SOL     OW28534   2.799   3.891   4.180 -0.0062  0.1038 -0.1131
 5692SOL    HW128535   2.875   3.930   4.223  0.3854  0.0939 -0.7924
 5692SOL    HW228536   2.826   3.800   4.168  1.4256  0.4328  0.5302
 5693SOL     OW28537   2.174   0.795  12.503  0.7043  0.2039 -0.8023
 5693SOL    HW128538   2.231   0.739  12.556 -1.7573  0.6782  2.3516
 5693SOL    HW228539   2.208   0.880  12.532  0.8317 -0.4398  0.9284
 5694SOL     OW28540   1.893   2.614   2.559 -0.2481  0.0091 -0.1349
 5694SOL    HW128541   1.841   2.546   2.602 -1.5950  1.6602  0.8632
 5694SOL    HW228542   1.860   2.691   2.605  1.0684  0.3900  0.1514
 5695SOL     OW28543   2.404   1.937  11.330 -0.0770  0.0534  0.2404
 5695SOL    HW128544   2.458   2.010  11.301  0.7813 -0.4365  0.6141
 5695SOL    HW228545   2.348   1.925  11.253 -1.0769 -1.5804  1.2179
 5696SOL     OW28546   0.809   2.245  14.468 -0.0667  0.4566  0.3216
 5696SOL    HW128547   0.779   2.335  14.477  0.3470  0.5477  0.7689
 5696SOL    HW228548   0.759   2.228  14.388  0.3654 -2.2938  0.6383
 5697SOL     OW28549   0.749   0.882   6.200 -0.1183  0.4385 -0.6185
 5697SOL    HW128550   0.708   0.955   6.247 -0.8736 -0.7476  0.5770
 5697SOL    HW228551   0.787   0.928   6.125 -2.6634  0.7466 -1.7415
 5698SOL     OW28552   0.459   2.479  16.691  0.3856 -0.1177 -0.2049
 5698SOL    HW128553   0.470   2.574  16.687 -1.6600  0.1991  1.5841
 5698SOL    HW228554   0.372   2.466  16.653  0.9663 -2.1564 -0.8273
 5699SOL     OW28555   2.843   2.236   7.033 -0.1056  0.3360 -0.4270
 5699SOL    HW128556   2.898   2.249   6.956  0.5833  0.3520  0.0646
 5699SOL    HW228557   2.894   2.176   7.088 -0.5222 -0.5204 -0.9827
 5700SOL     OW28558   0.965   2.043   3.578  0.1836 -0.5874  0.8305
 5700SOL    HW128559   0.954   1.949   3.562 -2.6057 -0.2016  0.4669
 5700SOL    HW228560   1.034   2.028   3.642 -0.7042  1.2702  2.2010
 5701SOL     OW28561   0.823   3.148   3.655  0.0464 -0.4893  0.4459
 5701SOL    HW128562   0.742   3.198   3.641  1.1209  1.2555  0.4329
 5701SOL    HW228563   0.847   3.197   3.734  0.7032  0.0683 -0.0975
 5702SOL     OW28564   1.525   2.582  14.432  0.1003 -0.6785  0.1745
 5702SOL    HW128565   1.604   2.564  14.483 -0.8651  1.0530  2.2609
 5702SOL    HW228566   1.504   2.675  14.440 -1.3097 -1.0058  0.2353
 5703SOL     OW28567   2.515   3.839  16.136  0.2641 -0.1240 -0.5784
 5703SOL    HW128568   2.595   3.854  16.087  0.3882  0.6433 -0.1349
 5703SOL    HW228569   2.457   3.893  16.082  1.2477  2.3353  0.8242
 5704SOL     OW28570   2.958   2.870  13.969  0.0292  0.3934 -0.3797
 5704SOL    HW128571   2.902   2.811  13.918  1.2021 -0.7414 -0.3460
 5704SOL    HW228572   2.915   2.955  13.959 -1.8709 -0.2959  1.7916
 5705SOL     OW28573   3.307   1.811   5.568 -0.1187  0.2184 -0.0465
 5705SOL    HW128574   3.288   1.743   5.633  0.3409 -0.7588 -0.9411
 5705SOL    HW228575   3.217   1.831   5.542  0.9885  2.1740 -2.3288
 5706SOL     OW28576   0.506   4.260  13.384 -0.2201  0.3689 -0.1821
 5706SOL    HW128577   0.416   4.284  13.364 -0.4004 -0.3349 -0.2290
 5706SOL    HW228578   0.494   4.165  13.395  1.4807  0.1262 -0.3865
 5707SOL     OW28579   2.266   2.165   5.187 -0.3413  0.0623 -0.1936
 5707SOL    HW128580   2.314   2.208   5.116  1.7827  0.0831  1.2844
 5707SOL    HW228581   2.292   2.075   5.168 -1.6309 -0.0410 -1.5802
 5708SOL     OW28582   2.007   2.778   3.057  0.1906  0.1007  0.4235
 5708SOL    HW128583   2.047   2.822   3.132  0.8524  1.6520 -0.8348
 5708SOL    HW228584   1.958   2.850   3.018 -0.8829 -1.5927 -1.3452
 5709SOL     OW28585   0.329   0.619   2.721  0.7105 -0.0236  0.1456
 5709SOL    HW128586   0.347   0.526   2.733 -2.9475 -0.6800  0.4485
 5709SOL    HW228587   0.348   0.628   2.628 -1.1758  0.4301 -0.1992
 5710SOL     OW28588   0.550   1.322  10.888 -0.0308 -0.4350  0.2705
 5710SOL    HW128589   0.617   1.391  10.892 -0.2219 -0.3558  1.8824
 5710SOL    HW228590   0.485   1.377  10.931  0.3105  0.7714 -0.7611
 5711SOL     OW28591   4.255   0.071   5.329 -0.7331  0.3673 -0.2990
 5711SOL    HW128592   4.190   0.135   5.360 -0.3072 -1.0586  3.5615
 5711SOL    HW228593   4.257   0.080   5.234  0.0698  1.5652 -0.1591
 5712SOL     OW28594   2.592   2.397   4.392  0.0804 -0.0252 -0.0549
 5712SOL    HW128595   2.503   2.385   4.425  1.0171 -3.1140  1.3656
 5712SOL    HW228596   2.585   2.337   4.318  0.0339  0.9404 -0.8351
 5713SOL     OW28597   1.648   1.731  11.723 -0.1344 -0.1255 -0.1791
 5713SOL    HW128598   1.587   1.742  11.796 -1.5227  0.1736 -1.3741
 5713SOL    HW228599   1.631   1.805  11.665 -0.8993 -0.4781 -0.4093
 5714SOL     OW28600   2.599   3.561   5.404 -0.1019 -0.5811 -0.3959
 5714SOL    HW128601   2.576   3.506   5.479  1.0686 -1.3056 -0.5719
 5714SOL    HW228602   2.522   3.549   5.347 -0.2335 -1.3952 -0.0419
 5715SOL     OW28603   2.430   1.900   5.480  0.1299 -0.6993  0.2759
 5715SOL    HW128604   2.409   1.811   5.449  0.6295 -1.8325  3.2253
 5715SOL    HW228605   2.492   1.925   5.411  0.8205 -1.1024  0.7471
 5716SOL     OW28606   0.850   0.648   2.113  0.2272 -0.1521  0.1221
 5716SOL    HW128607   0.885   0.560   2.100 -0.3637 -0.6843  2.1798
 5716SOL    HW228608   0.831   0.683   2.026 -0.1734 -2.3958 -0.6969
 5717SOL     OW28609   1.354   1.584   2.311 -0.3306 -0.5295  0.2297
 5717SOL    HW128610   1.301   1.663   2.312  1.6571  0.7783  1.1312
 5717SOL    HW228611   1.408   1.607   2.235 -0.0541 -1.4680  0.1412
 5718SOL     OW28612   1.351   4.242   7.538  0.1538  0.3443  0.1990
 5718SOL    HW128613   1.403   4.243   7.458  0.1730 -1.2667  0.1927
 5718SOL    HW228614   1.359   4.155   7.577 -1.5767 -0.0416 -0.3085
 5719SOL     OW28615   0.049   4.633   8.389  0.2677 -0.1664 -0.1968
 5719SOL    HW128616   0.098   4.699   8.438 -0.7303 -0.6813  1.4843
 5719SOL    HW228617   0.037   4.570   8.460  0.7664  0.5486  0.5323
 5720SOL     OW28618   2.100   3.113   4.651  0.0088 -0.4004  0.2975
 5720SOL    HW128619   2.015   3.147   4.626 -0.3667 -0.0138  2.0962
 5720SOL    HW228620   2.154   3.191   4.667 -1.4102  0.3198  1.4828
 5721SOL     OW28621   0.171   0.444  12.816 -0.1966 -0.0045  0.5038
 5721SOL    HW128622   0.181   0.437  12.721 -0.5351 -1.7280  0.6008
 5721SOL    HW228623   0.224   0.520  12.842  0.1455 -0.9053  2.4226
 5722SOL     OW28624   3.480   4.623   3.903 -0.4490 -0.1141 -0.2432
 5722SOL    HW128625   3.442   4.595   3.987  0.9012 -1.7097 -0.1657
 5722SOL    HW228626   3.401   4.601   3.854  0.0792 -1.7298 -0.3664
 5723SOL     OW28627   0.772   0.044   1.994 -0.6791  0.3979  0.0899
 5723SOL    HW128628   0.784   4.685   2.041 -1.2456  0.1915 -0.1222
 5723SOL    HW228629   0.842   0.033   1.929  1.2085  0.9586  2.0364
 5724SOL     OW28630   4.380   3.805   4.953  0.4913 -0.5213  0.6741
 5724SOL    HW128631   4.465   3.769   4.927  0.3047 -1.0832  0.8444
 5724SOL    HW228632   4.391   3.881   4.896  2.8780  0.0474  1.9067
 5725SOL     OW28633   1.622   3.514   6.763  0.7872 -0.3502 -0.0552
 5725SOL    HW128634   1.659   3.515   6.675 -0.1904 -0.2963 -0.4571
 5725SOL    HW228635   1.552   3.450   6.756  0.3396  0.2686 -1.1996
 5726SOL     OW28636   0.065   0.419   7.343  0.5470  0.0470 -0.3067
 5726SOL    HW128637   0.150   0.376   7.337  1.1901  1.1959  0.7914
 5726SOL    HW228638   0.022   0.338   7.371 -0.1357  0.5610  0.1405
 5727SOL     OW28639   0.965   0.653   4.239  0.4554 -0.1753  0.0539
 5727SOL    HW128640   0.949   0.745   4.260  1.9506  0.1570 -0.2664
 5727SOL    HW228641   0.952   0.616   4.326  1.5040 -0.5255  0.0677
 5728SOL     OW28642   0.828   4.664   7.631  0.2613 -0.0234 -0.0155
 5728SOL    HW128643   0.893   4.623   7.574 -1.4239  0.3029 -2.1486
 5728SOL    HW228644   0.872   0.024   7.646  0.0692 -0.0624  0.7616
 5729SOL     OW28645   1.513   2.950   4.837 -0.1057  0.2818 -0.1015
 5729SOL    HW128646   1.503   3.007   4.913  0.1519  0.9482 -0.5746
 5729SOL    HW228647   1.608   2.942   4.829 -0.3942 -1.3893 -2.0083
 5730SOL     OW28648   4.424   2.482   8.203  0.2582  0.3184 -0.1237
 5730SOL    HW128649   4.395   2.544   8.270  1.1249  2.1661 -1.4522
 5730SOL    HW228650   4.354   2.418   8.209  2.6993 -2.3607 -0.2424
 5731SOL     OW28651   1.104   1.074   3.241  0.4249 -0.0084 -0.4398
 5731SOL    HW128652   1.071   1.147   3.294  0.6388  0.7397 -1.3212
 5731SOL    HW228653   1.106   1.126   3.161  0.9770  2.7518  1.3607
 5732SOL     OW28654   0.000   2.760   7.478 -0.2504  0.0002 -0.4271
 5732SOL    HW128655   4.701   2.681   7.526  1.0696 -2.0272 -3.1155
 5732SOL    HW228656   0.029   2.815   7.550  0.3000 -0.5483 -0.2384
 5733SOL     OW28657   1.557   2.416  12.428 -0.3851  0.1168  0.2899
 5733SOL    HW128658   1.466   2.445  12.420 -1.6182 -2.8876  3.3882
 5733SOL    HW228659   1.595   2.489  12.478  0.2745  0.3106 -0.4911
 5734SOL     OW28660   1.801   1.538   2.618 -0.5714 -0.2575  0.3663
 5734SOL    HW128661   1.725   1.562   2.564 -0.9393 -0.2773  0.8775
 5734SOL    HW228662   1.817   1.620   2.665  0.0795 -0.3444  0.2965
 5735SOL     OW28663   1.481   4.363   9.978 -0.0738 -0.2548 -0.4169
 5735SOL    HW128664   1.511   4.434   9.921  0.2104  0.5884  0.7929
 5735SOL    HW228665   1.427   4.410  10.041 -0.4031  0.6514 -1.3769
 5736SOL     OW28666   1.871   4.500   8.214 -1.1239 -0.0426 -0.1323
 5736SOL    HW128667   1.783   4.463   8.210 -0.4475 -1.5628 -0.6886
 5736SOL    HW228668   1.886   4.550   8.134 -2.3130  0.5415  0.0043
 5737SOL     OW28669   1.969   2.704   0.711  0.3211 -0.3196  0.3131
 5737SOL    HW128670   1.985   2.690   0.618 -2.4028  1.1534 -0.3757
 5737SOL    HW228671   2.043   2.759   0.738  0.8210 -0.7122 -0.2556
 5738SOL     OW28672   3.787   4.248   7.239  0.5618  0.2367 -0.6602
 5738SOL    HW128673   3.728   4.173   7.240  1.0312 -0.0805  2.9078
 5738SOL    HW228674   3.763   4.281   7.326  1.7823  1.4051 -0.7647
 5739SOL     OW28675   2.205   0.922   6.953  0.3952 -0.0726  0.5332
 5739SOL    HW128676   2.296   0.913   6.983 -0.1649 -1.4585  1.8091
 5739SOL    HW228677   2.164   0.898   7.036 -0.9947  0.7205  0.0544
 5740SOL     OW28678   4.537   4.056   2.824  0.2179 -0.5103  0.1965
 5740SOL    HW128679   4.476   4.114   2.779  0.1800 -1.7907 -1.3807
 5740SOL    HW228680   4.581   4.106   2.894  0.8041  1.4189 -1.5618
 5741SOL     OW28681   2.003   0.286   2.621  0.8886  0.1822 -0.6064
 5741SOL    HW128682   2.094   0.289   2.651  0.7410  0.1418 -0.1484
 5741SOL    HW228683   2.006   0.359   2.560 -0.5611  1.2250  0.5663
 5742SOL     OW28684   4.105   0.349   8.966 -0.9147  0.4751 -0.0095
 5742SOL    HW128685   4.100   0.445   8.965  1.0096  0.6151  2.2012
 5742SOL    HW228686   4.187   0.325   9.010 -1.1224  1.2052  0.7888
 5743SOL     OW28687   0.574   3.482  17.591  0.3977 -0.0992 -0.0837
 5743SOL    HW128688   0.611   3.414  17.535  0.8171  0.4441 -0.4464
 5743SOL    HW228689   0.484   3.449  17.593  0.7522 -1.0368  0.6164
 5744SOL     OW28690   0.878   4.109  14.266  0.2320 -0.7147  0.0074
 5744SOL    HW128691   0.909   4.037  14.322  0.6774 -0.6611 -0.1681
 5744SOL    HW228692   0.788   4.084  14.247  0.1360 -0.3218 -0.0437
 5745SOL     OW28693   4.273   2.199   8.432 -0.1285  0.0266  0.0252
 5745SOL    HW128694   4.219   2.255   8.376 -0.7986 -1.5796 -0.9361
 5745SOL    HW228695   4.309   2.136   8.371  0.6405  0.3042  0.1986
 5746SOL     OW28696   3.304   4.050  15.055  0.2286 -0.8967  0.7073
 5746SOL    HW128697   3.220   4.081  15.088  1.0569 -1.1452  2.9985
 5746SOL    HW228698   3.293   4.054  14.960 -1.8359 -0.3260  0.9588
 5747SOL     OW28699   2.433   0.949   4.756  0.7778  0.4766  0.0905
 5747SOL    HW128700   2.390   1.022   4.711  0.4587 -0.2057 -0.7122
 5747SOL    HW228701   2.410   0.875   4.700 -1.6364  1.2121  0.1225
 5748SOL     OW28702   1.811   3.314   1.132 -0.1360  0.3679 -0.0082
 5748SOL    HW128703   1.726   3.347   1.163  0.9102  1.7956  1.3115
 5748SOL    HW228704   1.818   3.364   1.050  0.4787 -0.7081 -0.6139
 5749SOL     OW28705   2.784   3.921  17.121 -0.5006  0.3675  0.0116
 5749SOL    HW128706   2.718   3.980  17.085 -0.0604  2.5034  2.7420
 5749SOL    HW228707   2.735   3.841  17.139  0.3006 -0.5777 -1.9436
 5750SOL     OW28708   4.292   2.051   4.825 -0.3735 -0.3620 -0.0352
 5750SOL    HW128709   4.376   2.045   4.779  0.2081 -0.4632  1.0362
 5750SOL    HW228710   4.247   1.968   4.807  1.6073 -1.4647  0.0303
 5751SOL     OW28711   2.369   4.026   1.023  0.3495 -0.0987 -0.1780
 5751SOL    HW128712   2.448   4.058   0.978  1.3876 -1.0325  0.9787
 5751SOL    HW228713   2.352   3.936   0.996  1.4818 -0.0682 -1.0059
 5752SOL     OW28714   0.076   0.596  16.739  0.1213  0.0064 -0.0269
 5752SOL    HW128715   0.117   0.682  16.746  0.5262 -0.1559 -0.4524
 5752SOL    HW228716   4.717   0.612  16.692 -0.9034 -0.2036  1.6948
 5753SOL     OW28717   0.759   3.812   6.193 -0.2110  0.4408 -0.1080
 5753SOL    HW128718   0.680   3.839   6.147 -0.5717  0.4663  0.5180
 5753SOL    HW228719   0.718   3.774   6.272  0.0921  0.0557 -0.1357
 5754SOL     OW28720   0.029   4.632   2.925  0.1706 -0.8666 -0.1247
 5754SOL    HW128721   0.010   4.720   2.892 -1.9083 -1.6819 -1.0688
 5754SOL    HW228722   4.669   4.587   2.917  0.2551 -1.3251  1.5093
 5755SOL     OW28723   3.000   2.052   4.252 -0.2769 -0.1412 -0.1518
 5755SOL    HW128724   2.955   2.027   4.171 -2.1940 -0.1238  0.9159
 5755SOL    HW228725   3.089   2.041   4.220 -1.7850 -0.7618 -4.1836
 5756SOL     OW28726   2.550   0.416   4.138 -0.2730  0.5253  0.4412
 5756SOL    HW128727   2.535   0.426   4.043 -0.3991  2.9094  0.7078
 5756SOL    HW228728   2.613   0.344   4.143 -0.4307  0.2667 -1.1041
 5757SOL     OW28729   3.068   2.584   9.731  0.0194  0.2197 -0.3499
 5757SOL    HW128730   3.140   2.610   9.789 -2.2259  0.1729  2.4563
 5757SOL    HW228731   2.991   2.627   9.768  0.8410  1.4280 -0.0435
 5758SOL     OW28732   3.748   1.256   3.425  0.3405 -0.1436  0.1869
 5758SOL    HW128733   3.665   1.282   3.466 -0.6463 -0.4906 -1.5532
 5758SOL    HW228734   3.757   1.322   3.357  1.0845 -0.2409  0.1932
 5759SOL     OW28735   4.218   1.494   3.776 -0.1646  0.3467 -0.5759
 5759SOL    HW128736   4.247   1.496   3.685  0.6264 -0.1997 -0.3272
 5759SOL    HW228737   4.221   1.399   3.785  2.9907  0.5369  0.1592
 5760SOL     OW28738   1.980   4.606  10.667 -0.0812 -0.3007  0.0911
 5760SOL    HW128739   2.052   4.669  10.660 -0.7774  0.6059  1.1158
 5760SOL    HW228740   1.937   4.654  10.738 -0.4186 -0.3482 -0.0800
 5761SOL     OW28741   3.863   4.241   6.705  0.0916  0.4235 -0.9331
 5761SOL    HW128742   3.767   4.237   6.696  0.1679 -2.4956 -0.6804
 5761SOL    HW228743   3.863   4.246   6.801 -0.5291  1.8551 -1.0042
 5762SOL     OW28744   4.695   2.611   2.902 -0.5249 -0.4203 -0.4670
 5762SOL    HW128745   4.686   2.581   2.992 -2.1995  0.6046 -0.2963
 5762SOL    HW228746   0.045   2.670   2.919  0.4416 -1.9754  0.8571
 5763SOL     OW28747   2.243   3.847   7.610  0.3834 -0.0030 -0.0359
 5763SOL    HW128748   2.199   3.844   7.695  1.9879  1.9312  0.8839
 5763SOL    HW228749   2.208   3.769   7.569 -1.2432 -0.1014  1.5704
 5764SOL     OW28750   4.156   4.322   5.938 -0.0984  0.0884 -0.3879
 5764SOL    HW128751   4.211   4.284   6.006 -1.1655  2.6512  1.8789
 5764SOL    HW228752   4.225   4.374   5.898 -0.4794 -1.4043 -2.9998
 5765SOL     OW28753   2.670   3.485  11.548 -0.0584  0.1106 -0.5041
 5765SOL    HW128754   2.607   3.546  11.510 -0.2780  1.1197  1.4401
 5765SOL    HW228755   2.636   3.481  11.638  0.6862 -1.6568 -0.2966
 5766SOL     OW28756   4.319   4.091  15.821 -0.0745 -0.2188 -0.1615
 5766SOL    HW128757   4.349   4.106  15.731  1.7121  1.3372  0.6965
 5766SOL    HW228758   4.396   4.047  15.857  0.2751 -0.0280 -0.6692
 5767SOL     OW28759   3.586   4.068   7.235 -0.1332  0.3835 -0.0766
 5767SOL    HW128760   3.550   4.043   7.150  1.6288 -1.5397 -0.2748
 5767SOL    HW228761   3.520   4.034   7.295  0.8894  0.3220  1.0188
 5768SOL     OW28762   4.718   4.316   6.377 -0.7107  0.3882  0.4647
 5768SOL    HW128763   0.058   4.250   6.406 -2.4825 -1.1347  0.8667
 5768SOL    HW228764   4.701   4.364   6.459 -0.7825  0.3806  0.4545
 5769SOL     OW28765   4.192   3.667  16.738 -0.4959  0.3738 -0.1111
 5769SOL    HW128766   4.146   3.664  16.654  0.1427 -2.9710 -0.3389
 5769SOL    HW228767   4.117   3.671  16.798 -0.8213 -1.2929 -0.4235
 5770SOL     OW28768   1.722   0.052  10.469  0.5540  0.3678  0.0140
 5770SOL    HW128769   1.795   0.109  10.444  0.2861  0.2784 -0.9992
 5770SOL    HW228770   1.751   0.035  10.558  0.6365  0.4686  0.0074
 5771SOL     OW28771   3.165   0.963  11.042  0.4754  0.1423 -0.2434
 5771SOL    HW128772   3.230   0.942  10.974  1.6152 -0.3859  1.0069
 5771SOL    HW228773   3.219   1.001  11.111  1.2698  0.2910 -0.9380
 5772SOL     OW28774   0.118   2.744  10.575  0.1587  0.8132  0.4576
 5772SOL    HW128775   0.136   2.652  10.596  1.8102  0.7048 -1.4130
 5772SOL    HW228776   0.065   2.764  10.652  0.1410  0.4993  0.5249
 5773SOL     OW28777   2.348   0.966  11.661 -0.1230  0.1887 -0.0298
 5773SOL    HW128778   2.421   1.024  11.639 -0.1313 -0.1044 -0.8039
 5773SOL    HW228779   2.277   1.023  11.633 -0.8639 -0.5910  0.2938
 5774SOL     OW28780   4.076   3.886   8.033 -0.2669 -0.0565  0.3177
 5774SOL    HW128781   4.121   3.890   8.117 -1.9399 -0.1041  1.2270
 5774SOL    HW228782   3.993   3.838   8.040  0.2936 -1.0349  0.2006
 5775SOL     OW28783   2.982   2.638   9.262  0.2472  0.1109 -0.1895
 5775SOL    HW128784   2.981   2.545   9.238  1.7685  0.6385 -2.2891
 5775SOL    HW228785   3.045   2.632   9.333  1.1190 -0.9197 -1.0471
 5776SOL     OW28786   3.716   1.995   8.199  0.3844 -0.2595  0.3165
 5776SOL    HW128787   3.784   2.058   8.177  0.6958 -1.6062 -2.5144
 5776SOL    HW228788   3.652   2.047   8.247 -0.2838  0.0748 -0.9374
 5777SOL     OW28789   2.478   4.360   8.759  0.1930  0.5924  0.4445
 5777SOL    HW128790   2.426   4.362   8.679 -0.3083  0.6673  0.7699
 5777SOL    HW228791   2.533   4.282   8.754 -0.5361  0.1300 -0.3419
 5778SOL     OW28792   2.436   2.206  13.687 -0.2300  0.0748 -0.2139
 5778SOL    HW128793   2.462   2.258  13.611 -0.5639  0.6285  0.0548
 5778SOL    HW228794   2.522   2.186  13.723  0.3823  2.1265 -0.5229
 5779SOL     OW28795   2.178   2.849   4.615  0.0967  0.1100  0.5716
 5779SOL    HW128796   2.123   2.927   4.625 -1.5207 -1.2866  2.6367
 5779SOL    HW228797   2.113   2.784   4.644  1.5526 -0.8966  1.5830
 5780SOL     OW28798   4.398   2.907   6.685  0.0069  0.4168 -0.1083
 5780SOL    HW128799   4.377   2.857   6.763  1.0486 -0.1529 -0.1859
 5780SOL    HW228800   4.322   2.964   6.679  0.0488  0.6822  1.7486
 5781SOL     OW28801   3.716   2.440   3.269  0.3637  0.6309  0.2942
 5781SOL    HW128802   3.645   2.503   3.260  0.9063  1.3188  0.9043
 5781SOL    HW228803   3.794   2.484   3.236  1.2560  0.1404  1.7420
 5782SOL     OW28804   4.599   3.313   8.506  0.1242 -0.0787 -0.0716
 5782SOL    HW128805   4.600   3.291   8.599  1.8866  2.2953  0.4620
 5782SOL    HW228806   4.607   3.408   8.502  0.7699 -0.2429 -2.6436
 5783SOL     OW28807   0.410   2.389   6.275  0.4533  0.1067  0.6156
 5783SOL    HW128808   0.434   2.431   6.357  1.2173 -0.2155  0.5558
 5783SOL    HW228809   0.316   2.384   6.292  0.3829  1.2941  0.5877
 5784SOL     OW28810   2.879   1.247   7.545 -0.1664  0.4140  0.2031
 5784SOL    HW128811   2.960   1.212   7.582  0.4678  0.6031 -0.9776
 5784SOL    HW228812   2.810   1.205   7.595  0.3490 -0.4678  0.1589
 5785SOL     OW28813   2.190   4.188   9.986 -0.3369  0.2578  0.5660
 5785SOL    HW128814   2.204   4.261  10.046 -0.1560 -0.1364  1.0080
 5785SOL    HW228815   2.158   4.124  10.050 -1.1705  0.3071  0.1923
 5786SOL     OW28816   1.754   3.918   6.448 -0.8472 -0.3662  0.0809
 5786SOL    HW128817   1.782   3.900   6.538  0.6306  1.1129 -0.0815
 5786SOL    HW228818   1.708   4.002   6.452 -0.4263 -0.1366  0.0247
 5787SOL     OW28819   4.677   0.207   4.156 -0.0866  0.3599  0.5067
 5787SOL    HW128820   0.045   0.180   4.165 -1.1189 -3.9495 -2.1390
 5787SOL    HW228821   4.641   0.157   4.229 -1.1458  2.9783  1.7812
 5788SOL     OW28822   3.931   4.214   9.767  0.2969 -0.6142  0.1566
 5788SOL    HW128823   3.948   4.277   9.837  1.1727 -2.1072  1.2802
 5788SOL    HW228824   3.888   4.264   9.698 -0.9553 -0.9481  0.6887
 5789SOL     OW28825   3.637   2.927   3.112  0.3237 -0.2812 -0.3026
 5789SOL    HW128826   3.568   2.934   3.178 -0.3248 -0.8644 -0.9099
 5789SOL    HW228827   3.664   3.017   3.126  1.0136 -0.9726  2.8257
 5790SOL     OW28828   1.151   3.899   9.553 -0.1246 -0.8825 -0.4100
 5790SOL    HW128829   1.061   3.909   9.521  0.1836 -1.8298 -1.5986
 5790SOL    HW228830   1.158   3.959   9.626  1.2295  0.3434 -1.5397
 5791SOL     OW28831   3.263   2.241   8.288  0.0486  0.6200 -0.5480
 5791SOL    HW128832   3.222   2.233   8.374 -0.2365  0.2654 -0.7163
 5791SOL    HW228833   3.190   2.247   8.227  1.0186  1.5472 -1.6307
 5792SOL     OW28834   3.364   3.569   6.967  0.2042 -0.1026 -0.0940
 5792SOL    HW128835   3.425   3.594   6.897  1.4266 -1.1163  0.6125
 5792SOL    HW228836   3.293   3.571   6.903  0.3736  2.0752 -0.2404
 5793SOL     OW28837   1.534   4.703   8.344 -0.7430 -0.0881 -0.6500
 5793SOL    HW128838   1.451   4.656   8.333  0.5387 -2.0143 -2.1251
 5793SOL    HW228839   1.583   4.652   8.279  0.8762 -0.9601  1.2469
 5794SOL     OW28840   3.191   3.825   6.367  0.2797 -0.0764 -0.2120
 5794SOL    HW128841   3.137   3.797   6.293  0.3241  0.6918 -0.5341
 5794SOL    HW228842   3.173   3.760   6.434 -1.1152  0.6957  0.1651
 5795SOL     OW28843   4.123   2.298  14.252  0.0619  0.3201  0.1779
 5795SOL    HW128844   4.030   2.304  14.272  0.7368 -1.0610  3.7878
 5795SOL    HW228845   4.164   2.356  14.315  3.3248  0.3236 -1.9669
 5796SOL     OW28846   2.419   3.084   4.614 -0.1833  0.3975 -0.2213
 5796SOL    HW128847   2.330   3.049   4.616  1.2408 -3.0229  2.4350
 5796SOL    HW228848   2.403   3.168   4.572 -0.8749 -0.6236 -2.0201
 5797SOL     OW28849   1.617   4.279  16.500 -0.0981  0.2213 -0.0971
 5797SOL    HW128850   1.621   4.233  16.584 -0.9685 -0.0887 -0.2128
 5797SOL    HW228851   1.683   4.221  16.462 -0.1996  0.8349 -1.2218
 5798SOL     OW28852   1.903   1.472   5.045 -0.0791 -0.1090  0.2613
 5798SOL    HW128853   1.947   1.406   4.992  1.1874  0.8173  0.1511
 5798SOL    HW228854   1.814   1.439   5.042  0.2207 -0.7473 -1.7577
 5799SOL     OW28855   2.225   2.080   4.749  0.4750  0.3341  0.8507
 5799SOL    HW128856   2.178   2.015   4.802 -0.2462 -1.4619 -2.0007
 5799SOL    HW228857   2.149   2.136   4.739  1.1517  0.6704 -2.3910
 5800SOL     OW28858   4.564   1.089   9.040 -0.3637  0.0029 -0.3083
 5800SOL    HW128859   4.570   1.043   8.956  0.0258 -0.5059 -0.0055
 5800SOL    HW228860   4.476   1.064   9.067 -0.1494  0.4473  0.8234
 5801SOL     OW28861   2.161   4.644   4.877 -0.0378  0.4963  0.5268
 5801SOL    HW128862   2.215   4.703   4.826  1.1082 -1.1544 -0.1604
 5801SOL    HW228863   2.082   4.698   4.874 -0.7230 -0.5205  0.2568
 5802SOL     OW28864   4.289   4.368   8.946 -0.0109 -0.1262  0.4165
 5802SOL    HW128865   4.336   4.448   8.968  0.7516 -0.5316  0.2568
 5802SOL    HW228866   4.290   4.316   9.027 -0.2213  0.2850  0.6825
 5803SOL     OW28867   2.889   1.049   7.322 -0.5890  0.0743  0.2312
 5803SOL    HW128868   2.889   1.136   7.362 -1.4959 -0.0214  0.4409
 5803SOL    HW228869   2.981   1.023   7.329 -0.4906  0.3731  0.0298
 5804SOL     OW28870   0.662   3.586   2.391  0.3121  0.8724 -0.3250
 5804SOL    HW128871   0.668   3.499   2.431 -0.5108  0.9409 -0.0573
 5804SOL    HW228872   0.568   3.603   2.398 -0.0838 -0.7830 -1.6678
 5805SOL     OW28873   2.620   0.382  10.984 -0.6755 -0.3902  0.1787
 5805SOL    HW128874   2.587   0.292  10.981 -3.5307  0.8735 -5.6108
 5805SOL    HW228875   2.555   0.429  10.931 -0.5387 -1.6269 -1.0862
 5806SOL     OW28876   0.863   2.603   0.256  0.4372  0.1016 -0.0450
 5806SOL    HW128877   0.884   2.651   0.336  1.5692 -2.2886  1.1191
 5806SOL    HW228878   0.847   2.513   0.286  0.5246 -0.0821 -0.5483
 5807SOL     OW28879   0.424   1.908  11.584 -0.0062  0.3845  0.8090
 5807SOL    HW128880   0.504   1.869  11.550  0.9054  1.3452  1.8404
 5807SOL    HW228881   0.459   1.989  11.621  1.4589  0.2649 -0.2771
 5808SOL     OW28882   2.673   2.721   5.013  0.0821 -0.2158 -0.3089
 5808SOL    HW128883   2.753   2.704   5.063  0.5399  0.6507 -0.7426
 5808SOL    HW228884   2.707   2.719   4.923  2.4799  1.4606  0.5575
 5809SOL     OW28885   1.001   3.565   1.172 -0.3830 -0.5251  0.0755
 5809SOL    HW128886   0.960   3.633   1.119  0.5113 -2.9398 -3.7552
 5809SOL    HW228887   0.951   3.562   1.253 -1.7370  1.3196 -0.6950
 5810SOL     OW28888   1.785   2.549   6.618 -0.5986  0.2983  0.0615
 5810SOL    HW128889   1.868   2.504   6.604  0.4470  1.9004  1.1189
 5810SOL    HW228890   1.802   2.585   6.705 -0.9797 -0.8397  0.6206
 5811SOL     OW28891   1.727   3.748  13.209 -0.7640 -0.0201  0.0102
 5811SOL    HW128892   1.667   3.716  13.142  0.8823 -1.9685 -0.5272
 5811SOL    HW228893   1.809   3.704  13.187 -0.7979  0.4614 -1.0492
 5812SOL     OW28894   4.620   3.566   2.746  0.0402  0.2936 -0.2109
 5812SOL    HW128895   4.554   3.629   2.774 -1.5265 -1.3480 -0.2047
 5812SOL    HW228896   4.584   3.488   2.790  2.2518  0.8815  2.6662
 5813SOL     OW28897   3.018   3.878  12.355 -0.2299  0.1559 -0.2661
 5813SOL    HW128898   2.926   3.852  12.357 -0.3297  0.4059 -1.5608
 5813SOL    HW228899   3.060   3.807  12.403 -0.4496 -0.1918 -0.5890
 5814SOL     OW28900   2.482   2.869  10.409  0.1014  0.0065 -0.2524
 5814SOL    HW128901   2.468   2.781  10.372  1.9298 -0.1291 -0.6027
 5814SOL    HW228902   2.415   2.925  10.369  0.3911  1.3397  1.1497
 5815SOL     OW28903   1.085   0.931  10.562 -0.0018 -0.3071 -0.4617
 5815SOL    HW128904   1.037   0.888  10.632 -0.9622  0.2041 -0.8102
 5815SOL    HW228905   1.108   1.004  10.620 -0.5282  0.0648 -0.7299
 5816SOL     OW28906   0.708   4.564   6.053 -0.0700  0.1079 -0.2047
 5816SOL    HW128907   0.686   4.581   6.144  1.9221  0.8564  0.1337
 5816SOL    HW228908   0.709   4.469   6.057  0.2394  0.1461  0.5272
 5817SOL     OW28909   1.410   0.675   2.608  0.7911  0.4847 -0.5642
 5817SOL    HW128910   1.316   0.676   2.626  0.5045  2.2085 -2.1175
 5817SOL    HW228911   1.423   0.768   2.589 -2.3033  1.2282  1.1273
 5818SOL     OW28912   3.734   0.052   5.217 -0.6152  0.0543 -0.2229
 5818SOL    HW128913   3.704   4.712   5.283 -0.2218  0.5434  0.4266
 5818SOL    HW228914   3.794   4.722   5.166  0.7333  0.8586  0.5370
 5819SOL     OW28915   3.446   4.120   6.381  0.1649 -0.4493  0.0822
 5819SOL    HW128916   3.539   4.104   6.396  0.5774 -0.0468 -2.0147
 5819SOL    HW228917   3.425   4.045   6.326  2.2062 -0.1682 -1.0989
 5820SOL     OW28918   1.433   1.944   6.850 -0.0471  1.1615 -0.1440
 5820SOL    HW128919   1.527   1.936   6.864 -0.4050 -2.2291  0.2664
 5820SOL    HW228920   1.418   2.031   6.886 -1.6079  0.3492  1.1775
 5821SOL     OW28921   2.391   3.956  14.637  0.3483  0.5048 -0.3457
 5821SOL    HW128922   2.463   3.950  14.575  1.6429  0.5330  1.1476
 5821SOL    HW228923   2.339   4.027  14.598  0.7195  0.0141 -1.7046
 5822SOL     OW28924   3.921   2.933   4.945 -0.3362  0.0349 -0.2250
 5822SOL    HW128925   3.981   3.002   4.975  0.2508 -0.4562 -0.2783
 5822SOL    HW228926   3.901   2.880   5.021  0.0551  0.7256  0.3577
 5823SOL     OW28927   1.364   2.680  15.333 -0.6292 -0.0657 -0.3595
 5823SOL    HW128928   1.455   2.685  15.362 -0.4266 -2.3596 -0.5917
 5823SOL    HW228929   1.341   2.587  15.334  2.0133 -0.7144  0.9489
 5824SOL     OW28930   1.410   0.884   7.211  0.3624 -0.1679 -0.1018
 5824SOL    HW128931   1.314   0.880   7.213  0.3160  1.6468  1.3412
 5824SOL    HW228932   1.426   0.971   7.248 -0.1326 -0.1973  0.1862
 5825SOL     OW28933   1.096   2.627  10.311  0.1298 -0.0233 -0.2162
 5825SOL    HW128934   1.128   2.701  10.363 -0.6297  1.4581 -1.8762
 5825SOL    HW228935   1.010   2.656  10.279 -0.3926 -3.2715 -1.7023
 5826SOL     OW28936   1.467   3.038   3.274 -0.2431  0.2358 -0.2028
 5826SOL    HW128937   1.463   2.962   3.216  0.4798 -0.3324  0.4841
 5826SOL    HW228938   1.558   3.031   3.302 -0.2926  0.8319  0.1117
 5827SOL     OW28939   2.173   2.554   5.846  0.1522 -1.0423  0.4433
 5827SOL    HW128940   2.099   2.568   5.787  0.3882 -1.0116  0.1533
 5827SOL    HW228941   2.226   2.631   5.824 -1.4869 -0.0550 -0.0520
 5828SOL     OW28942   2.040   3.008   5.706 -0.3938 -0.7632  0.2496
 5828SOL    HW128943   2.116   3.007   5.647 -1.0308  0.7121 -0.5855
 5828SOL    HW228944   2.084   3.051   5.779 -1.0148  0.7559 -0.2615
 5829SOL     OW28945   4.137   2.476  11.503 -0.5185  0.3981  0.0234
 5829SOL    HW128946   4.158   2.471  11.410  0.2288  0.5525  0.1779
 5829SOL    HW228947   4.221   2.446  11.538 -1.0882 -0.9382  0.2137
 5830SOL     OW28948   4.059   0.405   6.541 -0.0705  0.1676 -0.6073
 5830SOL    HW128949   3.995   0.436   6.605  0.0409  0.4748 -0.6415
 5830SOL    HW228950   4.012   0.430   6.461  1.0717  2.7673 -0.4747
 5831SOL     OW28951   2.262   1.820  11.841  0.0177  0.2115 -0.2070
 5831SOL    HW128952   2.345   1.867  11.839  1.0498 -1.6884 -2.1241
 5831SOL    HW228953   2.241   1.819  11.747 -1.7028  0.2681  0.1730
 5832SOL     OW28954   1.825   3.557   4.820  0.0937  0.8791  0.0798
 5832SOL    HW128955   1.810   3.639   4.868 -1.5647  1.2181 -1.0108
 5832SOL    HW228956   1.865   3.588   4.738  1.0088  0.8221  0.5031
 5833SOL     OW28957   3.110   2.992   2.570  0.7469  0.0971 -0.2202
 5833SOL    HW128958   3.064   2.962   2.491 -0.0497 -1.2902  0.7501
 5833SOL    HW228959   3.186   2.934   2.573  1.1262  0.5160 -1.8010
 5834SOL     OW28960   2.208   1.555   6.702  0.2159  0.3045 -0.7045
 5834SOL    HW128961   2.234   1.586   6.789  0.7974  0.5609 -0.9698
 5834SOL    HW228962   2.120   1.522   6.721  0.6315  0.4331  1.4917
 5835SOL     OW28963   4.538   0.481   7.417 -0.0366 -0.1022  0.1776
 5835SOL    HW128964   4.513   0.455   7.505 -1.8086 -1.4318 -0.7262
 5835SOL    HW228965   4.632   0.464   7.413 -0.1463 -0.4784 -0.9828
 5836SOL     OW28966   3.677   3.157   4.222 -0.1621  1.0294  0.0164
 5836SOL    HW128967   3.638   3.135   4.307  0.9766  0.6300  0.4341
 5836SOL    HW228968   3.771   3.156   4.238 -0.1707  0.1529  0.0370
 5837SOL     OW28969   2.302   3.268   2.039  0.0351  0.0507  0.0975
 5837SOL    HW128970   2.252   3.349   2.034  0.5524  0.3659 -0.0698
 5837SOL    HW228971   2.357   3.273   1.960  0.6605  0.4711  0.5565
 5838SOL     OW28972   2.747   4.258   6.741 -0.5455 -0.4126 -0.4177
 5838SOL    HW128973   2.778   4.223   6.825 -2.2021 -0.8511  0.0192
 5838SOL    HW228974   2.742   4.350   6.769 -0.3698 -0.9550  1.3983
 5839SOL     OW28975   3.727   2.154   4.434 -0.1760  0.1902 -0.1798
 5839SOL    HW128976   3.763   2.242   4.444 -0.7037 -0.0531  3.7722
 5839SOL    HW228977   3.781   2.108   4.498 -0.2597 -0.4111 -0.5404
 5840SOL     OW28978   0.316   0.308  16.496  0.1298  1.0319  0.1912
 5840SOL    HW128979   0.368   0.358  16.559 -0.1138  0.4383  0.8686
 5840SOL    HW228980   0.231   0.330  16.535 -0.3331  0.6216 -0.5962
 5841SOL     OW28981   4.137   1.273   5.004  0.1487 -0.0983  0.4220
 5841SOL    HW128982   4.088   1.341   4.959 -1.4625 -1.3529  0.2545
 5841SOL    HW228983   4.221   1.309   5.033 -0.3388  1.7921 -0.5162
 5842SOL     OW28984   4.184   2.316   1.347 -0.3447 -0.3294  0.4268
 5842SOL    HW128985   4.251   2.264   1.390  0.5431  1.4587  1.2162
 5842SOL    HW228986   4.112   2.312   1.410 -1.1049  0.5480 -0.3758
 5843SOL     OW28987   1.527   2.985   5.226  0.3096 -0.9483 -0.3435
 5843SOL    HW128988   1.577   2.903   5.218 -0.0724 -1.1926 -0.2162
 5843SOL    HW228989   1.535   3.025   5.139 -1.5118 -0.0582 -0.0959
 5844SOL     OW28990   0.183   1.224  10.771 -0.1149  0.0877 -0.1382
 5844SOL    HW128991   0.128   1.146  10.770 -0.8008  0.5432  3.0884
 5844SOL    HW228992   0.270   1.195  10.797  0.3090 -0.1816 -1.8378
 5845SOL     OW28993   1.786   2.042   5.098  0.6762  0.2700 -0.1111
 5845SOL    HW128994   1.855   2.055   5.163  0.3755  1.0463  0.0549
 5845SOL    HW228995   1.826   1.977   5.040  0.8485 -0.7538  1.1326
 5846SOL     OW28996   3.206   0.020   2.741 -0.2000 -0.1653 -0.2753
 5846SOL    HW128997   3.185   4.677   2.676  0.0092  0.2094 -0.7259
 5846SOL    HW228998   3.215   4.687   2.818 -1.9399  0.7992  0.6487
 5847SOL     OW28999   0.220   3.316   7.674 -0.1495  0.1224 -0.1976
 5847SOL    HW129000   0.127   3.303   7.654  0.3270 -1.4028 -1.4195
 5847SOL    HW229001   0.260   3.349   7.593 -1.8251  0.6206 -0.8212
 5848SOL     OW29002   3.323   3.469  10.623  0.3614  0.3798  0.0014
 5848SOL    HW129003   3.295   3.555  10.591  0.4616  0.5192  0.2930
 5848SOL    HW229004   3.261   3.445  10.691 -1.4998 -2.4203 -2.6699
 5849SOL     OW29005   2.391   2.062  13.895  0.2939 -0.4618 -0.4223
 5849SOL    HW129006   2.341   1.997  13.846 -1.7988  0.2599  0.7473
 5849SOL    HW229007   2.406   2.124  13.823  2.7534 -2.6062 -1.7598
 5850SOL     OW29008   2.527   0.212   7.135  0.2469  0.0907  0.2279
 5850SOL    HW129009   2.588   0.216   7.209  1.5018  2.4855 -0.9501
 5850SOL    HW229010   2.529   0.301   7.099 -0.7703  0.1476  0.3064
 5851SOL     OW29011   2.517   2.853  16.651  0.0926  0.1584 -0.0913
 5851SOL    HW129012   2.470   2.782  16.607  0.9141 -1.2198  1.2351
 5851SOL    HW229013   2.471   2.930  16.619  2.1081 -0.2457 -3.9441
 5852SOL     OW29014   1.078   4.577   7.040 -0.2890 -0.2763  0.1100
 5852SOL    HW129015   1.169   4.580   7.012 -0.5223  1.3072 -0.5062
 5852SOL    HW229016   1.086   4.502   7.098  0.6869 -0.0309  0.2774
 5853SOL     OW29017   2.204   3.253  15.113 -0.5315  0.2352  0.0195
 5853SOL    HW129018   2.292   3.281  15.088 -0.9018  0.2432 -1.2822
 5853SOL    HW229019   2.217   3.161  15.090 -2.2203 -0.1218  0.4970
 5854SOL     OW29020   2.537   0.863   3.153 -0.0483 -0.2081 -0.0823
 5854SOL    HW129021   2.615   0.918   3.149 -0.9857  1.2058  0.9443
 5854SOL    HW229022   2.578   0.778   3.138 -0.2320 -0.8271  3.0754
 5855SOL     OW29023   3.830   2.465   2.927 -0.5368 -0.0256  0.2957
 5855SOL    HW129024   3.870   2.486   3.012  2.3851  0.4092 -1.2018
 5855SOL    HW229025   3.771   2.540   2.914 -1.5577 -0.6728  1.2255
 5856SOL     OW29026   1.282   2.898  17.552  0.1802 -0.4775 -0.3596
 5856SOL    HW129027   1.193   2.879  17.580  0.7709 -2.0419  0.5169
 5856SOL    HW229028   1.270   2.981  17.507 -0.5668 -0.9696 -1.0554
 5857SOL     OW29029   2.056   0.598   9.847 -0.0173  0.0875 -0.2080
 5857SOL    HW129030   2.007   0.534   9.899  1.9036  0.1444  1.7028
 5857SOL    HW229031   2.051   0.564   9.758 -0.3966 -3.4684  1.1596
 5858SOL     OW29032   2.643   2.465  11.752  0.1447 -0.5814  0.2337
 5858SOL    HW129033   2.603   2.380  11.733  0.8394 -1.0833  0.9866
 5858SOL    HW229034   2.581   2.522  11.707 -0.0630 -1.8485 -1.0958
 5859SOL     OW29035   0.549   4.288   7.735 -0.2153  0.0843  0.1228
 5859SOL    HW129036   0.569   4.379   7.716 -0.3507  0.1280  0.1898
 5859SOL    HW229037   0.631   4.249   7.707 -0.6840 -1.6974  1.2178
 5860SOL     OW29038   4.673   4.248   6.132  0.4271 -0.0586 -0.1947
 5860SOL    HW129039   4.716   4.229   6.215 -1.0868  0.3754  0.7020
 5860SOL    HW229040   0.024   4.264   6.074 -0.6341 -0.8452 -1.7907
 5861SOL     OW29041   0.882   1.560   0.543  0.1427 -0.1264 -0.2636
 5861SOL    HW129042   0.832   1.479   0.554 -2.0375  1.6216  2.6598
 5861SOL    HW229043   0.840   1.629   0.593 -0.8184 -1.3451  0.6208
 5862SOL     OW29044   1.799   0.655   6.363  0.6159 -0.4746  0.1878
 5862SOL    HW129045   1.869   0.710   6.328 -0.7195  1.3633  0.4175
 5862SOL    HW229046   1.773   0.692   6.448 -3.1073 -1.5434 -0.4876
 5863SOL     OW29047   0.813   3.172   9.998 -0.8307  0.0276 -0.7100
 5863SOL    HW129048   0.771   3.158  10.083  0.0028  0.2364 -0.2634
 5863SOL    HW229049   0.899   3.136  10.018  0.1277  2.3079 -0.6427
 5864SOL     OW29050   3.588   1.146  12.493 -0.4274  0.5881 -0.0994
 5864SOL    HW129051   3.581   1.182  12.405  0.0000  0.3291 -0.2424
 5864SOL    HW229052   3.582   1.224  12.548  2.2218 -0.2422  1.3703
 5865SOL     OW29053   0.281   0.248   2.456 -0.0248  0.1615  0.3682
 5865SOL    HW129054   0.372   0.220   2.467 -0.2674 -0.9229 -0.4423
 5865SOL    HW229055   0.243   0.165   2.427 -0.2660  0.4919 -0.2585
 5866SOL     OW29056   2.335   2.331   3.890  0.5709  0.4730 -0.9730
 5866SOL    HW129057   2.279   2.254   3.896 -0.4432  1.1506 -1.9386
 5866SOL    HW229058   2.366   2.341   3.980 -1.8315 -0.4718 -0.0461
 5867SOL     OW29059   4.354   3.080   3.091  0.0550  0.2498  0.3478
 5867SOL    HW129060   4.321   3.131   3.017 -1.2733 -0.3231  0.5428
 5867SOL    HW229061   4.340   2.989   3.066  0.2591  0.4240 -0.3861
 5868SOL     OW29062   4.432   3.868   4.659 -0.4290  0.7315  0.3427
 5868SOL    HW129063   4.464   3.787   4.619  0.4863  2.3122 -2.0691
 5868SOL    HW229064   4.338   3.851   4.649 -0.1425 -0.7278  0.0790
 5869SOL     OW29065   0.138   0.916   8.918  0.3592 -0.2361  0.0208
 5869SOL    HW129066   0.045   0.920   8.898  0.2834 -0.1381  0.3907
 5869SOL    HW229067   0.149   0.994   8.972  2.6171 -1.5721  1.5437
 5870SOL     OW29068   2.535   3.951   3.737  0.0322 -0.5689 -0.2574
 5870SOL    HW129069   2.616   3.911   3.706  1.6339  1.8425  0.8301
 5870SOL    HW229070   2.557   3.992   3.820  0.8752 -0.3987 -0.5733
 5871SOL     OW29071   0.398   1.324   3.336  0.3482 -0.1931  0.2202
 5871SOL    HW129072   0.395   1.229   3.341 -0.2602 -0.1803  0.0241
 5871SOL    HW229073   0.464   1.358   3.274 -0.0602  0.8511  0.3497
 5872SOL     OW29074   3.654   4.189   5.059 -0.5677 -0.3627 -0.3143
 5872SOL    HW129075   3.599   4.134   5.114  1.4403 -1.8864  0.1502
 5872SOL    HW229076   3.735   4.139   5.051 -0.6422 -0.4115 -0.7520
 5873SOL     OW29077   1.602   0.942   5.235  0.4228  0.2440 -0.0613
 5873SOL    HW129078   1.533   0.988   5.187  1.0211  2.5421  1.2457
 5873SOL    HW229079   1.595   0.855   5.196 -2.0645  0.2912  0.3186
 5874SOL     OW29080   0.581   1.885   4.974  0.1590 -1.1463  0.2754
 5874SOL    HW129081   0.552   1.910   5.061 -0.8582 -1.9091  0.1547
 5874SOL    HW229082   0.669   1.855   4.994  0.5024  0.2947  0.9022
 5875SOL     OW29083   1.344   0.531   8.227 -0.0382 -0.4078  0.3572
 5875SOL    HW129084   1.278   0.599   8.234  0.7313  0.1964  1.9516
 5875SOL    HW229085   1.333   0.471   8.301 -0.3654 -0.9544 -0.1379
 5876SOL     OW29086   1.201   1.974  13.882  0.5661  0.2767 -0.2744
 5876SOL    HW129087   1.106   1.982  13.896  0.2074 -2.1156 -1.3018
 5876SOL    HW229088   1.203   1.879  13.866  1.7032 -0.1014  2.0748
 5877SOL     OW29089   1.105   0.696   3.594  0.5550  0.1218 -0.6400
 5877SOL    HW129090   1.127   0.608   3.625  0.9506 -1.1716 -4.5716
 5877SOL    HW229091   1.129   0.692   3.501  1.0800 -3.6706 -0.3208
 5878SOL     OW29092   2.563   3.923  11.904 -0.3341  0.0130  0.6437
 5878SOL    HW129093   2.550   3.865  11.829 -1.6777  0.2960  0.6611
 5878SOL    HW229094   2.497   3.875  11.955 -0.4789 -0.9461 -0.4599
 5879SOL     OW29095   2.437   2.968  12.594 -0.2564 -0.4754 -0.2127
 5879SOL    HW129096   2.480   2.958  12.679  0.1692  3.0498  0.0016
 5879SOL    HW229097   2.350   3.004  12.610  0.7892  1.6658  0.6984
 5880SOL     OW29098   0.045   3.724  13.435  0.0650  0.5255  0.3699
 5880SOL    HW129099   4.683   3.686  13.413  1.5729 -0.3513 -3.7883
 5880SOL    HW229100   0.050   3.713  13.530  0.9547 -2.2129 -0.0082
 5881SOL     OW29101   2.023   1.044   9.116 -0.1215 -0.2883 -0.3868
 5881SOL    HW129102   2.093   1.096   9.155  1.2264 -2.0686 -0.3893
 5881SOL    HW229103   2.091   0.989   9.076 -1.7512 -1.2421 -1.8467
 5882SOL     OW29104   1.513   1.474   4.464  0.4448  0.4724  0.1683
 5882SOL    HW129105   1.593   1.421   4.463 -0.3764 -0.7673 -1.3439
 5882SOL    HW229106   1.543   1.555   4.505 -1.3292  1.1511  0.1350
 5883SOL     OW29107   2.655   2.537   9.538  0.1404 -0.1312 -0.1887
 5883SOL    HW129108   2.602   2.496   9.607 -0.3055  1.1823  0.2615
 5883SOL    HW229109   2.666   2.627   9.570  0.3335 -0.7959  1.6137
 5884SOL     OW29110   1.968   1.214   6.355 -0.7211 -0.8252  0.0623
 5884SOL    HW129111   1.986   1.120   6.362 -0.8148 -0.9618 -1.6127
 5884SOL    HW229112   2.037   1.255   6.408 -1.8943  1.1796  0.0178
 5885SOL     OW29113   3.367   1.398   2.664  0.1795 -0.1175  0.4273
 5885SOL    HW129114   3.298   1.464   2.670 -0.6005 -0.7920 -1.1121
 5885SOL    HW229115   3.392   1.391   2.756 -3.0255 -1.0344  1.2085
 5886SOL     OW29116   1.996   4.326   3.465  0.9921  0.3860 -0.3094
 5886SOL    HW129117   1.980   4.264   3.393 -0.1367  1.5563 -1.0846
 5886SOL    HW229118   2.039   4.398   3.418 -0.3627  1.2150 -0.2886
 5887SOL     OW29119   3.286   1.423   7.991  0.0256  1.0636 -0.4831
 5887SOL    HW129120   3.203   1.381   8.012  1.5470 -0.1992  2.9240
 5887SOL    HW229121   3.344   1.361   8.036 -1.2792 -0.0990 -0.4200
 5888SOL     OW29122   1.724   4.700  10.744 -0.1182 -0.4204  0.4208
 5888SOL    HW129123   1.630   4.717  10.739 -0.1880 -0.3730  2.1646
 5888SOL    HW229124   1.728   4.615  10.787 -0.2111 -1.1142 -0.9262
 5889SOL     OW29125   3.352   4.022   4.560 -1.0315  0.3812  0.0711
 5889SOL    HW129126   3.284   3.968   4.521 -0.7206  2.0385 -2.8196
 5889SOL    HW229127   3.293   4.081   4.606 -0.6814 -0.3778  1.4791
 5890SOL     OW29128   3.046   4.709   1.313 -0.3904 -0.1122  0.3348
 5890SOL    HW129129   3.084   0.073   1.322 -0.8361  0.0190  0.9282
 5890SOL    HW229130   2.996   4.711   1.231  0.1177 -1.6157 -0.0226
 5891SOL     OW29131   1.138   2.371   1.039  0.3033  0.2701  0.3644
 5891SOL    HW129132   1.224   2.386   0.999  0.8743  2.1073  2.2432
 5891SOL    HW229133   1.117   2.464   1.046 -2.6992 -0.3418 -0.8882
 5892SOL     OW29134   1.152   3.932  17.168 -0.0712  0.1267 -0.4044
 5892SOL    HW129135   1.090   3.990  17.123  0.7872  1.5721  0.2724
 5892SOL    HW229136   1.183   3.882  17.093  1.7210  0.4135  0.1429
 5893SOL     OW29137   4.521   0.436   4.179 -0.0038  0.4704 -0.1015
 5893SOL    HW129138   4.588   0.368   4.184  0.1550  0.6910  0.9069
 5893SOL    HW229139   4.500   0.433   4.086 -0.6340  1.8216 -0.0162
 5894SOL     OW29140   2.818   1.605  12.762 -0.2038 -0.2957 -0.1625
 5894SOL    HW129141   2.865   1.522  12.767  0.6319  0.1662 -0.4245
 5894SOL    HW229142   2.731   1.579  12.730 -0.8255  1.1700  0.3177
 5895SOL     OW29143   2.413   2.795   5.044  0.3218  0.1547  0.4248
 5895SOL    HW129144   2.506   2.771   5.049  0.5291  0.5705 -1.5752
 5895SOL    HW229145   2.371   2.710   5.040 -3.6885  2.1212  1.1484
 5896SOL     OW29146   3.652   0.713  12.774  0.1370 -0.4923  0.0849
 5896SOL    HW129147   3.690   0.800  12.783  0.4045 -0.3435 -2.5310
 5896SOL    HW229148   3.727   0.661  12.747 -0.2007  0.4834 -2.7032
 5897SOL     OW29149   0.630   0.608   9.052  0.3839  0.7206 -0.5269
 5897SOL    HW129150   0.543   0.595   9.014 -0.1264 -1.7845  1.4924
 5897SOL    HW229151   0.642   0.518   9.082 -1.5423  0.2809 -1.0630
 5898SOL     OW29152   4.152   3.127  17.091  0.4435 -0.1082  0.7699
 5898SOL    HW129153   4.163   3.068  17.016 -0.0354  1.5931 -0.6405
 5898SOL    HW229154   4.078   3.088  17.137  1.6898 -1.3539  1.6828
 5899SOL     OW29155   3.788   2.813  14.797 -0.3062  0.6016 -0.7832
 5899SOL    HW129156   3.764   2.720  14.797  0.6182  0.3561  0.3291
 5899SOL    HW229157   3.884   2.820  14.792 -0.1889  1.2762  2.5523
 5900SOL     OW29158   1.442   1.107   5.075 -0.2027  0.6094  0.1371
 5900SOL    HW129159   1.374   1.117   5.141  0.0789  0.2824  0.4725
 5900SOL    HW229160   1.389   1.085   4.998  3.1955 -4.7080 -0.5997
 5901SOL     OW29161   1.089   1.837   3.081 -0.2537 -0.3380  0.2750
 5901SOL    HW129162   1.140   1.764   3.115 -1.1426 -0.7009  0.8473
 5901SOL    HW229163   1.069   1.897   3.153 -0.7781  1.1092 -1.0854
 5902SOL     OW29164   3.264   3.387   1.265 -0.3786  0.2459  0.0861
 5902SOL    HW129165   3.242   3.327   1.336  3.5601 -0.5804  0.6353
 5902SOL    HW229166   3.241   3.334   1.189 -1.1414 -0.3746  0.7508
 5903SOL     OW29167   2.364   2.776   3.465 -0.1843 -0.2228  0.3138
 5903SOL    HW129168   2.394   2.706   3.522  0.3797 -0.6209 -0.4869
 5903SOL    HW229169   2.449   2.818   3.472  0.9981 -1.8593 -4.4834
 5904SOL     OW29170   0.403   3.790  15.615  0.4095  0.3839  0.5566
 5904SOL    HW129171   0.414   3.746  15.531 -1.1687  0.9892  0.0331
 5904SOL    HW229172   0.464   3.863  15.620 -0.0724  0.8265  0.0088
 5905SOL     OW29173   2.066   1.431   8.904  0.3885 -1.3298  0.4434
 5905SOL    HW129174   2.134   1.422   8.971  0.6398  0.9225  0.4775
 5905SOL    HW229175   1.998   1.478   8.952  1.9827  0.4748  0.9516
 5906SOL     OW29176   0.144   3.016   3.605 -0.9442  0.1416 -0.0184
 5906SOL    HW129177   0.051   3.036   3.612 -0.3722  2.2268  1.5946
 5906SOL    HW229178   0.185   3.079   3.663 -0.8971  0.3458 -0.2729
 5907SOL     OW29179   2.608   0.434  17.026  0.1025  0.0676  0.1483
 5907SOL    HW129180   2.591   0.522  17.060  0.1904  0.6865 -1.3847
 5907SOL    HW229181   2.608   0.391  17.111 -0.1178  0.3316  0.2807
 5908SOL     OW29182   3.718   3.235   9.626  0.0342  0.4413  0.2566
 5908SOL    HW129183   3.786   3.205   9.687 -1.0832 -1.8310  0.3783
 5908SOL    HW229184   3.640   3.223   9.680 -0.2053 -1.0013 -0.4192
 5909SOL     OW29185   1.004   3.383   7.566  0.4673 -0.1148 -0.0069
 5909SOL    HW129186   1.021   3.293   7.595 -2.6657 -0.5201  0.5961
 5909SOL    HW229187   1.050   3.434   7.633  0.8766 -1.6520  0.8785
 5910SOL     OW29188   3.563   0.987   7.206 -0.2939 -0.1237 -1.1181
 5910SOL    HW129189   3.501   1.055   7.231  0.0492 -0.9802  2.0944
 5910SOL    HW229190   3.529   0.916   7.260  1.1480 -0.6367 -0.8847
 5911SOL     OW29191   2.522   4.274  15.747 -0.2041 -0.2511  0.3780
 5911SOL    HW129192   2.515   4.207  15.680 -1.6806 -0.0771  0.3508
 5911SOL    HW229193   2.577   4.341  15.707  0.2287 -0.3658  0.7804
 5912SOL     OW29194   2.609   4.327  12.413 -0.5819 -0.1251  0.8012
 5912SOL    HW129195   2.522   4.289  12.403  0.0706 -0.8597 -2.3011
 5912SOL    HW229196   2.658   4.256  12.454  0.2477 -0.3098 -0.5094
 5913SOL     OW29197   1.950   0.552   7.974  0.1492  0.4055 -0.3836
 5913SOL    HW129198   1.940   0.625   7.913 -1.8408  1.4692  1.2030
 5913SOL    HW229199   1.990   0.596   8.049 -0.8052 -0.7679  0.8134
 5914SOL     OW29200   3.329   3.974  16.069 -0.2558  0.6477  0.2124
 5914SOL    HW129201   3.388   3.899  16.073 -0.4945  0.3741 -1.1519
 5914SOL    HW229202   3.337   4.003  16.160 -0.7863  1.0475  0.1369
 5915SOL     OW29203   1.811   1.015  16.505 -0.6727 -0.0021  0.7185
 5915SOL    HW129204   1.747   0.993  16.572 -0.5470 -0.6341  0.6287
 5915SOL    HW229205   1.758   1.079  16.458  0.4695 -2.0860 -3.4237
 5916SOL     OW29206   0.913   2.685   5.615 -0.3072 -1.0862  0.6764
 5916SOL    HW129207   0.957   2.733   5.545 -2.1226 -1.7363 -0.9407
 5916SOL    HW229208   0.937   2.736   5.692 -0.1874 -0.4593  0.2245
 5917SOL     OW29209   2.877   4.363   3.675 -0.4025  0.3445 -0.2183
 5917SOL    HW129210   2.792   4.397   3.703 -0.9207  1.1216 -2.6764
 5917SOL    HW229211   2.861   4.378   3.581  2.2317  2.0535 -0.3935
 5918SOL     OW29212   2.657   0.973   6.391 -0.1585  0.1927 -0.0212
 5918SOL    HW129213   2.677   0.904   6.328  0.6762  0.7859 -0.3954
 5918SOL    HW229214   2.694   0.941   6.473 -1.9816  0.7953  1.0361
 5919SOL     OW29215   1.548   2.799  16.233 -0.5781  0.4821 -0.9744
 5919SOL    HW129216   1.543   2.810  16.328 -1.1090 -1.1576 -0.7992
 5919SOL    HW229217   1.459   2.818  16.201 -1.1387  0.1930  0.3955
 5920SOL     OW29218   1.845   4.224  15.535 -0.4429 -0.3126  0.1011
 5920SOL    HW129219   1.879   4.310  15.509 -0.4897 -0.0633  0.8572
 5920SOL    HW229220   1.924   4.171  15.531 -2.1365 -2.6260 -2.9794
 5921SOL     OW29221   0.010   0.607   4.769 -0.9218  0.0458  0.5411
 5921SOL    HW129222   0.023   0.512   4.774  1.6986  0.3056 -0.7903
 5921SOL    HW229223   0.082   0.614   4.706 -2.2940 -1.2357 -1.1617
 5922SOL     OW29224   3.206   2.784   2.197  0.1638  0.4305 -0.6058
 5922SOL    HW129225   3.158   2.709   2.162 -1.3782  1.5605 -0.9001
 5922SOL    HW229226   3.233   2.760   2.286 -1.5950  1.8168  0.3153
 5923SOL     OW29227   0.957   0.811  15.853 -0.4275  0.5324  0.2393
 5923SOL    HW129228   0.904   0.732  15.849  0.7588 -0.3905  2.7379
 5923SOL    HW229229   0.910   0.867  15.791  2.4088  1.9685 -0.6451
 5924SOL     OW29230   2.114   2.599  16.382 -0.2041  0.0917  0.7414
 5924SOL    HW129231   2.098   2.540  16.308 -0.6623  0.2154  0.7460
 5924SOL    HW229232   2.209   2.591  16.396 -0.5859 -1.2535  2.5856
 5925SOL     OW29233   0.395   0.738  13.214  0.0018  0.0494  0.2951
 5925SOL    HW129234   0.455   0.722  13.141  1.9581  0.5346  1.7915
 5925SOL    HW229235   0.356   0.818  13.180  1.8210  0.6561 -0.3484
 5926SOL     OW29236   3.719   2.218   3.825  0.3343 -0.3799 -0.3403
 5926SOL    HW129237   3.699   2.149   3.887 -2.9889 -0.1799 -1.1957
 5926SOL    HW229238   3.810   2.242   3.842  0.3697 -0.8860  0.1588
 5927SOL     OW29239   3.727   0.175   1.025 -0.6444  0.4630 -0.2738
 5927SOL    HW129240   3.804   0.162   1.081 -0.7549 -2.0127 -0.6977
 5927SOL    HW229241   3.677   0.097   1.051  0.4596 -0.0708  0.2525
 5928SOL     OW29242   0.641   3.868   1.730  0.9611  0.0425 -0.3287
 5928SOL    HW129243   0.624   3.776   1.712  2.4410 -0.4840  0.8990
 5928SOL    HW229244   0.549   3.891   1.718  0.3148 -2.4365 -0.0803
 5929SOL     OW29245   1.404   4.455   5.008 -0.1947 -0.5359 -0.2253
 5929SOL    HW129246   1.481   4.513   5.000 -1.8879  1.7930  0.3566
 5929SOL    HW229247   1.358   4.476   4.927 -0.2673  2.6987  0.6569
 5930SOL     OW29248   2.094   2.516  11.100 -0.2755 -0.0554 -0.7730
 5930SOL    HW129249   2.169   2.539  11.154 -0.5671  1.3303 -0.9664
 5930SOL    HW229250   2.037   2.592  11.107  1.7304  1.4324 -0.7472
 5931SOL     OW29251   1.474   2.298   0.632  0.5979  0.1532  0.3049
 5931SOL    HW129252   1.547   2.255   0.588 -0.2066  1.7966 -2.6705
 5931SOL    HW229253   1.446   2.360   0.564 -1.2788 -1.1635 -0.1157
 5932SOL     OW29254   4.465   3.667   5.242  0.3045 -0.3568 -0.1544
 5932SOL    HW129255   4.466   3.577   5.210  1.0734 -0.8502  1.2846
 5932SOL    HW229256   4.446   3.705   5.156 -0.6559 -1.9903 -0.6702
 5933SOL     OW29257   4.307   4.325   5.123 -0.5871  0.5058  0.5694
 5933SOL    HW129258   4.312   4.401   5.182  0.0425  0.1916  0.9174
 5933SOL    HW229259   4.375   4.274   5.165  0.4865  0.3275 -1.3637
 5934SOL     OW29260   3.676   0.552   4.195 -0.0113 -0.3282 -0.1528
 5934SOL    HW129261   3.700   0.544   4.103 -0.1172  0.0143 -0.2088
 5934SOL    HW229262   3.581   0.557   4.182  0.1752 -1.6675 -2.0884
 5935SOL     OW29263   4.125   3.504   8.545  0.3075 -0.1704 -0.4298
 5935SOL    HW129264   4.034   3.525   8.524  0.3233  1.7906  1.5280
 5935SOL    HW229265   4.171   3.552   8.476 -0.5258 -0.6062 -1.2936
 5936SOL     OW29266   2.248   2.001   7.190 -0.5359  0.3602  0.4739
 5936SOL    HW129267   2.181   2.031   7.252  0.8581 -0.5617  2.4595
 5936SOL    HW229268   2.287   1.941   7.254  1.0319  0.3996 -0.4441
 5937SOL     OW29269   0.563   2.082   6.300 -0.1368  0.1737 -0.0091
 5937SOL    HW129270   0.592   2.120   6.217  0.0147  0.6152  0.2469
 5937SOL    HW229271   0.554   2.159   6.356 -0.6185 -0.1653  0.3778
 5938SOL     OW29272   2.091   2.966   8.232 -0.0368 -0.0180  0.2216
 5938SOL    HW129273   2.082   3.040   8.292  2.2151  1.3952 -1.2081
 5938SOL    HW229274   2.124   2.890   8.281  0.0891 -0.4438 -0.5227
 5939SOL     OW29275   2.345   2.185  17.066  0.3009  0.0168  0.9281
 5939SOL    HW129276   2.438   2.182  17.042  0.2776  1.1214  0.7249
 5939SOL    HW229277   2.317   2.097  17.093  1.3502  0.1525  2.4503
 5940SOL     OW29278   1.332   0.052   1.073 -0.5836 -0.6591  0.0460
 5940SOL    HW129279   1.260   0.112   1.056 -0.2951 -0.4471 -0.4220
 5940SOL    HW229280   1.316   4.703   1.012  2.0400 -1.4032  0.2138
 5941SOL     OW29281   1.975   1.854   6.311 -0.1139  0.1464 -0.0595
 5941SOL    HW129282   2.040   1.826   6.375  1.5963  1.5438 -1.1801
 5941SOL    HW229283   2.019   1.928   6.269 -0.6118  1.3847  1.6155
 5942SOL     OW29284   4.619   3.483   5.675  0.1274 -0.1924 -0.3569
 5942SOL    HW129285   4.540   3.430   5.682 -0.0332  0.2917  1.4654
 5942SOL    HW229286   4.617   3.493   5.580  0.8721  0.2474 -0.3268
 5943SOL     OW29287   1.411   1.701   3.119 -0.1122 -0.2334  0.3306
 5943SOL    HW129288   1.492   1.718   3.168  0.8540  0.3487 -1.4545
 5943SOL    HW229289   1.430   1.770   3.055  1.0576  1.1603  2.1508
 5944SOL     OW29290   3.743   2.307   9.088 -0.2025 -0.2649  0.2271
 5944SOL    HW129291   3.683   2.281   9.157 -0.7667  0.7919  0.1267
 5944SOL    HW229292   3.734   2.401   9.099  0.2524 -0.0483 -1.1486
 5945SOL     OW29293   1.798   2.182  11.678 -0.3246 -0.5028 -0.4820
 5945SOL    HW129294   1.886   2.144  11.672 -0.0981  0.1233 -1.0616
 5945SOL    HW229295   1.799   2.222  11.765 -0.1301 -1.6052  0.0240
 5946SOL     OW29296   0.995   3.742  14.680 -0.2920 -0.3869 -0.0432
 5946SOL    HW129297   0.949   3.712  14.758 -1.2316  3.8176  1.0143
 5946SOL    HW229298   1.011   3.661  14.631 -1.6524  0.0020 -1.1251
 5947SOL     OW29299   4.522   0.814  14.908 -0.5949 -0.1912  0.5834
 5947SOL    HW129300   4.514   0.832  14.814  2.3319 -2.6040 -0.1203
 5947SOL    HW229301   4.570   0.731  14.908 -1.0065 -0.4413 -1.3771
 5948SOL     OW29302   2.434   1.687   4.923  0.2181 -0.5069 -0.2639
 5948SOL    HW129303   2.500   1.634   4.968  1.0808 -0.2595 -1.2237
 5948SOL    HW229304   2.475   1.712   4.840 -2.4040  2.0463 -0.7743
 5949SOL     OW29305   2.010   0.471   9.597  0.2042 -0.1772 -0.1257
 5949SOL    HW129306   1.949   0.401   9.619 -1.8047  1.2827 -1.0126
 5949SOL    HW229307   1.957   0.522   9.535  1.8381  0.2462 -1.1772
 5950SOL     OW29308   0.873   0.296   5.201 -0.1008  0.1102  0.1703
 5950SOL    HW129309   0.886   0.391   5.194 -0.1456 -0.0614 -2.2481
 5950SOL    HW229310   0.960   0.259   5.217  0.2786  0.4061 -1.2060
 5951SOL     OW29311   1.653   0.276   7.854 -0.0408  0.0422  0.2127
 5951SOL    HW129312   1.619   0.187   7.843  2.0901 -0.6416 -0.9420
 5951SOL    HW229313   1.597   0.318   7.789  1.3773  1.1944 -0.2547
 5952SOL     OW29314   3.516   0.135  10.475  0.2197 -0.5641  0.0108
 5952SOL    HW129315   3.552   0.183  10.549 -0.3878 -0.3721  0.1793
 5952SOL    HW229316   3.530   0.201  10.407  3.1066 -0.8642  0.3049
 5953SOL     OW29317   1.437   1.122   4.773 -0.1157 -0.0258 -0.1354
 5953SOL    HW129318   1.510   1.171   4.812 -0.6426 -0.6598  1.6278
 5953SOL    HW229319   1.427   1.163   4.687  2.1611 -0.5175 -0.6441
 5954SOL     OW29320   3.209   3.477   0.395  0.6950 -0.2497 -0.1550
 5954SOL    HW129321   3.197   3.554   0.340 -0.3992  1.2492  2.1469
 5954SOL    HW229322   3.207   3.407   0.330  1.9412  0.2468 -0.7261
 5955SOL     OW29323   4.236   1.804  12.622 -0.3082  0.7623  0.6463
 5955SOL    HW129324   4.203   1.861  12.553 -0.0692  0.2360  0.0982
 5955SOL    HW229325   4.270   1.872  12.680  0.9883  1.0786 -0.5180
 5956SOL     OW29326   3.918   2.249  14.769  0.1412  0.2011 -0.0169
 5956SOL    HW129327   3.981   2.269  14.699 -1.9766 -0.2518 -2.0428
 5956SOL    HW229328   3.931   2.157  14.791 -4.0305 -0.0443  1.5025
 5957SOL     OW29329   2.774   3.704   5.857 -0.6317  0.0324  0.0599
 5957SOL    HW129330   2.799   3.796   5.865  1.0291 -0.3046 -1.2107
 5957SOL    HW229331   2.690   3.726   5.817 -1.0076  1.0761  1.4171
 5958SOL     OW29332   3.053   3.077  14.818 -0.6852  0.7432 -0.3033
 5958SOL    HW129333   3.113   3.114  14.753  1.3725 -0.4991  0.9246
 5958SOL    HW229334   3.014   3.160  14.846  1.5142  1.7225 -0.1493
 5959SOL     OW29335   1.610   1.069  13.312  0.4336  0.0324  0.2207
 5959SOL    HW129336   1.685   1.010  13.318  1.1119  0.7685 -1.2168
 5959SOL    HW229337   1.561   1.032  13.238  0.8776 -1.1427  0.5017
 5960SOL     OW29338   4.608   1.290   5.039 -0.0299 -0.2101  0.0678
 5960SOL    HW129339   4.549   1.306   4.966 -0.9764  2.5956  1.4134
 5960SOL    HW229340   4.694   1.284   4.996 -0.5439  0.9306 -1.1286
 5961SOL     OW29341   0.050   3.860   0.917  0.0129 -0.0547  0.2825
 5961SOL    HW129342   0.059   3.792   0.850 -2.7749  1.1292 -1.3059
 5961SOL    HW229343   0.062   3.813   0.999 -1.1406 -0.5340  0.1770
 5962SOL     OW29344   0.998   0.221  11.721 -0.4532 -0.1639  0.1117
 5962SOL    HW129345   0.914   0.219  11.767 -1.4448  2.5400 -1.5945
 5962SOL    HW229346   1.053   0.219  11.799  3.5776 -0.3132 -2.7583
 5963SOL     OW29347   3.143   3.755   7.060 -0.2760 -0.3484  0.0448
 5963SOL    HW129348   3.200   3.680   7.041 -0.4338 -0.4993  0.1680
 5963SOL    HW229349   3.166   3.775   7.151 -0.5906  1.2327 -0.2297
 5964SOL     OW29350   2.231   1.816   1.060 -0.1960 -0.1305 -0.5189
 5964SOL    HW129351   2.236   1.750   1.130 -0.6481  1.9535  1.4816
 5964SOL    HW229352   2.135   1.820   1.059 -0.3047 -2.5081  1.7104
 5965SOL     OW29353   1.866   2.806   5.639 -0.0064 -0.3269 -0.0347
 5965SOL    HW129354   1.800   2.839   5.578 -0.6761  0.5125  1.1540
 5965SOL    HW229355   1.925   2.878   5.661 -1.1375  0.8205 -0.7800
 5966SOL     OW29356   1.228   1.976   5.839 -0.2086  0.1720  0.2588
 5966SOL    HW129357   1.273   2.060   5.847 -0.1439  0.0526  1.1213
 5966SOL    HW229358   1.251   1.963   5.747  0.9764  1.2335  0.4106
 5967SOL     OW29359   3.345   2.652   6.651  0.6810 -0.2555  0.0106
 5967SOL    HW129360   3.312   2.657   6.562 -0.7298  0.2273  0.5674
 5967SOL    HW229361   3.409   2.723   6.647  0.1431  0.2722  0.6114
 5968SOL     OW29362   1.502   2.311   2.371 -0.2598  0.1311 -0.0117
 5968SOL    HW129363   1.466   2.363   2.299 -0.4211 -0.1617 -0.1448
 5968SOL    HW229364   1.453   2.229   2.375  1.7147 -1.0283  0.3001
 5969SOL     OW29365   1.211   1.971   0.886 -0.1989 -0.2331 -0.0773
 5969SOL    HW129366   1.233   2.039   0.950 -1.6368 -0.0528  0.2430
 5969SOL    HW229367   1.188   2.031   0.815  0.1211  0.2372  0.2143
 5970SOL     OW29368   4.227   0.926   2.502  0.2051  0.8470 -0.3114
 5970SOL    HW129369   4.149   0.979   2.489 -1.2014 -1.3103 -0.6186
 5970SOL    HW229370   4.268   0.947   2.586  2.2068 -2.2063 -0.5075
 5971SOL     OW29371   3.745   1.035   1.962 -0.8004 -0.3567  0.6693
 5971SOL    HW129372   3.744   0.979   1.884 -1.4545  0.7933 -0.1580
 5971SOL    HW229373   3.837   1.029   1.985 -0.2963 -2.1546 -1.7280
 5972SOL     OW29374   0.250   2.279   2.591  0.8118  0.0342 -0.3456
 5972SOL    HW129375   0.243   2.364   2.548  1.6125  0.3205  0.0930
 5972SOL    HW229376   0.169   2.232   2.572 -0.0569  0.4096  2.4386
 5973SOL     OW29377   3.565   1.016   5.462 -0.1879  0.8687  0.6222
 5973SOL    HW129378   3.636   1.061   5.417 -0.7116  0.0353 -1.0289
 5973SOL    HW229379   3.610   0.955   5.522  0.2843  2.2441  1.6738
 5974SOL     OW29380   0.928   0.786   3.836 -0.2314 -0.0218  0.2620
 5974SOL    HW129381   0.938   0.881   3.837 -0.6512  0.0354 -1.8821
 5974SOL    HW229382   0.987   0.763   3.765 -0.7845 -0.2166 -0.1351
 5975SOL     OW29383   3.295   1.340   6.438 -0.2803 -0.3064 -0.0287
 5975SOL    HW129384   3.345   1.268   6.475 -2.9069 -1.5176  1.1778
 5975SOL    HW229385   3.207   1.315   6.468 -0.6766  0.0585 -0.8671
 5976SOL     OW29386   0.884   4.703   4.232 -0.1221 -0.8222 -0.0480
 5976SOL    HW129387   0.846   4.721   4.146  2.1499  0.0350 -0.8569
 5976SOL    HW229388   0.849   0.051   4.286  0.9171  0.2487 -0.8186
 5977SOL     OW29389   0.834   4.578   0.591  0.2967 -0.7267 -0.4494
 5977SOL    HW129390   0.890   4.655   0.602 -1.2386  0.0981  1.4576
 5977SOL    HW229391   0.785   4.567   0.672 -1.0736 -1.6144 -1.4103
 5978SOL     OW29392   2.924   0.499   5.353  0.2146 -0.2425 -0.7048
 5978SOL    HW129393   2.836   0.468   5.329 -0.0558 -0.4636  0.5726
 5978SOL    HW229394   2.912   0.591   5.375  0.6844 -0.1761 -0.7302
 5979SOL     OW29395   1.748   3.517   2.325 -0.4743  0.4006  0.3727
 5979SOL    HW129396   1.749   3.465   2.406  0.1748  1.3237  0.9559
 5979SOL    HW229397   1.777   3.603   2.356  0.6410 -0.0081  0.4625
 5980SOL     OW29398   2.831   4.403  11.920  0.2383 -0.0435  0.6452
 5980SOL    HW129399   2.825   4.438  11.832  0.4139  1.4938  1.2480
 5980SOL    HW229400   2.779   4.323  11.913  1.7516 -0.8915 -0.9221
 5981SOL     OW29401   2.930   0.463   2.499 -0.0275 -0.3155 -0.3282
 5981SOL    HW129402   2.944   0.376   2.535 -0.8474  0.2079  1.2505
 5981SOL    HW229403   2.970   0.520   2.564  1.3293 -2.5702  0.8084
 5982SOL     OW29404   0.966   0.057   8.821 -0.3054 -0.1227  0.1584
 5982SOL    HW129405   0.939   0.025   8.907 -0.5263  1.1299  0.5697
 5982SOL    HW229406   0.886   0.069   8.769 -0.4219 -0.0589  0.3516
 5983SOL     OW29407   3.550   3.856   0.083  0.4490 -0.2144  0.9669
 5983SOL    HW129408   3.613   3.856   0.010  0.1901  1.6299  0.7406
 5983SOL    HW229409   3.484   3.804   0.037 -0.8143 -0.7714  3.4326
 5984SOL     OW29410   4.118   1.086   5.742 -0.0250  0.2134  0.0893
 5984SOL    HW129411   4.170   1.147   5.691 -0.6959  0.7920  0.0961
 5984SOL    HW229412   4.158   1.005   5.709 -0.5939 -0.3931  0.8644
 5985SOL     OW29413   4.597   1.381   3.866 -0.3626  0.4377  0.2857
 5985SOL    HW129414   4.541   1.360   3.791  0.4337 -0.5940 -0.0278
 5985SOL    HW229415   4.688   1.361   3.843  0.1187  0.2525  2.3259
 5986SOL     OW29416   1.513   3.455   9.768  0.7202  0.3696  0.0034
 5986SOL    HW129417   1.472   3.538   9.745 -1.4183 -0.6526  0.0736
 5986SOL    HW229418   1.536   3.421   9.682  0.9601  1.3076 -0.3007
 5987SOL     OW29419   0.187   0.146   7.139  0.1323 -0.9456  0.3709
 5987SOL    HW129420   0.238   0.151   7.220 -1.4901 -0.4434  1.3658
 5987SOL    HW229421   0.254   0.145   7.071  1.0483  0.5900  1.2517
 5988SOL     OW29422   2.309   3.445  11.077  1.2924 -0.1997  0.4254
 5988SOL    HW129423   2.345   3.491  11.153  0.2949 -0.4873  1.0777
 5988SOL    HW229424   2.218   3.432  11.103  0.8876 -0.3353 -1.0663
 5989SOL     OW29425   1.704   1.022   0.423 -0.7460  0.1591  0.3626
 5989SOL    HW129426   1.621   0.982   0.452 -0.2112 -1.6625 -0.6280
 5989SOL    HW229427   1.704   1.101   0.476 -1.5596  0.4964 -0.1258
 5990SOL     OW29428   3.776   1.382   6.851  0.0600 -0.2049  0.1365
 5990SOL    HW129429   3.797   1.466   6.810 -0.9645 -0.8456 -1.6939
 5990SOL    HW229430   3.737   1.324   6.786  2.3692  0.0877 -1.4896
 5991SOL     OW29431   0.083   0.756   6.428  0.2708 -0.2502  0.2618
 5991SOL    HW129432   0.011   0.698   6.451 -0.1277  0.2712  0.3483
 5991SOL    HW229433   0.141   0.759   6.504 -0.8564 -0.5297  1.1331
 5992SOL     OW29434   0.371   1.718  11.191  0.2793 -0.1956 -0.1367
 5992SOL    HW129435   0.362   1.727  11.286 -2.0147  0.7375 -0.4364
 5992SOL    HW229436   0.303   1.781  11.169 -0.4025 -0.6367  0.7078
 5993SOL     OW29437   3.361   3.649   8.191 -0.3468 -0.6753 -0.5168
 5993SOL    HW129438   3.405   3.639   8.275 -1.1717 -1.6022 -0.1969
 5993SOL    HW229439   3.392   3.574   8.141  0.3307  1.4280 -3.2562
 5994SOL     OW29440   1.778   3.217   4.057  0.0160  0.5307 -0.5491
 5994SOL    HW129441   1.805   3.137   4.102  2.6701  2.4859  1.2801
 5994SOL    HW229442   1.722   3.250   4.127  0.2917  1.0212 -0.5626
 5995SOL     OW29443   3.199   0.648   6.385  0.1071  0.0389 -0.4607
 5995SOL    HW129444   3.177   0.566   6.339  2.4016 -0.5750 -0.4382
 5995SOL    HW229445   3.245   0.604   6.456 -0.4838  1.0987  0.5818
 5996SOL     OW29446   0.455   2.557   6.499 -0.2298 -0.2706  0.7566
 5996SOL    HW129447   0.443   2.504   6.577 -0.8276 -0.9955  0.1736
 5996SOL    HW229448   0.425   2.643   6.528  1.3127 -0.2421  2.2761
 5997SOL     OW29449   2.066   1.482  14.859  0.1620 -1.0159 -0.3079
 5997SOL    HW129450   2.159   1.460  14.871 -0.2213 -2.0829  0.6531
 5997SOL    HW229451   2.032   1.422  14.793 -0.3643  0.0402 -0.9907
 5998SOL     OW29452   1.016   2.448   3.788 -0.5088 -0.2414 -0.2835
 5998SOL    HW129453   1.018   2.538   3.820  0.9321 -0.3041 -0.2055
 5998SOL    HW229454   1.036   2.389   3.860  1.8599  1.3776  0.3871
 5999SOL     OW29455   2.433   2.459   6.224  0.1799  0.5116 -0.1087
 5999SOL    HW129456   2.366   2.507   6.176 -0.3842  0.7771  0.9580
 5999SOL    HW229457   2.493   2.531   6.240  1.5107 -0.6547  0.2247
 6000SOL     OW29458   1.119   1.622  15.337 -0.3032 -0.5347  0.2634
 6000SOL    HW129459   1.121   1.570  15.418  2.1753  2.3895  2.0607
 6000SOL    HW229460   1.145   1.707  15.372 -1.3847  0.0386 -0.3178
 6001SOL     OW29461   3.586   0.169  13.973  0.6701  0.5869 -0.1569
 6001SOL    HW129462   3.558   0.260  13.984 -2.1752 -0.1705 -1.1240
 6001SOL    HW229463   3.650   0.183  13.904  3.0112 -0.8938  1.7236
 6002SOL     OW29464   1.916   0.263  12.340 -0.1179  0.1037 -0.1031
 6002SOL    HW129465   1.952   0.255  12.429  0.5374  0.9339 -0.2858
 6002SOL    HW229466   1.880   0.352  12.344 -1.2616 -0.3460 -0.4730
 6003SOL     OW29467   1.257   0.871  15.369  0.0199  0.1515 -0.1687
 6003SOL    HW129468   1.285   0.900  15.455  1.0519  1.4149 -0.9233
 6003SOL    HW229469   1.327   0.914  15.320 -0.3703  2.6996  1.4989
 6004SOL     OW29470   4.479   0.079  12.426 -0.1727 -0.2450 -0.0800
 6004SOL    HW129471   4.401   0.053  12.475  0.0817  1.0900  1.0445
 6004SOL    HW229472   4.447   0.048  12.342  1.3776 -0.1028 -0.7167
 6005SOL     OW29473   1.988   2.202   6.523  0.5061  0.1049 -0.0625
 6005SOL    HW129474   1.975   2.254   6.602  0.0691  0.4302 -0.3512
 6005SOL    HW229475   1.975   2.114   6.557  0.3435  0.3327  0.4571
 6006SOL     OW29476   0.738   0.561   6.412  0.3592  0.4704 -0.0738
 6006SOL    HW129477   0.734   0.594   6.322  3.6538  0.7001 -0.1279
 6006SOL    HW229478   0.809   0.620   6.437 -0.4922  0.7660  1.6157
 6007SOL     OW29479   3.417   0.108   7.331  0.2847 -0.4412  0.3758
 6007SOL    HW129480   3.503   0.120   7.372  0.6206  1.6190 -0.8943
 6007SOL    HW229481   3.407   0.013   7.327  2.4647 -0.6067 -1.5662
 6008SOL     OW29482   2.951   1.295  13.273  0.3605 -0.4077 -0.1695
 6008SOL    HW129483   2.891   1.295  13.348 -0.7210  0.1886 -1.0342
 6008SOL    HW229484   3.037   1.291  13.314  0.9398  0.9712 -1.2424
 6009SOL     OW29485   3.449   2.228   4.692 -0.8080  0.0971  0.1279
 6009SOL    HW129486   3.462   2.323   4.685 -1.8900  0.1146 -1.5352
 6009SOL    HW229487   3.358   2.222   4.721 -0.2897 -0.1326  1.7125
 6010SOL     OW29488   1.939   4.141   0.688 -0.6328 -0.4890  0.4039
 6010SOL    HW129489   1.982   4.071   0.638  0.7053  0.4373  0.2687
 6010SOL    HW229490   1.876   4.092   0.741 -2.0933  1.3270  0.3509
 6011SOL     OW29491   0.817   0.817  13.913  0.0356  0.3302 -0.1207
 6011SOL    HW129492   0.815   0.722  13.921 -2.7572  0.5914  2.0687
 6011SOL    HW229493   0.758   0.842  13.842 -0.1277  1.1100  0.2949
 6012SOL     OW29494   3.289   2.880  17.386  0.4660  0.7942  0.0165
 6012SOL    HW129495   3.327   2.908  17.302 -0.2088 -0.7398 -0.7907
 6012SOL    HW229496   3.346   2.897  17.461 -0.2921 -1.5774  1.1306
 6013SOL     OW29497   2.899   4.610  10.491  0.1516  0.1716  0.2938
 6013SOL    HW129498   2.980   4.578  10.532  0.0082 -1.2838 -0.5491
 6013SOL    HW229499   2.945   4.676  10.440  0.1858 -2.0779 -2.5649
 6014SOL     OW29500   2.433   4.199   2.403  0.2577 -0.2541  0.0035
 6014SOL    HW129501   2.419   4.197   2.308  0.5148  0.9793 -0.0618
 6014SOL    HW229502   2.527   4.210   2.418 -0.2026  0.4958  2.3959
 6015SOL     OW29503   0.279   1.962   0.423 -0.0200  0.0593  0.3630
 6015SOL    HW129504   0.284   1.867   0.426  1.6435  0.1778  1.5936
 6015SOL    HW229505   0.210   1.972   0.357 -0.8754  1.5798  1.4816
 6016SOL     OW29506   3.151   4.455   0.338  0.0505  0.0045 -0.3252
 6016SOL    HW129507   3.158   4.374   0.288  3.6083  0.4937 -0.6083
 6016SOL    HW229508   3.179   4.521   0.274 -0.5735 -0.0661 -0.6693
 6017SOL     OW29509   0.327   4.088   7.205 -0.6141  0.2875 -0.3572
 6017SOL    HW129510   0.342   4.130   7.289 -0.8797  0.4188 -0.3776
 6017SOL    HW229511   0.320   3.995   7.228 -0.3453  0.1683 -0.7430
 6018SOL     OW29512   2.563   3.088   1.727  0.4784 -0.4859  0.0771
 6018SOL    HW129513   2.562   3.013   1.787  1.0815 -1.1869 -0.7890
 6018SOL    HW229514   2.599   3.044   1.650  0.1755 -0.5764 -0.0148
 6019SOL     OW29515   1.757   1.392   6.967  0.4166 -0.0801 -0.3677
 6019SOL    HW129516   1.848   1.401   6.997 -0.4804 -0.0533  2.3457
 6019SOL    HW229517   1.757   1.303   6.934  2.8782 -0.3370  0.3287
 6020SOL     OW29518   0.212   0.347   3.567 -0.4492  0.2092 -0.0287
 6020SOL    HW129519   0.254   0.350   3.482  0.7656  1.5333  0.6248
 6020SOL    HW229520   0.282   0.322   3.627 -0.3473 -0.3300 -0.3693
 6021SOL     OW29521   3.386   3.592   1.383 -0.5749 -0.1729  0.4973
 6021SOL    HW129522   3.336   3.665   1.418 -0.2882  0.2115  0.1151
 6021SOL    HW229523   3.322   3.523   1.366 -0.7877  0.2391 -0.3810
 6022SOL     OW29524   3.154   3.553  15.800 -0.1826 -0.0575  0.0024
 6022SOL    HW129525   3.151   3.511  15.886 -1.5723  1.8857  0.9008
 6022SOL    HW229526   3.089   3.622  15.811 -0.1815 -0.1450  0.5462
 6023SOL     OW29527   2.412   1.623   5.428  0.2342  0.4996  0.2778
 6023SOL    HW129528   2.321   1.618   5.456  0.7900  1.6885  2.3495
 6023SOL    HW229529   2.463   1.613   5.508  0.8354 -0.6387 -0.2606
 6024SOL     OW29530   3.114   2.496   3.028 -0.4956 -0.3138  0.6833
 6024SOL    HW129531   3.133   2.498   2.934 -2.5137 -0.1755  0.2718
 6024SOL    HW229532   3.128   2.589   3.049 -4.0191  0.5011 -0.6136
 6025SOL     OW29533   2.394   4.234   7.792  0.5067 -0.4718  0.3083
 6025SOL    HW129534   2.407   4.193   7.707  1.8565  1.4893 -0.4151
 6025SOL    HW229535   2.475   4.283   7.802  1.1498 -1.9230  2.2709
 6026SOL     OW29536   1.681   3.015   3.446 -0.3178 -0.2837 -0.5683
 6026SOL    HW129537   1.771   3.031   3.474 -0.8482 -1.0064  1.5397
 6026SOL    HW229538   1.692   2.920   3.446 -0.8993 -0.3478 -0.0206
 6027SOL     OW29539   1.219   1.765   4.193  0.1806  0.1648 -0.0793
 6027SOL    HW129540   1.305   1.766   4.235  0.0851 -1.0937  0.1471
 6027SOL    HW229541   1.210   1.671   4.176  0.7531  0.3344 -1.3709
 6028SOL     OW29542   4.466   4.663   3.840  0.4808  0.2293 -0.2537
 6028SOL    HW129543   4.392   4.607   3.818 -0.1464  1.1632 -0.5074
 6028SOL    HW229544   4.474   4.700   3.752 -3.1365 -1.9831 -1.5337
 6029SOL     OW29545   2.887   3.464   5.867 -0.1544 -0.3917 -0.2776
 6029SOL    HW129546   2.833   3.543   5.863  0.3992  0.0201  0.3928
 6029SOL    HW229547   2.921   3.483   5.955  0.2193 -2.7410  0.0827
 6030SOL     OW29548   2.087   2.804   5.123 -0.1002  0.2682 -0.1075
 6030SOL    HW129549   2.050   2.878   5.075 -0.8272  0.6089  0.9607
 6030SOL    HW229550   2.156   2.851   5.169  0.0431  0.4255 -0.4821
 6031SOL     OW29551   2.982   3.394   8.923  0.2517  0.0560  0.0635
 6031SOL    HW129552   3.069   3.375   8.959 -0.5863  2.3045  3.2815
 6031SOL    HW229553   2.924   3.379   8.998  0.7318 -3.1473 -0.2147
 6032SOL     OW29554   0.769   2.526  14.455 -0.1856 -0.4194 -0.1927
 6032SOL    HW129555   0.771   2.579  14.535 -1.7645  0.9242 -1.0589
 6032SOL    HW229556   0.851   2.534  14.406 -0.1432  0.1354 -0.0233
 6033SOL     OW29557   2.674   3.073   4.525  0.3137  0.2463 -0.4013
 6033SOL    HW129558   2.587   3.055   4.561 -0.1912  0.9670 -1.2546
 6033SOL    HW229559   2.649   3.114   4.442  0.6136  1.4532  0.1085
 6034SOL     OW29560   1.387   4.306   2.869 -0.7963 -0.3440  0.1705
 6034SOL    HW129561   1.382   4.211   2.883 -1.2978 -0.3322  0.0938
 6034SOL    HW229562   1.308   4.330   2.917 -0.6520  0.2231  0.1224
 6035SOL     OW29563   2.460   1.337  15.394 -0.4295  0.1668  0.2139
 6035SOL    HW129564   2.385   1.299  15.439 -1.0522 -0.9722 -1.7883
 6035SOL    HW229565   2.421   1.396  15.331 -0.2340  1.5290  1.3596
 6036SOL     OW29566   1.312   2.493   0.127 -0.1225 -0.3827  0.0194
 6036SOL    HW129567   1.372   2.428   0.090 -0.0622 -1.0621  1.3066
 6036SOL    HW229568   1.253   2.512   0.054  0.5963 -0.0734 -0.4790
 6037SOL     OW29569   1.142   4.317   7.176  0.0663 -0.0602 -0.5900
 6037SOL    HW129570   1.067   4.282   7.224  0.1560  0.8686  0.2363
 6037SOL    HW229571   1.217   4.295   7.231 -0.0998 -1.1976 -0.8233
 6038SOL     OW29572   1.571   0.318   6.779 -0.2055 -0.1207 -0.3435
 6038SOL    HW129573   1.605   0.386   6.722  2.5533  1.0883  2.7646
 6038SOL    HW229574   1.644   0.301   6.838 -0.5143  0.1325  0.1168
 6039SOL     OW29575   2.563   0.343  11.644  0.2674 -0.3584 -0.1445
 6039SOL    HW129576   2.613   0.265  11.622 -0.6512 -0.8498 -0.4894
 6039SOL    HW229577   2.542   0.375  11.556 -1.0986  1.0035  0.6715
 6040SOL     OW29578   1.086   3.399  15.496  0.1650 -0.0489 -0.2987
 6040SOL    HW129579   1.023   3.350  15.548 -0.4047  1.0695  0.0519
 6040SOL    HW229580   1.078   3.486  15.535 -0.7096 -0.0995 -0.3702
 6041SOL     OW29581   2.569   2.058   8.208 -0.8521  0.8693  0.2347
 6041SOL    HW129582   2.496   2.023   8.258 -0.7837 -1.7486 -1.5144
 6041SOL    HW229583   2.636   1.991   8.223 -1.7832 -0.6644 -2.6097
 6042SOL     OW29584   3.864   3.466  15.355  0.3785 -0.0130  1.1400
 6042SOL    HW129585   3.814   3.527  15.301 -0.4716 -1.1956  0.5713
 6042SOL    HW229586   3.815   3.386  15.334  0.2463  0.5159 -0.5863
 6043SOL     OW29587   4.535   0.933   1.037  0.4937 -0.1122 -0.0156
 6043SOL    HW129588   4.543   0.965   1.127  2.5217  0.4037 -0.3726
 6043SOL    HW229589   4.563   0.842   1.048 -0.5939 -0.2271  1.8204
 6044SOL     OW29590   3.096   1.288   2.539  0.0282  0.5243  0.8658
 6044SOL    HW129591   3.143   1.223   2.592 -1.9964 -0.2086  1.7731
 6044SOL    HW229592   3.134   1.278   2.452 -2.4013 -0.8664 -0.0411
 6045SOL     OW29593   4.047   1.146   2.969 -0.3273 -0.0902  0.6533
 6045SOL    HW129594   4.092   1.166   3.051  1.1829 -0.8423  0.0265
 6045SOL    HW229595   4.123   1.137   2.911  0.0028 -0.4694  1.1484
 6046SOL     OW29596   3.733   4.609   7.993  0.6259 -0.0079  0.1726
 6046SOL    HW129597   3.792   4.681   8.013 -1.0664  1.4258 -0.0025
 6046SOL    HW229598   3.687   4.626   7.910 -0.4884  3.3659  1.4700
 6047SOL     OW29599   0.421   4.354   7.500  1.0302  0.0469  0.6017
 6047SOL    HW129600   0.429   4.295   7.574 -1.4142  0.5647  1.2734
 6047SOL    HW229601   0.341   4.336   7.450 -1.5561  1.1039  4.3000
 6048SOL     OW29602   2.756   2.703   1.340  0.0375  0.4727 -0.1459
 6048SOL    HW129603   2.690   2.644   1.304 -0.0472  0.8192 -0.5491
 6048SOL    HW229604   2.821   2.713   1.270  1.7171  1.0031  1.4737
 6049SOL     OW29605   3.972   4.170   3.207 -0.4975 -0.4173  0.4503
 6049SOL    HW129606   4.027   4.223   3.149 -1.1273 -2.3057 -1.8722
 6049SOL    HW229607   4.033   4.127   3.267  0.7405  0.5085 -0.1375
 6050SOL     OW29608   0.209   3.854  10.890  0.3189  0.8310  0.6266
 6050SOL    HW129609   0.230   3.774  10.938 -0.9194  1.6877  2.5687
 6050SOL    HW229610   0.113   3.854  10.886  0.4112 -0.5793 -2.1303
 6051SOL     OW29611   2.810   4.127   3.254  0.2842 -0.3346 -0.1062
 6051SOL    HW129612   2.896   4.115   3.295 -0.7257  0.0264  2.1451
 6051SOL    HW229613   2.813   4.064   3.182 -1.8776  0.1192 -0.5887
 6052SOL     OW29614   2.608   0.292   2.464  0.3950  0.0850  0.9290
 6052SOL    HW129615   2.657   0.315   2.385 -1.9865 -0.7496 -0.8030
 6052SOL    HW229616   2.651   0.208   2.481 -0.8795 -0.5876  0.8241
 6053SOL     OW29617   3.538   1.780  10.779  0.4262 -0.1170  0.2757
 6053SOL    HW129618   3.508   1.710  10.721 -0.8743  0.7110 -0.0538
 6053SOL    HW229619   3.611   1.730  10.815 -0.6149 -2.2348 -0.5473
 6054SOL     OW29620   1.558   2.735   1.681  0.3804  0.3607  0.7416
 6054SOL    HW129621   1.482   2.794   1.675 -0.9303 -1.3897  0.2014
 6054SOL    HW229622   1.595   2.747   1.594  0.3148 -1.4969  0.4548
 6055SOL     OW29623   1.820   2.983   3.046 -0.2178 -0.3886  0.2414
 6055SOL    HW129624   1.729   3.009   3.033 -0.1441 -0.1930  0.1212
 6055SOL    HW229625   1.856   3.055   3.098 -1.3079  0.8700 -0.7557
 6056SOL     OW29626   4.370   2.061  13.679 -0.0976 -0.1807  0.2986
 6056SOL    HW129627   4.295   2.044  13.623 -0.6705 -1.4615  1.4457
 6056SOL    HW229628   4.333   2.105  13.755 -1.8475  1.1457 -1.3323
 6057SOL     OW29629   3.679   2.592   9.150  0.1989 -0.0700  0.6770
 6057SOL    HW129630   3.689   2.685   9.168 -1.5217  0.6109 -1.7588
 6057SOL    HW229631   3.658   2.594   9.056  0.2603 -0.1390  0.6623
 6058SOL     OW29632   0.016   2.937   9.418 -0.1205 -0.3684 -0.1369
 6058SOL    HW129633   0.072   2.893   9.482  1.3251 -0.7878 -1.6913
 6058SOL    HW229634   0.057   3.024   9.414  0.4114 -0.6553 -0.8513
 6059SOL     OW29635   3.619   3.333   8.596  0.2952 -0.3956  0.0721
 6059SOL    HW129636   3.685   3.281   8.642  1.2791  0.6534 -0.1313
 6059SOL    HW229637   3.578   3.255   8.558  0.1972  0.1296 -0.9099
 6060SOL     OW29638   2.830   4.374  15.728 -0.4787 -0.1002 -0.1344
 6060SOL    HW129639   2.800   4.450  15.677  0.0803  0.5755  0.5469
 6060SOL    HW229640   2.802   4.303  15.670 -2.6884  0.3463  0.3944
 6061SOL     OW29641   2.777   1.821   2.607 -0.0327 -0.2953  0.4078
 6061SOL    HW129642   2.793   1.899   2.554 -1.5905 -0.7625 -0.7193
 6061SOL    HW229643   2.683   1.833   2.623 -0.0590 -1.4655  1.1294
 6062SOL     OW29644   4.216   2.219   0.900 -0.3765 -0.0921 -0.6578
 6062SOL    HW129645   4.254   2.281   0.838 -0.3701 -0.9111 -1.4659
 6062SOL    HW229646   4.167   2.158   0.845 -0.1231 -1.9032  1.1251
 6063SOL     OW29647   3.856   1.834   1.765  0.4409  0.4088  0.0843
 6063SOL    HW129648   3.917   1.761   1.750 -0.9768 -0.4656 -1.4805
 6063SOL    HW229649   3.920   1.889   1.810 -1.1224 -0.0061  2.7681
 6064SOL     OW29650   2.030   4.663   5.249  0.0157 -0.1484  0.1132
 6064SOL    HW129651   2.126   4.667   5.249 -0.0168  0.5225  1.1064
 6064SOL    HW229652   2.015   4.592   5.186  0.9554 -0.7781  0.5951
 6065SOL     OW29653   2.361   2.235   4.946  0.1194  0.0102  0.4284
 6065SOL    HW129654   2.306   2.190   4.882  0.2015  1.8028 -0.8878
 6065SOL    HW229655   2.449   2.231   4.907  0.0954 -1.3433  0.5090
 6066SOL     OW29656   3.962   0.507   6.300 -0.6770 -0.2499  0.0558
 6066SOL    HW129657   3.944   0.599   6.280 -0.6015 -0.1045  0.6620
 6066SOL    HW229658   3.936   0.463   6.219 -0.2581 -0.5057  0.0573
 6067SOL     OW29659   2.398   3.443   1.620  0.2686  0.3376  0.6401
 6067SOL    HW129660   2.392   3.350   1.600  2.1910  0.3040  0.1953
 6067SOL    HW229661   2.359   3.481   1.541  0.8685 -1.9335 -0.7439
 6068SOL     OW29662   2.168   4.128   3.599  0.4111  0.5149  0.0758
 6068SOL    HW129663   2.138   4.202   3.547 -0.7565 -1.0447 -1.4844
 6068SOL    HW229664   2.257   4.130   3.565 -0.0100  2.2352 -0.9267
 6069SOL     OW29665   1.022   4.540   1.496  0.0064  1.1092 -0.1373
 6069SOL    HW129666   1.073   4.615   1.464  1.5464 -0.2592 -0.9156
 6069SOL    HW229667   0.947   4.577   1.542  1.7479 -0.0317  3.6824
 6070SOL     OW29668   4.082   0.517  16.558  0.0996 -0.2449 -0.6081
 6070SOL    HW129669   3.995   0.493  16.525 -0.2446  0.6701 -0.3434
 6070SOL    HW229670   4.124   0.538  16.474 -1.4188 -2.1566 -1.8598
 6071SOL     OW29671   0.356   2.931   7.686 -0.8725 -0.3600  0.1099
 6071SOL    HW129672   0.298   2.958   7.615 -0.6722 -1.3060 -0.4104
 6071SOL    HW229673   0.293   2.924   7.758 -0.2790 -1.0889  0.5699
 6072SOL     OW29674   4.582   2.299   5.298 -0.1531  0.1855  0.1188
 6072SOL    HW129675   4.516   2.364   5.273  0.2032  0.9376  1.1377
 6072SOL    HW229676   4.660   2.329   5.252 -2.0669  1.0678 -2.5388
 6073SOL     OW29677   3.416   0.053   6.664 -0.0705  0.0625 -0.0490
 6073SOL    HW129678   3.334   0.101   6.670  1.4503  2.7519 -0.6219
 6073SOL    HW229679   3.382   4.687   6.673 -0.0658  0.2128  1.4812
 6074SOL     OW29680   4.077   3.721   6.487 -0.3492  0.6233 -0.5483
 6074SOL    HW129681   4.132   3.706   6.411  0.2935 -0.8522  0.2196
 6074SOL    HW229682   4.021   3.785   6.443  0.7744  1.0517 -1.3505
 6075SOL     OW29683   0.972   0.409   5.827  0.2472  0.6766 -0.6605
 6075SOL    HW129684   0.974   0.356   5.906  0.4158 -0.0357 -1.1444
 6075SOL    HW229685   0.942   0.343   5.765  0.6190 -0.7406  0.6618
 6076SOL     OW29686   2.155   3.268   0.693  0.6459 -0.0843  0.0689
 6076SOL    HW129687   2.132   3.334   0.627 -0.5803  0.4232  0.9957
 6076SOL    HW229688   2.249   3.286   0.698  0.3012  1.2442  1.6431
 6077SOL     OW29689   4.413   1.566   3.191  0.2628  0.3578 -0.4612
 6077SOL    HW129690   4.501   1.574   3.155 -0.5276  1.6221 -2.1449
 6077SOL    HW229691   4.391   1.659   3.188 -0.3422  0.2248 -0.0852
 6078SOL     OW29692   1.146   2.903   7.485  0.5052  0.0196 -0.3576
 6078SOL    HW129693   1.153   2.898   7.390 -1.9832 -0.8911 -0.4956
 6078SOL    HW229694   1.052   2.891   7.494  0.6872 -1.0338  0.2875
 6079SOL     OW29695   3.392   0.600   1.379  0.1993 -0.5645  0.1507
 6079SOL    HW129696   3.482   0.591   1.347  0.1147  0.8176 -0.4817
 6079SOL    HW229697   3.355   0.650   1.307  2.4956 -0.0874 -0.6985
 6080SOL     OW29698   2.488   3.616   4.883 -0.7746  0.1720 -0.2356
 6080SOL    HW129699   2.404   3.611   4.837 -1.5606 -0.9147  1.3446
 6080SOL    HW229700   2.506   3.704   4.850  2.1072 -0.0785  0.6442
 6081SOL     OW29701   0.347   0.583   3.825  0.0734  0.1501 -0.3350
 6081SOL    HW129702   0.328   0.570   3.918  0.7676  2.6044  0.1385
 6081SOL    HW229703   0.391   0.667   3.834  0.2074  0.0306  0.1372
 6082SOL     OW29704   0.043   0.181  13.717 -0.0958  0.2300 -0.3340
 6082SOL    HW129705   0.015   0.125  13.645  2.9520  1.8843 -2.8174
 6082SOL    HW229706   0.065   0.259  13.666  0.1450 -0.9133 -1.9505
 6083SOL     OW29707   4.001   2.015   9.560  0.6839  0.5312 -0.3593
 6083SOL    HW129708   3.983   2.025   9.653  1.7736  0.1355 -0.1012
 6083SOL    HW229709   3.912   1.997   9.528  1.0493  0.1673 -1.1656
 6084SOL     OW29710   2.823   1.498   3.354  0.7244 -0.0569 -0.1691
 6084SOL    HW129711   2.815   1.408   3.386 -1.9044  0.2069 -0.0818
 6084SOL    HW229712   2.821   1.478   3.260  0.3706 -0.7711 -0.0102
 6085SOL     OW29713   2.119   2.241  15.140 -0.2668 -1.1078 -0.0178
 6085SOL    HW129714   2.210   2.260  15.120 -1.1636  0.7357 -2.3492
 6085SOL    HW229715   2.114   2.146  15.129  2.1195 -0.8931 -3.0036
 6086SOL     OW29716   3.354   3.573  12.467  0.1508  0.5649 -0.5582
 6086SOL    HW129717   3.345   3.614  12.381 -2.2677 -0.1335 -0.6356
 6086SOL    HW229718   3.311   3.638  12.522 -0.8490  0.3951 -1.1349
 6087SOL     OW29719   2.627   2.389  15.022  0.2736  0.4741  0.8885
 6087SOL    HW129720   2.614   2.353  14.933 -2.1402  1.6001  0.7728
 6087SOL    HW229721   2.630   2.479  14.990  1.3788  1.4612  3.8440
 6088SOL     OW29722   0.601   2.525   3.616 -0.6341 -0.1563 -0.1132
 6088SOL    HW129723   0.668   2.586   3.648  1.5816 -2.6627  0.0345
 6088SOL    HW229724   0.653   2.489   3.544 -1.5388  0.6502 -1.1659
 6089SOL     OW29725   0.617   4.587   8.994  0.0779 -0.3851 -0.0379
 6089SOL    HW129726   0.667   4.606   8.915 -1.1302 -0.9063 -0.9214
 6089SOL    HW229727   0.548   4.651   8.979  0.0448 -0.7448 -1.3508
 6090SOL     OW29728   0.219   2.719   8.709  0.0068  0.4414  0.1586
 6090SOL    HW129729   0.140   2.737   8.658 -0.8935  0.1906  1.4457
 6090SOL    HW229730   0.182   2.697   8.795 -0.3428 -0.3033 -0.1860
 6091SOL     OW29731   1.436   4.413  10.734  0.3894  0.1754  0.0020
 6091SOL    HW129732   1.514   4.443  10.781  1.4922 -1.0377 -1.0504
 6091SOL    HW229733   1.469   4.421  10.645 -1.6863  1.4523 -0.6462
 6092SOL     OW29734   0.795   1.970   5.603  0.0013  0.2049  0.3756
 6092SOL    HW129735   0.756   2.010   5.680  1.7168 -0.5988  1.6652
 6092SOL    HW229736   0.862   2.037   5.597  1.3582 -1.1876 -0.1457
 6093SOL     OW29737   2.264   3.179   1.647 -0.0748  0.6550  0.2595
 6093SOL    HW129738   2.356   3.166   1.623  0.2358  2.6779  0.3555
 6093SOL    HW229739   2.233   3.110   1.704  0.0886  0.7303  0.4393
 6094SOL     OW29740   2.249   1.462   2.496  0.2853  0.1033  0.0664
 6094SOL    HW129741   2.293   1.474   2.580 -1.2767 -1.5975  1.1367
 6094SOL    HW229742   2.328   1.428   2.454 -0.3310  0.3039 -1.2834
 6095SOL     OW29743   3.831   1.833   6.726  0.3302  0.2332 -0.2261
 6095SOL    HW129744   3.865   1.885   6.799  0.4120 -0.2530  0.0890
 6095SOL    HW229745   3.759   1.891   6.703  1.0797  1.4209  0.4067
 6096SOL     OW29746   1.118   3.537   9.521 -0.2059 -0.3468 -0.2312
 6096SOL    HW129747   1.182   3.537   9.450 -1.5971 -1.5606 -1.5039
 6096SOL    HW229748   1.140   3.616   9.569 -3.1484  0.2534  0.1605
 6097SOL     OW29749   4.463   4.217   6.552 -0.1914  0.2087  0.3483
 6097SOL    HW129750   4.395   4.184   6.493 -0.3964  0.3365  0.5126
 6097SOL    HW229751   4.437   4.309   6.546  2.9683  1.1146  0.7265
 6098SOL     OW29752   4.090   1.376   5.569  0.1408 -0.0765 -0.0300
 6098SOL    HW129753   4.113   1.451   5.515  2.5170 -1.7250 -1.3008
 6098SOL    HW229754   4.176   1.363   5.609 -1.1458 -1.1681  2.3749
 6099SOL     OW29755   2.027   0.868  13.179 -0.9803 -0.2286 -0.9739
 6099SOL    HW129756   2.025   0.788  13.232  0.6579  0.1778 -0.3249
 6099SOL    HW229757   2.120   0.883  13.193 -0.6350 -2.6527 -0.6258
 6100SOL     OW29758   3.117   4.494   5.716  0.4732  0.4512 -0.3081
 6100SOL    HW129759   3.211   4.502   5.734  0.5287  0.1570 -0.4741
 6100SOL    HW229760   3.093   4.577   5.675 -0.5062  0.8689  1.1176
 6101SOL     OW29761   4.073   0.779   7.323  0.6221 -0.0369 -0.1900
 6101SOL    HW129762   4.135   0.708   7.339 -1.2771 -1.5508  0.3638
 6101SOL    HW229763   4.105   0.813   7.239  1.1341 -2.1431 -0.8306
 6102SOL     OW29764   3.448   0.052  12.388  0.0905 -0.1948 -0.1063
 6102SOL    HW129765   3.404   0.102  12.319  0.1350  1.7792  1.3167
 6102SOL    HW229766   3.375   0.001  12.424 -0.1200 -0.5157 -0.9722
 6103SOL     OW29767   3.259   1.410  14.571  0.1762 -0.1703  0.0436
 6103SOL    HW129768   3.338   1.369  14.607 -0.3657 -1.9133 -0.7340
 6103SOL    HW229769   3.218   1.435  14.653  0.0671  0.3802 -0.1789
 6104SOL     OW29770   4.567   0.220   5.957  0.3390 -0.1137 -0.5373
 6104SOL    HW129771   4.607   0.179   6.034  0.5504  0.6135 -0.2641
 6104SOL    HW229772   4.590   0.312   5.962  2.4113 -0.8409  3.2035
 6105SOL     OW29773   3.228   4.257   0.200 -0.4373 -0.2951  0.2560
 6105SOL    HW129774   3.207   4.193   0.132  1.8893 -1.5266  0.6904
 6105SOL    HW229775   3.298   4.206   0.241  0.3517  1.3813  1.0196
 6106SOL     OW29776   0.157   2.338  10.963 -0.6953  0.1778  0.0557
 6106SOL    HW129777   0.184   2.311  11.050  0.5069 -3.3008 -1.3908
 6106SOL    HW229778   0.236   2.325  10.911 -0.0770  0.6144  0.9012
 6107SOL     OW29779   2.743   1.379   8.323 -0.5377 -0.2384 -0.5982
 6107SOL    HW129780   2.665   1.368   8.378 -1.4349  0.6580 -1.6812
 6107SOL    HW229781   2.803   1.310   8.350  0.0721 -0.4874 -2.6410
 6108SOL     OW29782   2.833   2.033   4.041 -0.0502 -0.1737 -0.0015
 6108SOL    HW129783   2.744   2.067   4.049  0.6968  1.4577  1.5039
 6108SOL    HW229784   2.824   1.948   3.998  2.1911 -1.0979  1.3170
 6109SOL     OW29785   3.452   3.574  15.362  0.1644 -0.4324  0.3107
 6109SOL    HW129786   3.533   3.583  15.311  0.2939 -0.7972  0.4485
 6109SOL    HW229787   3.395   3.646  15.334  2.3237  0.7612 -0.9860
 6110SOL     OW29788   0.049   0.169   2.082  0.1043 -0.3452  0.1337
 6110SOL    HW129789   0.106   0.113   2.030 -1.5804 -0.6718 -1.3482
 6110SOL    HW229790   0.016   0.222   2.010  0.4894 -1.5120 -0.9007
 6111SOL     OW29791   0.762   3.382   5.172  0.2059 -0.3070 -0.3894
 6111SOL    HW129792   0.822   3.415   5.106  1.3788  0.8820  1.2499
 6111SOL    HW229793   0.822   3.346   5.238 -0.5876  1.4073  1.2566
 6112SOL     OW29794   3.133   0.381   6.282 -0.0188  0.2039  0.3270
 6112SOL    HW129795   3.199   0.317   6.254  0.2613  0.4629  0.3821
 6112SOL    HW229796   3.118   0.355   6.373 -1.8083  0.3594  0.0742
 6113SOL     OW29797   0.890   2.423   5.034 -0.4329 -0.1401 -0.4069
 6113SOL    HW129798   0.960   2.405   4.970 -0.2646  1.6331 -0.7202
 6113SOL    HW229799   0.863   2.334   5.057 -1.5123  0.4167  0.4266
 6114SOL     OW29800   1.419   2.235  15.479 -0.4007 -0.1512 -0.9859
 6114SOL    HW129801   1.380   2.307  15.430 -2.0349 -1.5307 -1.6962
 6114SOL    HW229802   1.338   2.197  15.514  0.4754  0.2757  1.5066
 6115SOL     OW29803   2.767   4.131  10.934 -0.2222 -0.6648 -0.4378
 6115SOL    HW129804   2.706   4.150  10.863 -1.3033  0.2965  0.7372
 6115SOL    HW229805   2.772   4.216  10.978  2.2727 -1.3180  0.5489
 6116SOL     OW29806   4.006   1.005   7.749 -0.2128 -0.4043  0.2093
 6116SOL    HW129807   4.081   1.059   7.771 -0.9895  0.3150  1.1272
 6116SOL    HW229808   3.929   1.047   7.789 -1.1775  0.4944 -2.5555
 6117SOL     OW29809   1.432   3.985   8.376 -0.5871 -0.3069 -0.1590
 6117SOL    HW129810   1.434   3.902   8.329  1.9594 -0.3041 -0.0226
 6117SOL    HW229811   1.355   3.967   8.431 -0.3508 -0.2545  0.1869
 6118SOL     OW29812   1.415   1.577   2.746 -0.2017  0.0585  0.0615
 6118SOL    HW129813   1.485   1.513   2.760 -1.3440 -1.2625 -0.2516
 6118SOL    HW229814   1.352   1.532   2.690  2.7980 -0.9342 -2.4723
 6119SOL     OW29815   2.352   2.436  14.674 -0.0286  0.2818  0.3526
 6119SOL    HW129816   2.329   2.497  14.604  0.1028 -1.1598 -0.9478
 6119SOL    HW229817   2.299   2.361  14.648 -0.3461  0.2218  1.1977
 6120SOL     OW29818   0.781   2.098   7.355  0.1623  0.2967 -0.2373
 6120SOL    HW129819   0.839   2.024   7.372  1.6339  1.4569 -0.3249
 6120SOL    HW229820   0.701   2.059   7.317  0.9620 -0.5111 -1.0904
 6121SOL     OW29821   1.581   3.063   6.593 -0.4687 -0.0719 -0.2580
 6121SOL    HW129822   1.551   3.032   6.679 -1.4044 -1.3845 -1.0647
 6121SOL    HW229823   1.607   2.983   6.547  0.6106 -1.6019  3.0131
 6122SOL     OW29824   1.620   1.227  16.366 -0.1360  0.1419  0.5216
 6122SOL    HW129825   1.624   1.248  16.459  2.3054 -0.1777  0.4939
 6122SOL    HW229826   1.668   1.300  16.328 -0.3142 -0.5711 -1.1121
 6123SOL     OW29827   1.964   2.711   0.170  0.1126  0.1379 -0.6370
 6123SOL    HW129828   1.975   2.629   0.122 -0.0053  1.6879 -3.3172
 6123SOL    HW229829   1.941   2.778   0.106  1.5675 -0.6407 -1.9677
 6124SOL     OW29830   3.962   4.559   6.195  0.0696  0.1299 -0.4146
 6124SOL    HW129831   4.019   4.488   6.225 -0.7052  1.0617  3.3018
 6124SOL    HW229832   3.998   4.574   6.108  1.4023  0.2354  0.1517
 6125SOL     OW29833   2.136   1.864   8.147  0.5140  0.4872  0.5133
 6125SOL    HW129834   2.212   1.904   8.105  0.0955  0.1590 -0.5658
 6125SOL    HW229835   2.122   1.782   8.099  1.3413  1.0602 -0.7094
 6126SOL     OW29836   1.780   4.697   9.541  0.4749 -0.5023  0.0835
 6126SOL    HW129837   1.818   0.040   9.482 -0.3891  0.3564  0.4858
 6126SOL    HW229838   1.703   4.669   9.493  1.4552 -1.3089 -1.0242
 6127SOL     OW29839   3.158   4.044   5.185 -0.3632  0.2087 -0.0231
 6127SOL    HW129840   3.170   3.956   5.148 -2.7508  0.5062 -1.4882
 6127SOL    HW229841   3.103   4.022   5.261  1.0155 -2.2826  0.2580
 6128SOL     OW29842   3.503   1.668   0.470 -0.1985  0.2971  0.0268
 6128SOL    HW129843   3.540   1.595   0.421  2.2412  0.2205  1.9498
 6128SOL    HW229844   3.535   1.746   0.425  1.3420 -0.9562 -1.0433
 6129SOL     OW29845   3.329   0.201   5.660  0.4641 -0.1000  0.3441
 6129SOL    HW129846   3.264   0.131   5.653 -0.0976  0.4379  0.2019
 6129SOL    HW229847   3.356   0.189   5.751 -0.3272  0.6219  0.6785
 6130SOL     OW29848   1.619   2.529   1.880 -0.0097  0.4899 -0.3840
 6130SOL    HW129849   1.585   2.589   1.813 -2.3444 -0.7602 -0.2805
 6130SOL    HW229850   1.680   2.589   1.923  0.9128 -0.4348 -0.4025
 6131SOL     OW29851   1.256   1.497   0.425  0.6402 -0.9159  0.4443
 6131SOL    HW129852   1.248   1.580   0.377  1.7220 -0.7399  0.5720
 6131SOL    HW229853   1.206   1.432   0.376  1.7329 -1.7109  0.3883
 6132SOL     OW29854   1.084   0.318   9.852  0.7167  0.1510  1.2486
 6132SOL    HW129855   1.063   0.289   9.940  0.6716  0.5054  1.3542
 6132SOL    HW229856   1.014   0.383   9.842  0.4360 -0.4711 -0.9148
 6133SOL     OW29857   2.079   4.618   7.699 -0.6800 -0.0108 -0.3979
 6133SOL    HW129858   2.155   4.593   7.648 -0.5932 -0.9796  0.1979
 6133SOL    HW229859   2.024   4.636   7.622 -1.1705  0.2548  0.0089
 6134SOL     OW29860   3.661   2.037   9.928  0.0422  0.5664 -0.0489
 6134SOL    HW129861   3.629   1.978   9.860 -0.8680  2.0272 -0.8780
 6134SOL    HW229862   3.581   2.087   9.943 -1.4845 -1.7876 -0.3432
 6135SOL     OW29863   2.983   0.874   3.072 -0.0070  0.3446  0.4183
 6135SOL    HW129864   2.952   0.828   2.994  2.1347 -1.5044  0.6367
 6135SOL    HW229865   3.049   0.818   3.115 -1.3547  0.8164  3.1222
 6136SOL     OW29866   0.600   0.514  13.585  0.3326 -0.2157 -0.1570
 6136SOL    HW129867   0.681   0.470  13.558  2.2527  2.3213  1.3978
 6136SOL    HW229868   0.601   0.504  13.680 -1.6330  2.6335  0.1591
 6137SOL     OW29869   1.871   4.371  11.289 -0.4902 -0.2568  0.3562
 6137SOL    HW129870   1.965   4.354  11.278 -0.2528  0.7858  0.7674
 6137SOL    HW229871   1.869   4.289  11.340  1.2119 -1.2521 -1.1527
 6138SOL     OW29872   1.285   3.477   6.826 -0.1169  0.2681  0.2797
 6138SOL    HW129873   1.284   3.555   6.771 -0.8511  1.1911  1.5980
 6138SOL    HW229874   1.288   3.413   6.755  0.8320 -1.9369  2.2843
 6139SOL     OW29875   2.809   4.374   7.197  0.3518 -0.1642 -0.2537
 6139SOL    HW129876   2.733   4.369   7.255 -0.6770  0.3998 -1.5507
 6139SOL    HW229877   2.785   4.436   7.128  0.4208  2.7914  2.3186
 6140SOL     OW29878   0.754   2.200   2.267 -0.0381 -0.2599  0.2171
 6140SOL    HW129879   0.757   2.253   2.187  1.6035 -1.3532 -0.4398
 6140SOL    HW229880   0.823   2.235   2.323  0.1837 -0.9613  0.3813
 6141SOL     OW29881   1.161   0.397   6.160 -0.3693  0.5286  0.1644
 6141SOL    HW129882   1.103   0.460   6.202 -0.9744 -1.3582  2.2048
 6141SOL    HW229883   1.102   0.326   6.133  0.0988 -0.1559  0.9359
 6142SOL     OW29884   1.372   1.732   5.358  0.0604  0.0632  0.1023
 6142SOL    HW129885   1.463   1.728   5.327 -0.3281 -0.8130 -0.9733
 6142SOL    HW229886   1.367   1.777   5.441  2.8666  0.8992 -0.1844
 6143SOL     OW29887   0.971   0.482   1.080  0.2213 -0.3165 -0.6200
 6143SOL    HW129888   0.947   0.541   1.008  1.5354  1.0962  0.1159
 6143SOL    HW229889   1.066   0.467   1.077  0.1579 -0.6466 -1.1016
 6144SOL     OW29890   4.556   0.622  15.216  0.1342  0.5850 -0.4271
 6144SOL    HW129891   4.583   0.608  15.125  2.7588  0.9277  0.2816
 6144SOL    HW229892   4.627   0.583  15.268 -0.4539  0.1011  0.0031
 6145SOL     OW29893   3.723   1.404   4.808 -0.4031 -0.0617  0.5910
 6145SOL    HW129894   3.748   1.327   4.757 -0.7900  1.0121 -1.2014
 6145SOL    HW229895   3.802   1.418   4.861 -2.0852 -2.4236  3.7508
 6146SOL     OW29896   2.314   3.045  10.297 -0.2024  0.0497 -0.0463
 6146SOL    HW129897   2.274   3.130  10.281 -1.2407 -0.8312 -2.1135
 6146SOL    HW229898   2.354   3.034  10.211  1.3735 -1.2978  0.8486
 6147SOL     OW29899   2.252   0.245  10.935  0.5522 -0.6963  0.1182
 6147SOL    HW129900   2.211   0.302  10.870  2.1955 -1.0107 -1.1789
 6147SOL    HW229901   2.222   0.285  11.017 -1.8371  2.5112 -2.3327
 6148SOL     OW29902   4.707   4.130   9.650  0.3483 -0.1326  0.6781
 6148SOL    HW129903   4.616   4.155   9.637  0.9045  0.6314 -1.8673
 6148SOL    HW229904   4.698   4.047   9.696 -0.3724 -0.3578  0.1275
 6149SOL     OW29905   2.834   3.536   4.413  0.2510 -0.0017 -0.3150
 6149SOL    HW129906   2.837   3.567   4.323 -0.2208  0.8025 -0.0577
 6149SOL    HW229907   2.902   3.469   4.420 -1.0791 -1.3422 -0.2554
 6150SOL     OW29908   3.282   3.042  14.279 -0.4626  0.1849  0.7456
 6150SOL    HW129909   3.219   3.065  14.347 -0.6414 -0.1603  0.7010
 6150SOL    HW229910   3.367   3.029  14.321 -0.3518  0.1766  0.5220
 6151SOL     OW29911   4.676   0.532   8.809 -0.4689 -0.1674  0.1697
 6151SOL    HW129912   0.027   0.492   8.763 -0.0427 -1.2433  1.7801
 6151SOL    HW229913   4.665   0.616   8.766 -0.8360 -0.3561 -0.1142
 6152SOL     OW29914   4.103   1.613   0.266  0.3166 -0.1141  0.3398
 6152SOL    HW129915   4.164   1.654   0.205 -0.0430 -1.7222 -1.1054
 6152SOL    HW229916   4.135   1.523   0.261 -0.4632 -0.4381  1.1388
 6153SOL     OW29917   4.462   3.738  17.067  0.0276  0.3243  0.0363
 6153SOL    HW129918   4.395   3.802  17.089 -1.7696 -0.7587 -2.2802
 6153SOL    HW229919   4.511   3.732  17.148  1.0335  1.6733 -0.4669
 6154SOL     OW29920   3.353   3.420   4.051  0.4133 -0.5887  0.0259
 6154SOL    HW129921   3.434   3.368   4.051  0.4549 -0.5138 -1.6543
 6154SOL    HW229922   3.385   3.508   4.031 -0.9821  0.2761  1.6288
 6155SOL     OW29923   2.628   2.305   7.790 -0.1565 -0.1625 -0.6169
 6155SOL    HW129924   2.538   2.272   7.798 -0.0866 -0.8080 -2.6527
 6155SOL    HW229925   2.671   2.233   7.836 -1.1229  2.1692  3.9342
 6156SOL     OW29926   3.328   3.044   3.898  0.4583  0.2405 -0.3149
 6156SOL    HW129927   3.381   2.969   3.924  0.0161 -0.1131 -0.4487
 6156SOL    HW229928   3.338   3.100   3.975  2.1130 -1.2911  0.5950
 6157SOL     OW29929   1.771   0.916   7.937 -0.2162  0.5708  0.2373
 6157SOL    HW129930   1.705   0.953   7.879  0.9836 -0.5386 -1.8118
 6157SOL    HW229931   1.719   0.895   8.015  0.6823  3.8125  1.7327
 6158SOL     OW29932   0.259   2.984   8.920  0.4717  0.2581 -0.2127
 6158SOL    HW129933   0.319   2.915   8.948 -1.3603 -1.2233  0.1404
 6158SOL    HW229934   0.200   2.985   8.995 -0.5982  1.8562 -1.0753
 6159SOL     OW29935   1.144   0.082  13.764 -0.3083 -0.1898  0.7138
 6159SOL    HW129936   1.195   0.050  13.690 -0.3168  2.7813 -0.5393
 6159SOL    HW229937   1.064   0.100  13.716 -0.7382 -1.5261  0.9125
 6160SOL     OW29938   3.337   1.874  10.497 -0.1280  0.1299  0.6459
 6160SOL    HW129939   3.389   1.793  10.495  1.7400  1.3743 -1.2738
 6160SOL    HW229940   3.252   1.838  10.523  0.6959  0.1239  3.2618
 6161SOL     OW29941   3.729   4.692   7.197  0.4168 -0.0155 -0.0902
 6161SOL    HW129942   3.660   4.641   7.240  0.7840  0.2847  0.8494
 6161SOL    HW229943   3.697   4.702   7.107  1.8151 -0.2651 -0.6118
 6162SOL     OW29944   4.213   3.154  10.403  0.3647  0.0810  0.3367
 6162SOL    HW129945   4.209   3.245  10.430  0.9149  0.4236 -0.7222
 6162SOL    HW229946   4.158   3.164  10.325  0.9170 -1.2196 -0.2225
 6163SOL     OW29947   1.667   4.454   8.027 -0.8512  0.0153  0.5981
 6163SOL    HW129948   1.725   4.496   7.963  0.2678 -2.1390  0.1954
 6163SOL    HW229949   1.588   4.507   8.022 -1.0704 -0.4084 -0.4846
 6164SOL     OW29950   2.571   2.191  10.656 -0.1549  0.6470  0.1725
 6164SOL    HW129951   2.636   2.256  10.631  0.3561 -0.1877 -0.6536
 6164SOL    HW229952   2.517   2.235  10.722 -2.5288 -0.0299 -1.3013
 6165SOL     OW29953   1.820   0.081   2.569 -0.4644  0.6100 -0.4342
 6165SOL    HW129954   1.871   0.016   2.618 -0.9091 -0.3801 -1.2944
 6165SOL    HW229955   1.890   0.146   2.578 -0.0104 -0.2463  2.2202
 6166SOL     OW29956   3.686   2.125   5.697 -0.1311  0.2227 -0.1258
 6166SOL    HW129957   3.610   2.130   5.639 -0.3113  0.0721  0.1018
 6166SOL    HW229958   3.652   2.174   5.772  1.6254  0.6940  0.3745
 6167SOL     OW29959   2.169   0.318   4.863  0.2513 -0.1084 -0.0098
 6167SOL    HW129960   2.242   0.379   4.851  0.6560 -0.0141  2.8407
 6167SOL    HW229961   2.143   0.331   4.954  0.4259  0.0225  0.0217
 6168SOL     OW29962   4.407   3.960  14.085  0.6658  0.2970 -0.1923
 6168SOL    HW129963   4.444   4.037  14.042 -2.2504  1.3769 -0.8335
 6168SOL    HW229964   4.361   4.005  14.156 -0.8823 -0.4122 -0.7347
 6169SOL     OW29965   3.608   2.848   8.642 -0.2969 -0.0687 -0.1356
 6169SOL    HW129966   3.603   2.764   8.596  0.6410 -2.0344  3.3312
 6169SOL    HW229967   3.684   2.883   8.595  0.2710 -3.2969 -1.6427
 6170SOL     OW29968   0.764   1.942   8.059  0.4385  0.3250  0.4995
 6170SOL    HW129969   0.828   2.006   8.027  0.5660 -1.3277 -2.5235
 6170SOL    HW229970   0.719   1.990   8.129  3.7277  3.3823  0.4858
 6171SOL     OW29971   1.466   3.747   6.386 -0.3462  0.5643  0.7840
 6171SOL    HW129972   1.438   3.830   6.424  0.2872  1.1330  0.0010
 6171SOL    HW229973   1.548   3.776   6.347 -1.4781 -0.6999 -2.5517
 6172SOL     OW29974   2.371   0.706   7.765  0.3484 -0.2855  0.0152
 6172SOL    HW129975   2.436   0.733   7.830 -1.4016 -0.4794  1.8475
 6172SOL    HW229976   2.342   0.626   7.810  0.2694 -0.5697 -0.5426
 6173SOL     OW29977   4.275   0.272  10.340  0.3677  0.0321 -0.5479
 6173SOL    HW129978   4.304   0.312  10.259 -0.9821  0.4223 -0.8454
 6173SOL    HW229979   4.327   0.322  10.403  3.4191 -2.2094 -1.3368
 6174SOL     OW29980   4.691   0.393  10.085 -0.8006 -0.0683  0.2556
 6174SOL    HW129981   0.054   0.355  10.100 -0.9229  0.3870  2.1083
 6174SOL    HW229982   4.700   0.481  10.050 -2.0489  0.3936  1.1044
 6175SOL     OW29983   0.701   4.623  10.689 -0.0090 -0.1925 -0.0973
 6175SOL    HW129984   0.780   4.677  10.688 -1.1870  1.5139  1.5364
 6175SOL    HW229985   0.741   4.540  10.716  1.8708  1.1706  1.2720
 6176SOL     OW29986   2.362   1.839   3.874  0.1094  0.0911  0.1898
 6176SOL    HW129987   2.372   1.747   3.850 -0.7817  0.0427  0.0121
 6176SOL    HW229988   2.306   1.867   3.802  1.2159  1.1758 -0.2627
 6177SOL     OW29989   0.136   1.294   8.308 -0.3632 -0.2898 -0.5927
 6177SOL    HW129990   0.085   1.355   8.362 -0.0133  0.9678 -1.6803
 6177SOL    HW229991   0.185   1.365   8.267  0.5603 -0.3033  0.5138
 6178SOL     OW29992   4.615   4.461   7.867 -0.4072 -1.0622  0.4206
 6178SOL    HW129993   4.543   4.479   7.806  0.1172 -0.2302  0.0412
 6178SOL    HW229994   4.649   4.375   7.841  0.3087  0.2270 -2.9186
 6179SOL     OW29995   3.701   2.859  16.614 -0.1750  0.2932  0.1224
 6179SOL    HW129996   3.608   2.874  16.628 -0.1753  0.9968 -0.6937
 6179SOL    HW229997   3.733   2.907  16.690 -1.7161  1.6981 -0.1086
 6180SOL     OW29998   3.339   4.604   8.429  0.0611 -0.0769 -0.3159
 6180SOL    HW129999   3.324   4.698   8.419 -0.8636 -0.2320 -0.3919
 6180SOL    HW230000   3.263   4.569   8.381  0.3053 -1.0376  0.0005
 6181SOL     OW30001   2.843   1.768  12.397 -0.0022 -0.0786 -0.6539
 6181SOL    HW130002   2.897   1.813  12.332 -0.0845  2.0192  0.7277
 6181SOL    HW230003   2.870   1.677  12.382  3.2041  0.6625  0.6828
 6182SOL     OW30004   1.627   4.499   6.868 -0.3819  0.1004 -0.3387
 6182SOL    HW130005   1.595   4.589   6.870  0.1337  0.3042 -1.2554
 6182SOL    HW230006   1.718   4.512   6.896 -0.6391  0.6088  0.2818
 6183SOL     OW30007   1.476   4.304   5.910  0.0925  0.1167 -0.4486
 6183SOL    HW130008   1.516   4.371   5.966  1.3946 -0.7548 -0.3385
 6183SOL    HW230009   1.418   4.275   5.981  0.6862 -2.4269 -0.9938
 6184SOL     OW30010   0.907   3.411   7.875  0.3963 -0.6199  0.0948
 6184SOL    HW130011   0.991   3.443   7.842 -1.8253  1.0757 -3.8858
 6184SOL    HW230012   0.925   3.412   7.969  1.3559 -0.2093 -0.0963
 6185SOL     OW30013   2.341   2.429  13.914 -0.3770  0.4715 -0.4436
 6185SOL    HW130014   2.331   2.403  13.822 -1.7795  2.3841 -0.8338
 6185SOL    HW230015   2.417   2.487  13.904 -0.0397 -0.2184 -1.9107
 6186SOL     OW30016   2.059   1.557  14.411 -0.0971 -0.2562 -0.4186
 6186SOL    HW130017   2.037   1.464  14.413 -0.7094 -0.1309 -2.0130
 6186SOL    HW230018   2.013   1.584  14.332 -1.4067  0.1585  0.4867
 6187SOL     OW30019   1.906   2.557   5.721 -0.1060  0.1751 -0.1032
 6187SOL    HW130020   1.903   2.516   5.635  0.9794 -1.6935  0.7537
 6187SOL    HW230021   1.902   2.646   5.688  2.7643 -0.2255 -1.5015
 6188SOL     OW30022   3.010   1.884   3.237 -0.5512  0.3646 -0.2185
 6188SOL    HW130023   2.943   1.951   3.252 -0.0421  0.8491 -0.0822
 6188SOL    HW230024   2.963   1.843   3.164  0.2944 -0.1702 -0.4638
 6189SOL     OW30025   1.955   3.308  13.198  0.3599  0.2000  0.1349
 6189SOL    HW130026   2.030   3.301  13.139  0.2893 -1.4768  0.2457
 6189SOL    HW230027   1.896   3.238  13.169 -1.3193  1.3044  0.8510
 6190SOL     OW30028   1.664   0.276   0.916  0.2127  0.4154 -0.0056
 6190SOL    HW130029   1.622   0.193   0.894 -0.0955  0.8628 -1.1385
 6190SOL    HW230030   1.736   0.250   0.974 -0.0293 -1.2529 -0.4429
 6191SOL     OW30031   1.592   1.496  12.748 -0.0162 -0.1300  0.3207
 6191SOL    HW130032   1.599   1.454  12.834 -0.9515 -3.1161 -1.0791
 6191SOL    HW230033   1.497   1.493  12.734  0.0606 -2.5401  0.2545
 6192SOL     OW30034   3.217   0.372   8.667 -0.3051  0.6207 -0.2777
 6192SOL    HW130035   3.213   0.331   8.754  1.4789  0.9704 -0.0299
 6192SOL    HW230036   3.166   0.311   8.613 -0.2220 -1.9249  2.5063
 6193SOL     OW30037   2.035   2.067   0.173  0.3214  0.1446 -0.0598
 6193SOL    HW130038   1.951   2.110   0.161  0.3114  0.6465  1.7494
 6193SOL    HW230039   2.062   2.097   0.260 -1.1410 -1.3562  0.9240
 6194SOL     OW30040   3.031   2.276   6.857  0.4954  0.4968 -0.0578
 6194SOL    HW130041   3.108   2.318   6.896  0.8226 -0.1134 -0.0453
 6194SOL    HW230042   3.038   2.285   6.762 -0.6961 -0.9617 -0.2712
 6195SOL     OW30043   4.411   1.656   0.418 -0.1456  0.1209  0.0020
 6195SOL    HW130044   4.332   1.710   0.420  1.0271  1.7959  0.6641
 6195SOL    HW230045   4.466   1.696   0.485  0.8316 -0.6983 -0.3133
 6196SOL     OW30046   2.017   3.691   2.239  0.1854 -0.6092  0.3215
 6196SOL    HW130047   2.060   3.770   2.273  1.9220 -1.3822 -0.0608
 6196SOL    HW230048   2.011   3.650   2.325 -2.3302  0.0243  0.4576
 6197SOL     OW30049   2.746   3.746   5.020  0.1360 -0.2137  0.6439
 6197SOL    HW130050   2.652   3.760   5.009  0.0178 -0.1546  1.7812
 6197SOL    HW230051   2.763   3.695   5.099 -0.0787 -0.8247  0.3008
 6198SOL     OW30052   4.687   3.098  16.723  0.2539  0.1742  0.3648
 6198SOL    HW130053   4.603   3.082  16.766  0.5301 -0.8511  0.5114
 6198SOL    HW230054   0.000   3.010  16.726 -0.1007  0.1238  2.9390
 6199SOL     OW30055   0.535   0.484   1.508 -0.1213  0.1313  0.5473
 6199SOL    HW130056   0.486   0.402   1.512  0.1340 -0.2356 -3.5338
 6199SOL    HW230057   0.478   0.543   1.557 -0.3163  1.6625 -1.5166
 6200SOL     OW30058   3.287   3.770   8.923  0.5505 -0.5709  0.1990
 6200SOL    HW130059   3.331   3.854   8.914 -0.0517 -0.1668  1.0595
 6200SOL    HW230060   3.357   3.712   8.893  0.2254 -0.2905 -1.0755
 6201SOL     OW30061   2.455   4.092  15.554  0.8767 -0.0429  0.0268
 6201SOL    HW130062   2.479   4.065  15.465 -0.5666 -0.5831 -0.2016
 6201SOL    HW230063   2.383   4.030  15.569  0.3709  0.4458 -0.3674
 6202SOL     OW30064   0.453   2.085   8.724  0.5324  0.1832 -0.0186
 6202SOL    HW130065   0.397   2.009   8.740  1.3374 -0.6427 -1.1138
 6202SOL    HW230066   0.540   2.044   8.723  1.2335  1.6745  0.2085
 6203SOL     OW30067   1.601   3.154   4.991 -0.4335  0.0904  0.4423
 6203SOL    HW130068   1.634   3.214   5.058  1.8675 -2.3908  1.5327
 6203SOL    HW230069   1.592   3.221   4.922 -0.4598  0.8211  1.1493
 6204SOL     OW30070   1.907   4.125  15.025 -0.2024 -0.2897 -0.2492
 6204SOL    HW130071   1.927   4.190  15.092 -0.0157  1.2339 -1.7967
 6204SOL    HW230072   1.893   4.183  14.951  1.6431  1.2210  0.5857
 6205SOL     OW30073   2.952   3.191   7.457 -0.5565 -0.1173  0.7343
 6205SOL    HW130074   2.957   3.282   7.428 -3.3397 -1.2294 -3.1675
 6205SOL    HW230075   3.020   3.136   7.417 -0.6370  0.9788 -0.8859
 6206SOL     OW30076   0.438   1.667   6.235  0.6396 -0.2592  0.0330
 6206SOL    HW130077   0.475   1.642   6.150  3.1788 -1.5794  1.5260
 6206SOL    HW230078   0.361   1.719   6.214  0.3320 -1.3119 -1.4696
 6207SOL     OW30079   1.540   2.920   2.313  0.3134  0.3666 -0.1038
 6207SOL    HW130080   1.591   2.859   2.260  0.6058 -1.7483  2.5736
 6207SOL    HW230081   1.526   2.998   2.260  0.5521 -0.2174 -1.0321
 6208SOL     OW30082   0.804   4.347  15.070 -0.1510  0.5308  0.0163
 6208SOL    HW130083   0.874   4.347  15.136 -0.7445  3.9654  0.6566
 6208SOL    HW230084   0.746   4.313  15.138  1.5634 -1.2251  0.6075
 6209SOL     OW30085   1.406   0.318   7.269  0.6162  0.1371  0.5276
 6209SOL    HW130086   1.351   0.384   7.226  1.5895  0.4123 -0.2812
 6209SOL    HW230087   1.462   0.385   7.310 -1.5447  1.1900  1.7644
 6210SOL     OW30088   4.384   2.019   1.437  0.4304  0.1128 -0.1540
 6210SOL    HW130089   4.417   2.105   1.464 -0.5162 -0.3683  2.5906
 6210SOL    HW230090   4.431   1.960   1.496  0.5479  0.7774  0.4251
 6211SOL     OW30091   0.007   0.785   7.109 -0.4153  0.0790 -0.1035
 6211SOL    HW130092   0.052   0.734   7.177 -1.0615  1.8640  1.6712
 6211SOL    HW230093   4.718   0.872   7.147  1.9275  0.1934  0.3904
 6212SOL     OW30094   3.769   3.042  13.418 -0.6948 -0.0419 -0.3932
 6212SOL    HW130095   3.742   2.950  13.413  0.6831 -0.4739  0.2150
 6212SOL    HW230096   3.724   3.079  13.495  0.7371 -0.9982  0.8883
 6213SOL     OW30097   3.299   3.657   7.489 -0.7222  0.2422  0.1342
 6213SOL    HW130098   3.304   3.572   7.534 -0.3462  0.3484  0.2942
 6213SOL    HW230099   3.364   3.709   7.535 -0.5006 -0.7424  0.9297
 6214SOL     OW30100   4.231   2.571   0.824  0.3897 -0.6787 -0.2493
 6214SOL    HW130101   4.309   2.624   0.840 -1.1514  1.4615  0.1880
 6214SOL    HW230102   4.259   2.489   0.784  0.6237 -0.8111  0.1863
 6215SOL     OW30103   1.169   3.211   6.994  0.1240  0.4794 -0.1114
 6215SOL    HW130104   1.133   3.253   6.915 -2.3120  0.1409  0.8146
 6215SOL    HW230105   1.133   3.123   6.983 -1.9559  0.9654  2.7503
 6216SOL     OW30106   4.359   3.421   2.187  0.3398  0.2589  0.2270
 6216SOL    HW130107   4.428   3.399   2.251 -0.3290  0.9921  1.2047
 6216SOL    HW230108   4.386   3.350   2.129  2.9974  0.1643  1.5337
 6217SOL     OW30109   3.721   2.156   0.448  0.2300  0.3182 -0.2340
 6217SOL    HW130110   3.720   2.238   0.400 -0.3567 -0.3203 -1.3273
 6217SOL    HW230111   3.628   2.133   0.436  0.1413  0.8756 -0.5761
 6218SOL     OW30112   2.066   0.926   4.470  0.1671  0.6505  0.1676
 6218SOL    HW130113   2.145   0.871   4.475 -0.1625  0.1838  0.2853
 6218SOL    HW230114   2.009   0.855   4.441  0.0725  0.8961 -0.2402
 6219SOL     OW30115   3.026   0.123  14.057  0.1095  0.1115 -0.2459
 6219SOL    HW130116   3.025   0.112  14.152  1.0786 -0.3083 -0.2809
 6219SOL    HW230117   3.091   0.056  14.037  0.6319 -0.3087  2.7926
 6220SOL     OW30118   2.782   4.515   6.858 -0.2207  0.1020 -1.0460
 6220SOL    HW130119   2.822   4.602   6.846 -1.6357  0.8788 -0.1391
 6220SOL    HW230120   2.692   4.528   6.887  0.0755 -1.6216  0.6251
 6221SOL     OW30121   1.322   4.270   5.680 -0.1505  0.1576 -0.1847
 6221SOL    HW130122   1.303   4.179   5.703  1.1709 -0.5927 -2.1250
 6221SOL    HW230123   1.371   4.297   5.758  0.8431 -1.2018 -0.3446
 6222SOL     OW30124   4.495   1.209  17.591 -0.6333  0.2132 -0.0038
 6222SOL    HW130125   4.474   1.223  17.499 -3.1456 -1.8632  0.2855
 6222SOL    HW230126   4.425   1.153  17.624  0.8396  0.1646  3.0746
 6223SOL     OW30127   1.964   1.326   2.802  0.0277  0.8991  0.8995
 6223SOL    HW130128   2.031   1.394   2.817  1.2021 -0.1990  0.6123
 6223SOL    HW230129   1.957   1.317   2.707  2.0100  1.4497  0.6969
 6224SOL     OW30130   4.403   0.059   5.577 -0.1500  0.2664  0.6309
 6224SOL    HW130131   4.333   0.023   5.524  0.1290  0.7038 -0.0407
 6224SOL    HW230132   4.443   0.113   5.508  0.6113  0.8267  1.4930
 6225SOL     OW30133   4.324   4.294   3.549  0.7291 -0.2920 -0.6047
 6225SOL    HW130134   4.243   4.298   3.497 -0.9641 -2.6576  1.8492
 6225SOL    HW230135   4.306   4.242   3.627 -0.0818  0.1450 -0.5005
 6226SOL     OW30136   1.463   1.805   4.624  0.3146 -0.5824  0.3850
 6226SOL    HW130137   1.420   1.812   4.709  0.4809 -0.3983  0.4527
 6226SOL    HW230138   1.409   1.874   4.586  0.4266 -0.6756  0.0586
 6227SOL     OW30139   0.231   3.361  11.913 -0.3687 -0.0384 -0.1678
 6227SOL    HW130140   0.204   3.321  11.830 -0.5453  0.9446 -0.5924
 6227SOL    HW230141   0.308   3.414  11.890 -1.8090  0.6490 -3.4930
 6228SOL     OW30142   2.745   3.891   8.418  0.3528  0.1176 -0.1041
 6228SOL    HW130143   2.748   3.803   8.456  0.6364  0.1624 -0.0183
 6228SOL    HW230144   2.804   3.943   8.471  0.3859 -0.6113  0.5745
 6229SOL     OW30145   1.057   3.244   6.223 -0.2569 -0.4069  0.0786
 6229SOL    HW130146   1.152   3.253   6.215 -0.6526  1.3689 -2.7169
 6229SOL    HW230147   1.046   3.310   6.291  0.2044 -0.1634 -0.0809
 6230SOL     OW30148   2.856   3.720  14.349  0.3056 -0.3920 -0.4813
 6230SOL    HW130149   2.814   3.641  14.317 -0.2927 -0.6804  0.9904
 6230SOL    HW230150   2.875   3.762  14.265 -0.2128 -2.1317 -1.4533
 6231SOL     OW30151   4.656   2.151   6.925  0.8915  0.0124  0.0752
 6231SOL    HW130152   4.618   2.204   6.994 -0.3865 -0.6720 -0.0969
 6231SOL    HW230153   4.630   2.197   6.845  0.0792  1.5860  1.2600
 6232SOL     OW30154   1.209   3.955  15.268  0.7178 -0.1504  0.0793
 6232SOL    HW130155   1.188   4.044  15.297 -1.7587 -0.8639  0.4465
 6232SOL    HW230156   1.200   3.906  15.350  1.2720  0.1502  0.3232
 6233SOL     OW30157   1.583   1.759  10.277  0.0027  0.4023 -0.2462
 6233SOL    HW130158   1.608   1.836  10.226 -1.8252  1.6920  0.7683
 6233SOL    HW230159   1.488   1.755  10.272  0.0321 -2.7547  1.7072
 6234SOL     OW30160   4.600   0.229  15.596 -0.1894 -0.1402 -0.5333
 6234SOL    HW130161   4.617   0.227  15.501 -0.4901 -1.8997 -0.5630
 6234SOL    HW230162   4.563   0.142  15.614 -1.0724  0.2261 -0.5981
 6235SOL     OW30163   2.186   4.499  17.392 -0.0771  0.0656 -0.2790
 6235SOL    HW130164   2.128   4.557  17.343  0.7001  0.5693 -0.5931
 6235SOL    HW230165   2.170   4.415  17.349 -1.1331 -0.7771  1.7403
 6236SOL     OW30166   3.047   2.194   0.563 -1.1321  0.3266 -0.2071
 6236SOL    HW130167   2.962   2.151   0.571 -0.6007 -0.6314  0.2652
 6236SOL    HW230168   3.028   2.276   0.517 -2.3824  0.2562  0.1878
 6237SOL     OW30169   4.245   1.103   1.099 -0.1279 -0.3012 -0.5024
 6237SOL    HW130170   4.296   1.058   1.165  0.7315  0.8110 -0.4163
 6237SOL    HW230171   4.207   1.025   1.058 -2.1043  0.0159  0.6951
 6238SOL     OW30172   1.359   3.317   7.184 -0.0838  0.3951  0.6855
 6238SOL    HW130173   1.274   3.285   7.152 -0.9007  0.0335  3.2272
 6238SOL    HW230174   1.355   3.293   7.276 -3.3911  0.2891  0.5429
 6239SOL     OW30175   4.582   0.728   8.658 -0.2731 -0.2745 -0.2173
 6239SOL    HW130176   4.528   0.794   8.614 -1.5735 -0.3729  1.2311
 6239SOL    HW230177   4.570   0.658   8.594 -0.1672 -0.6825  0.2183
 6240SOL     OW30178   2.626   2.060   2.825  0.3311  0.0489 -0.0734
 6240SOL    HW130179   2.698   2.029   2.879 -0.5393 -1.8842 -0.0552
 6240SOL    HW230180   2.633   2.154   2.842  2.0644  0.4129 -2.6913
 6241SOL     OW30181   1.364   1.554   3.920 -0.4723  0.6851  0.0570
 6241SOL    HW130182   1.304   1.527   3.850 -1.1231  4.4773 -0.8354
 6241SOL    HW230183   1.445   1.563   3.871 -0.8619 -0.6870 -0.8257
 6242SOL     OW30184   3.805   2.699   3.595 -0.7261 -0.2420  0.7082
 6242SOL    HW130185   3.721   2.658   3.575 -0.2726 -0.5240 -0.6094
 6242SOL    HW230186   3.831   2.735   3.510 -1.6438  0.0037  0.5373
 6243SOL     OW30187   2.991   2.345   9.222 -0.3722  0.3028 -0.4143
 6243SOL    HW130188   2.958   2.284   9.155  1.9456 -1.1435 -0.2580
 6243SOL    HW230189   2.945   2.321   9.302  0.4248 -1.1952 -0.3912
 6244SOL     OW30190   3.328   1.360   6.143 -0.2165  0.3121  0.6386
 6244SOL    HW130191   3.341   1.355   6.238  0.9408 -1.0740  0.4001
 6244SOL    HW230192   3.235   1.338   6.143  0.5491 -2.9234 -0.1036
 6245SOL     OW30193   3.672   2.870   9.188 -0.4973  0.3114  0.1613
 6245SOL    HW130194   3.734   2.943   9.189 -1.6524  1.2973 -0.1894
 6245SOL    HW230195   3.597   2.910   9.145  0.9153  2.5191 -0.2577
 6246SOL     OW30196   4.064   2.834   5.564 -0.4743  0.1663  0.0943
 6246SOL    HW130197   4.143   2.856   5.514 -0.1609 -1.5351 -0.1539
 6246SOL    HW230198   3.993   2.887   5.527 -0.4691  1.3302  1.7307
 6247SOL     OW30199   0.911   0.101   7.041 -0.4274  0.0276 -0.5512
 6247SOL    HW130200   0.959   0.019   7.043  0.3619  0.5262  1.9816
 6247SOL    HW230201   0.945   0.143   7.121 -2.0915 -0.1317  0.2263
 6248SOL     OW30202   1.667   0.122  11.498 -0.3796 -0.1492  0.0881
 6248SOL    HW130203   1.734   0.067  11.457 -1.2875  0.8579 -2.7153
 6248SOL    HW230204   1.667   0.090  11.588 -0.8159 -0.0883  0.1135
 6249SOL     OW30205   2.248   2.815  17.515 -0.1978  0.2875  0.4722
 6249SOL    HW130206   2.181   2.763  17.559 -0.1066  0.5730  0.9464
 6249SOL    HW230207   2.320   2.755  17.535 -1.3423 -1.3839 -0.3627
 6250SOL     OW30208   3.008   4.095   2.618 -0.5383  0.1798 -0.0835
 6250SOL    HW130209   3.034   4.011   2.582  1.5525 -0.3722  2.7719
 6250SOL    HW230210   3.092   4.109   2.660 -0.6636 -0.5461  0.4026
 6251SOL     OW30211   0.881   4.351   1.858  0.3359  0.7178  0.0334
 6251SOL    HW130212   0.951   4.294   1.890  1.3017  2.3065  0.7178
 6251SOL    HW230213   0.915   4.440   1.854  1.5658  0.2055 -0.9759
 6252SOL     OW30214   1.079   0.207  16.501  0.0103  0.6461  0.1391
 6252SOL    HW130215   1.055   0.224  16.410  0.2525 -2.3375 -0.4739
 6252SOL    HW230216   1.116   0.119  16.491 -1.3216  0.3376 -2.0368
 6253SOL     OW30217   2.027   0.052  15.708 -0.1203 -0.5382 -0.1604
 6253SOL    HW130218   2.116   0.087  15.702 -0.9347  1.6743  0.5110
 6253SOL    HW230219   1.976   0.120  15.753 -1.3065 -0.8624 -1.0231
 6254SOL     OW30220   4.164   1.800   4.776  0.6308  0.1958 -0.1502
 6254SOL    HW130221   4.208   1.716   4.764  0.2866  0.2947 -2.0886
 6254SOL    HW230222   4.148   1.817   4.683  2.3590 -2.2849 -0.8874
 6255SOL     OW30223   4.501   0.872   7.442  0.4500  0.1670 -0.2614
 6255SOL    HW130224   4.445   0.827   7.379  1.0399 -0.1631 -0.5540
 6255SOL    HW230225   4.435   0.899   7.506 -0.0189 -2.2535  0.2632
 6256SOL     OW30226   3.771   1.164   5.386  0.1483 -0.0747 -0.7293
 6256SOL    HW130227   3.741   1.245   5.346  1.7010 -1.0386 -3.8651
 6256SOL    HW230228   3.866   1.167   5.374  0.4068 -1.4668  0.9144
 6257SOL     OW30229   1.612   0.270   2.651 -1.0403  0.3871  0.3038
 6257SOL    HW130230   1.549   0.199   2.660  0.4032 -0.7301  1.6047
 6257SOL    HW230231   1.687   0.213   2.632 -0.1766  1.2244  1.1772
 6258SOL     OW30232   1.253   0.689   5.925 -0.2688 -0.5864  0.1445
 6258SOL    HW130233   1.280   0.603   5.958  2.1626 -0.0425 -0.3903
 6258SOL    HW230234   1.218   0.674   5.837 -0.4906 -4.6654  0.9101
 6259SOL     OW30235   2.985   1.207   3.668  0.2200  0.0610  0.9502
 6259SOL    HW130236   2.956   1.177   3.583  0.2077 -0.8173  1.2683
 6259SOL    HW230237   2.940   1.141   3.720  0.9564 -0.9355  0.3172
 6260SOL     OW30238   2.224   0.862   9.008  0.8920 -0.0926  0.1184
 6260SOL    HW130239   2.252   0.797   8.944 -0.4461  1.0510 -1.6266
 6260SOL    HW230240   2.288   0.847   9.078  1.7093 -0.9360 -0.8227
 6261SOL     OW30241   2.153   0.557   2.881 -0.3514 -0.5985 -0.1523
 6261SOL    HW130242   2.189   0.518   2.961 -0.5187 -0.6435 -0.0991
 6261SOL    HW230243   2.064   0.583   2.904 -0.5642 -0.7934 -0.7577
 6262SOL     OW30244   0.059   1.969   1.577  0.0131  0.1397  0.3495
 6262SOL    HW130245   0.027   2.031   1.511 -1.1704  0.0477  0.8256
 6262SOL    HW230246   4.709   1.907   1.587 -1.0667  1.2265 -0.7708
 6263SOL     OW30247   4.046   0.589  11.206  0.4076 -0.4160  0.4976
 6263SOL    HW130248   3.979   0.525  11.228 -0.5108  0.6998  0.9401
 6263SOL    HW230249   4.017   0.626  11.123  0.3753  1.0436  1.1532
 6264SOL     OW30250   2.861   1.466   3.094 -1.1181 -0.9499 -0.4372
 6264SOL    HW130251   2.811   1.387   3.073 -0.2832 -1.4690 -0.4884
 6264SOL    HW230252   2.925   1.479   3.024 -1.0028 -0.5365 -0.2579
 6265SOL     OW30253   3.963   2.834  11.612  0.4819 -0.3870  0.0674
 6265SOL    HW130254   4.018   2.904  11.646  0.6443 -0.2755 -0.4291
 6265SOL    HW230255   3.921   2.882  11.542 -1.1041 -0.7024  0.8062
 6266SOL     OW30256   0.257   2.127   2.022 -0.1791  0.0387 -0.5607
 6266SOL    HW130257   0.329   2.067   2.044 -1.6305 -1.6124 -0.3199
 6266SOL    HW230258   0.212   2.080   1.952  1.3700 -2.4094  0.0968
 6267SOL     OW30259   2.364   1.195   8.562  0.5017 -0.1792 -0.4530
 6267SOL    HW130260   2.290   1.144   8.531  0.5198  0.2499 -1.1934
 6267SOL    HW230261   2.332   1.217   8.650  0.3672 -0.6169 -0.3928
 6268SOL     OW30262   0.842   4.722  10.052 -0.2188  0.5136 -0.2541
 6268SOL    HW130263   0.917   0.058  10.053  0.6794 -0.5537 -2.5893
 6268SOL    HW230264   0.861   4.670   9.974  0.8404  1.5503 -0.6806
 6269SOL     OW30265   0.836   1.245   7.915 -0.5012 -0.2788  0.5728
 6269SOL    HW130266   0.865   1.208   7.998 -0.6624 -0.0345  0.7423
 6269SOL    HW230267   0.743   1.248   7.940 -0.5267 -1.1327  0.5679
 6270SOL     OW30268   0.326   0.311   7.354  0.1852 -0.0275  0.0371
 6270SOL    HW130269   0.329   0.359   7.437  3.4554 -0.3317  0.0884
 6270SOL    HW230270   0.412   0.338   7.324  0.5899 -2.3866 -0.9069
 6271SOL     OW30271   3.770   1.960   2.557 -0.1647  0.0845 -0.5911
 6271SOL    HW130272   3.679   1.989   2.564 -0.0697  0.6695 -1.8349
 6271SOL    HW230273   3.814   2.034   2.599  0.9556 -0.8533 -0.1124
 6272SOL     OW30274   4.666   3.257   2.915 -0.1525 -0.0754  0.0581
 6272SOL    HW130275   4.696   3.265   3.005  1.4733  1.7088 -0.6454
 6272SOL    HW230276   4.590   3.315   2.912 -0.5188 -0.5603 -0.0216
 6273SOL     OW30277   4.418   0.131   7.413 -0.8847  0.5651  0.7625
 6273SOL    HW130278   4.376   0.171   7.489 -1.5865  0.9061  0.1907
 6273SOL    HW230279   4.368   0.050   7.401  1.7205 -1.0108  0.3833
 6274SOL     OW30280   3.615   0.453  12.227 -0.0772 -0.1750 -0.1955
 6274SOL    HW130281   3.641   0.533  12.182 -0.2460 -0.1668 -0.2784
 6274SOL    HW230282   3.530   0.487  12.256  0.2589  0.5858 -0.1107
 6275SOL     OW30283   3.730   4.689   3.961  0.3979 -0.4024 -0.0650
 6275SOL    HW130284   3.648   4.675   3.914  1.8756 -2.7326 -1.9509
 6275SOL    HW230285   3.701   4.714   4.049  0.0671 -1.4483  0.1230
 6276SOL     OW30286   0.866   3.643  14.903  0.3495  0.0107 -0.2307
 6276SOL    HW130287   0.890   3.669  14.992 -0.0150 -0.1484 -0.0854
 6276SOL    HW230288   0.803   3.573  14.919  1.1877 -0.6045  0.4048
 6277SOL     OW30289   1.083   1.999   5.387  0.3051 -0.0160 -0.0669
 6277SOL    HW130290   0.991   1.978   5.371 -0.3941  1.4728  1.9108
 6277SOL    HW230291   1.133   1.933   5.340  1.5337  2.2135 -1.9102
 6278SOL     OW30292   0.097   0.343   8.684 -0.5440 -0.3461 -0.5040
 6278SOL    HW130293   0.182   0.387   8.682  0.8864 -3.1733 -2.8167
 6278SOL    HW230294   0.096   0.306   8.596  0.3836  0.6282 -0.9174
 6279SOL     OW30295   2.990   3.728   4.917 -0.2916 -0.3029  0.4998
 6279SOL    HW130296   2.912   3.693   4.960 -1.8693  0.6434 -1.6413
 6279SOL    HW230297   2.959   3.742   4.828 -0.5954  0.3241  0.7014
 6280SOL     OW30298   3.524   1.253   4.985 -0.0090 -0.6928 -0.0394
 6280SOL    HW130299   3.575   1.200   5.047  0.0382  1.3371  1.6426
 6280SOL    HW230300   3.589   1.320   4.967  1.4853 -2.7838 -2.3568
 6281SOL     OW30301   2.897   2.610  10.629  0.3655 -0.0895 -0.6067
 6281SOL    HW130302   2.977   2.625  10.679 -0.1383 -1.4646  0.6056
 6281SOL    HW230303   2.916   2.649  10.543 -0.6495  0.6550 -0.4975
 6282SOL     OW30304   0.735   1.905  12.930 -0.0687  0.4576  0.1923
 6282SOL    HW130305   0.655   1.928  12.977  0.9470  0.8369  1.7588
 6282SOL    HW230306   0.738   1.971  12.861  1.4973  0.9276  0.6942
 6283SOL     OW30307   1.025   0.441   0.129  0.6319  0.5664 -0.0649
 6283SOL    HW130308   0.984   0.519   0.167  1.1213  1.1752 -0.7812
 6283SOL    HW230309   0.963   0.372   0.152  2.1468 -1.4287 -2.0074
 6284SOL     OW30310   0.330   0.227   7.759  0.2441 -0.2064 -0.2734
 6284SOL    HW130311   0.248   0.268   7.787 -0.0822 -0.3259 -1.0438
 6284SOL    HW230312   0.307   0.157   7.698 -1.2755 -0.8846  1.0887
 6285SOL     OW30313   1.515   0.530   7.422  0.0755 -0.0200  0.2639
 6285SOL    HW130314   1.487   0.621   7.425 -0.1610 -0.1006  0.4644
 6285SOL    HW230315   1.601   0.533   7.380 -0.2277  1.2009 -0.2773
 6286SOL     OW30316   0.567   3.607   3.200  0.4684  0.1391  0.0317
 6286SOL    HW130317   0.575   3.514   3.182  3.5852 -0.1000  2.6624
 6286SOL    HW230318   0.472   3.619   3.193  0.4098 -0.5917 -0.4181
 6287SOL     OW30319   0.518   4.581   0.746 -0.4776  0.0645  0.0314
 6287SOL    HW130320   0.483   4.670   0.749 -0.8361 -0.0881  0.3419
 6287SOL    HW230321   0.600   4.592   0.794 -0.2824  1.7827 -0.6943
 6288SOL     OW30322   2.128   1.730  11.434  0.5490  0.2040  0.3590
 6288SOL    HW130323   2.064   1.800  11.450  0.4692 -0.2166  1.9577
 6288SOL    HW230324   2.189   1.752  11.505  0.1139  1.0712  0.4636
 6289SOL     OW30325   4.523   4.492   8.121  0.0654  0.1603  0.4272
 6289SOL    HW130326   4.460   4.421   8.115 -0.9662  0.9995  1.2382
 6289SOL    HW230327   4.565   4.480   8.036 -0.1641 -0.8552  0.4581
 6290SOL     OW30328   0.960   4.084   3.903 -0.0344  0.2612 -0.0814
 6290SOL    HW130329   1.007   4.013   3.859 -2.9360 -1.1739 -0.8875
 6290SOL    HW230330   1.022   4.156   3.896 -0.1932  0.3565 -0.4756
 6291SOL     OW30331   4.062   1.559   7.361 -0.4381  0.2856  0.7069
 6291SOL    HW130332   4.022   1.530   7.442  1.8413 -1.7935  1.0822
 6291SOL    HW230333   4.068   1.654   7.376  3.3615  0.3670 -1.2126
 6292SOL     OW30334   0.321   4.713   7.366  0.2907  0.2464  0.2689
 6292SOL    HW130335   0.411   4.717   7.333 -0.5011  1.0913 -1.8006
 6292SOL    HW230336   0.287   4.638   7.317 -0.9055 -0.7162  2.5637
 6293SOL     OW30337   1.896   4.141   8.665 -0.0054  0.6942  0.6057
 6293SOL    HW130338   1.983   4.153   8.703  0.4798 -3.7137  0.8448
 6293SOL    HW230339   1.848   4.129   8.746  0.2748  1.6429  0.9143
 6294SOL     OW30340   1.603   3.878   0.663 -0.4648 -0.2998  0.6378
 6294SOL    HW130341   1.570   3.792   0.688  1.3144 -1.5294 -1.2657
 6294SOL    HW230342   1.523   3.922   0.632 -0.5108 -0.3176  0.7339
 6295SOL     OW30343   3.407   4.327   5.967  0.3098 -0.4348 -0.0517
 6295SOL    HW130344   3.502   4.323   5.972  0.4540  1.9875 -0.6522
 6295SOL    HW230345   3.403   4.407   5.914 -2.2899 -1.8190 -1.9675
 6296SOL     OW30346   0.306   0.413  13.103  0.6226 -0.1267  0.2932
 6296SOL    HW130347   0.263   0.339  13.060  1.9480 -0.1824 -0.9148
 6296SOL    HW230348   0.392   0.373  13.111  1.5743  1.9411  0.3295
 6297SOL     OW30349   1.086   3.390   0.934 -0.0192  0.1094 -0.4476
 6297SOL    HW130350   1.025   3.433   0.874 -0.2050  0.0553 -0.2946
 6297SOL    HW230351   1.126   3.318   0.885  0.7000 -0.5709  1.1533
 6298SOL     OW30352   3.578   0.696   2.954  0.1407 -0.2473 -0.3498
 6298SOL    HW130353   3.494   0.651   2.959  0.0224 -0.1135 -1.0888
 6298SOL    HW230354   3.610   0.680   3.043  1.2902  1.2378 -0.4967
 6299SOL     OW30355   1.368   0.400   2.947 -0.0679 -0.0851  0.4987
 6299SOL    HW130356   1.325   0.474   2.905  2.2098  1.2886  0.5793
 6299SOL    HW230357   1.407   0.350   2.875  2.9269  1.1822  1.2272
 6300SOL     OW30358   2.022   3.861  14.572 -0.7682  0.9684 -0.1195
 6300SOL    HW130359   2.021   3.844  14.478  0.3502 -0.3725  0.1097
 6300SOL    HW230360   2.099   3.918  14.578 -0.5759  0.6861  0.1175
 6301SOL     OW30361   1.924   2.940  17.440 -0.2133  0.3727 -0.9405
 6301SOL    HW130362   1.983   2.901  17.375 -0.7355 -1.1499 -0.5166
 6301SOL    HW230363   1.977   2.926  17.519 -0.4204 -0.4095 -0.9431
 6302SOL     OW30364   3.113   3.021  17.541 -0.7212 -0.0708 -0.1222
 6302SOL    HW130365   3.167   2.950  17.508 -1.7860 -0.7306 -0.4254
 6302SOL    HW230366   3.050   2.971  17.592  2.1658 -0.8329  2.7068
 6303SOL     OW30367   3.061   1.904   5.426  0.4276 -0.1191 -0.0732
 6303SOL    HW130368   3.005   1.837   5.389  2.2332 -1.0763 -1.0486
 6303SOL    HW230369   3.086   1.955   5.349  0.7771 -0.8018 -0.4133
 6304SOL     OW30370   2.726   3.212  12.389  0.2850 -0.5707 -0.1867
 6304SOL    HW130371   2.807   3.190  12.343 -0.2274 -1.5973 -0.5908
 6304SOL    HW230372   2.664   3.200  12.317 -0.2290  0.0090  0.1591
 6305SOL     OW30373   2.643   0.999   9.107  0.2072  0.2439 -0.5388
 6305SOL    HW130374   2.583   0.988   9.182  2.1937 -1.4052  0.7866
 6305SOL    HW230375   2.676   1.088   9.121 -1.0014  0.0274  3.7213
 6306SOL     OW30376   3.859   0.048  10.340  0.0634 -0.2084 -0.0969
 6306SOL    HW130377   3.833   4.684  10.371 -2.1435  0.3886 -0.2824
 6306SOL    HW230378   3.860   0.090  10.425  2.0010 -1.2218  0.3974
 6307SOL     OW30379   4.722   1.372   1.465 -0.9218  0.2307 -0.1052
 6307SOL    HW130380   0.019   1.353   1.373  2.1081 -1.6533  0.9783
 6307SOL    HW230381   0.042   1.455   1.486  0.8879 -1.5135  2.9881
 6308SOL     OW30382   0.370   3.750   2.701 -0.3447  0.3500 -0.6567
 6308SOL    HW130383   0.379   3.844   2.687 -1.8544  0.3162 -1.8824
 6308SOL    HW230384   0.278   3.740   2.723 -0.6924  0.0888 -2.2215
 6309SOL     OW30385   1.927   4.493   1.014 -0.0335 -0.5031 -0.0402
 6309SOL    HW130386   2.022   4.482   1.020  0.1294  0.2291 -1.1803
 6309SOL    HW230387   1.890   4.408   0.991  0.7728 -1.6926  3.0667
 6310SOL     OW30388   4.001   1.299   5.315 -0.3998 -0.1151 -0.1738
 6310SOL    HW130389   4.094   1.307   5.294  0.0843 -0.0178  1.9800
 6310SOL    HW230390   4.010   1.335   5.404  0.3916 -0.3837 -0.1423
 6311SOL     OW30391   4.410   3.300   5.753 -0.5736  0.4031 -0.0358
 6311SOL    HW130392   4.354   3.334   5.824  0.2647  0.2627  0.6944
 6311SOL    HW230393   4.350   3.273   5.684  0.7502  1.4277 -1.5944
 6312SOL     OW30394   0.629   2.249   3.022  0.0527  0.0463  0.0481
 6312SOL    HW130395   0.586   2.315   3.075  0.4959 -2.2639  3.2689
 6312SOL    HW230396   0.575   2.244   2.943  2.2651 -0.9326 -1.4070
 6313SOL     OW30397   2.354   0.723  11.556 -0.5076 -0.1886 -0.0353
 6313SOL    HW130398   2.360   0.814  11.584 -1.6500  0.2956 -1.3937
 6313SOL    HW230399   2.427   0.688  11.607 -0.5813 -0.0698  0.1536
 6314SOL     OW30400   4.164   4.101  10.038  0.3983 -0.3782 -0.5231
 6314SOL    HW130401   4.227   4.030  10.051  1.1685  0.5699  0.9686
 6314SOL    HW230402   4.134   4.091   9.948 -2.5581 -2.7167  0.7232
 6315SOL     OW30403   3.388   3.195   4.696  0.5182  0.6471  0.3988
 6315SOL    HW130404   3.387   3.276   4.748  2.3862  1.2877 -0.5446
 6315SOL    HW230405   3.475   3.169   4.727  0.7829  0.0826 -0.8327
 6316SOL     OW30406   3.605   4.174   7.853 -0.1858  0.4802  0.0629
 6316SOL    HW130407   3.541   4.176   7.782  1.9777 -0.3606 -1.9233
 6316SOL    HW230408   3.561   4.226   7.920  0.6589 -1.1089  1.8613
 6317SOL     OW30409   4.267   1.062   5.965  0.4478 -0.9551  0.0803
 6317SOL    HW130410   4.239   1.130   6.026 -0.2249 -1.0444 -0.1272
 6317SOL    HW230411   4.230   1.092   5.881  1.3891  1.4796  0.5223
 6318SOL     OW30412   2.736   0.037   0.738  0.2025  0.4853 -0.3236
 6318SOL    HW130413   2.807   0.099   0.755  1.0194 -0.0745 -1.6806
 6318SOL    HW230414   2.770   4.722   0.657 -0.6925  0.7440 -0.8151
 6319SOL     OW30415   3.069   0.408   4.482  0.2541  0.0257 -0.1519
 6319SOL    HW130416   3.127   0.484   4.477  0.7555 -0.4239 -1.4008
 6319SOL    HW230417   3.110   0.360   4.554 -1.4483  0.1022  0.8575
 6320SOL     OW30418   0.104   2.993   6.893 -0.0900 -0.2766 -0.5036
 6320SOL    HW130419   0.053   3.052   6.838 -0.3413 -1.0421 -1.0910
 6320SOL    HW230420   0.052   2.913   6.895  0.7153 -0.7304  1.6682
 6321SOL     OW30421   0.356   1.972  15.639  0.1215 -0.3250  0.2558
 6321SOL    HW130422   0.286   2.007  15.695 -1.2961 -1.0598 -1.0672
 6321SOL    HW230423   0.306   1.919  15.578  1.1457  2.8247 -3.3162
 6322SOL     OW30424   0.716   4.208  13.683  0.2114  0.1530  0.4754
 6322SOL    HW130425   0.717   4.125  13.635  0.8893 -0.5120  1.6631
 6322SOL    HW230426   0.621   4.206  13.694  0.0857 -1.7254 -0.9519
 6323SOL     OW30427   2.973   3.987   4.660  0.4600 -0.1873  0.1559
 6323SOL    HW130428   2.956   3.902   4.619 -0.5629  0.7234 -1.3222
 6323SOL    HW230429   2.896   3.990   4.717  0.5527  0.5155  0.2454
 6324SOL     OW30430   1.556   0.821   7.481 -0.0741 -0.2529  0.0494
 6324SOL    HW130431   1.472   0.868   7.486  0.2659  0.4074 -0.5784
 6324SOL    HW230432   1.612   0.878   7.429 -0.0399  0.0818  0.4518
 6325SOL     OW30433   0.342   2.438   4.149 -0.5450  0.5898 -0.3507
 6325SOL    HW130434   0.377   2.475   4.231 -1.4209 -0.0566  0.3107
 6325SOL    HW230435   0.426   2.440   4.102  1.0421  1.8526  2.4735
 6326SOL     OW30436   0.842   1.325  15.413 -0.4759 -0.0865  0.1602
 6326SOL    HW130437   0.880   1.336  15.325  0.2851  1.3735  0.6678
 6326SOL    HW230438   0.779   1.254  15.404 -2.0084  1.2510  0.2696
 6327SOL     OW30439   1.823   4.650   1.251  0.1742 -0.1286  0.0064
 6327SOL    HW130440   1.900   4.599   1.226 -0.1072 -0.5002 -0.1046
 6327SOL    HW230441   1.758   4.635   1.182 -0.5126 -0.2560  0.6803
 6328SOL     OW30442   4.043   0.147   2.556  0.2924 -0.3377 -0.1080
 6328SOL    HW130443   4.002   0.079   2.609 -1.9934  0.7813 -0.4344
 6328SOL    HW230444   3.975   0.214   2.567 -0.7942 -1.7125  1.4973
 6329SOL     OW30445   0.791   3.920   8.557 -0.3844 -0.8012 -0.3955
 6329SOL    HW130446   0.873   3.944   8.513  0.8629 -1.5335  1.5014
 6329SOL    HW230447   0.792   3.978   8.633  2.1975  0.3998 -1.3502
 6330SOL     OW30448   3.798   0.827   8.921 -0.1214  0.3180  0.4430
 6330SOL    HW130449   3.809   0.732   8.910  3.3030  0.4404  2.8160
 6330SOL    HW230450   3.707   0.836   8.948 -0.9031 -2.3531 -1.3095
 6331SOL     OW30451   3.832   0.942  13.661 -0.5686  0.2616 -0.5092
 6331SOL    HW130452   3.876   1.026  13.649  1.3517 -0.6405  0.2960
 6331SOL    HW230453   3.845   0.891  13.581 -0.5271  0.0127 -0.3436
 6332SOL     OW30454   3.979   0.072   4.410 -0.4292 -0.3179  0.2201
 6332SOL    HW130455   3.884   0.080   4.410 -0.2542  1.7676 -1.9684
 6332SOL    HW230456   4.009   0.159   4.387 -0.8153 -0.3896 -0.5595
 6333SOL     OW30457   3.507   1.374  12.877 -0.6355  0.1435 -0.1220
 6333SOL    HW130458   3.520   1.444  12.941  0.0829 -0.2107  0.1176
 6333SOL    HW230459   3.441   1.422  12.827 -0.3773  1.2907  0.6223
 6334SOL     OW30460   0.155   2.396   4.844 -0.0473  0.0513  0.5128
 6334SOL    HW130461   0.249   2.385   4.828  0.1690 -1.8394  3.0631
 6334SOL    HW230462   0.122   2.311   4.816 -0.2495 -0.3651  2.0016
 6335SOL     OW30463   2.874   2.681   5.212  0.1541 -0.0685 -0.0013
 6335SOL    HW130464   2.959   2.645   5.237  0.5500  1.2861  0.6099
 6335SOL    HW230465   2.838   2.700   5.299 -1.0235  1.2421 -0.7652
 6336SOL     OW30466   4.473   2.633  17.351 -0.3383 -0.0235  0.1978
 6336SOL    HW130467   4.539   2.618  17.284  0.6065  2.9929  0.4603
 6336SOL    HW230468   4.474   2.728  17.343 -1.1513  0.1499  2.0717
 6337SOL     OW30469   1.803   4.657   4.145  0.3674  0.1933  0.6555
 6337SOL    HW130470   1.886   4.617   4.171  0.3937  0.3618  0.8310
 6337SOL    HW230471   1.741   4.598   4.187 -1.6801  3.0340  1.5846
 6338SOL     OW30472   1.164   1.333   2.152 -0.8151 -0.2651  0.3646
 6338SOL    HW130473   1.141   1.288   2.071  2.3067  0.4800 -0.9586
 6338SOL    HW230474   1.149   1.425   2.131  1.3830 -0.2758 -1.2502
 6339SOL     OW30475   3.858   1.025   6.592 -0.3614 -0.1279  0.2459
 6339SOL    HW130476   3.878   1.118   6.585  0.6309 -0.2352  1.8290
 6339SOL    HW230477   3.853   1.012   6.686 -2.8579  1.9961  0.4188
 6340SOL     OW30478   0.789   1.867   9.639  0.0127  0.2448 -0.2286
 6340SOL    HW130479   0.779   1.909   9.554 -3.3943  1.1732  0.6466
 6340SOL    HW230480   0.841   1.937   9.679  2.3210 -2.8822  2.2519
 6341SOL     OW30481   2.013   1.493   4.520  0.4223  0.5247  0.5437
 6341SOL    HW130482   1.948   1.542   4.571  1.4936  1.6617  0.8215
 6341SOL    HW230483   2.092   1.533   4.557  0.5716 -0.0204  0.8175
 6342SOL     OW30484   0.008   0.421  17.255 -0.3095  0.1953  0.4526
 6342SOL    HW130485   4.665   0.394  17.319  0.4544  0.4964  1.3666
 6342SOL    HW230486   4.696   0.367  17.184  0.9376  1.1052 -0.8440
 6343SOL     OW30487   0.851   3.015   3.262 -0.5637 -0.6312  0.1713
 6343SOL    HW130488   0.832   2.927   3.295  1.8300 -1.0504  0.4115
 6343SOL    HW230489   0.945   2.999   3.265 -0.6675 -1.1312  0.8967
 6344SOL     OW30490   3.837   0.373   7.488 -0.1025 -0.0559 -0.0791
 6344SOL    HW130491   3.867   0.451   7.442  1.7053 -1.2966 -0.9768
 6344SOL    HW230492   3.848   0.312   7.416  0.7278  1.9881 -1.6887
 6345SOL     OW30493   2.141   3.832  16.452 -0.0427 -0.6483 -0.1508
 6345SOL    HW130494   2.135   3.840  16.547  0.5627 -0.9639 -0.0860
 6345SOL    HW230495   2.150   3.923  16.425  0.0031 -1.7400 -3.8414
 6346SOL     OW30496   1.268   1.813   7.083  0.3483 -0.2255  0.3059
 6346SOL    HW130497   1.274   1.794   6.990 -1.7867 -0.6113  0.2391
 6346SOL    HW230498   1.329   1.886   7.090 -1.3696  1.2819 -0.2109
 6347SOL     OW30499   4.662   3.890   0.027  0.2498  0.1734 -0.6897
 6347SOL    HW130500   4.715   3.965   0.056  0.8149 -0.8432  0.8931
 6347SOL    HW230501   4.597   3.882   0.098  1.7937 -0.8894  0.6001
 6348SOL     OW30502   3.859   0.989   4.490 -0.3244  0.5251  0.0455
 6348SOL    HW130503   3.888   1.073   4.456  0.8183 -0.0195 -0.3043
 6348SOL    HW230504   3.883   0.937   4.414 -0.8712 -0.7723  0.7517
 6349SOL     OW30505   3.746   3.765   7.539 -0.2389  0.1597 -0.5507
 6349SOL    HW130506   3.717   3.748   7.449  0.8996 -0.4246 -0.8127
 6349SOL    HW230507   3.799   3.844   7.537  1.7405 -1.1636 -0.3543
 6350SOL     OW30508   0.083   4.214  13.615 -0.3338  0.5316 -0.5448
 6350SOL    HW130509   0.144   4.288  13.608  1.4116 -0.9274 -0.7809
 6350SOL    HW230510   0.142   4.147  13.650 -3.3389 -1.8998 -0.0898
 6351SOL     OW30511   3.781   3.588  17.089  0.0754 -0.4130  0.2939
 6351SOL    HW130512   3.807   3.496  17.086  1.0132 -0.0990 -0.9294
 6351SOL    HW230513   3.746   3.597  17.178  2.0447 -1.8744  1.2045
 6352SOL     OW30514   3.112   0.123   4.021  0.4027 -0.0011 -0.2517
 6352SOL    HW130515   3.086   0.141   4.111 -2.6028 -2.6123 -0.6083
 6352SOL    HW230516   3.046   0.055   4.008  0.3136  0.0769 -0.2122
 6353SOL     OW30517   0.076   0.086   3.667  0.9073 -0.0331  0.2861
 6353SOL    HW130518   0.098   0.156   3.606  1.1938  0.9115  1.4567
 6353SOL    HW230519   4.710   0.070   3.636  1.6042  0.0452 -1.7097
 6354SOL     OW30520   4.583   0.291   8.259  0.2349  0.3778  0.3358
 6354SOL    HW130521   4.577   0.203   8.221 -3.6211  0.2211  1.3004
 6354SOL    HW230522   4.644   0.340   8.205 -0.5641  0.4405 -0.5156
 6355SOL     OW30523   1.354   1.183   0.549 -0.1022 -0.0877 -0.4218
 6355SOL    HW130524   1.339   1.261   0.496  0.0526 -0.0943 -0.4762
 6355SOL    HW230525   1.361   1.119   0.478 -0.2752 -1.4066  0.7452
 6356SOL     OW30526   0.038   1.319   6.633  0.1142 -0.2382 -0.0443
 6356SOL    HW130527   0.069   1.309   6.543 -0.3138 -1.8392 -0.0185
 6356SOL    HW230528   4.672   1.350   6.622 -0.2901 -1.6974 -0.9385
 6357SOL     OW30529   0.259   0.583  16.006  0.7664  0.2430 -0.3258
 6357SOL    HW130530   0.319   0.528  15.956  1.4191 -0.8135  1.6206
 6357SOL    HW230531   0.324   0.623  16.064 -1.1481  1.1832  1.1821
 6358SOL     OW30532   4.673   0.576   8.026 -0.1441 -0.2171  0.2358
 6358SOL    HW130533   4.706   0.656   8.067  2.1217 -0.6037 -0.8485
 6358SOL    HW230534   4.590   0.574   8.073  0.4675 -0.6456  1.3076
 6359SOL     OW30535   0.412   1.308   4.430  0.1510 -0.6042  0.1054
 6359SOL    HW130536   0.381   1.372   4.365 -0.3696  0.6397  1.5826
 6359SOL    HW230537   0.372   1.338   4.512 -0.5870 -0.3085 -0.3583
 6360SOL     OW30538   1.673   4.529  14.568  0.3213 -0.0249  0.2564
 6360SOL    HW130539   1.746   4.557  14.514 -0.0326 -0.1091 -0.2652
 6360SOL    HW230540   1.627   4.474  14.504 -2.4467  1.5656  0.8760
 6361SOL     OW30541   2.894   3.349  15.907  0.4895  0.0619 -0.1636
 6361SOL    HW130542   2.827   3.403  15.948  0.6823  0.2028 -0.0346
 6361SOL    HW230543   2.964   3.365  15.970 -0.6471 -0.3322  1.2226
 6362SOL     OW30544   0.717   4.293   6.119  0.5346  0.1318 -0.3488
 6362SOL    HW130545   0.753   4.211   6.085 -0.5569  0.6958 -2.8473
 6362SOL    HW230546   0.635   4.309   6.073  0.0484  2.3127  1.3016
 6363SOL     OW30547   1.524   4.363   6.651 -0.6674 -0.3118  0.4813
 6363SOL    HW130548   1.458   4.432   6.639  0.6702  0.9293  0.1834
 6363SOL    HW230549   1.565   4.403   6.728 -0.1137 -2.1998  1.1583
 6364SOL     OW30550   1.369   1.620   9.548 -0.2495 -0.0204  0.6746
 6364SOL    HW130551   1.319   1.563   9.490  3.3891 -0.7083 -1.7998
 6364SOL    HW230552   1.387   1.703   9.504 -1.1197 -1.0091 -1.5058
 6365SOL     OW30553   1.271   3.741   2.783 -0.8693  0.8204 -0.0139
 6365SOL    HW130554   1.366   3.732   2.775 -0.7847  1.5450  0.1973
 6365SOL    HW230555   1.245   3.695   2.863 -0.5475  1.5059  0.4855
 6366SOL     OW30556   3.883   1.385  12.915 -0.0046  0.6464  0.2768
 6366SOL    HW130557   3.958   1.372  12.857 -0.2326  0.8655 -0.0619
 6366SOL    HW230558   3.926   1.442  12.979  0.0747  0.3340  0.4992
 6367SOL     OW30559   0.145   4.537   7.928 -0.3230 -0.6721 -0.4529
 6367SOL    HW130560   0.054   4.510   7.917 -0.9380  0.3588  2.1593
 6367SOL    HW230561   0.171   4.535   7.836  4.5540 -2.7649  0.9602
 6368SOL     OW30562   3.076   4.003   9.021 -0.1467  0.3372  0.1302
 6368SOL    HW130563   3.019   3.931   9.049  1.5987 -1.4294 -0.8862
 6368SOL    HW230564   3.095   3.976   8.931 -0.4686  0.0417  0.1476
 6369SOL     OW30565   3.266   4.244   7.432 -0.7174 -0.3245 -0.0187
 6369SOL    HW130566   3.214   4.324   7.430  2.0669  1.4960  0.4375
 6369SOL    HW230567   3.265   4.209   7.343 -0.6686  1.7795 -0.8343
 6370SOL     OW30568   3.294   0.604  16.538  0.3762  0.4090  0.2597
 6370SOL    HW130569   3.301   0.512  16.512  1.0393  0.4291  0.3692
 6370SOL    HW230570   3.384   0.635  16.544  0.7029 -0.2773 -1.2518
 6371SOL     OW30571   1.812   0.584   5.426 -0.0793 -0.5691 -0.3176
 6371SOL    HW130572   1.736   0.641   5.439 -0.9302 -2.3171  2.2942
 6371SOL    HW230573   1.790   0.502   5.469 -1.8423 -0.0916 -0.3195
 6372SOL     OW30574   0.601   0.023   1.779 -0.1028 -0.2030  0.2257
 6372SOL    HW130575   0.525   0.080   1.768  0.6624  1.0764  1.4586
 6372SOL    HW230576   0.638   0.055   1.862 -0.3011  0.6112  0.0074
 6373SOL     OW30577   3.329   1.049   2.547  0.7683 -0.2016  0.2888
 6373SOL    HW130578   3.404   1.106   2.530 -0.4279  1.2646 -0.0152
 6373SOL    HW230579   3.350   0.989   2.476  1.1552 -0.8011  0.9008
 6374SOL     OW30580   0.070   4.426   2.396  0.2183  0.7975  0.7157
 6374SOL    HW130581   0.002   4.383   2.447  1.4906 -1.8415  0.2144
 6374SOL    HW230582   0.084   4.355   2.333 -0.7174  0.5398  0.8007
 6375SOL     OW30583   0.645   2.726   6.391  0.3519  0.4744 -0.4064
 6375SOL    HW130584   0.604   2.812   6.395  2.1950  1.1838  3.0844
 6375SOL    HW230585   0.575   2.672   6.429  0.1353  1.0816  0.0613
 6376SOL     OW30586   3.894   1.398   5.994  0.0508 -0.0059 -0.3601
 6376SOL    HW130587   3.865   1.370   5.907 -2.8771 -0.9626  0.8965
 6376SOL    HW230588   3.981   1.361   6.006 -0.5700 -1.8328 -1.3875
 6377SOL     OW30589   2.527   2.853  15.230  0.4693  0.2802 -0.1011
 6377SOL    HW130590   2.566   2.930  15.187  1.1373  0.7589  1.3815
 6377SOL    HW230591   2.521   2.892  15.317 -1.9673  1.3360 -0.7500
 6378SOL     OW30592   1.046   1.259  16.440 -0.6065  0.3855 -0.0184
 6378SOL    HW130593   1.070   1.320  16.370 -1.6094  1.1116  0.2691
 6378SOL    HW230594   1.122   1.201  16.445 -1.4156 -0.6969 -0.4061
 6379SOL     OW30595   2.575   3.622   2.255 -0.2399 -0.2777  0.0649
 6379SOL    HW130596   2.634   3.658   2.189  1.0089 -1.3460  0.5966
 6379SOL    HW230597   2.613   3.547   2.301  0.3278  0.0652  0.1589
 6380SOL     OW30598   4.528   2.001   4.687 -0.3667 -0.1898 -0.1954
 6380SOL    HW130599   4.519   2.011   4.593 -0.1073 -1.3214 -0.3495
 6380SOL    HW230600   4.574   1.918   4.701  1.7943  1.0451 -0.0512
 6381SOL     OW30601   3.215   3.774  16.337 -0.0446  0.0320  0.1179
 6381SOL    HW130602   3.283   3.840  16.348  0.1188 -0.2771  0.9910
 6381SOL    HW230603   3.144   3.829  16.305  0.7770 -0.2629 -2.2130
 6382SOL     OW30604   3.270   1.963   4.145  0.5348 -0.5256 -0.5704
 6382SOL    HW130605   3.331   1.890   4.146  1.4675  0.2529  0.5089
 6382SOL    HW230606   3.250   1.975   4.238  2.1711  1.1932 -0.4095
 6383SOL     OW30607   0.310   4.563   7.691 -0.2030 -0.2136  0.1290
 6383SOL    HW130608   0.286   4.646   7.649  2.0673  0.4558  0.1707
 6383SOL    HW230609   0.337   4.504   7.620  1.0215  2.4907 -1.6283
 6384SOL     OW30610   2.767   3.736  12.366  0.4226  0.2184  0.1653
 6384SOL    HW130611   2.684   3.709  12.328  0.2450  0.9982 -0.0018
 6384SOL    HW230612   2.764   3.687  12.449 -0.0602 -1.8842 -1.0982
 6385SOL     OW30613   2.197   1.409   2.220  0.1833 -0.3136 -0.4477
 6385SOL    HW130614   2.104   1.431   2.210  0.2625 -0.0062 -0.5037
 6385SOL    HW230615   2.209   1.435   2.311 -0.1367  0.0414 -0.5083
 6386SOL     OW30616   0.508   3.089   9.534 -0.0752  0.3363 -0.2042
 6386SOL    HW130617   0.552   3.154   9.589  0.1913  0.2104 -0.2682
 6386SOL    HW230618   0.517   3.006   9.581 -2.1995  0.5738  0.6325
 6387SOL     OW30619   3.115   0.845   6.652  0.1501  0.3651 -0.1449
 6387SOL    HW130620   3.105   0.806   6.565 -0.5253 -2.8743  1.3904
 6387SOL    HW230621   3.027   0.882   6.661 -0.9030 -1.9694 -0.8574
 6388SOL     OW30622   0.128   1.044   9.722 -0.1748 -0.3034 -0.4388
 6388SOL    HW130623   0.043   1.086   9.715 -1.0427 -1.8179  1.1877
 6388SOL    HW230624   0.189   1.115   9.704 -1.3309  0.6371 -0.6243
 6389SOL     OW30625   3.124   1.123   2.862  0.1913 -0.5031 -0.1352
 6389SOL    HW130626   3.047   1.075   2.832 -0.1013  0.8922 -1.5505
 6389SOL    HW230627   3.198   1.062   2.854  1.4596  0.7781  1.6952
 6390SOL     OW30628   2.458   1.412   2.139  0.0593 -0.2236 -0.0947
 6390SOL    HW130629   2.490   1.427   2.228  0.8809 -0.5072 -0.3425
 6390SOL    HW230630   2.363   1.406   2.153 -0.2353 -0.3492 -2.1893
 6391SOL     OW30631   4.122   4.234  14.438  0.0788  0.2562  0.1422
 6391SOL    HW130632   4.163   4.298  14.497 -1.1245  0.1281  1.1162
 6391SOL    HW230633   4.056   4.205  14.500  1.2439 -1.1377  0.7389
 6392SOL     OW30634   4.408   0.119   4.016  0.0995  0.1051  0.0292
 6392SOL    HW130635   4.428   0.042   3.962 -2.3929  0.8051 -1.9053
 6392SOL    HW230636   4.496   0.150   4.038  1.3055 -1.3594 -2.7160
 6393SOL     OW30637   0.124   3.178  11.720  0.2459  0.2425 -0.4041
 6393SOL    HW130638   0.185   3.147  11.652  0.1608  1.3002 -0.9590
 6393SOL    HW230639   0.044   3.159  11.671  1.3809 -1.7893 -1.5147
 6394SOL     OW30640   2.820   0.540   3.277 -0.2886  0.3537 -0.6126
 6394SOL    HW130641   2.897   0.484   3.287  0.4272  1.4906  0.2838
 6394SOL    HW230642   2.841   0.617   3.330 -1.7152 -1.0237  1.9102
 6395SOL     OW30643   0.005   1.538   7.774 -0.0925 -0.3786 -0.2915
 6395SOL    HW130644   0.036   1.582   7.854  1.4523  1.0964 -1.6851
 6395SOL    HW230645   4.679   1.467   7.814 -0.6036 -0.1867 -0.5901
 6396SOL     OW30646   0.622   2.627  17.243 -0.3107 -0.8526 -0.2477
 6396SOL    HW130647   0.625   2.592  17.332 -0.4407 -0.8828 -0.2559
 6396SOL    HW230648   0.577   2.709  17.263  1.2858 -0.0898  0.2435
 6397SOL     OW30649   4.276   1.334   2.366  0.3377  0.2005  0.4954
 6397SOL    HW130650   4.200   1.305   2.317 -0.3437  2.0265  0.4837
 6397SOL    HW230651   4.353   1.302   2.319  0.7270  0.4458  0.9607
 6398SOL     OW30652   2.275   1.773   2.340 -0.2294 -0.4194 -0.0405
 6398SOL    HW130653   2.201   1.834   2.342 -0.4070 -0.5742 -1.9350
 6398SOL    HW230654   2.278   1.755   2.434  2.1133  1.7230  0.3205
 6399SOL     OW30655   3.974   3.424   0.459  0.8453  0.2519 -1.0115
 6399SOL    HW130656   3.997   3.498   0.515  0.8193 -0.6333  0.1591
 6399SOL    HW230657   4.059   3.382   0.467  0.3438 -0.4069  0.9388
 6400SOL     OW30658   1.917   0.070   6.296  0.1960  0.0454 -0.5002
 6400SOL    HW130659   1.937   0.134   6.364 -0.3345 -0.6960  0.3431
 6400SOL    HW230660   1.965   4.714   6.320 -0.9861 -0.9256 -1.3384
 6401SOL     OW30661   4.214   1.703   6.394  0.4325  0.5428 -0.2874
 6401SOL    HW130662   4.255   1.630   6.349  0.9684  1.9495 -2.0425
 6401SOL    HW230663   4.271   1.709   6.471 -0.7951 -1.5214  0.7982
 6402SOL     OW30664   2.346   1.282   2.834 -0.2612 -0.1293  0.1456
 6402SOL    HW130665   2.436   1.267   2.804 -0.3458 -1.5758  0.6327
 6402SOL    HW230666   2.312   1.202   2.794  1.8525 -1.9260  1.9365
 6403SOL     OW30667   1.643   4.169   3.087  0.1302 -0.6586 -0.2929
 6403SOL    HW130668   1.597   4.129   3.013 -0.3944  0.3693 -0.5112
 6403SOL    HW230669   1.729   4.128   3.080 -0.0020 -0.8378 -0.8554
 6404SOL     OW30670   2.480   4.556   0.340 -0.2829 -0.5789 -0.2818
 6404SOL    HW130671   2.571   4.575   0.359 -0.0238 -0.6112 -1.5078
 6404SOL    HW230672   2.443   4.643   0.328 -0.5084 -0.6364  0.0022
 6405SOL     OW30673   2.467   0.085   6.558  0.0633 -0.0781 -0.5144
 6405SOL    HW130674   2.508   0.171   6.567  0.9176 -0.3988 -1.3965
 6405SOL    HW230675   2.399   0.108   6.494 -0.4743 -0.5356 -0.1150
 6406SOL     OW30676   3.743   0.192   2.614  0.1679 -0.0950  0.2197
 6406SOL    HW130677   3.685   0.263   2.587 -3.1730 -2.4664  1.1415
 6406SOL    HW230678   3.687   0.141   2.673 -0.0324  0.1417  0.2347
 6407SOL     OW30679   2.755   3.437  12.147 -0.3685  0.0312 -0.0583
 6407SOL    HW130680   2.845   3.436  12.180 -0.2674  0.2805 -0.3327
 6407SOL    HW230681   2.762   3.527  12.117 -3.0569  1.0432  2.3474
 6408SOL     OW30682   3.296   2.587   1.450 -0.6886 -0.0416 -0.2332
 6408SOL    HW130683   3.359   2.657   1.465 -1.6363  0.4179  1.5444
 6408SOL    HW230684   3.218   2.640   1.437  0.5174  2.0811  1.2552
 6409SOL     OW30685   0.144   3.326   6.091  0.0913  0.4404  0.4477
 6409SOL    HW130686   0.122   3.234   6.077  0.2374  0.3431  0.8597
 6409SOL    HW230687   0.114   3.365   6.008  3.0729 -0.0560 -0.8397
 6410SOL     OW30688   1.180   2.543  11.329  0.2258 -0.6527 -0.0147
 6410SOL    HW130689   1.127   2.622  11.341 -0.7421 -1.1821 -0.7543
 6410SOL    HW230690   1.149   2.488  11.400  1.0251  0.2672  1.0386
 6411SOL     OW30691   3.388   3.290  11.702  0.1384  0.2284  0.7735
 6411SOL    HW130692   3.451   3.240  11.753  0.6953 -0.8814 -1.0114
 6411SOL    HW230693   3.304   3.281  11.747  0.7532 -0.1789  1.8469
 6412SOL     OW30694   2.751   4.630   7.544  0.2694  0.4523 -0.0980
 6412SOL    HW130695   2.844   4.608   7.546  0.5963  1.7524 -1.7163
 6412SOL    HW230696   2.762   4.721   7.573  2.6862  0.2940 -0.4772
 6413SOL     OW30697   1.351   1.561   8.871  0.1391  0.5829  0.5191
 6413SOL    HW130698   1.364   1.476   8.829 -0.5897  0.4802  0.4940
 6413SOL    HW230699   1.430   1.559   8.924 -0.2620  1.4697  1.1450
 6414SOL     OW30700   2.469   3.925   2.951 -0.2196 -0.2468 -1.0964
 6414SOL    HW130701   2.508   3.838   2.935  1.8178  0.5954 -0.7608
 6414SOL    HW230702   2.488   3.926   3.045 -0.7913 -0.5374 -0.9808
 6415SOL     OW30703   2.253   4.548  10.482  0.0397 -0.2969 -0.3603
 6415SOL    HW130704   2.313   4.620  10.464 -0.0384 -0.1037  0.1578
 6415SOL    HW230705   2.172   4.597  10.467 -0.5421 -0.7759  1.2603
 6416SOL     OW30706   3.065   2.961   8.920 -0.0198  0.3430  0.0053
 6416SOL    HW130707   3.002   2.899   8.882  1.0812 -1.3457  0.9149
 6416SOL    HW230708   3.015   2.995   8.994 -1.7792 -1.5920 -0.2778
 6417SOL     OW30709   2.028   0.332   3.513 -0.4677  0.2548 -0.9408
 6417SOL    HW130710   2.026   0.320   3.418  2.9198 -0.0619 -0.9733
 6417SOL    HW230711   2.026   0.244   3.551  1.3105  0.9227  0.6655
 6418SOL     OW30712   1.841   3.641   1.646 -0.3423 -0.3625  0.1019
 6418SOL    HW130713   1.794   3.703   1.591  0.6953 -0.3423 -0.7538
 6418SOL    HW230714   1.859   3.573   1.581  1.5159 -2.5552  2.8914
 6419SOL     OW30715   1.180   3.745   6.416  0.2750  0.2355 -0.7747
 6419SOL    HW130716   1.269   3.731   6.383 -0.1373 -0.4621 -1.5764
 6419SOL    HW230717   1.173   3.710   6.505  0.8231 -0.9183 -1.1705
 6420SOL     OW30718   1.339   1.422  11.275 -0.1622 -0.0191  0.0235
 6420SOL    HW130719   1.370   1.504  11.236 -2.5416  0.4839 -0.8103
 6420SOL    HW230720   1.257   1.421  11.226 -0.7887  0.4863  1.0483
 6421SOL     OW30721   4.073   0.339  16.302  0.3015  0.3679  0.5769
 6421SOL    HW130722   4.154   0.300  16.335  1.0516 -1.6185 -3.5557
 6421SOL    HW230723   4.095   0.432  16.292  1.5845  0.1368  1.2381
 6422SOL     OW30724   1.429   2.017   7.133 -0.0826  0.2994 -0.0398
 6422SOL    HW130725   1.506   2.030   7.188 -0.7373  2.0741  0.4884
 6422SOL    HW230726   1.383   2.098   7.158  2.0277  1.8737 -1.2930
 6423SOL     OW30727   3.269   2.588   4.987 -0.6150 -0.2196  0.0895
 6423SOL    HW130728   3.306   2.585   4.898 -0.4146  0.3167  0.1545
 6423SOL    HW230729   3.175   2.598   4.972 -0.3450  3.2060  0.6056
 6424SOL     OW30730   0.818   3.450   7.054  0.0171 -0.0234  0.2984
 6424SOL    HW130731   0.774   3.378   7.009 -0.1807  0.2678  0.0211
 6424SOL    HW230732   0.793   3.431   7.144  2.1056 -1.9551  0.4606
 6425SOL     OW30733   0.989   3.475   5.064  0.0593 -0.0645  0.1387
 6425SOL    HW130734   1.023   3.500   5.150  1.4249  0.0109 -0.4139
 6425SOL    HW230735   1.044   3.538   5.018  3.3902 -3.1129 -0.0846
 6426SOL     OW30736   3.236   4.172   7.173 -0.4347 -0.0735 -0.2885
 6426SOL    HW130737   3.142   4.152   7.175 -0.3500 -0.2393  2.0623
 6426SOL    HW230738   3.258   4.120   7.095 -1.1031 -0.3960 -0.2656
 6427SOL     OW30739   2.941   3.451   1.195 -0.5219 -0.5783  0.6091
 6427SOL    HW130740   2.882   3.380   1.219  0.1856 -0.8890  1.4054
 6427SOL    HW230741   2.918   3.523   1.253  1.4940  1.3725 -1.0012
 6428SOL     OW30742   2.380   0.211   2.919 -0.1159 -0.4387 -0.0101
 6428SOL    HW130743   2.422   0.149   2.860 -1.9373  1.1983 -3.0478
 6428SOL    HW230744   2.358   0.154   2.992 -3.1644 -0.9953 -1.3552
 6429SOL     OW30745   3.514   0.180   7.806 -0.4493  0.0993  0.4081
 6429SOL    HW130746   3.564   0.222   7.876 -2.5805 -1.4561  2.8352
 6429SOL    HW230747   3.431   0.174   7.854 -0.4046 -1.2019  0.3020
 6430SOL     OW30748   2.501   1.654   2.574 -0.1924  0.3875 -0.0407
 6430SOL    HW130749   2.503   1.670   2.480  1.9161  0.8366  0.0953
 6430SOL    HW230750   2.497   1.745   2.603  1.0732  0.5488 -0.3996
 6431SOL     OW30751   0.370   1.919  10.425  0.4712  0.0035  0.5596
 6431SOL    HW130752   0.319   1.943  10.348 -0.2953 -0.0450  1.0577
 6431SOL    HW230753   0.343   1.987  10.486  0.2039 -0.1184  0.5753
 6432SOL     OW30754   4.106   2.284  13.166 -0.3403 -0.6094 -0.2838
 6432SOL    HW130755   4.117   2.309  13.074 -1.0586  2.7869  0.5649
 6432SOL    HW230756   4.061   2.200  13.156 -0.7471 -0.5473  1.1070
 6433SOL     OW30757   1.379   0.167   4.628  0.3515  0.2166  0.0869
 6433SOL    HW130758   1.319   0.096   4.609  0.3999 -0.3714  2.0928
 6433SOL    HW230759   1.394   0.208   4.543  0.1250  1.6349  0.7288
 6434SOL     OW30760   3.384   2.278   6.611 -0.2332  0.0541  0.2869
 6434SOL    HW130761   3.307   2.322   6.574  0.4256  1.8716  1.1218
 6434SOL    HW230762   3.416   2.355   6.658  1.1912 -0.4349  0.1244
 6435SOL     OW30763   1.863   2.923   3.905  1.0885  0.0018 -0.5216
 6435SOL    HW130764   1.837   2.931   3.997  0.7892  1.0753 -0.6966
 6435SOL    HW230765   1.927   2.853   3.912 -1.5870 -2.6008 -1.9644
 6436SOL     OW30766   3.907   0.497   8.642 -0.0843 -0.0274 -0.0384
 6436SOL    HW130767   3.960   0.475   8.565  1.6332 -0.5955  1.3129
 6436SOL    HW230768   3.858   0.572   8.609 -1.1740 -1.4516 -1.6728
 6437SOL     OW30769   1.210   2.230   2.629  0.1442  0.0037  0.6590
 6437SOL    HW130770   1.121   2.203   2.649  0.0818 -0.4009 -0.1844
 6437SOL    HW230771   1.200   2.325   2.620  0.6940 -0.1372 -1.3578
 6438SOL     OW30772   3.286   4.359   3.575  0.1721 -0.0776  0.3882
 6438SOL    HW130773   3.218   4.347   3.641  0.8523 -0.5875  0.9898
 6438SOL    HW230774   3.365   4.350   3.628  0.3550 -1.6164 -0.1505
 6439SOL     OW30775   0.982   3.715  13.340  0.0497  0.0237 -0.3598
 6439SOL    HW130776   0.990   3.750  13.429  0.4747 -1.7485  0.2977
 6439SOL    HW230777   1.063   3.664  13.343 -0.6597 -1.0442  0.7632
 6440SOL     OW30778   0.225   0.996   5.139 -0.7897 -0.4870  0.2717
 6440SOL    HW130779   0.190   1.068   5.087 -0.0649 -1.0356 -0.9689
 6440SOL    HW230780   0.273   1.037   5.211 -0.5645  1.4928 -1.0050
 6441SOL     OW30781   1.014   2.030   3.272 -0.1673 -0.1017 -0.2389
 6441SOL    HW130782   0.924   2.059   3.260  0.1083  0.9818  0.3456
 6441SOL    HW230783   1.033   2.061   3.361 -0.2444  1.2924 -0.7076
 6442SOL     OW30784   2.633   4.209   5.632  0.0802  0.8130 -0.4626
 6442SOL    HW130785   2.633   4.159   5.714  0.3423  0.8451 -0.4451
 6442SOL    HW230786   2.549   4.189   5.590 -0.7106 -2.2448  2.5459
 6443SOL     OW30787   2.264   0.438   3.149  0.7917  0.1752  0.2842
 6443SOL    HW130788   2.189   0.470   3.199 -0.6310  0.6219 -2.1321
 6443SOL    HW230789   2.291   0.362   3.200  0.7385  0.7887  1.2379
 6444SOL     OW30790   0.358   1.868   6.686  0.2063  0.2791  0.0994
 6444SOL    HW130791   0.306   1.912   6.754  0.7521  1.8808 -0.5347
 6444SOL    HW230792   0.413   1.942   6.663 -1.0767  0.8490 -1.1349
 6445SOL     OW30793   0.932   3.685   2.814 -0.7385 -0.2155 -0.2600
 6445SOL    HW130794   0.837   3.671   2.811 -0.5460 -1.2518 -1.7732
 6445SOL    HW230795   0.931   3.776   2.844  0.1125  0.2377 -1.5856
 6446SOL     OW30796   2.729   1.805   7.662 -0.4416 -0.4574  0.1012
 6446SOL    HW130797   2.778   1.726   7.643  0.0089  0.2504 -1.6557
 6446SOL    HW230798   2.659   1.819   7.598  1.2754 -2.3938 -2.1679
 6447SOL     OW30799   1.527   2.926  16.580  0.0821 -0.3050 -0.3149
 6447SOL    HW130800   1.503   2.953  16.669  0.0802 -0.3830 -0.2918
 6447SOL    HW230801   1.460   2.858  16.571  0.3377 -1.0344  3.4101
 6448SOL     OW30802   1.234   1.123   5.244 -0.1306 -0.0373 -0.2184
 6448SOL    HW130803   1.232   1.028   5.253  0.6471  0.0214  0.5964
 6448SOL    HW230804   1.231   1.143   5.338 -0.9141  0.9469 -0.4549
 6449SOL     OW30805   0.515   1.340  16.265  0.1948 -0.0442  0.1261
 6449SOL    HW130806   0.603   1.321  16.233  0.7471  0.7199  1.2043
 6449SOL    HW230807   0.459   1.316  16.191 -0.2573 -0.5869  0.6490
 6450SOL     OW30808   4.650   2.590  11.799  0.2064 -0.1121  0.0141
 6450SOL    HW130809   4.633   2.558  11.888 -0.7523  0.8043  0.1628
 6450SOL    HW230810   4.708   2.518  11.775 -1.5788 -1.3677 -0.5116
 6451SOL     OW30811   4.147   3.380   0.844  0.0593 -0.0284 -0.0751
 6451SOL    HW130812   4.051   3.383   0.847  0.0383  0.1416 -0.8008
 6451SOL    HW230813   4.163   3.470   0.815  1.5858 -0.3692 -0.2451
 6452SOL     OW30814   1.717   4.524   1.914  0.1066  0.0780 -0.7610
 6452SOL    HW130815   1.681   4.573   1.840  0.2153  1.7756  0.3085
 6452SOL    HW230816   1.807   4.533   1.883  0.3524 -0.0660 -0.0896
 6453SOL     OW30817   4.356   4.115   4.342  0.1128 -0.7007 -0.7657
 6453SOL    HW130818   4.321   4.204   4.341  0.5452 -0.5217  0.0157
 6453SOL    HW230819   4.273   4.072   4.361 -0.4946  0.4473 -0.8262
 6454SOL     OW30820   2.180   1.207   3.093  0.2906  0.1907 -0.1200
 6454SOL    HW130821   2.168   1.133   3.034  1.7235 -0.1993  0.0696
 6454SOL    HW230822   2.162   1.161   3.175 -2.1262  0.0798 -0.7220
 6455SOL     OW30823   1.475   1.434   5.412  0.3970  0.1851 -0.4992
 6455SOL    HW130824   1.478   1.364   5.477  3.2873 -0.7819 -1.6792
 6455SOL    HW230825   1.506   1.513   5.456 -1.1714  1.6552 -2.0221
 6456SOL     OW30826   0.873   1.921  16.859 -0.2875 -0.4083 -0.0039
 6456SOL    HW130827   0.817   1.887  16.928 -0.9451  2.5854  0.9531
 6456SOL    HW230828   0.870   2.014  16.884 -0.6298 -0.3899 -0.1223
 6457SOL     OW30829   1.936   4.589  11.966  0.4552 -0.6274  0.3513
 6457SOL    HW130830   1.843   4.593  11.944  0.5507  3.0002  0.5512
 6457SOL    HW230831   1.967   4.532  11.896  0.8138 -1.2568  1.0158
 6458SOL     OW30832   2.850   3.543   6.385 -0.2291 -0.1386 -0.3808
 6458SOL    HW130833   2.816   3.459   6.416 -1.6328  0.5207 -0.1268
 6458SOL    HW230834   2.781   3.604   6.410  4.0416  4.4282  0.3986
 6459SOL     OW30835   2.425   0.371   5.404  0.3286 -0.2325  0.1091
 6459SOL    HW130836   2.336   0.337   5.417  0.1157  0.6261  0.9049
 6459SOL    HW230837   2.431   0.441   5.469 -1.1362  0.6151 -0.6445
 6460SOL     OW30838   4.609   1.024  15.060  0.2264 -0.2103 -0.5130
 6460SOL    HW130839   4.570   0.958  15.003  1.3014 -1.3063  0.0224
 6460SOL    HW230840   4.642   1.083  14.992  0.7790  1.2975  1.0746
 6461SOL     OW30841   1.154   4.436  10.787 -0.2544  0.1356 -0.0702
 6461SOL    HW130842   1.249   4.450  10.792 -0.0514 -0.1680 -3.1463
 6461SOL    HW230843   1.128   4.364  10.844 -2.0311 -0.3384 -1.4866
 6462SOL     OW30844   4.224   1.544   9.600 -0.0332  0.5133 -0.1591
 6462SOL    HW130845   4.160   1.608   9.632 -2.5884 -0.6782 -2.8856
 6462SOL    HW230846   4.165   1.473   9.574 -0.3673  0.8706 -0.3840
 6463SOL     OW30847   2.048   3.916   1.130 -0.4627 -0.7021 -0.1778
 6463SOL    HW130848   1.974   3.884   1.078 -1.5100  0.3708  0.6352
 6463SOL    HW230849   1.991   3.959   1.194 -2.1466 -2.2897 -0.5838
 6464SOL     OW30850   0.479   2.861  17.318  0.0208 -0.1590 -0.0291
 6464SOL    HW130851   0.416   2.834  17.385  0.0481 -0.5297 -0.1516
 6464SOL    HW230852   0.420   2.921  17.272 -0.7098  0.3733  1.6103
 6465SOL     OW30853   4.171   4.582   7.623 -0.2256  0.1988  0.0880
 6465SOL    HW130854   4.133   4.495   7.640 -1.2818  0.2158 -2.1331
 6465SOL    HW230855   4.120   4.625   7.692 -1.0982  1.3019 -1.2387
 6466SOL     OW30856   4.467   2.540  11.186 -0.2291 -0.4143 -0.1688
 6466SOL    HW130857   4.546   2.521  11.236  1.0963 -1.8433 -2.8103
 6466SOL    HW230858   4.463   2.636  11.188  0.8081 -0.3272 -2.2113
 6467SOL     OW30859   0.476   2.248  13.740 -0.7048  0.4607 -0.0717
 6467SOL    HW130860   0.459   2.314  13.673  0.4379  3.0573  2.2094
 6467SOL    HW230861   0.391   2.207  13.724 -0.2769 -1.0054  1.3966
 6468SOL     OW30862   4.226   4.383   7.271 -0.2378 -0.3004  0.5301
 6468SOL    HW130863   4.223   4.293   7.238 -0.1347  0.4394 -1.4629
 6468SOL    HW230864   4.131   4.391   7.283 -0.3997 -4.6718  2.2036
 6469SOL     OW30865   2.914   2.673   4.420  0.3558  0.1216  0.4811
 6469SOL    HW130866   2.971   2.698   4.493  1.1834  1.7232 -0.7106
 6469SOL    HW230867   2.833   2.709   4.457  0.0786  0.2467 -0.2417
 6470SOL     OW30868   3.827   4.391   4.857  0.0291 -0.4658  0.8045
 6470SOL    HW130869   3.743   4.436   4.853  0.0450 -0.6185 -1.0347
 6470SOL    HW230870   3.802   4.302   4.880  0.8077 -0.6308  1.0188
 6471SOL     OW30871   2.463   1.321   9.337  0.1303 -0.1625 -0.1313
 6471SOL    HW130872   2.538   1.322   9.278  1.0764 -1.7766  1.0287
 6471SOL    HW230873   2.490   1.269   9.412 -2.0919  1.8566  2.0616
 6472SOL     OW30874   4.180   3.801   3.948 -0.2290 -0.4429 -0.4027
 6472SOL    HW130875   4.089   3.772   3.962  0.4385 -2.6907 -0.6642
 6472SOL    HW230876   4.177   3.866   4.018 -1.9928 -1.3684  0.3858
 6473SOL     OW30877   4.697   2.283  12.136 -0.3621 -0.1598 -0.0030
 6473SOL    HW130878   0.059   2.255  12.103 -0.1811 -1.3644  1.4681
 6473SOL    HW230879   4.681   2.351  12.071 -1.2279 -0.0475  0.3210
 6474SOL     OW30880   1.021   2.839   6.003  0.0261  0.1892 -0.0495
 6474SOL    HW130881   1.004   2.882   6.087  0.5199  0.9263 -0.3291
 6474SOL    HW230882   1.017   2.745   6.022  1.0108  0.4393  1.3937
 6475SOL     OW30883   3.424   2.389  16.155  0.0700 -0.5033 -0.1998
 6475SOL    HW130884   3.380   2.304  16.154  0.6902 -0.8222 -1.0345
 6475SOL    HW230885   3.355   2.440  16.114  0.9953  1.0887  0.2539
 6476SOL     OW30886   0.182   3.050   6.107  0.1729 -0.3817  0.0547
 6476SOL    HW130887   0.269   3.025   6.136  0.6707 -0.2117 -1.3234
 6476SOL    HW230888   0.164   3.012   6.021  0.0505 -0.0958 -0.0462
 6477SOL     OW30889   4.459   4.102   8.853  0.1634 -0.3890 -0.6316
 6477SOL    HW130890   4.429   4.171   8.794  0.1743  1.1704  1.1981
 6477SOL    HW230891   4.532   4.150   8.892  0.2987 -2.1923  1.3107
 6478SOL     OW30892   1.993   2.476   0.038  0.3917 -0.1334 -0.0152
 6478SOL    HW130893   1.938   2.398   0.042  0.3862 -0.2106 -1.6747
 6478SOL    HW230894   2.021   2.475  17.642  0.6818 -2.0518  0.0782
 6479SOL     OW30895   4.486   0.419   1.990  0.5300  0.3523 -0.8957
 6479SOL    HW130896   4.493   0.498   2.044  0.9113 -1.6331  1.9272
 6479SOL    HW230897   4.573   0.380   1.998 -0.7394 -1.7897  2.1341
 6480SOL     OW30898   0.326   3.712  14.948  0.3250 -0.5333  0.5026
 6480SOL    HW130899   0.403   3.656  14.954  0.5816 -0.0129  2.2240
 6480SOL    HW230900   0.351   3.777  14.882 -0.1641 -0.0575  0.7819
 6481SOL     OW30901   3.524   0.599  12.987  0.0092  0.0589 -0.1815
 6481SOL    HW130902   3.550   0.632  12.901  0.5728 -0.6561 -0.2876
 6481SOL    HW230903   3.490   0.510  12.976 -3.7277  1.4066  0.7136
 6482SOL     OW30904   0.270   4.417   0.349 -0.0950  0.2987  0.1406
 6482SOL    HW130905   0.284   4.510   0.369  1.3672  0.1305 -0.1318
 6482SOL    HW230906   0.185   4.414   0.305  0.2000  1.1899 -0.4890
 6483SOL     OW30907   4.080   2.307  11.089  0.2631  0.2393  0.6635
 6483SOL    HW130908   4.020   2.304  11.163 -0.0570  0.2999  0.4017
 6483SOL    HW230909   4.161   2.322  11.138  0.5153  0.6272  0.1362
 6484SOL     OW30910   2.398   3.784  13.098 -0.3381  0.2233  1.0109
 6484SOL    HW130911   2.344   3.706  13.109  4.2250 -3.5325 -2.8154
 6484SOL    HW230912   2.443   3.767  13.015  2.3859 -0.3967  2.6035
 6485SOL     OW30913   0.094   2.354   5.186  0.3318  0.0161 -0.2141
 6485SOL    HW130914   0.127   2.439   5.215 -1.2709  0.6948 -0.4319
 6485SOL    HW230915   0.178   2.311   5.169  0.6654 -0.1423  1.8261
 6486SOL     OW30916   4.051   2.636   6.037 -0.0478  0.2360  0.2999
 6486SOL    HW130917   4.030   2.593   5.954 -0.9496  0.8187  0.2293
 6486SOL    HW230918   4.112   2.703   6.006 -0.2380  0.6181  0.7534
 6487SOL     OW30919   3.455   0.860   2.398 -0.0722 -0.1293 -0.1519
 6487SOL    HW130920   3.547   0.845   2.423  0.1169 -2.2902 -2.1422
 6487SOL    HW230921   3.479   0.883   2.309  0.3766 -2.1752 -0.5737
 6488SOL     OW30922   0.986   4.116   7.403 -0.0918  0.6998 -0.0163
 6488SOL    HW130923   1.041   4.074   7.469 -1.8547 -0.6662  0.5823
 6488SOL    HW230924   0.977   4.203   7.440 -0.0511  0.8226 -0.2922
 6489SOL     OW30925   2.848   4.375  15.114  0.5635  0.4211 -0.1585
 6489SOL    HW130926   2.943   4.381  15.105  0.4059  1.6110 -0.9522
 6489SOL    HW230927   2.826   4.288  15.080 -2.7365  0.6091  1.5052
 6490SOL     OW30928   0.882   0.477   9.823 -0.0702  0.5056  0.0002
 6490SOL    HW130929   0.825   0.508   9.752 -0.3552  0.8733  0.3951
 6490SOL    HW230930   0.810   0.486   9.885  2.1034 -2.2365  2.8581
 6491SOL     OW30931   1.030   1.433   6.365  0.0743 -0.4117  0.5789
 6491SOL    HW130932   1.095   1.463   6.428  0.2174 -0.1908  0.3259
 6491SOL    HW230933   1.082   1.391   6.297 -2.0165 -1.5788 -0.3143
 6492SOL     OW30934   0.913   3.621   0.102  0.1846  0.2815  0.2117
 6492SOL    HW130935   0.974   3.579   0.042  1.2221 -0.3342  1.6989
 6492SOL    HW230936   0.861   3.550   0.141 -0.3578  0.3536 -0.3798
 6493SOL     OW30937   3.009   2.775   6.630  0.4336 -0.1172 -0.8330
 6493SOL    HW130938   3.075   2.737   6.688 -1.3698 -0.7753  0.7912
 6493SOL    HW230939   3.052   2.857   6.607  2.9739 -0.8656  1.1700
 6494SOL     OW30940   4.114   3.867   8.305 -0.5558 -0.0285  0.0256
 6494SOL    HW130941   4.040   3.842   8.360 -0.1280  0.3477  0.7623
 6494SOL    HW230942   4.185   3.816   8.343  0.0318  0.5807 -0.2681
 6495SOL     OW30943   2.033   0.276   0.440 -0.0821  0.5642 -0.7335
 6495SOL    HW130944   2.067   0.221   0.511  1.9741  0.6299 -1.6415
 6495SOL    HW230945   2.113   0.327   0.429  0.2837 -0.0212 -0.8308
 6496SOL     OW30946   1.664   0.709   2.322  0.4477  0.0604  0.6406
 6496SOL    HW130947   1.603   0.710   2.396  1.3246 -2.2834  1.4192
 6496SOL    HW230948   1.730   0.778   2.333 -1.0418  1.2005  2.4142
 6497SOL     OW30949   1.932   1.751  15.342 -0.4930  0.0979 -0.1390
 6497SOL    HW130950   2.018   1.711  15.350  0.0780  0.8240 -2.6636
 6497SOL    HW230951   1.947   1.843  15.362  1.1282 -0.3991  0.8438
 6498SOL     OW30952   0.268   0.726   4.943  0.2161  0.4927  0.3561
 6498SOL    HW130953   0.299   0.816   4.957 -1.0044  0.9038  0.3851
 6498SOL    HW230954   0.176   0.730   4.970  0.8998 -0.8939  2.8197
 6499SOL     OW30955   2.536   1.151   8.075 -0.0834  0.1480  0.2779
 6499SOL    HW130956   2.492   1.077   8.117  1.3514 -0.5833  0.4883
 6499SOL    HW230957   2.469   1.217   8.060 -1.3006 -1.4409 -1.2848
 6500SOL     OW30958   3.812   2.467   4.737 -0.6233  0.4149  0.0221
 6500SOL    HW130959   3.859   2.388   4.765 -1.0706 -0.0887 -0.6648
 6500SOL    HW230960   3.869   2.538   4.768 -1.3236  1.7397 -1.7203
 6501SOL     OW30961   2.281   4.663   3.676 -0.4598 -0.2077 -0.1165
 6501SOL    HW130962   2.365   4.624   3.651  0.5918  1.9310  0.0281
 6501SOL    HW230963   2.215   4.594   3.671  0.6150 -0.9625 -3.2893
 6502SOL     OW30964   0.712   2.942   8.258  0.1622  1.1547 -0.1993
 6502SOL    HW130965   0.701   2.978   8.346  1.3573 -2.5012  1.4369
 6502SOL    HW230966   0.762   3.009   8.212  1.2858  1.2679  1.2054
 6503SOL     OW30967   2.504   0.850   7.563  0.3834 -0.1050 -0.2244
 6503SOL    HW130968   2.453   0.797   7.624  0.3623 -2.2457 -2.1097
 6503SOL    HW230969   2.446   0.852   7.488 -0.9891  2.1561  0.9054
 6504SOL     OW30970   0.380   2.372  13.965 -0.0889 -0.7044  0.1556
 6504SOL    HW130971   0.304   2.430  13.958  0.3206 -0.4204 -1.9131
 6504SOL    HW230972   0.391   2.333  13.878 -0.6792 -2.0641  0.6882
 6505SOL     OW30973   0.566   1.639  10.599  0.1591  0.6102 -0.0019
 6505SOL    HW130974   0.588   1.644  10.692 -2.8553 -2.2770  0.8583
 6505SOL    HW230975   0.520   1.555  10.595 -1.5575  1.4761  1.4213
 6506SOL     OW30976   1.941   3.708  10.846 -0.4549  0.5990 -0.2256
 6506SOL    HW130977   1.978   3.710  10.934  0.3037  3.2241 -0.6188
 6506SOL    HW230978   2.014   3.752  10.801 -2.0318  0.2491 -3.1403
 6507SOL     OW30979   2.535   4.556   6.468 -0.0984 -0.5253 -1.0318
 6507SOL    HW130980   2.599   4.597   6.411 -2.0662  1.2979 -1.9293
 6507SOL    HW230981   2.501   4.637   6.504  0.1263 -0.4578 -0.9747
 6508SOL     OW30982   1.784   2.971   1.769  0.0654  0.3288  0.1973
 6508SOL    HW130983   1.727   3.004   1.699 -1.5197 -1.9386  0.3995
 6508SOL    HW230984   1.801   3.044   1.828 -1.4259  0.1362  0.8624
 6509SOL     OW30985   1.803   1.865   9.822 -0.0172 -0.1183  0.3715
 6509SOL    HW130986   1.798   1.890   9.729 -1.0631 -0.4619  0.3435
 6509SOL    HW230987   1.708   1.857   9.827 -0.0655  2.8784  3.7173
 6510SOL     OW30988   4.309   2.533  11.847  0.4971  0.0550 -0.0797
 6510SOL    HW130989   4.218   2.504  11.839  0.1399  0.6353  1.8705
 6510SOL    HW230990   4.311   2.559  11.939 -0.3956  2.8790 -0.8576
 6511SOL     OW30991   2.787   0.822   4.107  0.4587  0.0839 -0.3349
 6511SOL    HW130992   2.865   0.775   4.137 -0.6230 -1.0256  0.7638
 6511SOL    HW230993   2.719   0.756   4.124 -0.9148  1.4291 -0.5568
 6512SOL     OW30994   3.443   1.833  15.511  0.2051  0.0911 -0.3721
 6512SOL    HW130995   3.373   1.775  15.479 -0.0325  0.2955 -0.2248
 6512SOL    HW230996   3.395   1.885  15.576  0.7095  0.3559 -0.2109
 6513SOL     OW30997   1.935   1.235   1.370 -0.4067  0.2851 -0.2537
 6513SOL    HW130998   1.871   1.235   1.299  0.1434  0.5078 -0.7449
 6513SOL    HW230999   2.021   1.217   1.332 -0.2373  2.9908 -1.1205
 6514SOL     OW31000   1.247   3.162  17.509  0.3968 -0.3623  0.1699
 6514SOL    HW131001   1.286   3.249  17.518  0.9294 -0.8415  2.4262
 6514SOL    HW231002   1.168   3.159  17.562  1.3175 -2.5925  1.4076
 6515SOL     OW31003   1.567   2.908   1.161  0.4923  0.2236 -0.2142
 6515SOL    HW131004   1.569   2.958   1.079 -0.3472  1.5957  0.6015
 6515SOL    HW231005   1.629   2.961   1.211  0.7320 -0.8508  0.6278
 6516SOL     OW31006   1.010   4.206  17.111  0.3439  0.2527  0.1670
 6516SOL    HW131007   1.084   4.241  17.060  0.0874 -1.0551 -1.1100
 6516SOL    HW231008   1.053   4.209  17.196  0.4582  2.1532  0.0497
 6517SOL     OW31009   1.990   2.690   0.433  0.0446  0.5929  0.5145
 6517SOL    HW131010   2.074   2.645   0.430 -0.6601 -0.9126  2.5188
 6517SOL    HW231011   1.989   2.717   0.342  2.8013 -3.0582 -0.5737
 6518SOL     OW31012   2.782   1.707   4.986  0.5508 -0.3393  0.4252
 6518SOL    HW131013   2.875   1.728   4.985  0.3403  0.5506 -1.0205
 6518SOL    HW231014   2.772   1.629   4.932  0.8423 -0.5226  0.6391
 6519SOL     OW31015   0.016   1.470   7.208 -0.4643  0.0146  0.2717
 6519SOL    HW131016   4.649   1.443   7.225  0.3297 -0.7573  3.2833
 6519SOL    HW231017   0.052   1.411   7.142 -0.6878  1.8052 -1.4502
 6520SOL     OW31018   3.339   1.138   5.606  0.4997  0.3285 -0.1497
 6520SOL    HW131019   3.412   1.112   5.550  1.4814 -0.8725  1.6493
 6520SOL    HW231020   3.350   1.090   5.689 -2.5048  0.4804  0.3128
 6521SOL     OW31021   4.632   2.901   1.208 -0.0633  0.1836  0.1964
 6521SOL    HW131022   4.584   2.983   1.197  0.1982  0.4905  1.3224
 6521SOL    HW231023   4.562   2.842   1.181  2.5846 -1.5564 -2.8232
 6522SOL     OW31024   4.215   2.626   4.111  0.0501  0.1033  0.5423
 6522SOL    HW131025   4.219   2.531   4.111  0.4938  0.1272 -1.2631
 6522SOL    HW231026   4.219   2.633   4.206  1.7566 -0.9641  0.5479
 6523SOL     OW31027   1.439   3.197  16.497  0.4508  0.1972 -0.3073
 6523SOL    HW131028   1.462   3.120  16.549  4.5640  1.6196 -0.0363
 6523SOL    HW231029   1.441   3.150  16.413 -1.2053 -1.0025  0.3125
 6524SOL     OW31030   1.671   0.092  15.091  0.0887  1.0387 -0.0412
 6524SOL    HW131031   1.717   0.026  15.039 -0.0328  0.8575  0.0790
 6524SOL    HW231032   1.580   0.080  15.063  0.6595 -0.6867 -1.1501
 6525SOL     OW31033   4.147   4.577   9.875  0.2266 -0.2579  0.0225
 6525SOL    HW131034   4.196   4.599   9.954  1.5706 -2.3362 -0.2488
 6525SOL    HW231035   4.218   4.559   9.814  2.4999  0.5607  2.4489
 6526SOL     OW31036   4.425   4.668  14.327  0.5605  0.3112  1.0674
 6526SOL    HW131037   4.479   4.672  14.248  0.9874  1.8529  1.4252
 6526SOL    HW231038   4.472   0.010  14.380 -0.4172  1.3875  0.6040
 6527SOL     OW31039   0.220   3.686   4.968  0.1732 -0.4537 -0.9344
 6527SOL    HW131040   0.167   3.756   5.007  0.9589 -0.1410 -0.4394
 6527SOL    HW231041   0.307   3.719   4.988 -0.1662 -1.2058  1.7181
 6528SOL     OW31042   3.825   2.931   7.818  0.5925 -0.3067 -0.1463
 6528SOL    HW131043   3.836   2.924   7.723 -0.7383  0.9016 -0.4087
 6528SOL    HW231044   3.754   2.992   7.836  1.1025  0.2693 -0.0948
 6529SOL     OW31045   2.518   2.258  12.339  0.3288 -0.1732  0.2372
 6529SOL    HW131046   2.448   2.235  12.278  0.5837  0.4044 -0.2716
 6529SOL    HW231047   2.516   2.352  12.321 -1.3164  0.4441  3.6896
 6530SOL     OW31048   1.422   0.234   4.311  0.2420 -0.2869  0.0315
 6530SOL    HW131049   1.508   0.238   4.269  1.3663 -3.1348  2.0251
 6530SOL    HW231050   1.368   0.187   4.249 -0.5792 -0.3957  0.8325
 6531SOL     OW31051   4.292   1.780   1.768 -0.1359 -0.4123 -0.0859
 6531SOL    HW131052   4.317   1.777   1.861  1.4750  1.1120 -0.4699
 6531SOL    HW231053   4.214   1.725   1.767  1.1944 -2.3169  0.2845
 6532SOL     OW31054   1.331   0.805   1.171  0.6768  0.3646  0.1796
 6532SOL    HW131055   1.402   0.740   1.171 -0.8532 -1.3297  2.9728
 6532SOL    HW231056   1.293   0.791   1.257  0.5816  1.0326  0.2436
 6533SOL     OW31057   3.517   1.316  11.005 -0.2951  0.3259  0.0475
 6533SOL    HW131058   3.547   1.395  11.050  0.7964 -0.7592  1.2381
 6533SOL    HW231059   3.553   1.328  10.917 -1.2033  1.6060 -0.1487
 6534SOL     OW31060   0.955   3.477  10.079  0.3620 -0.1869 -0.3328
 6534SOL    HW131061   0.955   3.518  10.165 -1.5285  1.6399 -1.1955
 6534SOL    HW231062   0.868   3.436  10.073 -0.1290  0.4609  2.5465
 6535SOL     OW31063   1.905   2.729  15.903  0.5583  0.0888 -0.0347
 6535SOL    HW131064   1.963   2.655  15.923 -0.8058 -0.9053  0.3129
 6535SOL    HW231065   1.968   2.792  15.869  0.9295  0.7953  2.0082
 6536SOL     OW31066   3.554   2.856  11.805  0.0779  0.2527  0.2591
 6536SOL    HW131067   3.602   2.780  11.836 -0.1515 -0.7253 -1.7519
 6536SOL    HW231068   3.550   2.831  11.712  0.7280  1.3622 -0.0701
 6537SOL     OW31069   2.248   0.052   7.056 -0.2285 -0.2866  0.2910
 6537SOL    HW131070   2.293   0.047   6.972  2.1422 -1.4702  1.6346
 6537SOL    HW231071   2.316   0.081   7.117  0.3925 -0.1627 -0.4608
 6538SOL     OW31072   0.238   4.331  16.284 -0.0515  0.5085 -0.9983
 6538SOL    HW131073   0.303   4.377  16.231 -0.0699  1.2664 -0.3693
 6538SOL    HW231074   0.205   4.411  16.326 -0.3562 -0.6011  0.8383
 6539SOL     OW31075   0.219   1.275   5.001  0.2986  0.4040 -0.2599
 6539SOL    HW131076   0.239   1.326   5.080 -0.5533  1.2629 -0.5991
 6539SOL    HW231077   0.291   1.295   4.942  0.9389 -0.8105  0.1188
 6540SOL     OW31078   4.249   0.533   6.698 -0.3134 -0.1012 -0.5021
 6540SOL    HW131079   4.184   0.488   6.643 -1.7882 -0.3846  1.4557
 6540SOL    HW231080   4.192   0.603   6.732 -3.0690 -0.7527 -3.7596
 6541SOL     OW31081   2.907   3.061   6.343 -0.3310 -0.2090  0.0900
 6541SOL    HW131082   2.944   2.976   6.369  0.3249  0.0563  0.0269
 6541SOL    HW231083   2.944   3.066   6.255 -1.3226  0.6144 -0.2767
 6542SOL     OW31084   4.592   4.201   4.499 -0.6154 -0.0905  0.1026
 6542SOL    HW131085   4.569   4.291   4.521  0.9556  0.1469  0.7979
 6542SOL    HW231086   4.523   4.185   4.436  0.8906 -0.6184 -1.4180
 6543SOL     OW31087   2.146   2.701   2.817 -0.1398 -0.5329 -0.0748
 6543SOL    HW131088   2.198   2.631   2.856  0.6831 -0.7202 -1.5014
 6543SOL    HW231089   2.096   2.732   2.892 -2.1357 -2.9548 -0.3989
 6544SOL     OW31090   0.254   4.296   7.012  0.2769  0.2127 -0.3477
 6544SOL    HW131091   0.282   4.255   7.095 -1.6587 -0.3891 -0.0122
 6544SOL    HW231092   0.169   4.331   7.038 -0.9600 -2.0093 -1.4605
 6545SOL     OW31093   3.693   2.676   8.855 -0.2083 -0.0533 -0.3524
 6545SOL    HW131094   3.640   2.743   8.812 -0.6273  0.1925  0.5571
 6545SOL    HW231095   3.783   2.710   8.847  0.1449 -1.0385 -0.5434
 6546SOL     OW31096   4.337   0.252   6.229 -0.1333 -0.1402 -0.7819
 6546SOL    HW131097   4.259   0.209   6.194 -1.3271  0.7082  0.8205
 6546SOL    HW231098   4.331   0.231   6.322  1.5071 -0.6755 -0.7939
 6547SOL     OW31099   0.238   3.370   8.156  0.4938 -0.1228  0.2654
 6547SOL    HW131100   0.153   3.349   8.196  0.4726  3.0332  1.9129
 6547SOL    HW231101   0.239   3.315   8.078 -0.3530 -2.8231  2.1432
 6548SOL     OW31102   4.718   4.391   1.690  0.3506 -0.3054 -0.0872
 6548SOL    HW131103   4.688   4.370   1.779 -1.2125  0.1312 -0.5220
 6548SOL    HW231104   4.637   4.429   1.656  1.6709  2.3756 -0.2601
 6549SOL     OW31105   4.525   3.155   1.220  0.3174  0.3060 -0.5032
 6549SOL    HW131106   4.593   3.211   1.182  1.9388 -0.9980  0.4620
 6549SOL    HW231107   4.449   3.213   1.213  2.6411  3.1897 -2.0385
 6550SOL     OW31108   1.754   3.991   0.839  0.2162  0.3952 -0.0934
 6550SOL    HW131109   1.753   3.921   0.905  3.4291  0.2822 -0.1622
 6550SOL    HW231110   1.703   3.950   0.769 -1.3643  2.8449 -0.3616
 6551SOL     OW31111   1.383   2.337   9.442  0.3920 -0.4580 -0.1384
 6551SOL    HW131112   1.306   2.369   9.396  0.5591 -2.1694 -1.5880
 6551SOL    HW231113   1.431   2.419   9.442  1.8049 -1.2921 -0.7634
 6552SOL     OW31114   2.837   2.107   7.523 -0.0589  0.1188  0.1286
 6552SOL    HW131115   2.852   2.030   7.579 -1.8842 -0.9436 -0.8497
 6552SOL    HW231116   2.885   2.176   7.569  5.9015 -1.5922 -3.5157
 6553SOL     OW31117   1.692   0.965   6.524 -0.1005  0.1137 -0.7103
 6553SOL    HW131118   1.697   0.895   6.588  0.3486 -1.0064 -1.9603
 6553SOL    HW231119   1.776   1.008   6.539 -0.6120  0.6752  0.5366
 6554SOL     OW31120   3.957   1.516   4.206  0.1129 -0.4697 -0.0128
 6554SOL    HW131121   3.952   1.463   4.126 -1.3654 -1.1400  0.5137
 6554SOL    HW231122   4.045   1.549   4.193 -0.5650  0.5432 -2.0974
 6555SOL     OW31123   3.078   1.029  17.448 -0.8504 -1.1231  0.6520
 6555SOL    HW131124   3.151   1.078  17.487 -1.6930  0.5147  0.1906
 6555SOL    HW231125   3.042   1.097  17.391  1.2711 -0.7940 -0.3296
 6556SOL     OW31126   2.881   1.686   2.136 -0.1932  0.3812 -0.0510
 6556SOL    HW131127   2.880   1.596   2.105 -3.3494  0.2439  0.4280
 6556SOL    HW231128   2.972   1.702   2.158 -0.3122  2.8135 -1.3242
 6557SOL     OW31129   2.384   0.110   5.521  0.0462  0.0985 -0.0301
 6557SOL    HW131130   2.470   0.142   5.546 -1.2192  1.7639  2.2265
 6557SOL    HW231131   2.336   0.187   5.554  1.3252  1.4631 -1.3552
 6558SOL     OW31132   3.134   2.984   9.478 -0.3011  0.1613  0.4876
 6558SOL    HW131133   3.203   2.920   9.493 -2.7227 -2.0405  2.3158
 6558SOL    HW231134   3.095   2.951   9.397  1.3986 -1.2113  0.2421
 6559SOL     OW31135   0.270   1.080   6.390 -0.4197 -0.4501  0.7376
 6559SOL    HW131136   0.320   1.147   6.437 -2.3701  1.4645  0.0402
 6559SOL    HW231137   0.308   1.002   6.431  0.6567 -0.2838  0.0615
 6560SOL     OW31138   3.925   0.128   8.937 -0.0244 -0.0295 -0.5886
 6560SOL    HW131139   3.901   0.105   9.027 -2.1881  0.9161 -0.9153
 6560SOL    HW231140   3.985   0.201   8.953 -1.1795  1.5157 -3.2997
 6561SOL     OW31141   2.713   2.906  10.176  0.1021  0.4287 -0.5240
 6561SOL    HW131142   2.695   2.949  10.092  3.2146 -0.3446 -1.5916
 6561SOL    HW231143   2.626   2.914  10.214  0.3516  4.7993 -0.8413
 6562SOL     OW31144   3.398   3.188   8.099 -0.4328  0.0363  0.3996
 6562SOL    HW131145   3.417   3.101   8.135 -1.0006  0.0453  0.7060
 6562SOL    HW231146   3.417   3.174   8.006 -1.5090  0.7762  0.0800
 6563SOL     OW31147   3.765   2.793  11.068  0.3903 -0.0590  0.2189
 6563SOL    HW131148   3.856   2.810  11.046  0.5296  0.1272  0.9331
 6563SOL    HW231149   3.727   2.881  11.073 -0.2824 -0.5487  3.4736
 6564SOL     OW31150   0.698   0.881   3.611 -0.5387 -0.6004  0.2415
 6564SOL    HW131151   0.695   0.976   3.619  1.1515 -0.6716  1.6485
 6564SOL    HW231152   0.762   0.875   3.539 -0.2600  0.7636  0.3852
 6565SOL     OW31153   2.682   3.168  12.003 -0.1365  0.0899 -0.2719
 6565SOL    HW131154   2.700   3.245  12.058 -0.6638  0.6591 -0.8987
 6565SOL    HW231155   2.608   3.122  12.043 -0.0081  1.2696  1.3336
 6566SOL     OW31156   0.440   3.759   1.297 -0.1571 -0.1631 -0.3733
 6566SOL    HW131157   0.465   3.705   1.222  1.1134  1.0959 -0.8340
 6566SOL    HW231158   0.366   3.711   1.335  0.7772 -1.4599 -0.1866
 6567SOL     OW31159   1.279   4.144   4.814 -0.1972 -0.4615 -0.1461
 6567SOL    HW131160   1.336   4.152   4.737 -0.2881 -0.5402 -0.2212
 6567SOL    HW231161   1.212   4.206   4.786 -0.6742 -0.0183  1.9937
 6568SOL     OW31162   3.822   0.308   5.578  0.6540  0.6834 -0.0612
 6568SOL    HW131163   3.764   0.276   5.509 -1.6816 -0.1553  2.3132
 6568SOL    HW231164   3.911   0.301   5.543  0.9216 -0.4934  0.8322
 6569SOL     OW31165   2.442   2.033   1.169  0.1213 -0.3116  0.0424
 6569SOL    HW131166   2.529   2.004   1.142 -0.2014  0.8852 -2.2748
 6569SOL    HW231167   2.440   2.121   1.131 -0.2176 -1.5486 -2.7945
 6570SOL     OW31168   1.529   3.844   0.341 -0.1639  0.3579 -0.1122
 6570SOL    HW131169   1.496   3.847   0.430 -2.2518  2.8624 -0.9881
 6570SOL    HW231170   1.552   3.751   0.332 -1.7783  0.2623 -3.1030
 6571SOL     OW31171   1.768   3.405   9.240 -0.0187  0.1279  0.0486
 6571SOL    HW131172   1.685   3.367   9.211 -0.6127  0.9409  0.6929
 6571SOL    HW231173   1.824   3.401   9.162  2.3233 -1.3588  1.8245
 6572SOL     OW31174   2.043   0.776   2.333  0.3339  0.0246  0.0965
 6572SOL    HW131175   2.038   0.682   2.318  0.9662  0.6955 -4.3249
 6572SOL    HW231176   2.018   0.811   2.248 -1.0752  1.1068  0.9611
 6573SOL     OW31177   3.486   2.105  15.774 -0.4289 -0.7973  0.1164
 6573SOL    HW131178   3.500   2.152  15.691 -2.5851  2.1970  1.4402
 6573SOL    HW231179   3.407   2.059  15.746 -0.4890 -0.4590 -0.2793
 6574SOL     OW31180   2.938   1.103  15.071  0.4482 -0.4163  0.1277
 6574SOL    HW131181   2.858   1.142  15.106 -0.4502 -2.0175 -0.1117
 6574SOL    HW231182   2.972   1.177  15.022  0.8565 -0.3109  0.5662
 6575SOL     OW31183   0.013   2.169   4.764  0.1529  0.2167  0.1374
 6575SOL    HW131184   0.020   2.216   4.682 -0.3911  1.0145  0.5565
 6575SOL    HW231185   4.690   2.091   4.731  2.1973 -0.4876 -1.0821
 6576SOL     OW31186   2.897   1.411   4.125 -0.1402  0.1043 -0.3504
 6576SOL    HW131187   2.942   1.389   4.206 -1.2387 -0.6192  0.0751
 6576SOL    HW231188   2.821   1.352   4.134 -1.4336  1.4622 -2.3936
 6577SOL     OW31189   3.426   1.878   8.471  0.5371 -0.3757 -0.2007
 6577SOL    HW131190   3.393   1.848   8.386 -0.7449 -0.2250  0.2473
 6577SOL    HW231191   3.348   1.863   8.524  0.6468 -0.4844 -0.0710
 6578SOL     OW31192   3.589   4.440   6.980  0.3857  0.1746  0.3673
 6578SOL    HW131193   3.599   4.522   6.931  1.6109 -0.2440 -0.0867
 6578SOL    HW231194   3.502   4.439   7.020  0.1859  0.3893 -0.0596
 6579SOL     OW31195   1.201   3.767  15.462  0.1998 -0.0478 -0.2409
 6579SOL    HW131196   1.272   3.800  15.517  0.4469  0.2278 -0.7304
 6579SOL    HW231197   1.157   3.717  15.531 -0.4485 -0.9820 -1.3232
 6580SOL     OW31198   2.580   4.395  17.471 -0.1153  0.8691 -0.0457
 6580SOL    HW131199   2.528   4.472  17.450 -0.6417  0.1989 -1.1961
 6580SOL    HW231200   2.522   4.329  17.432  0.9422  2.1432 -3.8090
 6581SOL     OW31201   1.560   3.934   7.958  0.7798 -0.2269 -0.4536
 6581SOL    HW131202   1.647   3.966   7.983  0.9880 -0.4356 -0.9102
 6581SOL    HW231203   1.574   3.841   7.974 -0.2509 -0.3708 -0.4080
 6582SOL     OW31204   2.422   4.571   8.323  0.1175 -0.4006 -0.4103
 6582SOL    HW131205   2.410   4.641   8.386 -2.1952  1.1081 -2.5087
 6582SOL    HW231206   2.342   4.582   8.271  0.3967  0.5962 -0.6220
 6583SOL     OW31207   2.755   3.014   7.483  0.0030 -0.1596 -0.5006
 6583SOL    HW131208   2.685   3.059   7.529 -0.5775 -1.9789  0.3650
 6583SOL    HW231209   2.824   3.076   7.458  0.1859  0.6414  2.0504
 6584SOL     OW31210   2.513   1.933   2.607 -0.3347  0.5587  0.1370
 6584SOL    HW131211   2.551   1.978   2.683  0.6735 -2.5192  1.4876
 6584SOL    HW231212   2.475   2.006   2.559 -0.2983  0.9412  0.6831
 6585SOL     OW31213   2.690   4.333   6.183  0.1166  0.8230 -0.7305
 6585SOL    HW131214   2.707   4.264   6.119 -2.5291 -0.1924 -0.3415
 6585SOL    HW231215   2.736   4.411   6.151 -0.8395  2.1368  1.0844
 6586SOL     OW31216   3.724   1.000  12.706  0.2293  0.0174  0.0782
 6586SOL    HW131217   3.803   1.053  12.700 -0.2996  0.6819 -1.0755
 6586SOL    HW231218   3.666   1.042  12.643  0.4389 -1.7673 -1.3165
 6587SOL     OW31219   2.748   3.940   5.256  0.4871  0.5657  0.2630
 6587SOL    HW131220   2.743   3.858   5.208  0.6444 -0.1137  1.4114
 6587SOL    HW231221   2.830   3.930   5.304 -0.6550 -1.6663  1.6884
 6588SOL     OW31222   4.587   2.546  12.051 -0.3744  0.0937 -0.1196
 6588SOL    HW131223   4.495   2.539  12.077 -0.1772 -2.7243 -0.1494
 6588SOL    HW231224   4.613   2.618  12.107 -1.6324  2.2439 -2.3058
 6589SOL     OW31225   2.391   2.146   3.097  0.0779 -0.5832  0.0463
 6589SOL    HW131226   2.438   2.101   3.166  0.6772 -1.2996 -0.8267
 6589SOL    HW231227   2.400   2.233   3.135  0.2117 -0.0757 -1.1201
 6590SOL     OW31228   1.638   3.748   5.540  0.0794  0.5249 -0.4068
 6590SOL    HW131229   1.645   3.655   5.557  0.2566  0.9866  2.0874
 6590SOL    HW231230   1.574   3.781   5.603 -0.2358 -0.9618  0.0414
 6591SOL     OW31231   2.450   2.734   5.351 -0.3831 -0.1569  0.0172
 6591SOL    HW131232   2.378   2.787   5.385  0.8611  2.1942 -1.0250
 6591SOL    HW231233   2.530   2.786   5.361  0.6797 -1.7649 -0.1242
 6592SOL     OW31234   1.290   3.695   7.634 -0.1846  0.1834  0.1045
 6592SOL    HW131235   1.299   3.660   7.546 -0.0994  1.1401 -0.2659
 6592SOL    HW231236   1.384   3.696   7.655 -0.3028  1.0778  0.6068
 6593SOL     OW31237   1.263   3.601   0.281  0.0654 -0.0543  0.2085
 6593SOL    HW131238   1.357   3.593   0.264  0.3184  0.3868  1.4188
 6593SOL    HW231239   1.222   3.515   0.290  0.4040 -0.3538 -1.0953
 6594SOL     OW31240   1.724   1.820   4.576 -0.1920  0.2930 -0.1240
 6594SOL    HW131241   1.722   1.847   4.484  0.4242 -0.1215 -0.2628
 6594SOL    HW231242   1.634   1.809   4.607  0.1368  2.7479  1.6762
 6595SOL     OW31243   3.877   2.821   9.851 -0.2841 -0.8556  0.3448
 6595SOL    HW131244   3.959   2.779   9.824  0.5490  0.5662  0.7103
 6595SOL    HW231245   3.876   2.806   9.945 -1.6147 -1.1875  0.2779
 6596SOL     OW31246   4.381   0.051   7.111  0.2778 -0.1916 -0.4601
 6596SOL    HW131247   4.381   4.679   7.103 -0.5029 -0.3421  1.2579
 6596SOL    HW231248   4.293   0.056   7.149  0.8936 -1.1053  1.0442
 6597SOL     OW31249   0.703   3.748   7.202 -0.0385  0.3974 -0.0730
 6597SOL    HW131250   0.720   3.761   7.296  1.6915  2.5910 -0.6853
 6597SOL    HW231251   0.765   3.805   7.156 -0.2546  1.3170  0.7618
 6598SOL     OW31252   4.236   1.150   7.366 -0.3633  0.0518 -0.2747
 6598SOL    HW131253   4.266   1.166   7.276 -1.4003  0.3334 -0.5665
 6598SOL    HW231254   4.282   1.225   7.403 -2.3038  1.0193  0.1816
 6599SOL     OW31255   4.085   2.878   0.165 -0.2417  0.1607 -1.0600
 6599SOL    HW131256   4.176   2.888   0.135 -0.0086 -2.1091 -1.0617
 6599SOL    HW231257   4.106   2.878   0.258  0.6928  3.4833 -1.2614
 6600SOL     OW31258   3.334   2.826   5.179 -0.5635 -0.2042 -0.4708
 6600SOL    HW131259   3.360   2.743   5.140 -0.3644 -0.2684 -0.2003
 6600SOL    HW231260   3.288   2.795   5.257  2.0387 -0.3758  1.0338
 6601SOL     OW31261   1.448   3.413   7.468  0.1224 -0.0188  0.1602
 6601SOL    HW131262   1.538   3.427   7.497 -0.8782  0.9664  2.7380
 6601SOL    HW231263   1.414   3.346   7.528 -1.1544  0.5252  0.0437
 6602SOL     OW31264   0.220   2.475   7.324 -0.2759  0.2845  0.3655
 6602SOL    HW131265   0.261   2.453   7.408  0.7510 -1.0925 -0.5039
 6602SOL    HW231266   0.242   2.567   7.307  0.4105 -0.0497 -0.5509
 6603SOL     OW31267   0.453   2.396   6.735 -0.2298  0.4739  0.0544
 6603SOL    HW131268   0.358   2.407   6.724 -0.0114  2.0577 -0.2534
 6603SOL    HW231269   0.462   2.427   6.825 -0.2336  0.4264  0.0707
 6604SOL     OW31270   3.554   1.946   3.276  0.3540  0.0393 -0.5366
 6604SOL    HW131271   3.470   1.903   3.258 -0.2926  0.2905  1.9012
 6604SOL    HW231272   3.595   1.872   3.320  1.3610  1.8815  1.5954
 6605SOL     OW31273   2.453   2.568   3.016 -0.4465  0.1476 -0.1129
 6605SOL    HW131274   2.369   2.536   2.985  0.1478 -0.4364 -1.1416
 6605SOL    HW231275   2.465   2.513   3.094  0.3318  2.5444  1.4558
 6606SOL     OW31276   1.669   4.704   1.733 -0.2960  0.0878 -0.0998
 6606SOL    HW131277   1.606   4.719   1.663  0.1167  1.2013 -0.2304
 6606SOL    HW231278   1.676   0.071   1.763  2.1666 -0.1386 -0.0462
 6607SOL     OW31279   3.215   4.192   5.478 -0.6708 -0.4506 -0.5673
 6607SOL    HW131280   3.281   4.123   5.484 -1.6024 -1.1426  1.7427
 6607SOL    HW231281   3.165   4.168   5.556  1.5534  0.1658  1.0437
 6608SOL     OW31282   0.682   1.980  10.604 -0.3003 -0.1124 -0.4660
 6608SOL    HW131283   0.641   1.907  10.649  0.0064 -0.2884 -0.4743
 6608SOL    HW231284   0.618   2.051  10.600  0.8930  0.9479 -0.8721
 6609SOL     OW31285   0.871   1.727   6.352  0.3437 -0.5546 -0.0895
 6609SOL    HW131286   0.926   1.649   6.353  0.5963 -0.3449  1.2109
 6609SOL    HW231287   0.800   1.710   6.414 -0.1011  1.0700 -0.1674
 6610SOL     OW31288   0.349   1.837  10.731 -0.5181  0.1652  0.2773
 6610SOL    HW131289   0.328   1.927  10.705  1.9698  0.6800  0.0392
 6610SOL    HW231290   0.379   1.795  10.649  1.0170 -0.9064  1.3797
 6611SOL     OW31291   3.700   0.252  11.202 -0.8191 -0.1076  0.5168
 6611SOL    HW131292   3.670   0.162  11.190 -0.3754 -0.1617 -0.1987
 6611SOL    HW231293   3.623   0.307  11.191  1.4962  2.2348 -3.6600
 6612SOL     OW31294   2.601   0.602   8.430 -0.0003  0.3510 -0.1024
 6612SOL    HW131295   2.593   0.545   8.507 -1.0254 -0.3070 -0.7012
 6612SOL    HW231296   2.597   0.688   8.471 -1.9852  0.9118 -1.5012
 6613SOL     OW31297   2.256   1.512   4.652 -0.2003  0.1376 -0.1502
 6613SOL    HW131298   2.334   1.484   4.603 -1.2336  0.1742 -1.8240
 6613SOL    HW231299   2.260   1.463   4.734 -2.3773  2.6990  1.4836
 6614SOL     OW31300   3.452   1.763   7.544  0.5198  0.2832  0.4001
 6614SOL    HW131301   3.492   1.848   7.563 -1.1671  1.0197  0.6737
 6614SOL    HW231302   3.472   1.722   7.629  0.3736  0.8055  0.6880
 6615SOL     OW31303   3.352   1.471  16.290 -0.3196 -0.4796 -0.0249
 6615SOL    HW131304   3.389   1.498  16.374  0.7801 -0.2084 -0.5825
 6615SOL    HW231305   3.371   1.542  16.229 -0.8889 -1.0619 -0.8693
 6616SOL     OW31306   3.434   0.599   2.702 -0.2210  0.0010  0.0008
 6616SOL    HW131307   3.399   0.669   2.757 -0.0548 -1.0477  1.4524
 6616SOL    HW231308   3.505   0.644   2.657  0.8789 -1.3857  0.3611
 6617SOL     OW31309   0.790   0.178   2.917  0.0799  0.1391 -0.4336
 6617SOL    HW131310   0.744   0.171   2.833 -2.8137 -2.3740  1.3525
 6617SOL    HW231311   0.866   0.230   2.891  0.9903 -1.9102 -1.9073
 6618SOL     OW31312   2.108   2.152   7.778 -0.0320 -0.1147  0.1116
 6618SOL    HW131313   2.058   2.075   7.750  0.1318  1.3334 -4.1813
 6618SOL    HW231314   2.071   2.160   7.866 -0.7298 -1.7903 -0.0268
 6619SOL     OW31315   2.458   2.343   6.731  0.0197 -0.0502  0.8961
 6619SOL    HW131316   2.412   2.399   6.793  2.0070  3.7473 -1.0731
 6619SOL    HW231317   2.538   2.333   6.782 -0.3711 -0.5012  1.4212
 6620SOL     OW31318   2.247   3.426   6.940 -0.4973  0.1169 -0.0908
 6620SOL    HW131319   2.304   3.350   6.953  0.2844  0.6621 -0.2922
 6620SOL    HW231320   2.308   3.485   6.895 -0.9064  1.1255  0.6727
 6621SOL     OW31321   2.771   3.556   1.875 -0.4470 -0.2748  0.2100
 6621SOL    HW131322   2.817   3.473   1.860  1.0589  0.2804  1.6767
 6621SOL    HW231323   2.679   3.530   1.869 -0.8931  0.7985  2.4638
 6622SOL     OW31324   3.165   3.593   5.303  0.2477  0.4647 -0.8707
 6622SOL    HW131325   3.153   3.679   5.262  1.7828  0.9703 -0.2320
 6622SOL    HW231326   3.166   3.616   5.395  1.2406 -0.9901 -0.5232
 6623SOL     OW31327   1.015   2.082  13.674 -0.0133  0.3020 -0.0973
 6623SOL    HW131328   1.018   2.148  13.743 -0.9782  0.1790  0.0571
 6623SOL    HW231329   1.104   2.052  13.654 -0.8379 -0.5723 -2.4884
 6624SOL     OW31330   0.190   2.420   0.758 -0.2288  0.4627  0.2237
 6624SOL    HW131331   0.194   2.353   0.690 -2.2515 -0.2641  0.8233
 6624SOL    HW231332   0.098   2.414   0.785 -0.1691  0.5447  0.4440
 6625SOL     OW31333   3.045   3.584   8.171 -0.1891  0.0824  0.3352
 6625SOL    HW131334   3.069   3.549   8.257  0.1718 -1.0316 -0.2187
 6625SOL    HW231335   3.118   3.645   8.160 -0.3856 -0.0642 -1.7967
 6626SOL     OW31336   3.731   0.162   3.567 -0.1954 -0.5093  0.4642
 6626SOL    HW131337   3.807   0.221   3.560  0.5932 -1.4607  1.0385
 6626SOL    HW231338   3.727   0.124   3.655  1.9723  0.5290  1.0085
 6627SOL     OW31339   4.266   0.595   7.361  0.1718 -0.1647  0.2159
 6627SOL    HW131340   4.234   0.511   7.328 -0.5274  0.8209 -1.6132
 6627SOL    HW231341   4.355   0.568   7.383 -0.1213 -0.0554  1.5517
 6628SOL     OW31342   1.453   2.458   3.164  0.8069  0.0327 -0.1668
 6628SOL    HW131343   1.358   2.464   3.154  1.0017  1.3874 -1.3718
 6628SOL    HW231344   1.473   2.387   3.103  0.2745  0.5531 -0.9409
 6629SOL     OW31345   1.993   4.603   2.674  0.9246  0.3174 -0.1941
 6629SOL    HW131346   1.994   4.518   2.719  0.9757  0.8163  0.7462
 6629SOL    HW231347   2.077   4.643   2.695  1.8011 -2.3031  1.2360
 6630SOL     OW31348   0.355   4.071   8.059 -0.2593 -0.2400 -0.1771
 6630SOL    HW131349   0.324   4.044   7.973  1.2581 -1.6065 -0.2989
 6630SOL    HW231350   0.286   4.045   8.120 -1.2797  0.1652 -1.1709
 6631SOL     OW31351   0.858   3.524   8.542 -0.7367 -0.3765 -0.5620
 6631SOL    HW131352   0.789   3.583   8.511 -1.6396  0.1456  2.4400
 6631SOL    HW231353   0.808   3.443   8.550 -0.1840 -0.5136  1.5655
 6632SOL     OW31354   1.514   2.255   8.213  0.1625 -0.2836  0.0941
 6632SOL    HW131355   1.558   2.210   8.141  1.4437  2.5059 -0.8521
 6632SOL    HW231356   1.434   2.205   8.230 -0.2176 -0.7691 -3.0273
 6633SOL     OW31357   0.237   0.957   9.982 -0.5216 -0.4133  0.0718
 6633SOL    HW131358   0.330   0.962   9.961 -0.2866  0.7930  1.3738
 6633SOL    HW231359   0.191   0.993   9.906  2.4983  3.0027 -0.1331
 6634SOL     OW31360   3.925   1.065   3.493 -0.0834 -0.0438  0.6909
 6634SOL    HW131361   3.955   1.098   3.577 -2.2465 -1.3093  1.9841
 6634SOL    HW231362   3.864   1.132   3.461  0.6903 -0.6426 -2.0677
 6635SOL     OW31363   0.837   0.286  14.834  0.1035  0.0778  0.7381
 6635SOL    HW131364   0.891   0.223  14.786 -0.1797 -0.6292  1.3433
 6635SOL    HW231365   0.890   0.288  14.913  0.1772  1.1306  0.6568
 6636SOL     OW31366   0.143   1.186   2.053  0.2875 -0.1895 -0.1062
 6636SOL    HW131367   0.156   1.246   2.125  0.5675  2.3123 -2.2395
 6636SOL    HW231368   0.199   1.211   1.980  2.1746  0.6764  1.6754
 6637SOL     OW31369   1.092   3.733   0.573  0.0275  0.5623  0.3836
 6637SOL    HW131370   1.004   3.748   0.606 -0.1360 -1.5356  0.9374
 6637SOL    HW231371   1.079   3.774   0.487  0.8565 -0.4728 -0.2523
 6638SOL     OW31372   2.195   4.534  12.875  0.1405 -0.0919 -0.4445
 6638SOL    HW131373   2.173   4.507  12.965 -0.1727 -1.2435 -0.8631
 6638SOL    HW231374   2.251   4.460  12.851  0.1486 -0.7770  1.6286
 6639SOL     OW31375   3.366   1.814   4.881  0.2881  0.2861 -0.0300
 6639SOL    HW131376   3.275   1.807   4.908  0.4360  0.4223  0.5102
 6639SOL    HW231377   3.383   1.907   4.896  0.9068  0.1684 -0.0139
 6640SOL     OW31378   1.273   0.411  16.427  0.1809 -0.2874  0.4326
 6640SOL    HW131379   1.331   0.413  16.503  0.1076  0.2549  0.4751
 6640SOL    HW231380   1.210   0.342  16.452  1.2409 -1.7868 -1.0323
 6641SOL     OW31381   3.479   4.280   8.055 -0.1126 -0.0111 -0.2278
 6641SOL    HW131382   3.472   4.266   8.150  1.7340 -0.5174 -0.1630
 6641SOL    HW231383   3.457   4.373   8.047 -0.0017  0.1974  1.8688
 6642SOL     OW31384   2.657   3.707  10.097  0.2000 -0.0491 -0.2388
 6642SOL    HW131385   2.617   3.622  10.079  2.2324 -0.7889 -1.2687
 6642SOL    HW231386   2.713   3.726  10.022 -0.3917  2.6422  0.0102
 6643SOL     OW31387   1.372   4.244   3.998  0.1218 -0.1422 -0.2067
 6643SOL    HW131388   1.314   4.177   4.035  0.7536 -1.1116 -0.9475
 6643SOL    HW231389   1.351   4.233   3.905 -0.4207  2.9861 -0.4313
 6644SOL     OW31390   4.396   2.946  15.601  0.0393 -0.7638 -0.0908
 6644SOL    HW131391   4.350   2.983  15.677 -1.3529 -0.1159 -1.2461
 6644SOL    HW231392   4.368   3.002  15.528  3.0847 -0.2153 -0.8109
 6645SOL     OW31393   0.638   3.395   9.898 -0.2039  0.0997  0.3737
 6645SOL    HW131394   0.688   3.327   9.943  0.3849 -0.4077 -1.0473
 6645SOL    HW231395   0.594   3.434   9.974  0.5801 -0.7551  1.2682
 6646SOL     OW31396   1.422   3.017   4.278 -0.3201  0.1112 -0.2461
 6646SOL    HW131397   1.433   2.924   4.261 -2.7587 -0.3437  0.6227
 6646SOL    HW231398   1.497   3.068   4.249 -1.2663  2.9284  2.1726
 6647SOL     OW31399   1.055   1.709   0.392  0.4866  0.4497 -0.0117
 6647SOL    HW131400   0.982   1.658   0.428  2.4218 -2.3507 -0.0472
 6647SOL    HW231401   1.079   1.752   0.473 -0.2597  1.3172 -0.2542
 6648SOL     OW31402   1.056   1.493   8.060  0.2303  0.0311  0.4882
 6648SOL    HW131403   0.966   1.461   8.048  0.3912 -0.7064  1.2816
 6648SOL    HW231404   1.019   1.582   8.054  1.1197  0.0983 -3.6074
 6649SOL     OW31405   3.389   2.250   2.610 -0.2287  0.1356 -0.4438
 6649SOL    HW131406   3.389   2.333   2.658  2.0778  0.1449 -0.4873
 6649SOL    HW231407   3.478   2.221   2.629  0.2448  0.3798 -2.3673
 6650SOL     OW31408   3.202   3.320   7.316  0.2181 -0.1036 -0.1163
 6650SOL    HW131409   3.227   3.346   7.405  1.0342 -1.6392  0.0920
 6650SOL    HW231410   3.286   3.306   7.273  0.1258 -0.3639 -0.2112
 6651SOL     OW31411   1.012   2.403   3.510 -0.0338  0.4409  0.1355
 6651SOL    HW131412   0.992   2.434   3.598 -0.0784  2.0438 -0.4471
 6651SOL    HW231413   1.102   2.435   3.500 -0.7086  2.3412  0.1458
 6652SOL     OW31414   4.141   3.754   4.331  0.0697 -0.0765 -0.0595
 6652SOL    HW131415   4.087   3.816   4.283 -0.4241 -1.1565 -0.9134
 6652SOL    HW231416   4.227   3.771   4.294  0.8728 -0.6513  1.5088
 6653SOL     OW31417   4.020   0.663   9.476  0.8016 -0.6458  0.0391
 6653SOL    HW131418   3.941   0.694   9.431  0.0984 -2.4663  0.0188
 6653SOL    HW231419   4.022   0.576   9.437 -0.8634 -0.3416 -0.7253
 6654SOL     OW31420   0.033   0.875   2.235 -0.7153  0.0265 -0.3618
 6654SOL    HW131421   0.012   0.955   2.284  1.5106  1.0142 -1.0428
 6654SOL    HW231422   0.017   0.906   2.146 -0.2476  0.0518 -0.4343
 6655SOL     OW31423   3.396   3.452   5.282  0.2126  0.1348 -0.3375
 6655SOL    HW131424   3.307   3.482   5.301  0.2367  0.4828 -0.7736
 6655SOL    HW231425   3.376   3.423   5.193  0.9842  0.0916 -0.5019
 6656SOL     OW31426   1.340   4.338   0.433  0.0396 -0.3558  0.3276
 6656SOL    HW131427   1.394   4.273   0.387 -1.0988 -0.7734 -0.4378
 6656SOL    HW231428   1.405   4.386   0.483  1.6926 -0.7062 -1.4701
 6657SOL     OW31429   2.527   2.567   2.208 -0.2158 -0.2917 -0.3582
 6657SOL    HW131430   2.487   2.637   2.157 -2.6793 -0.7192  0.9888
 6657SOL    HW231431   2.464   2.539   2.274 -0.0493 -0.5546 -0.3082
 6658SOL     OW31432   3.517   1.261   6.746 -0.8487 -0.0621 -0.1330
 6658SOL    HW131433   3.537   1.264   6.652 -4.6093 -1.2616 -0.9518
 6658SOL    HW231434   3.531   1.171   6.773 -0.6056  0.7383  2.3805
 6659SOL     OW31435   4.206   2.988  14.118 -0.3874 -0.5688 -0.1610
 6659SOL    HW131436   4.131   3.047  14.123 -0.3904 -0.7319  1.9725
 6659SOL    HW231437   4.247   3.014  14.036  0.2751 -3.2231 -0.6733
 6660SOL     OW31438   0.375   1.018   2.570 -0.8911 -0.8803  0.0395
 6660SOL    HW131439   0.284   1.038   2.595 -0.6104 -0.3325  0.6214
 6660SOL    HW231440   0.355   0.943   2.514  0.1089  1.4995 -3.5231
 6661SOL     OW31441   4.355   4.372   0.667 -0.0920 -0.7267 -0.5398
 6661SOL    HW131442   4.277   4.320   0.687 -0.4991 -0.9845 -2.7988
 6661SOL    HW231443   4.343   4.415   0.582 -0.6088 -0.6485 -0.4288
 6662SOL     OW31444   3.312   0.708   3.847 -0.0706 -0.1279  0.4723
 6662SOL    HW131445   3.335   0.643   3.781  0.6144  1.6136 -1.0284
 6662SOL    HW231446   3.353   0.781   3.800  2.5440 -0.4072  2.3214
 6663SOL     OW31447   4.619   1.194   2.720  0.2259  0.0745  0.4133
 6663SOL    HW131448   4.635   1.262   2.786  2.4717 -0.9534  0.9320
 6663SOL    HW231449   4.614   1.251   2.643  1.4114  0.7609  0.8405
 6664SOL     OW31450   3.162   0.594  10.230  0.1723  0.5839 -0.5251
 6664SOL    HW131451   3.115   0.671  10.198  0.7379  0.7196 -1.0239
 6664SOL    HW231452   3.100   0.558  10.294  0.0508  0.5099 -0.6862
 6665SOL     OW31453   4.464   4.185   8.478 -0.0405  0.1614 -0.1769
 6665SOL    HW131454   4.410   4.230   8.543 -1.6480 -1.3149 -0.5040
 6665SOL    HW231455   4.553   4.219   8.489  0.2862 -0.9484  0.5616
 6666SOL     OW31456   4.117   1.315  16.967  0.2379  0.1068  0.0601
 6666SOL    HW131457   4.038   1.359  16.998  0.6727  0.1990  1.0367
 6666SOL    HW231458   4.186   1.379  16.982 -0.1995  0.1528  1.9465
 6667SOL     OW31459   2.785   2.463  10.919  0.0904 -0.1714  0.0886
 6667SOL    HW131460   2.846   2.423  10.858  1.0098  0.4745  0.5792
 6667SOL    HW231461   2.837   2.542  10.931 -0.3158 -0.2392  2.2614
 6668SOL     OW31462   1.919   4.365  14.926  0.4640  0.2571  0.0224
 6668SOL    HW131463   1.897   4.366  14.833 -0.9579  3.2013  0.3775
 6668SOL    HW231464   2.012   4.387  14.929  0.0844  1.8239  0.2870
 6669SOL     OW31465   0.512   0.240   3.947  0.1790 -0.7902  0.4521
 6669SOL    HW131466   0.472   0.265   3.863  2.1240  0.1514 -0.1927
 6669SOL    HW231467   0.580   0.307   3.949  1.1722 -1.8213  0.9272
 6670SOL     OW31468   0.682   1.690   7.946  0.3478 -0.4546 -0.0355
 6670SOL    HW131469   0.589   1.702   7.928  0.2405  2.6574  2.5600
 6670SOL    HW231470   0.700   1.767   8.000 -2.6628  0.6571 -0.6526
 6671SOL     OW31471   3.861   1.730   1.126 -0.4530  0.5374 -0.2181
 6671SOL    HW131472   3.891   1.818   1.149 -1.4000  0.7908  0.0140
 6671SOL    HW231473   3.908   1.670   1.184  2.4132  3.9847  1.0520
 6672SOL     OW31474   4.108   0.869   8.530  0.1192 -0.2859 -0.1462
 6672SOL    HW131475   4.104   0.878   8.625 -1.6686  0.0052 -0.2558
 6672SOL    HW231476   4.038   0.927   8.501  0.9413  0.6909 -0.1577
 6673SOL     OW31477   1.360   2.662   1.443  0.0028 -0.0179 -0.1454
 6673SOL    HW131478   1.348   2.571   1.473 -1.4830  0.2476  0.0321
 6673SOL    HW231479   1.416   2.648   1.366  1.8488 -0.3095  1.2421
 6674SOL     OW31480   2.188   0.733  10.051 -0.0898  0.1431 -0.0426
 6674SOL    HW131481   2.138   0.684   9.986 -0.1042  0.3549 -0.1916
 6674SOL    HW231482   2.117   0.738  10.116 -0.2268 -1.3343 -0.0779
 6675SOL     OW31483   3.342   3.997   2.381 -0.2867 -0.5326 -0.2841
 6675SOL    HW131484   3.382   4.051   2.313  1.8350  0.2805  1.6156
 6675SOL    HW231485   3.259   4.045   2.390  2.5142  4.1502  0.7831
 6676SOL     OW31486   0.398   3.038   3.027 -0.6036  0.0341 -0.0080
 6676SOL    HW131487   0.354   3.084   2.956 -1.4391 -1.1967 -0.2905
 6676SOL    HW231488   0.322   2.990   3.060 -0.1923  0.4382  1.5052
 6677SOL     OW31489   3.908   0.978  13.333  0.1146  0.0336  0.5535
 6677SOL    HW131490   3.951   1.058  13.304  1.0286 -0.3649  0.8161
 6677SOL    HW231491   3.819   0.993  13.301 -0.1015  2.7305  2.5144
 6678SOL     OW31492   0.283   4.613   5.670 -0.7977 -0.1417  0.1145
 6678SOL    HW131493   0.241   4.697   5.654  0.9020  0.8516  0.8347
 6678SOL    HW231494   0.246   4.583   5.753  1.3801 -1.6523  0.5391
 6679SOL     OW31495   4.186   1.359   6.037  0.3115 -0.1812  0.2797
 6679SOL    HW131496   4.279   1.334   6.033  0.8315  1.3384  2.8110
 6679SOL    HW231497   4.192   1.449   6.005  0.2469 -0.5596 -0.8131
 6680SOL     OW31498   0.005   2.331   2.809  0.0672 -0.0791  0.1553
 6680SOL    HW131499   4.637   2.305   2.822 -0.0705  1.3652  2.0548
 6680SOL    HW231500   4.722   2.416   2.853  0.2418  0.7338 -1.4029
 6681SOL     OW31501   4.148   0.958   3.416  0.2128  0.8076 -0.7857
 6681SOL    HW131502   4.070   1.006   3.444 -0.2374 -0.2208 -0.2576
 6681SOL    HW231503   4.105   0.907   3.347  0.5581 -1.6780  0.8180
 6682SOL     OW31504   0.943   3.300   0.406  0.2178  0.3705 -0.4679
 6682SOL    HW131505   0.872   3.316   0.468  0.7254  1.4836 -0.1646
 6682SOL    HW231506   0.978   3.220   0.444  0.2407  1.0388  0.9197
 6683SOL     OW31507   3.299   4.720   6.136 -0.4256 -0.5873 -0.4268
 6683SOL    HW131508   3.352   0.026   6.061 -0.0200  2.1916  0.9127
 6683SOL    HW231509   3.333   0.032   6.218  0.2393 -1.7784 -0.1928
 6684SOL     OW31510   0.053   2.286  11.240  0.2225 -0.2189  0.3011
 6684SOL    HW131511   0.148   2.279  11.231  0.3955 -0.2371  2.0297
 6684SOL    HW231512   0.034   2.377  11.262 -0.1394  0.2849 -2.1906
 6685SOL     OW31513   1.274   3.419   9.939 -0.0729 -0.4879 -0.2386
 6685SOL    HW131514   1.222   3.394   9.863 -0.0413 -2.6269  0.4293
 6685SOL    HW231515   1.360   3.435   9.900  0.8656 -1.3410  1.5033
 6686SOL     OW31516   3.378   2.568   3.994 -0.1747  0.0260  0.8023
 6686SOL    HW131517   3.419   2.619   4.064 -0.3498 -1.3960  1.9397
 6686SOL    HW231518   3.427   2.486   4.000 -1.8264 -1.1232 -1.5255
 6687SOL     OW31519   3.631   4.274   2.797  0.1446 -0.3924  0.3762
 6687SOL    HW131520   3.723   4.294   2.781 -0.4795  0.8001 -1.6465
 6687SOL    HW231521   3.612   4.245   2.708 -0.0355 -1.0749  0.6326
 6688SOL     OW31522   2.272   0.268   1.995  0.9281  0.5197 -0.3561
 6688SOL    HW131523   2.210   0.274   2.068  0.4385 -0.6653 -0.6861
 6688SOL    HW231524   2.258   0.183   1.955 -3.2418  0.5023  1.0663
 6689SOL     OW31525   2.838   2.391   6.631 -0.1588 -0.4534  0.1499
 6689SOL    HW131526   2.754   2.345   6.640 -0.3045 -0.3549 -0.6364
 6689SOL    HW231527   2.853   2.435   6.715 -1.5135  1.6182 -0.6905
 6690SOL     OW31528   2.438   4.616  17.384  0.3588 -0.6726 -0.5064
 6690SOL    HW131529   2.344   4.612  17.399  0.4063  3.8695  0.9752
 6690SOL    HW231530   2.431   4.657  17.298  0.8828 -1.6412 -1.0103
 6691SOL     OW31531   4.133   0.142   9.722  0.7410  0.2442  0.4333
 6691SOL    HW131532   4.110   0.192   9.800 -1.5386  1.0237 -0.7179
 6691SOL    HW231533   4.083   0.062   9.739  0.6458  0.3762  0.7733
 6692SOL     OW31534   3.114   1.109   7.661 -0.2620 -0.1434  0.0376
 6692SOL    HW131535   3.202   1.113   7.623 -0.1338 -2.7841  0.0597
 6692SOL    HW231536   3.139   1.112   7.754 -0.8025  1.2803  0.1462
 6693SOL     OW31537   2.982   4.677   1.047 -0.0966  0.1056  0.2617
 6693SOL    HW131538   2.969   4.604   0.986 -0.1284  0.5166 -0.2218
 6693SOL    HW231539   2.929   0.023   1.009 -1.5758 -1.1459  0.0256
 6694SOL     OW31540   2.171   2.578  10.225  0.0888 -0.1237  0.7035
 6694SOL    HW131541   2.265   2.583  10.240  0.0141  3.4986 -0.0690
 6694SOL    HW231542   2.159   2.670  10.201 -2.0233 -0.5920 -0.0513
 6695SOL     OW31543   2.412   1.133  14.410 -0.2296  0.1500  0.4565
 6695SOL    HW131544   2.362   1.126  14.492 -1.7192  0.5070 -0.4330
 6695SOL    HW231545   2.361   1.068  14.363  0.9530  0.0131 -0.6231
 6696SOL     OW31546   2.546   0.626  11.722 -0.1568 -0.4929  0.0427
 6696SOL    HW131547   2.526   0.533  11.732  4.0368 -1.7957 -3.4673
 6696SOL    HW231548   2.548   0.655  11.813 -1.0393  1.5363 -0.5828
 6697SOL     OW31549   1.745   3.672   1.276  0.2246  0.1568  0.0029
 6697SOL    HW131550   1.798   3.752   1.277  1.8692 -0.9256 -0.6396
 6697SOL    HW231551   1.794   3.607   1.327  2.0715  3.4753  2.4827
 6698SOL     OW31552   1.382   0.940   5.955 -0.0249 -0.5098  0.2895
 6698SOL    HW131553   1.362   0.846   5.952 -0.5414 -0.3780 -0.4424
 6698SOL    HW231554   1.463   0.944   5.905 -1.0206 -2.1119 -1.4560
 6699SOL     OW31555   3.158   3.643   2.899  0.5791 -0.0437  0.2415
 6699SOL    HW131556   3.110   3.690   2.830 -0.0091  1.7409  1.8561
 6699SOL    HW231557   3.125   3.554   2.887 -0.4456  0.2735  0.7043
 6700SOL     OW31558   1.578   2.538   0.939 -0.2232  0.1877 -0.5532
 6700SOL    HW131559   1.594   2.548   0.845  2.9199  2.8368  0.2820
 6700SOL    HW231560   1.671   2.537   0.960  0.1216 -0.1615 -2.0792
 6701SOL     OW31561   3.473   0.385   7.033 -0.0190 -0.1436  0.2161
 6701SOL    HW131562   3.393   0.434   7.051 -0.1578  1.0377 -3.6305
 6701SOL    HW231563   3.522   0.406   7.113 -0.1321  0.4875  0.1239
 6702SOL     OW31564   4.428   1.739   6.592 -0.0334  0.4013 -0.7147
 6702SOL    HW131565   4.439   1.699   6.678 -1.8996 -1.2941 -1.2705
 6702SOL    HW231566   4.439   1.830   6.619 -1.5118  1.0582 -2.3328
 6703SOL     OW31567   2.510   1.785   8.346 -0.1150  0.1556  0.2982
 6703SOL    HW131568   2.423   1.747   8.361  0.2206 -0.9045 -0.4194
 6703SOL    HW231569   2.567   1.709   8.358  0.5964  0.4646 -1.0108
 6704SOL     OW31570   0.901   0.745   0.943  0.3362  0.4018 -0.2827
 6704SOL    HW131571   0.855   0.764   0.862 -0.0430 -0.7352 -0.3358
 6704SOL    HW231572   0.827   0.721   0.999  0.5670  1.3886  0.4588
 6705SOL     OW31573   0.311   0.818   3.497  0.4435  0.7058 -0.3990
 6705SOL    HW131574   0.251   0.757   3.454  0.9884 -0.7279  0.8178
 6705SOL    HW231575   0.396   0.779   3.476  0.2057 -1.0328  1.7530
 6706SOL     OW31576   3.503   1.991   9.679 -0.1458  0.4350 -0.5627
 6706SOL    HW131577   3.455   2.074   9.677  0.6441  0.9413  1.2117
 6706SOL    HW231578   3.449   1.936   9.622  0.5522 -1.2563  0.4073
 6707SOL     OW31579   4.387   4.006   7.891  0.0938  0.2905  0.1926
 6707SOL    HW131580   4.352   3.917   7.890  0.2398  0.2404 -0.4744
 6707SOL    HW231581   4.394   4.017   7.986  0.6996  2.6166 -0.1208
 6708SOL     OW31582   0.127   3.991   8.493 -0.5012 -0.3737 -0.4937
 6708SOL    HW131583   0.136   3.924   8.560  0.2750 -1.0869 -1.3180
 6708SOL    HW231584   0.132   3.955   8.405 -0.6523 -0.8297 -0.3169
 6709SOL     OW31585   0.734   4.651   3.099  0.2670  0.0472 -0.1949
 6709SOL    HW131586   0.728   0.008   3.046  0.7000  0.9163  1.0800
 6709SOL    HW231587   0.727   4.582   3.032  1.5780 -1.3589  1.1154
 6710SOL     OW31588   4.057   4.525   5.294  0.6235  0.0966  0.3031
 6710SOL    HW131589   4.029   4.610   5.328  1.4450 -0.6354  2.8308
 6710SOL    HW231590   4.014   4.522   5.208 -0.1032 -0.5647  0.6897
 6711SOL     OW31591   0.428   0.828  16.155  1.0399 -0.1966  0.0934
 6711SOL    HW131592   0.475   0.860  16.233  0.6904 -0.4602  0.4139
 6711SOL    HW231593   0.339   0.853  16.179  1.7003  3.3704 -1.0849
 6712SOL     OW31594   2.699   4.633   3.214  0.4173  0.1894 -0.2785
 6712SOL    HW131595   2.668   4.679   3.293  2.7956 -0.5015  1.0766
 6712SOL    HW231596   2.735   4.708   3.166 -0.6495  0.1675 -1.0927
 6713SOL     OW31597   3.857   0.774   3.571  0.2644  0.5395 -1.0155
 6713SOL    HW131598   3.890   0.685   3.558 -0.6212  0.1033 -0.2640
 6713SOL    HW231599   3.893   0.828   3.500 -2.2970  1.8877 -1.2803
 6714SOL     OW31600   3.173   2.516  12.208  0.7023 -0.1259  0.5631
 6714SOL    HW131601   3.091   2.508  12.257  0.1560  1.0009 -0.1478
 6714SOL    HW231602   3.188   2.611  12.210 -0.3744  0.1307 -3.1684
 6715SOL     OW31603   3.697   1.252  13.066  0.3104  0.2841 -0.2906
 6715SOL    HW131604   3.606   1.254  13.037  0.7747  1.9896 -1.6874
 6715SOL    HW231605   3.721   1.307  12.991 -0.8332  1.5938  0.2910
 6716SOL     OW31606   4.618   2.505   3.177  0.5337  0.1763  0.7090
 6716SOL    HW131607   4.661   2.509   3.263 -0.1899 -1.2244  1.1359
 6716SOL    HW231608   4.534   2.543   3.204  0.0388 -1.3171  1.2838
 6717SOL     OW31609   0.491   2.336   2.122  0.3816 -0.6241 -0.6765
 6717SOL    HW131610   0.584   2.358   2.130  0.2815 -0.1076 -0.9098
 6717SOL    HW231611   0.481   2.286   2.203  0.6687 -2.5475 -1.8462
 6718SOL     OW31612   2.612   3.733   7.918 -0.3323 -0.4854  0.2603
 6718SOL    HW131613   2.696   3.691   7.935 -1.0511 -2.1215 -0.3360
 6718SOL    HW231614   2.555   3.694   7.984  0.1612  1.5702  1.9292
 6719SOL     OW31615   2.237   3.356   5.924  0.6304 -0.6119  0.2340
 6719SOL    HW131616   2.274   3.321   5.843 -2.0993  0.9677 -1.7122
 6719SOL    HW231617   2.146   3.374   5.900  1.5370  1.5699 -1.5637
 6720SOL     OW31618   2.625   3.387   5.607  0.5718 -0.4510 -0.2016
 6720SOL    HW131619   2.627   3.421   5.697  0.4164 -3.1592  0.8365
 6720SOL    HW231620   2.712   3.349   5.600  0.6021 -0.5396  0.5722
 6721SOL     OW31621   2.267   3.053   0.016 -0.2396 -0.0523 -0.2964
 6721SOL    HW131622   2.336   2.995   0.048 -1.0578 -2.5215 -2.9726
 6721SOL    HW231623   2.290   3.052  17.618 -0.9251  0.5968 -0.4810
 6722SOL     OW31624   2.351   2.729   7.591  0.8293 -0.0735 -0.3260
 6722SOL    HW131625   2.414   2.755   7.658 -1.4896  2.8594  0.7214
 6722SOL    HW231626   2.265   2.746   7.629  1.2183 -2.4671  1.5988
 6723SOL     OW31627   1.345   1.204  12.735  0.6831  0.0502 -0.3997
 6723SOL    HW131628   1.348   1.223  12.829  0.5171  3.4636 -1.0939
 6723SOL    HW231629   1.428   1.157  12.729  0.2306 -0.7512 -0.4476
 6724SOL     OW31630   3.655   3.486  13.141 -1.0149 -0.2646  0.4277
 6724SOL    HW131631   3.631   3.576  13.163  0.2068  0.5504 -1.6558
 6724SOL    HW231632   3.601   3.469  13.064  0.8391 -2.9378 -0.2636
 6725SOL     OW31633   3.452   0.064   8.852  0.0762  0.6531 -0.7561
 6725SOL    HW131634   3.535   0.099   8.819  0.8420 -0.5455 -0.1064
 6725SOL    HW231635   3.441   0.123   8.926 -1.9564 -2.5704  1.5141
 6726SOL     OW31636   0.305   3.614   0.893  0.0174  0.2830 -0.4291
 6726SOL    HW131637   0.347   3.700   0.885 -1.7069  1.0769 -0.8300
 6726SOL    HW231638   0.227   3.627   0.839 -0.4471  1.4876  0.5233
 6727SOL     OW31639   1.708   4.208   4.857  0.0113 -0.0417  0.3215
 6727SOL    HW131640   1.680   4.210   4.765  1.0688 -1.0695 -0.0203
 6727SOL    HW231641   1.736   4.300   4.862 -0.6940  0.0675  2.0540
 6728SOL     OW31642   2.803   2.922   8.759  0.0371  0.3277 -0.0500
 6728SOL    HW131643   2.801   2.880   8.845  0.0540  0.6901  0.1276
 6728SOL    HW231644   2.824   3.012   8.781  0.0497  0.4318 -0.4864
 6729SOL     OW31645   1.909   3.672   9.228 -0.0020  0.3258  0.0125
 6729SOL    HW131646   1.928   3.578   9.229 -0.3106  0.2572 -0.5879
 6729SOL    HW231647   1.827   3.670   9.278  0.1464  1.8156  0.3174
 6730SOL     OW31648   0.065   2.540  10.335  0.4278 -0.4608 -0.6451
 6730SOL    HW131649   0.158   2.544  10.356  0.4519  2.0126 -1.2134
 6730SOL    HW231650   0.073   2.464  10.277  2.4090 -0.7901  0.0570
 6731SOL     OW31651   0.930   1.032   7.300  0.1128 -0.8671  1.1607
 6731SOL    HW131652   1.002   1.016   7.239 -1.2749  3.0126 -1.5253
 6731SOL    HW231653   0.867   0.961   7.288 -1.3053  0.5850  0.0404
 6732SOL     OW31654   2.314   1.246   4.669 -0.1074  0.7139  0.2168
 6732SOL    HW131655   2.252   1.244   4.742  2.4557  1.5896  2.4262
 6732SOL    HW231656   2.261   1.208   4.599 -0.5303 -0.0637  0.9590
 6733SOL     OW31657   2.373   4.085  14.857  0.0029  0.8264 -0.1858
 6733SOL    HW131658   2.442   4.149  14.841 -0.4449  1.2316 -0.4798
 6733SOL    HW231659   2.394   4.021  14.788 -0.9595 -2.2773  2.4134
 6734SOL     OW31660   1.305   2.254   7.100 -0.1439  0.6625  0.5534
 6734SOL    HW131661   1.341   2.328   7.052  0.5974 -0.2096 -0.2131
 6734SOL    HW231662   1.239   2.230   7.035  0.5297  1.9189 -0.5858
 6735SOL     OW31663   0.201   1.934  11.155 -0.3384  0.8985  0.8535
 6735SOL    HW131664   0.157   1.971  11.078  1.0396 -1.0669 -0.8496
 6735SOL    HW231665   0.127   1.898  11.206  0.6447 -0.0163  1.6301
 6736SOL     OW31666   0.116   0.640   3.698 -0.3517 -0.5171 -0.1309
 6736SOL    HW131667   0.168   0.651   3.618  0.2769  1.8967  0.6116
 6736SOL    HW231668   0.189   0.629   3.759 -1.2420  0.2604  1.0783
 6737SOL     OW31669   2.613   2.837   1.865 -0.2921 -0.3991  0.1027
 6737SOL    HW131670   2.698   2.832   1.909 -0.1358 -1.4361 -0.3256
 6737SOL    HW231671   2.616   2.757   1.813  1.0169 -2.2035  2.9906
 6738SOL     OW31672   4.375   3.347   4.671 -0.2002  0.0117  0.0039
 6738SOL    HW131673   4.383   3.441   4.651 -0.2069  0.0888  0.3729
 6738SOL    HW231674   4.337   3.353   4.758  1.4580 -1.4457  0.8372
 6739SOL     OW31675   3.892   0.438  12.459  0.2706 -0.1535 -0.1465
 6739SOL    HW131676   3.915   0.458  12.368 -0.3883  1.5463  0.0735
 6739SOL    HW231677   3.858   0.349  12.448 -1.7384  0.6748 -0.5928
 6740SOL     OW31678   4.166   2.119   8.695  0.4956  0.3529 -0.0239
 6740SOL    HW131679   4.175   2.164   8.611 -1.8519 -0.4854 -0.7244
 6740SOL    HW231680   4.076   2.088   8.695  0.3097  0.8960 -0.5484
 6741SOL     OW31681   2.208   0.088  17.576  0.2947  0.0378  0.3203
 6741SOL    HW131682   2.179   0.105  17.665 -0.1047  2.1108 -0.2023
 6741SOL    HW231683   2.301   0.066  17.576  1.0244  3.2483  2.0799
 6742SOL     OW31684   1.641   4.159   9.889  0.0743  0.2919  0.1006
 6742SOL    HW131685   1.687   4.127   9.967  0.2622 -0.4029 -0.2952
 6742SOL    HW231686   1.592   4.229   9.932  1.2576  0.6214  0.9413
 6743SOL     OW31687   0.674   1.929   8.751 -0.1906  0.2322 -0.1248
 6743SOL    HW131688   0.740   1.881   8.699 -0.1562  0.4349 -0.2689
 6743SOL    HW231689   0.699   1.899   8.838  1.4768 -0.5539 -0.8486
 6744SOL     OW31690   1.543   3.760   2.526  0.0831  0.2444  0.6350
 6744SOL    HW131691   1.545   3.822   2.599  2.2747  0.4120  0.4479
 6744SOL    HW231692   1.538   3.684   2.584  0.5178 -0.9644 -0.9188
 6745SOL     OW31693   1.094   2.460   1.367  0.4325 -0.2243 -0.4673
 6745SOL    HW131694   1.016   2.407   1.350 -1.5530  2.2537  0.8946
 6745SOL    HW231695   1.134   2.450   1.281 -0.4555 -1.5595 -0.7297
 6746SOL     OW31696   3.860   2.398   4.488  0.5943 -0.4442 -0.7904
 6746SOL    HW131697   3.834   2.441   4.569  1.4396  0.7706 -1.1566
 6746SOL    HW231698   3.944   2.439   4.468  0.7138 -0.7757 -0.9646
 6747SOL     OW31699   2.191   3.609   7.502 -0.0991 -0.7441  0.0877
 6747SOL    HW131700   2.198   3.514   7.496  0.7294 -0.7502  1.1340
 6747SOL    HW231701   2.117   3.629   7.445 -0.1806  0.5831  0.6645
 6748SOL     OW31702   3.113   4.218   6.716  0.0038 -0.4955  0.3794
 6748SOL    HW131703   3.064   4.190   6.639  1.2778 -1.0003 -0.2604
 6748SOL    HW231704   3.091   4.146   6.775 -0.4350  0.5101  1.4341
 6749SOL     OW31705   2.734   3.150   6.640  0.1389  0.7639  0.2333
 6749SOL    HW131706   2.733   3.059   6.610 -1.1126  0.7775  0.2445
 6749SOL    HW231707   2.652   3.158   6.689  0.0239 -1.0448  0.3665
 6750SOL     OW31708   3.925   1.297   2.500 -0.0832  0.6049  0.8067
 6750SOL    HW131709   3.884   1.318   2.584  1.0711  0.8184  1.3140
 6750SOL    HW231710   3.858   1.353   2.459 -0.6850 -2.7700 -2.8369
 6751SOL     OW31711   3.247   2.274   7.902 -0.0340 -0.7371  0.6949
 6751SOL    HW131712   3.304   2.216   7.852  0.5257 -1.5556  2.2693
 6751SOL    HW231713   3.167   2.222   7.908 -0.7947  0.3582 -0.0191
 6752SOL     OW31714   0.266   0.089   1.032 -0.1981  0.0132 -0.0770
 6752SOL    HW131715   0.279   0.036   1.110 -1.9386 -0.3587 -0.0319
 6752SOL    HW231716   0.224   0.171   1.060 -1.1378 -0.4015 -0.2555
 6753SOL     OW31717   3.852   1.224  13.732 -0.3163  0.4075 -0.1052
 6753SOL    HW131718   3.922   1.226  13.798  0.5769  0.0750 -1.0411
 6753SOL    HW231719   3.808   1.309  13.736 -2.7393 -0.8917  0.6766
 6754SOL     OW31720   3.472   2.045  11.964  0.3910 -0.0450  0.0490
 6754SOL    HW131721   3.445   2.013  11.878  0.2462  1.4262 -0.4529
 6754SOL    HW231722   3.431   2.131  11.965  0.5723  0.0205  1.0431
 6755SOL     OW31723   3.722   1.283  16.467  0.6136  0.3625  0.2906
 6755SOL    HW131724   3.736   1.191  16.443  0.0326  0.5809 -0.8688
 6755SOL    HW231725   3.733   1.328  16.383  0.2096 -0.7189 -0.3486
 6756SOL     OW31726   3.311   1.071  16.080 -0.2117 -0.3167 -0.0126
 6756SOL    HW131727   3.364   1.118  16.145  1.4132 -0.1215 -1.4569
 6756SOL    HW231728   3.232   1.124  16.066 -0.4715 -0.6975  0.0346
 6757SOL     OW31729   4.294   2.414  17.288  0.1859 -0.0410  0.1461
 6757SOL    HW131730   4.329   2.374  17.368  1.4775  0.4714 -0.1549
 6757SOL    HW231731   4.342   2.496  17.299 -0.7287  0.4429  0.4725
 6758SOL     OW31732   2.177   2.100  14.852  0.2084 -0.1113  0.7020
 6758SOL    HW131733   2.222   2.034  14.800 -0.2950 -0.2588  0.4618
 6758SOL    HW231734   2.153   2.064  14.938  1.2009 -0.9999  0.6195
 6759SOL     OW31735   1.816   2.889   8.692 -0.2135  0.4580 -0.5548
 6759SOL    HW131736   1.896   2.932   8.724 -1.1281  1.3438  0.5365
 6759SOL    HW231737   1.765   2.960   8.652 -0.8046 -1.2812 -2.9035
 6760SOL     OW31738   4.463   0.049   9.932 -0.0445  0.0488 -0.6606
 6760SOL    HW131739   4.545   0.048   9.981 -0.3503  1.8255 -0.1403
 6760SOL    HW231740   4.405   0.001   9.991  1.5996  1.4810  2.0705
 6761SOL     OW31741   0.634   4.284  17.691 -0.0200  0.2781  0.0448
 6761SOL    HW131742   0.677   4.205   0.030  1.8599  2.2418  2.2378
 6761SOL    HW231743   0.618   4.327   0.080 -1.1919 -0.0067 -0.0327
 6762SOL     OW31744   0.228   4.440  15.007 -0.4987  0.2259  0.6436
 6762SOL    HW131745   0.272   4.480  15.083 -1.0736  0.2770  0.9497
 6762SOL    HW231746   0.302   4.381  14.991  0.4558  1.4402  0.5563
 6763SOL     OW31747   1.744   2.485  16.721 -0.6421 -0.0759 -0.2329
 6763SOL    HW131748   1.824   2.519  16.681 -0.6040  1.5619  1.2474
 6763SOL    HW231749   1.760   2.390  16.726  1.4854  0.3248  0.3370
 6764SOL     OW31750   4.314   3.912   2.070  0.2858 -0.2289 -0.6114
 6764SOL    HW131751   4.271   3.969   2.007 -0.4616  0.1945  0.2809
 6764SOL    HW231752   4.400   3.954   2.062 -0.1217  0.5706 -0.7294
 6765SOL     OW31753   2.198   1.614  15.289  0.1706 -0.3884 -0.0593
 6765SOL    HW131754   2.206   1.652  15.202 -0.8354 -0.0396 -0.0069
 6765SOL    HW231755   2.187   1.521  15.270 -0.8567 -0.5652  1.3532
 6766SOL     OW31756   1.767   1.339   6.207 -0.1763 -0.2828  0.8534
 6766SOL    HW131757   1.832   1.306   6.269  0.8678 -0.4873 -0.3336
 6766SOL    HW231758   1.792   1.288   6.130  0.0382 -1.0814  1.4463
 6767SOL     OW31759   0.181   2.378  11.493 -0.0054 -0.2199  1.3586
 6767SOL    HW131760   0.213   2.300  11.448  2.2506  1.1614  0.5343
 6767SOL    HW231761   0.086   2.373  11.492 -0.0008 -0.0038 -0.5822
 6768SOL     OW31762   1.349   1.800   7.651  0.1847 -0.0828  0.0761
 6768SOL    HW131763   1.373   1.762   7.567 -0.1065 -0.7878  0.3126
 6768SOL    HW231764   1.375   1.733   7.714 -1.5903 -0.3561  0.5153
 6769SOL     OW31765   1.022   0.333   9.161 -0.1652  0.3602 -0.0627
 6769SOL    HW131766   1.083   0.265   9.133  0.6061  0.0822  2.3166
 6769SOL    HW231767   1.012   0.299   9.249 -1.0079  0.3563 -0.1582
 6770SOL     OW31768   0.861   3.501   0.765  0.0963 -0.2925  0.4209
 6770SOL    HW131769   0.793   3.568   0.771 -1.0437 -1.3338 -1.0955
 6770SOL    HW231770   0.836   3.433   0.703  1.4644  0.3397 -0.8187
 6771SOL     OW31771   2.466   3.617  14.290 -0.0455 -0.0644  0.4941
 6771SOL    HW131772   2.480   3.693  14.233 -0.8535 -1.7771 -1.9727
 6771SOL    HW231773   2.541   3.561  14.271 -0.3818 -0.3040 -0.1219
 6772SOL     OW31774   3.168   0.820  16.690 -0.6447 -0.8937  0.1889
 6772SOL    HW131775   3.144   0.782  16.774  0.6986 -1.6807  0.2184
 6772SOL    HW231776   3.208   0.744  16.648  0.7234  0.1731 -0.4589
 6773SOL     OW31777   3.746   4.045  17.656 -0.3739 -0.2958 -0.0960
 6773SOL    HW131778   3.724   4.002  17.574 -2.6144 -1.4361  1.0730
 6773SOL    HW231779   3.808   3.984  17.694  1.6320  2.1092  0.5191
 6774SOL     OW31780   4.540   3.152   4.783 -0.0970  0.0274  0.0821
 6774SOL    HW131781   4.497   3.217   4.727  0.4546 -0.2348 -0.6489
 6774SOL    HW231782   4.617   3.140   4.728 -0.7059 -2.1677 -0.2620
 6775SOL     OW31783   2.001   3.230  15.645 -0.2507  0.4343  0.0656
 6775SOL    HW131784   2.036   3.168  15.582  1.8933  1.6749  0.0451
 6775SOL    HW231785   1.914   3.190  15.646 -0.7288  1.4574 -0.2952
 6776SOL     OW31786   2.655   1.898   5.847  0.5119  0.6699  0.3209
 6776SOL    HW131787   2.567   1.887   5.811  0.4717 -0.2256  0.6859
 6776SOL    HW231788   2.633   1.923   5.937 -0.7939 -0.2439  0.2526
 6777SOL     OW31789   2.665   0.854  10.187 -0.0846  0.1594  0.4959
 6777SOL    HW131790   2.590   0.813  10.143  1.8287  0.6553 -3.2035
 6777SOL    HW231791   2.640   0.842  10.279  0.2406  0.3289  0.6067
 6778SOL     OW31792   0.189   2.561  13.279  0.2399  0.2165 -0.0317
 6778SOL    HW131793   0.261   2.612  13.318 -0.5893 -0.7680  2.8045
 6778SOL    HW231794   0.203   2.544  13.186 -0.2582 -1.1311  0.1456
 6779SOL     OW31795   1.685   3.593   0.782 -0.5727 -0.3909  0.0230
 6779SOL    HW131796   1.747   3.550   0.842 -1.4322  2.3605  2.8433
 6779SOL    HW231797   1.727   3.573   0.698  0.2398  1.1952  0.0400
 6780SOL     OW31798   3.489   4.036  15.831 -0.2160  0.8101  0.3680
 6780SOL    HW131799   3.445   3.985  15.762 -1.3536  1.7669  0.3934
 6780SOL    HW231800   3.446   4.002  15.910  1.7214 -0.2706  0.9326
 6781SOL     OW31801   2.141   2.093   1.780  0.0271  0.2964  0.3024
 6781SOL    HW131802   2.145   2.061   1.690  0.9259 -1.4563  0.9719
 6781SOL    HW231803   2.190   2.175   1.773  0.5815 -0.0595 -0.0287
 6782SOL     OW31804   2.480   3.016   7.972 -0.8614 -0.1068  0.1455
 6782SOL    HW131805   2.444   3.000   8.060  2.5071  0.5153  1.6217
 6782SOL    HW231806   2.411   2.976   7.919 -0.2054 -0.5523 -0.3638
 6783SOL     OW31807   1.830   3.738   7.148 -0.0820  0.0859 -0.1468
 6783SOL    HW131808   1.840   3.784   7.065 -2.4275  1.3906  0.3161
 6783SOL    HW231809   1.801   3.654   7.111  3.1116 -1.4858  0.9301
 6784SOL     OW31810   3.211   2.021   7.739  0.0099  0.6396 -0.2988
 6784SOL    HW131811   3.147   2.063   7.798  0.3018  0.9435 -0.2010
 6784SOL    HW231812   3.269   1.982   7.804 -0.6858  0.2311  0.0779
 6785SOL     OW31813   4.678   0.427   3.689  0.4085  0.0565  0.6316
 6785SOL    HW131814   0.032   0.392   3.644 -0.6397 -0.2391 -0.9365
 6785SOL    HW231815   4.698   0.519   3.674  0.7040 -0.0331  0.4678
 6786SOL     OW31816   2.867   1.936  17.470 -0.3450  0.0370  0.8700
 6786SOL    HW131817   2.781   1.960  17.504  0.6689  4.5994  0.2480
 6786SOL    HW231818   2.906   2.020  17.445 -0.7284 -0.0965 -0.1874
 6787SOL     OW31819   2.261   2.970   6.819  0.5610 -0.0340  0.1044
 6787SOL    HW131820   2.235   2.878   6.825 -0.6747  0.2867 -0.1720
 6787SOL    HW231821   2.211   2.994   6.897 -0.0874  0.1722 -0.3661
 6788SOL     OW31822   3.474   1.079   8.933 -0.1585  0.3401  0.1386
 6788SOL    HW131823   3.489   1.019   8.860 -1.1632 -0.2181  0.3948
 6788SOL    HW231824   3.382   1.057   8.950 -0.0819 -0.3339 -0.3607
 6789SOL     OW31825   1.995   1.788   1.230 -0.1048 -0.2825 -0.4270
 6789SOL    HW131826   1.962   1.873   1.260  0.7508  0.6826 -2.1934
 6789SOL    HW231827   2.026   1.753   1.314  0.6118 -0.4167 -0.7486
 6790SOL     OW31828   3.391   4.605   2.374 -0.6136 -0.2592 -0.5615
 6790SOL    HW131829   3.433   4.685   2.342 -3.4354  1.8240  0.9638
 6790SOL    HW231830   3.437   4.589   2.456 -0.4086  0.0663 -0.6093
 6791SOL     OW31831   1.061   1.637   8.927  0.4065 -0.5301 -0.0915
 6791SOL    HW131832   1.146   1.597   8.945 -0.9471 -2.2502  2.5472
 6791SOL    HW231833   1.032   1.669   9.013  0.1335  3.1826 -1.5590
 6792SOL     OW31834   1.401   3.639  12.062  0.2468  0.3768 -0.9130
 6792SOL    HW131835   1.489   3.631  12.025  1.0082  1.0367  0.7795
 6792SOL    HW231836   1.377   3.553  12.097  2.0806 -0.2272 -1.1482
 6793SOL     OW31837   1.194   2.476   9.962 -0.2795  0.0330 -0.1807
 6793SOL    HW131838   1.130   2.522  10.017  0.3288  1.6738 -0.8593
 6793SOL    HW231839   1.269   2.467  10.020 -1.4719 -1.2436  1.1768
 6794SOL     OW31840   2.978   2.784   6.340  0.4024  0.1904 -0.7476
 6794SOL    HW131841   2.947   2.747   6.257 -3.5781  0.9706  0.4111
 6794SOL    HW231842   2.936   2.731   6.408 -0.6398 -0.2502 -1.7396
 6795SOL     OW31843   2.305   0.089   4.712 -0.0645  1.0260 -0.0056
 6795SOL    HW131844   2.344   0.104   4.798 -0.7593  1.2066  0.2799
 6795SOL    HW231845   2.278   0.179   4.694 -0.5224  1.0864  0.9911
 6796SOL     OW31846   4.671   3.992  12.023 -0.6771 -0.6616 -0.3153
 6796SOL    HW131847   4.630   3.970  12.106 -0.1827  2.3968  0.7338
 6796SOL    HW231848   0.011   3.921  12.023  0.5339  0.4219 -0.0679
 6797SOL     OW31849   3.120   0.018   5.381 -0.5570 -0.0441  0.5296
 6797SOL    HW131850   3.159   4.654   5.391 -0.9881 -0.5272 -2.0708
 6797SOL    HW231851   3.129   0.049   5.471 -0.5607 -3.1312  1.6087
 6798SOL     OW31852   0.059   2.676   2.524 -0.0905 -0.1527  0.1416
 6798SOL    HW131853   0.125   2.609   2.505  0.2421 -0.3869  2.0687
 6798SOL    HW231854   4.704   2.634   2.488 -0.3831  0.4126  0.1201
 6799SOL     OW31855   4.642   4.555  13.150 -0.4185  0.0351 -0.0206
 6799SOL    HW131856   4.558   4.599  13.136 -0.1989 -0.4412 -2.8408
 6799SOL    HW231857   4.618   4.465  13.129 -4.1248  1.0763 -0.2460
 6800SOL     OW31858   3.573   2.449   5.509  0.6289  0.4972  0.1703
 6800SOL    HW131859   3.558   2.539   5.482  0.8709  0.6621  0.5880
 6800SOL    HW231860   3.560   2.449   5.604 -0.3636  3.0978  0.0162
 6801SOL     OW31861   0.138   4.051   1.834  0.0823  0.4319  0.0874
 6801SOL    HW131862   0.144   4.010   1.920  1.4579 -0.3415 -0.3692
 6801SOL    HW231863   0.220   4.099   1.822 -0.3042  0.9862 -0.2985
 6802SOL     OW31864   1.757   3.661   2.813 -0.3503  0.7365 -0.8266
 6802SOL    HW131865   1.730   3.665   2.905  0.7932  1.1249 -0.5119
 6802SOL    HW231866   1.672   3.633   2.778  0.3050 -4.0199  1.2931
 6803SOL     OW31867   1.754   3.125  13.076  0.0617 -0.4413  0.1273
 6803SOL    HW131868   1.663   3.106  13.055 -0.3477  0.1546  1.3791
 6803SOL    HW231869   1.784   3.034  13.070  2.6739  0.5239 -1.6565
 6804SOL     OW31870   0.470   2.034  11.171  0.1635 -0.2281  0.4622
 6804SOL    HW131871   0.379   2.007  11.167  0.8801 -2.7144  1.2248
 6804SOL    HW231872   0.496   1.998  11.086  2.7806  0.4808  0.9510
 6805SOL     OW31873   0.414   2.044   3.398  0.0242  0.0006  0.3198
 6805SOL    HW131874   0.479   1.978   3.423  0.2237  0.0741 -0.0057
 6805SOL    HW231875   0.443   2.119   3.451 -0.1829  0.8546 -0.7745
 6806SOL     OW31876   2.808   1.177   9.429 -0.4133 -0.0732 -0.4389
 6806SOL    HW131877   2.767   1.097   9.464 -0.9784  0.5496  0.3144
 6806SOL    HW231878   2.838   1.221   9.508 -2.2549 -1.0408  0.8117
 6807SOL     OW31879   4.540   3.709   7.082 -0.6681 -0.5485  0.0737
 6807SOL    HW131880   4.633   3.722   7.100 -0.1421 -0.6622 -2.6029
 6807SOL    HW231881   4.537   3.733   6.990 -0.4083  0.2672  0.2748
 6808SOL     OW31882   4.353   4.099  12.139 -0.1913 -0.4944 -0.0988
 6808SOL    HW131883   4.341   4.080  12.045  1.3421 -2.1875  0.0566
 6808SOL    HW231884   4.438   4.057  12.151  0.2543  0.9450  1.6470
 6809SOL     OW31885   4.714   3.488   4.593 -0.8147 -0.1155 -0.3251
 6809SOL    HW131886   0.072   3.514   4.550 -2.3078  1.3502 -2.3029
 6809SOL    HW231887   4.683   3.421   4.532 -0.4986  2.0555 -2.8936
 6810SOL     OW31888   3.816   1.151  15.522  0.1072 -0.4950  0.0912
 6810SOL    HW131889   3.785   1.157  15.432  0.4235  0.0993  0.0233
 6810SOL    HW231890   3.907   1.181  15.527 -0.5312  1.4400 -0.0323
 6811SOL     OW31891   1.138   1.511  11.799  0.0146 -0.5038  0.8654
 6811SOL    HW131892   1.051   1.474  11.809 -1.8817  2.7408 -3.8854
 6811SOL    HW231893   1.155   1.492  11.707  0.9483  3.0982  0.2990
 6812SOL     OW31894   3.288   4.699  16.138  0.5326  0.0516  0.4909
 6812SOL    HW131895   3.266   0.004  16.049  0.7907 -1.2321  0.0110
 6812SOL    HW231896   3.229   4.625  16.155 -0.2744  0.5325 -0.1945
 6813SOL     OW31897   3.779   0.655   2.511  0.0583 -0.0313 -0.5810
 6813SOL    HW131898   3.791   0.670   2.605 -2.2540 -1.2602 -0.0926
 6813SOL    HW231899   3.795   0.745   2.482 -2.1022  0.4680 -0.1868
 6814SOL     OW31900   4.410   4.280   9.939 -0.3353 -0.2157  0.2939
 6814SOL    HW131901   4.420   4.306  10.030 -1.7630 -2.0299  0.9582
 6814SOL    HW231902   4.328   4.232   9.944 -1.2003  1.2441  0.2193
 6815SOL     OW31903   0.272   0.993  12.825  0.9647 -0.4492 -0.0787
 6815SOL    HW131904   0.366   1.011  12.822  0.6379  0.7868 -2.8457
 6815SOL    HW231905   0.243   1.061  12.764  0.1703  0.7811  1.6797
 6816SOL     OW31906   3.048   1.746   4.930 -0.1771 -0.0567 -0.0257
 6816SOL    HW131907   3.050   1.689   4.853 -1.7877 -1.8147  1.2330
 6816SOL    HW231908   3.042   1.682   5.000  0.8667 -0.0810  0.0311
 6817SOL     OW31909   1.731   1.533   3.760  0.1148  0.5081  0.9468
 6817SOL    HW131910   1.821   1.508   3.735 -0.4322  0.4076 -0.9167
 6817SOL    HW231911   1.735   1.511   3.853  3.8602  1.5569  1.0414
 6818SOL     OW31912   0.530   0.513   1.925 -0.1519  0.0133  0.4177
 6818SOL    HW131913   0.565   0.581   1.983 -0.5726 -1.8788  2.9212
 6818SOL    HW231914   0.501   0.568   1.853  1.1437 -1.3656 -1.1482
 6819SOL     OW31915   1.014   3.410   4.782  0.0611 -0.3715 -0.0708
 6819SOL    HW131916   1.104   3.387   4.759 -0.3436 -0.7166 -1.2904
 6819SOL    HW231917   1.012   3.417   4.878 -2.7328  0.9011 -0.2175
 6820SOL     OW31918   0.339   0.627   9.295  0.0651 -0.3697  0.5339
 6820SOL    HW131919   0.369   0.701   9.242 -0.7412  0.0878  0.7162
 6820SOL    HW231920   0.268   0.600   9.237  0.4868 -0.1175 -0.0982
 6821SOL     OW31921   4.454   3.348   3.346  0.2199 -0.9018 -0.3259
 6821SOL    HW131922   4.374   3.295   3.339  0.9005 -1.9968  0.1757
 6821SOL    HW231923   4.433   3.387   3.431 -1.7508 -1.8577 -0.3670
 6822SOL     OW31924   1.382   1.531  17.347 -0.1723  0.6992  0.7584
 6822SOL    HW131925   1.475   1.510  17.347 -0.2220  0.4896  1.6766
 6822SOL    HW231926   1.346   1.479  17.275  1.0327  0.8839  0.0126
 6823SOL     OW31927   3.371   0.160   3.588  0.0482 -0.3210 -0.4398
 6823SOL    HW131928   3.363   0.166   3.683  1.4724  1.0799 -0.4224
 6823SOL    HW231929   3.454   0.115   3.572 -0.5904 -1.5513 -0.3059
 6824SOL     OW31930   2.385   3.353   4.500  0.5381  0.3188  0.7381
 6824SOL    HW131931   2.435   3.434   4.511  1.6997 -0.2526 -0.4194
 6824SOL    HW231932   2.294   3.380   4.489 -0.2252 -1.5242  2.3672
 6825SOL     OW31933   4.547   4.666   2.655  0.3286 -0.0002 -0.1741
 6825SOL    HW131934   4.483   0.008   2.684  0.9062  0.0084  1.1107
 6825SOL    HW231935   4.485   4.593   2.656 -0.3921  0.6383  1.7574
 6826SOL     OW31936   0.409   0.246  17.352  0.2434 -0.2956 -0.1505
 6826SOL    HW131937   0.423   0.328  17.306 -0.2567 -0.6993 -1.0149
 6826SOL    HW231938   0.495   0.208  17.331 -0.3742 -0.3254 -2.5795
 6827SOL     OW31939   3.143   4.238   2.412  0.1155 -0.1481  0.2809
 6827SOL    HW131940   3.156   4.289   2.492  2.1197 -2.2770  1.3111
 6827SOL    HW231941   3.049   4.224   2.422 -0.0751  1.5527  0.7993
 6828SOL     OW31942   3.548   2.013  10.662  0.6339  0.0096 -0.1613
 6828SOL    HW131943   3.529   1.940  10.721 -2.7004  0.6896 -0.4139
 6828SOL    HW231944   3.477   1.997  10.601  0.6277  1.1677 -0.4627
 6829SOL     OW31945   2.226   3.004   2.150 -0.3927 -0.7208  1.1924
 6829SOL    HW131946   2.258   3.077   2.096 -1.3797  0.3599  2.0713
 6829SOL    HW231947   2.290   2.936   2.132  0.1055 -0.0927  0.5918
 6830SOL     OW31948   4.294   0.980   4.272 -0.1336 -0.0551  0.5423
 6830SOL    HW131949   4.283   0.965   4.366  1.9463  2.3582  1.1710
 6830SOL    HW231950   4.348   0.906   4.243  1.5350  1.1138  0.6378
 6831SOL     OW31951   1.243   2.744   4.201 -0.1630  0.1249  0.8209
 6831SOL    HW131952   1.303   2.688   4.249  0.5818 -1.1363 -1.5765
 6831SOL    HW231953   1.199   2.793   4.271 -1.6247  0.1993 -0.1305
 6832SOL     OW31954   0.233   0.918   3.125 -0.1174 -0.1736  0.3114
 6832SOL    HW131955   0.215   0.929   3.031 -0.7655 -0.2304  0.4297
 6832SOL    HW231956   0.145   0.930   3.160  0.7694 -1.6017  2.9943
 6833SOL     OW31957   1.667   4.131  15.748 -0.2509 -0.1014 -0.0836
 6833SOL    HW131958   1.728   4.160  15.680 -2.3565 -0.6432 -2.2336
 6833SOL    HW231959   1.716   4.051  15.767 -1.0689 -0.4660  0.4661
 6834SOL     OW31960   2.495   0.947  16.504 -0.2606  0.1594 -0.1527
 6834SOL    HW131961   2.519   0.857  16.527  0.4610  0.6658  1.1022
 6834SOL    HW231962   2.571   0.970  16.451 -1.0967  0.7094 -1.1147
 6835SOL     OW31963   2.288   2.739   4.308 -0.3017 -0.1608  0.0546
 6835SOL    HW131964   2.384   2.744   4.313 -0.2066 -2.8728  1.0988
 6835SOL    HW231965   2.279   2.661   4.363  0.0806 -0.3394 -0.1303
 6836SOL     OW31966   1.581   4.150   0.380 -0.3028 -0.0561  0.5183
 6836SOL    HW131967   1.600   4.157   0.286  0.7473  0.9764  0.8097
 6836SOL    HW231968   1.575   4.054   0.384  0.0168  0.0286  2.8276
 6837SOL     OW31969   4.129   0.852  10.498  0.2959 -0.7277 -0.3528
 6837SOL    HW131970   4.034   0.841  10.495  0.1602  0.3305 -0.1005
 6837SOL    HW231971   4.141   0.868  10.592 -3.4669  1.3111 -0.2361
 6838SOL     OW31972   1.780   4.616   3.831  0.3933  0.2480  0.2589
 6838SOL    HW131973   1.847   4.636   3.897 -0.3761  2.0600  0.5061
 6838SOL    HW231974   1.738   4.699   3.807 -1.3872 -0.6379  0.3023
 6839SOL     OW31975   2.080   3.717   6.163  0.0875 -0.7458 -0.1726
 6839SOL    HW131976   1.985   3.723   6.164  0.0115 -2.4616  2.1251
 6839SOL    HW231977   2.105   3.780   6.231  0.9677  0.7717 -1.8946
 6840SOL     OW31978   4.227   2.488  11.243 -0.1134 -0.7998  0.3146
 6840SOL    HW131979   4.208   2.546  11.169  1.2888  1.0176  1.3639
 6840SOL    HW231980   4.323   2.486  11.248 -0.0182 -1.6036 -1.8330
 6841SOL     OW31981   4.567   3.045  15.180 -0.0667 -0.1529  0.2155
 6841SOL    HW131982   4.549   3.076  15.092  0.2793  1.5892  0.7525
 6841SOL    HW231983   4.530   3.118  15.230 -2.1180 -1.8552  1.2131
 6842SOL     OW31984   1.527   0.034   2.712  0.1650 -0.0722 -0.2271
 6842SOL    HW131985   1.597   0.023   2.776  1.3540 -1.7665 -1.8307
 6842SOL    HW231986   1.501   4.670   2.684  0.5479 -0.6270  1.1551
 6843SOL     OW31987   0.992   2.075   2.729 -1.3855 -0.3615  0.1215
 6843SOL    HW131988   1.060   2.007   2.731 -1.2582 -0.2711 -0.7886
 6843SOL    HW231989   0.988   2.104   2.820  1.9480  1.6979 -0.3847
 6844SOL     OW31990   3.705   1.661   4.228 -0.1642  0.0685  0.0930
 6844SOL    HW131991   3.726   1.638   4.319  2.4306  0.3428 -0.4554
 6844SOL    HW231992   3.791   1.628   4.204 -0.8383 -0.4549 -1.6033
 6845SOL     OW31993   4.499   4.549   4.268 -0.0061  0.0394  0.0178
 6845SOL    HW131994   4.445   4.627   4.280 -0.2508 -0.1816  0.3605
 6845SOL    HW231995   4.436   4.486   4.302  0.6683  1.5614  4.1595
 6846SOL     OW31996   3.073   0.410   1.830  0.5280 -0.5949  0.3987
 6846SOL    HW131997   3.103   0.353   1.759 -1.1373 -0.4958 -0.3676
 6846SOL    HW231998   3.133   0.379   1.899  2.9590 -0.8422 -1.8361
 6847SOL     OW31999   4.175   1.919   6.215  0.7891  0.2558  0.0544
 6847SOL    HW132000   4.227   1.856   6.263  1.2207  0.7135  0.1839
 6847SOL    HW232001   4.202   1.894   6.127  0.1816  1.1606 -0.3933
 6848SOL     OW32002   4.251   0.796   0.516 -0.0666 -0.5981  0.1716
 6848SOL    HW132003   4.163   0.819   0.487 -0.2123  0.4153  1.4327
 6848SOL    HW232004   4.247   0.838   0.602  0.8867  1.3025 -0.7306
 6849SOL     OW32005   3.104   3.224   2.251  0.0809 -0.1328  0.0283
 6849SOL    HW132006   3.023   3.175   2.267 -0.4961 -0.5162 -4.0477
 6849SOL    HW232007   3.162   3.162   2.207 -0.9670  0.0209 -1.5885
 6850SOL     OW32008   2.844   1.175   6.374  0.4163 -0.3056 -0.4127
 6850SOL    HW132009   2.786   1.104   6.403  0.0943  0.1878  0.1288
 6850SOL    HW232010   2.779   1.228   6.328 -0.2348 -0.3379  0.4772
 6851SOL     OW32011   0.498   2.449  14.416  0.6501  0.2144  0.8335
 6851SOL    HW132012   0.590   2.475  14.415  1.5217 -2.8920  0.7802
 6851SOL    HW232013   0.451   2.501  14.482 -0.9193  0.5857 -0.5678
 6852SOL     OW32014   4.064   2.878  13.546  0.1250  0.5015  0.3823
 6852SOL    HW132015   4.158   2.856  13.546 -0.0336 -0.1716 -0.0400
 6852SOL    HW232016   4.057   2.957  13.600 -2.8494  1.3294 -1.2401
 6853SOL     OW32017   3.902   2.328   5.705 -0.1807 -0.7390  0.2115
 6853SOL    HW132018   3.881   2.357   5.794  1.8277 -0.7071  0.6767
 6853SOL    HW232019   3.830   2.265   5.699 -1.2596  0.7518 -2.3200
 6854SOL     OW32020   0.525   4.494   2.201 -0.0595  0.3722 -0.0397
 6854SOL    HW132021   0.465   4.486   2.127 -0.5743  1.0512  0.3041
 6854SOL    HW232022   0.607   4.522   2.160  0.3591 -0.0301  0.5173
 6855SOL     OW32023   1.159   2.378   4.375  0.3691  0.1578  0.0553
 6855SOL    HW132024   1.120   2.454   4.332 -1.5587 -1.1294 -0.4333
 6855SOL    HW232025   1.242   2.417   4.402  1.0454 -0.7740 -0.6673
 6856SOL     OW32026   0.967   2.165   8.746  0.3469  0.3653 -0.4170
 6856SOL    HW132027   0.995   2.076   8.767  0.6510  0.3120 -1.0356
 6856SOL    HW232028   0.963   2.210   8.830 -1.9673 -2.3818  0.9727
 6857SOL     OW32029   1.153   2.386   3.143  0.0799 -0.7144 -0.5004
 6857SOL    HW132030   1.167   2.347   3.229  0.3417 -0.4871 -0.4363
 6857SOL    HW232031   1.163   2.314   3.081  2.9733 -0.0318 -0.8380
 6858SOL     OW32032   0.287   0.006   1.282 -0.2567 -0.4844  0.1246
 6858SOL    HW132033   0.376   0.023   1.315 -0.7111  3.3265 -0.6316
 6858SOL    HW232034   0.240   0.072   1.333 -0.6759 -2.2918  2.0551
 6859SOL     OW32035   1.767   3.006   4.721 -0.2298 -0.0710 -0.1319
 6859SOL    HW132036   1.702   3.060   4.675 -0.3742 -0.2585 -0.1503
 6859SOL    HW232037   1.802   2.961   4.645 -0.9908 -0.3112 -0.3409
 6860SOL     OW32038   2.502   0.873   3.763  0.3520  0.5876 -0.3042
 6860SOL    HW132039   2.417   0.841   3.791  0.1471  1.0020 -0.4565
 6860SOL    HW232040   2.557   0.895   3.838 -1.1524  1.1321  0.6315
 6861SOL     OW32041   1.101   0.680  12.538 -0.0768  0.0165  0.4021
 6861SOL    HW132042   1.055   0.710  12.460 -1.8164 -2.4961  0.4514
 6861SOL    HW232043   1.048   0.732  12.598 -1.2741  1.1028 -1.6090
 6862SOL     OW32044   4.538   0.027  11.645  0.7819 -0.4686  0.1949
 6862SOL    HW132045   4.569   4.689  11.579 -0.3259  0.2949 -1.0186
 6862SOL    HW232046   4.536   4.696  11.724 -1.3032  0.3821  0.7171
 6863SOL     OW32047   3.156   2.253   2.802 -0.0723  0.1715  0.5897
 6863SOL    HW132048   3.227   2.246   2.866  1.9440  1.5243 -1.5308
 6863SOL    HW232049   3.074   2.281   2.844  0.0168  2.9542 -1.1688
 6864SOL     OW32050   1.804   2.263  16.443 -0.5035 -0.2966  0.2657
 6864SOL    HW132051   1.726   2.313  16.467 -0.2990  0.2453 -0.1911
 6864SOL    HW232052   1.778   2.238  16.355  0.1907 -1.0151  0.2650
 6865SOL     OW32053   2.527   2.989  15.464  0.5164 -0.3113  0.1960
 6865SOL    HW132054   2.608   2.994  15.514  0.0832  0.2216  0.8544
 6865SOL    HW232055   2.530   3.073  15.417 -0.8672 -1.0051 -1.1455
 6866SOL     OW32056   2.744   4.020   8.198 -0.3100 -0.2031  0.4207
 6866SOL    HW132057   2.782   3.976   8.274  4.4373  2.5486 -0.3948
 6866SOL    HW232058   2.755   4.111   8.228  0.5391  0.3887 -1.7050
 6867SOL     OW32059   0.505   4.278  10.548  0.2520  0.5319  0.4380
 6867SOL    HW132060   0.449   4.212  10.507  0.8574  0.8101 -0.8529
 6867SOL    HW232061   0.502   4.250  10.639 -0.5572 -1.9772 -0.3650
 6868SOL     OW32062   0.639   0.194   3.458 -0.0470 -0.1803 -0.0294
 6868SOL    HW132063   0.662   0.109   3.421 -1.7937 -2.1386  3.3715
 6868SOL    HW232064   0.690   0.189   3.539 -2.3478  0.4868  1.4355
 6869SOL     OW32065   4.349   1.722   5.644 -0.1692 -0.5487  0.4659
 6869SOL    HW132066   4.333   1.803   5.595  0.0277 -0.1977  0.9779
 6869SOL    HW232067   4.385   1.756   5.726 -0.6051  0.3663  0.2807
 6870SOL     OW32068   4.384   4.366  14.465 -0.2434  0.5931 -0.0278
 6870SOL    HW132069   4.447   4.400  14.529  1.0119 -1.8413  0.0019
 6870SOL    HW232070   4.366   4.448  14.418 -2.2539 -0.1485 -0.5720
 6871SOL     OW32071   0.781   3.528   4.682  0.6991 -0.3670  0.2611
 6871SOL    HW132072   0.777   3.494   4.592  0.5446 -1.3962  0.6551
 6871SOL    HW232073   0.854   3.469   4.704 -0.0658 -0.2561  3.0559
 6872SOL     OW32074   2.051   3.313   3.044  0.1422  0.3117  0.4118
 6872SOL    HW132075   2.092   3.285   3.126 -0.1978 -0.5650  0.2839
 6872SOL    HW232076   2.114   3.385   3.037  1.7160 -1.4630 -3.7664
 6873SOL     OW32077   4.465   3.564   3.141  0.3345 -0.3675  0.4440
 6873SOL    HW132078   4.457   3.497   3.208 -1.0754  0.2005  0.8408
 6873SOL    HW232079   4.408   3.630   3.180 -0.2089 -0.1210 -0.7749
 6874SOL     OW32080   1.419   2.187   5.813 -0.4096 -0.2415  0.2963
 6874SOL    HW132081   1.462   2.180   5.898  0.5127 -1.1815 -0.2527
 6874SOL    HW232082   1.497   2.199   5.759 -0.8539 -0.4380 -0.3962
 6875SOL     OW32083   4.198   3.886   0.070  0.0253 -0.4232 -0.4340
 6875SOL    HW132084   4.106   3.893   0.047 -0.0004  0.0710 -0.1691
 6875SOL    HW232085   4.238   3.943   0.004  0.7722 -0.5112 -0.0627
 6876SOL     OW32086   2.682   4.280   3.045  0.0090 -0.7035  0.1207
 6876SOL    HW132087   2.730   4.227   3.110  1.2014 -1.6582 -1.5517
 6876SOL    HW232088   2.696   4.232   2.963  0.8434  1.4206 -0.9580
 6877SOL     OW32089   2.232   0.567   5.650  0.2406 -0.2585 -0.1725
 6877SOL    HW132090   2.325   0.546   5.666 -0.5019 -2.0197  1.8260
 6877SOL    HW232091   2.236   0.654   5.611 -1.3636  0.2436  0.7904
 6878SOL     OW32092   0.165   0.610   7.682  0.1149 -0.2512 -0.2004
 6878SOL    HW132093   0.173   0.662   7.761  0.7021 -0.4887 -0.0980
 6878SOL    HW232094   0.114   0.672   7.630 -0.2515  0.9880  1.6420
 6879SOL     OW32095   4.354   0.159   2.707 -0.0841  0.4166  0.3771
 6879SOL    HW132096   4.359   0.139   2.800 -1.5516  0.2970  0.4286
 6879SOL    HW232097   4.260   0.167   2.690 -0.4457 -1.4027  1.4669
 6880SOL     OW32098   3.060   3.653   6.556  1.2857 -0.0255 -0.0237
 6880SOL    HW132099   2.996   3.705   6.508  1.2321  0.0485  0.1283
 6880SOL    HW232100   3.045   3.571   6.509 -1.1679  1.0096 -1.0404
 6881SOL     OW32101   4.017   3.712   3.523  0.4398 -0.3955 -0.6692
 6881SOL    HW132102   4.004   3.623   3.493  0.2049 -0.4264 -0.4787
 6881SOL    HW232103   4.104   3.734   3.489  0.9293 -0.0211  0.8072
 6882SOL     OW32104   3.350   0.475   3.732  0.2848 -0.0330  0.0884
 6882SOL    HW132105   3.334   0.405   3.795 -0.2265  1.1542  1.2629
 6882SOL    HW232106   3.400   0.422   3.669 -1.2232 -0.4160 -0.7968
 6883SOL     OW32107   1.707   0.890   8.335 -0.4367  0.0389  0.2229
 6883SOL    HW132108   1.614   0.866   8.344 -0.5496  0.5869  0.5223
 6883SOL    HW232109   1.744   0.802   8.344  2.7079  1.1058 -2.7806
 6884SOL     OW32110   2.434   4.636   7.241 -1.1803  0.2929 -0.9496
 6884SOL    HW132111   2.466   4.553   7.205 -0.8391 -0.7558  1.8408
 6884SOL    HW232112   2.445   4.607   7.331  0.7000  2.1792 -0.5765
 6885SOL     OW32113   3.096   0.898   5.749 -0.7099  0.3688  0.2450
 6885SOL    HW132114   3.044   0.825   5.784 -1.5021  0.2123 -1.2740
 6885SOL    HW232115   3.133   0.862   5.668  1.5953  0.8514  1.0938
 6886SOL     OW32116   0.040   2.076   2.257 -0.3982  0.6074  0.4871
 6886SOL    HW132117   0.047   2.082   2.352 -2.0030 -2.9793  0.8681
 6886SOL    HW232118   0.121   2.111   2.220 -1.8109  0.4785 -2.7027
 6887SOL     OW32119   3.232   0.677  13.674  0.4256  0.2472  0.2591
 6887SOL    HW132120   3.302   0.644  13.730 -0.5262  2.9769  3.0707
 6887SOL    HW232121   3.269   0.698  13.589  1.0840 -0.8408  0.2820
 6888SOL     OW32122   2.340   4.570  11.841  0.4754  0.5056 -0.3588
 6888SOL    HW132123   2.277   4.638  11.863  0.1862  0.7226 -1.8377
 6888SOL    HW232124   2.412   4.621  11.806  2.2911 -1.2391  0.8075
 6889SOL     OW32125   0.895   2.068   2.034 -0.2147  0.2956 -0.2516
 6889SOL    HW132126   0.856   2.120   2.105  0.2503 -0.1383  0.3206
 6889SOL    HW232127   0.826   2.071   1.967  0.3439 -1.4452 -0.8954
 6890SOL     OW32128   3.901   0.511   3.195  0.1832 -0.3714 -0.1001
 6890SOL    HW132129   3.960   0.467   3.134  0.6352 -1.2008  0.9311
 6890SOL    HW232130   3.940   0.474   3.275 -0.0072 -1.3342 -0.4557
 6891SOL     OW32131   0.560   3.025  10.793 -0.3490  0.2692  0.8441
 6891SOL    HW132132   0.466   3.016  10.811 -0.2555 -0.7615  0.7847
 6891SOL    HW232133   0.557   3.069  10.708 -0.3926  0.1067  0.7612
 6892SOL     OW32134   0.881   2.146   6.787 -0.1966 -0.2440  0.0069
 6892SOL    HW132135   0.864   2.111   6.700 -0.7290  1.9371 -0.7550
 6892SOL    HW232136   0.795   2.175   6.817  0.3643  0.8176  0.6246
 6893SOL     OW32137   0.325   1.216  15.129 -0.0359  0.4073 -0.7211
 6893SOL    HW132138   0.405   1.166  15.110  0.5803  0.9964  0.2850
 6893SOL    HW232139   0.330   1.290  15.068  3.4872  0.4561 -0.4232
 6894SOL     OW32140   3.126   4.459  10.573 -0.0631 -0.0310  0.7521
 6894SOL    HW132141   3.211   4.489  10.605 -0.0744  0.2140  0.5472
 6894SOL    HW232142   3.119   4.365  10.590 -2.7749  0.2688  1.3580
 6895SOL     OW32143   3.897   0.092   1.849 -0.5476  0.0508 -0.3789
 6895SOL    HW132144   3.973   0.087   1.907  1.4042 -1.0784 -3.0281
 6895SOL    HW232145   3.825   0.073   1.910 -1.8471 -0.0671 -1.9531
 6896SOL     OW32146   2.987   2.970  10.108  0.1218  0.8008  0.2260
 6896SOL    HW132147   2.942   2.993  10.026 -0.1984 -0.5211  0.0215
 6896SOL    HW232148   2.917   2.933  10.161  0.0724  1.8942  0.9169
 6897SOL     OW32149   0.064   1.514   8.479 -0.1997 -0.1333  0.6197
 6897SOL    HW132150   0.138   1.562   8.442 -0.3511 -1.0838 -0.9041
 6897SOL    HW232151   0.074   1.533   8.572 -0.6738 -1.3660  0.9200
 6898SOL     OW32152   1.914   1.087   3.489  0.0971  0.4981  0.4987
 6898SOL    HW132153   1.863   1.167   3.493 -0.2545  0.2949 -0.0166
 6898SOL    HW232154   1.855   1.017   3.461 -0.5885  1.0573  0.5587
 6899SOL     OW32155   1.629   4.662   6.315  1.0165 -0.6653  0.5453
 6899SOL    HW132156   1.617   0.009   6.379 -0.7550 -0.5106  0.0514
 6899SOL    HW232157   1.536   4.641   6.309  0.8219  0.5559 -0.7465
 6900SOL     OW32158   2.395   3.644   2.054 -0.4733  0.2031 -0.3421
 6900SOL    HW132159   2.452   3.646   2.130 -0.9945 -1.2459  0.0898
 6900SOL    HW232160   2.317   3.612   2.100 -0.0025 -0.9486 -0.3419
 6901SOL     OW32161   0.673   1.587  14.447  0.0425 -0.0428 -0.0605
 6901SOL    HW132162   0.637   1.662  14.494 -0.6895 -1.1502  1.1467
 6901SOL    HW232163   0.639   1.607  14.360 -0.4681  0.7684  0.3282
 6902SOL     OW32164   3.890   1.474  17.022 -0.0168  0.0118  0.1428
 6902SOL    HW132165   3.933   1.555  17.049 -0.8813 -0.0803  1.7772
 6902SOL    HW232166   3.810   1.496  16.975 -0.7669  1.3355  2.0817
 6903SOL     OW32167   1.440   2.345   2.848  0.9995  0.1109 -0.4542
 6903SOL    HW132168   1.418   2.270   2.793 -0.0095 -0.6098  0.9578
 6903SOL    HW232169   1.503   2.313   2.913  1.1565 -0.4210 -0.8734
 6904SOL     OW32170   1.999   4.197   3.909 -0.4227 -0.1436 -0.5164
 6904SOL    HW132171   2.029   4.118   3.955  0.4458  0.1705 -0.5406
 6904SOL    HW232172   1.951   4.163   3.833 -0.4818 -1.4406  0.1122
 6905SOL     OW32173   4.469   0.840   5.978 -0.2036 -0.7247 -0.2115
 6905SOL    HW132174   4.532   0.909   5.959  1.5510 -2.3087 -0.1073
 6905SOL    HW232175   4.391   0.895   5.986 -0.4154 -1.0113 -0.2987
 6906SOL     OW32176   0.105   3.749   2.753  0.2446 -0.2184  0.1825
 6906SOL    HW132177   0.057   3.805   2.693  1.1061  1.3408  0.9529
 6906SOL    HW232178   0.050   3.671   2.740 -1.2681  0.4756  2.4220
 6907SOL     OW32179   4.513   2.078   6.415  0.0489  0.5706 -0.1493
 6907SOL    HW132180   4.420   2.087   6.395 -0.0051  2.0889  0.8804
 6907SOL    HW232181   4.540   2.049   6.328 -1.8321 -0.7667 -0.2905
 6908SOL     OW32182   2.763   3.218   5.336  0.8233  0.7144 -0.0283
 6908SOL    HW132183   2.702   3.266   5.281  2.9236  0.7536 -2.3505
 6908SOL    HW232184   2.842   3.246   5.290  1.7118 -0.1283  0.9808
 6909SOL     OW32185   4.251   1.620  12.819 -0.0885 -0.3673  0.0455
 6909SOL    HW132186   4.249   1.675  12.741  0.1301 -1.8128 -0.9796
 6909SOL    HW232187   4.290   1.668  12.892 -1.4310  0.7219  0.0623
 6910SOL     OW32188   0.337   1.581   6.523  0.0428 -0.0619  0.0909
 6910SOL    HW132189   0.410   1.529   6.491 -0.1283  0.2784 -0.8475
 6910SOL    HW232190   0.370   1.667   6.497 -0.8078  0.0535 -0.6055
 6911SOL     OW32191   1.214   0.244  10.758 -0.0737  0.1241  0.2860
 6911SOL    HW132192   1.284   0.306  10.773 -1.3173  1.4922  0.4389
 6911SOL    HW232193   1.155   0.290  10.698  0.7376 -0.9429 -1.3341
 6912SOL     OW32194   3.610   3.565   8.461 -0.2913  0.0286 -0.4910
 6912SOL    HW132195   3.612   3.478   8.502 -0.6536  0.4778  0.4826
 6912SOL    HW232196   3.692   3.558   8.413  0.2671  0.4227  0.4217
 6913SOL     OW32197   3.382   0.317   6.167  0.1492  0.5735  0.1903
 6913SOL    HW132198   3.475   0.295   6.172  0.4901  1.8347 -0.5245
 6913SOL    HW232199   3.371   0.330   6.073 -0.9754  1.0372  0.3867
 6914SOL     OW32200   0.467   2.981   2.002 -0.8681  0.2662 -0.3731
 6914SOL    HW132201   0.437   2.959   2.091  0.2210  0.3537  0.0138
 6914SOL    HW232202   0.552   3.023   2.015 -0.8610  0.1380  0.0011
 6915SOL     OW32203   0.348   1.583  13.755 -0.5274 -0.2275  0.1816
 6915SOL    HW132204   0.324   1.621  13.670 -1.8068 -2.0947 -0.2817
 6915SOL    HW232205   0.403   1.509  13.732 -0.7913 -0.8037  1.3994
 6916SOL     OW32206   3.069   2.814   5.909  0.3979  1.2020 -0.1872
 6916SOL    HW132207   2.996   2.752   5.897  1.5226  0.0726 -1.2505
 6916SOL    HW232208   3.051   2.851   5.995  0.6273 -0.6040  0.6379
 6917SOL     OW32209   4.278   1.323   1.965  0.2257  0.4712 -0.2352
 6917SOL    HW132210   4.303   1.399   1.912 -0.3975 -0.3993 -1.7707
 6917SOL    HW232211   4.361   1.312   2.012  0.4610  0.4729 -0.6496
 6918SOL     OW32212   3.847   2.796  16.892 -0.1234  0.2025 -0.2017
 6918SOL    HW132213   3.846   2.715  16.839  0.0174 -0.2638  0.5104
 6918SOL    HW232214   3.808   2.758  16.970  2.3722  1.2627  1.5458
 6919SOL     OW32215   0.323   1.022   6.029 -0.0562  0.2962 -0.0164
 6919SOL    HW132216   0.383   1.081   6.074 -1.1949  1.3549  0.1132
 6919SOL    HW232217   0.339   0.945   6.084 -2.1506  0.4413  0.7780
 6920SOL     OW32218   3.111   3.149   1.900 -0.1515 -0.5061  0.2998
 6920SOL    HW132219   3.165   3.127   1.975  2.5394 -1.1316 -1.8197
 6920SOL    HW232220   3.150   3.103   1.826  0.8183  0.9313 -0.0734
 6921SOL     OW32221   1.009   0.617   1.319  0.4414  0.1965 -0.4841
 6921SOL    HW132222   0.987   0.628   1.226  0.4866  0.3315 -0.4785
 6921SOL    HW232223   0.931   0.569   1.346  0.3159  1.1396  0.8377
 6922SOL     OW32224   0.096   0.216   0.270 -0.2081 -0.8043 -0.1333
 6922SOL    HW132225   0.034   0.166   0.323  0.0403 -0.1710  0.7723
 6922SOL    HW232226   0.056   0.298   0.300 -0.5420 -0.5724 -1.2049
 6923SOL     OW32227   2.062   3.796  13.702 -0.5608  0.2232 -0.2116
 6923SOL    HW132228   2.063   3.790  13.606 -2.0051  0.1066 -0.2165
 6923SOL    HW232229   2.130   3.737  13.735  0.0865 -0.4658 -2.7526
 6924SOL     OW32230   2.580   3.140  15.871 -0.1217 -0.1769 -0.1157
 6924SOL    HW132231   2.545   3.056  15.900  2.3584 -0.8946  0.8382
 6924SOL    HW232232   2.503   3.186  15.837  1.9563  1.7965 -2.1430
 6925SOL     OW32233   2.052   3.313  15.325 -0.1438 -0.2017  0.2942
 6925SOL    HW132234   2.129   3.292  15.377  0.2333  0.8521  0.1646
 6925SOL    HW232235   2.086   3.306  15.235  0.9613  0.4278  0.6679
 6926SOL     OW32236   3.763   3.839   1.119 -0.2888  0.6117 -0.0363
 6926SOL    HW132237   3.693   3.797   1.167  0.1682 -0.1976 -0.0720
 6926SOL    HW232238   3.787   3.774   1.053 -3.4313 -1.9819  1.4111
 6927SOL     OW32239   1.144   2.457   6.246  0.0664 -0.0853 -0.1884
 6927SOL    HW132240   1.134   2.364   6.262  1.8618 -0.0724  0.9958
 6927SOL    HW232241   1.235   2.444   6.219  0.3980 -0.0448  0.9084
 6928SOL     OW32242   3.286   2.787   5.444 -0.3696 -0.1940 -0.3488
 6928SOL    HW132243   3.304   2.803   5.537  0.7033 -2.1623 -0.2253
 6928SOL    HW232244   3.214   2.850   5.436 -0.0017  0.3701  0.8326
 6929SOL     OW32245   3.046   2.200  12.377 -0.4550  0.5781  0.1710
 6929SOL    HW132246   3.097   2.192  12.297  2.0367  0.2200  1.8032
 6929SOL    HW232247   3.004   2.285  12.363  4.2706  2.8351 -0.0797
 6930SOL     OW32248   0.679   4.360   8.483 -0.1518  0.6754  0.1101
 6930SOL    HW132249   0.600   4.324   8.443  0.2733 -0.4244  0.2530
 6930SOL    HW232250   0.740   4.366   8.409 -0.6866  1.5576 -0.2545
 6931SOL     OW32251   3.582   0.185   8.095  0.5850 -0.4884  0.2387
 6931SOL    HW132252   3.661   0.132   8.105  1.2605  0.8901  2.2191
 6931SOL    HW232253   3.596   0.258   8.156 -2.4276  0.0464  0.3000
 6932SOL     OW32254   2.713   0.159   5.366  0.2221  0.4151 -0.4839
 6932SOL    HW132255   2.691   0.163   5.459  0.4288 -0.8313 -0.3736
 6932SOL    HW232256   2.774   0.086   5.368  0.5374  0.6516 -1.6969
 6933SOL     OW32257   1.860   2.212   9.376  0.0610  0.1804  0.0842
 6933SOL    HW132258   1.781   2.190   9.427 -0.6509  1.1826 -0.5829
 6933SOL    HW232259   1.824   2.206   9.287  1.7583  2.9947 -0.7964
 6934SOL     OW32260   3.910   3.751   4.023  0.3380  0.0783  0.0980
 6934SOL    HW132261   3.865   3.770   4.106 -0.1166 -0.1570 -0.0955
 6934SOL    HW232262   3.881   3.660   4.014 -0.8222  0.5707 -1.0686
 6935SOL     OW32263   3.239   0.695   5.604 -0.8083  0.3473 -0.5924
 6935SOL    HW132264   3.320   0.652   5.574 -0.5761  0.7262 -0.5083
 6935SOL    HW232265   3.183   0.621   5.629  2.3670 -1.5393  1.0163
 6936SOL     OW32266   0.673   3.034   2.562  0.5827  0.8067 -0.0253
 6936SOL    HW132267   0.768   3.047   2.560  0.5440  0.8481 -1.2976
 6936SOL    HW232268   0.674   3.017   2.656 -1.8954  0.7188 -0.0246
 6937SOL     OW32269   2.351   1.712   1.444 -0.2764  0.2610  0.1957
 6937SOL    HW132270   2.386   1.653   1.511  2.1131  0.3830 -0.9498
 6937SOL    HW232271   2.346   1.661   1.363 -1.0814 -0.4552  0.6892
 6938SOL     OW32272   1.915   2.272   0.458 -0.4499  0.4928 -0.2122
 6938SOL    HW132273   2.007   2.255   0.439 -0.5852 -1.1411  0.6623
 6938SOL    HW232274   1.908   2.288   0.552 -1.0640  1.4305 -0.4145
 6939SOL     OW32275   1.628   4.625   4.990 -0.7370  0.3030  0.4310
 6939SOL    HW132276   1.594   4.682   4.922  0.8045 -0.1765 -0.7318
 6939SOL    HW232277   1.677   4.689   5.042 -0.3927  0.9946 -0.7646
 6940SOL     OW32278   3.421   0.556   5.484  0.2466 -0.3684  0.3463
 6940SOL    HW132279   3.512   0.585   5.477  0.4502 -0.7922  1.2177
 6940SOL    HW232280   3.431   0.487   5.549 -0.0207 -0.7541 -0.0220
 6941SOL     OW32281   4.663   1.430   3.420 -0.7306  0.3203 -0.3484
 6941SOL    HW132282   4.681   1.522   3.441  2.7641  0.4602 -3.9399
 6941SOL    HW232283   0.017   1.389   3.459 -0.9509  0.9461  0.7361
 6942SOL     OW32284   1.594   1.342   5.908 -0.1696 -0.4405 -0.4541
 6942SOL    HW132285   1.649   1.307   5.977 -1.3242 -0.7076  0.3172
 6942SOL    HW232286   1.672   1.362   5.856 -1.2043 -0.6463 -2.0925
 6943SOL     OW32287   2.497   1.397   8.449 -0.4415  0.8310  0.1064
 6943SOL    HW132288   2.451   1.323   8.489 -0.9323  1.2619  0.3313
 6943SOL    HW232289   2.430   1.426   8.386 -0.7445  0.4507  0.2537
 6944SOL     OW32290   4.607   2.008  13.590 -0.0655  0.1695  0.2461
 6944SOL    HW132291   4.565   1.957  13.521 -0.5934  2.0644 -0.8512
 6944SOL    HW232292   4.533   2.026  13.648  0.2636  2.1371  0.0686
 6945SOL     OW32293   3.706   3.631   4.799 -0.2246  0.5038 -0.0210
 6945SOL    HW132294   3.700   3.679   4.881  0.0602  0.8454 -0.1994
 6945SOL    HW232295   3.634   3.672   4.751  0.2520  1.5899  0.2096
 6946SOL     OW32296   1.564   0.860   8.833  0.0760  0.6053 -0.6286
 6946SOL    HW132297   1.619   0.786   8.806  0.2806  0.6440 -0.3199
 6946SOL    HW232298   1.503   0.809   8.886 -0.4253  0.5343 -1.2674
 6947SOL     OW32299   3.875   0.949   4.970 -0.1692  0.3738 -0.6430
 6947SOL    HW132300   3.946   0.919   5.026  1.8979  2.7720 -1.9874
 6947SOL    HW232301   3.911   0.909   4.891  1.9284  1.2277 -0.0986
 6948SOL     OW32302   1.990   0.050   6.665  0.2777 -0.3105 -0.2898
 6948SOL    HW132303   1.974   4.706   6.599 -2.5011  1.7521 -1.6573
 6948SOL    HW232304   1.916   0.039   6.725 -1.7193  3.1743 -2.1364
 6949SOL     OW32305   2.542   3.203   4.314 -0.0923  0.5247 -0.5665
 6949SOL    HW132306   2.470   3.253   4.352  0.6979  0.1603  1.3969
 6949SOL    HW232307   2.499   3.135   4.261  2.0966 -1.5599  0.3414
 6950SOL     OW32308   0.519   1.777   2.454 -0.3683  0.1435 -0.1232
 6950SOL    HW132309   0.524   1.744   2.543 -0.3468 -2.2029 -1.0052
 6950SOL    HW232310   0.465   1.855   2.468  0.0978  0.5167 -0.4169
 6951SOL     OW32311   1.154   4.107   3.462  0.6202  0.0715  0.4170
 6951SOL    HW132312   1.243   4.120   3.430 -0.4035  1.2140 -1.9597
 6951SOL    HW232313   1.097   4.132   3.389 -0.9778 -1.4460  1.1340
 6952SOL     OW32314   0.267   2.031  14.371  0.3343  0.5994 -0.2644
 6952SOL    HW132315   0.221   2.025  14.287  4.5381  0.3296 -2.5869
 6952SOL    HW232316   0.207   2.058  14.440 -1.9378 -0.1767 -1.9627
 6953SOL     OW32317   0.315   0.360  14.736 -0.1829  0.7989  0.3831
 6953SOL    HW132318   0.377   0.353  14.663  0.2860  2.4561  0.6167
 6953SOL    HW232319   0.359   0.295  14.790  0.2165  0.4470 -0.3709
 6954SOL     OW32320   1.238   1.357   1.082 -0.0292  0.1707  0.2972
 6954SOL    HW132321   1.260   1.357   0.988 -0.0862 -2.4489  0.2672
 6954SOL    HW232322   1.230   1.263   1.101 -0.0840 -0.3276 -2.0802
 6955SOL     OW32323   2.014   0.040   5.535 -0.7015  0.1759 -0.8321
 6955SOL    HW132324   2.056   0.000   5.459 -1.4607 -1.1645 -0.5587
 6955SOL    HW232325   1.945   4.700   5.557  0.3037 -0.6763 -0.1444
 6956SOL     OW32326   2.639   1.003   5.352  0.1776  0.2997  0.2027
 6956SOL    HW132327   2.719   0.961   5.323  0.1374  0.1433  0.3217
 6956SOL    HW232328   2.669   1.071   5.412  0.9448  0.0798  0.0677
 6957SOL     OW32329   3.391   2.557  12.676  0.1616  0.5719 -0.7774
 6957SOL    HW132330   3.478   2.580  12.709 -0.2811  0.3583  0.5089
 6957SOL    HW232331   3.359   2.637  12.633 -0.2021  1.0281  0.3454
 6958SOL     OW32332   2.369   3.940   3.297 -0.5102 -0.0092 -0.1161
 6958SOL    HW132333   2.331   4.027   3.285 -0.3337 -0.2685 -2.5986
 6958SOL    HW232334   2.460   3.963   3.315 -0.6847  1.3523 -0.9884
 6959SOL     OW32335   3.515   2.859   4.027 -0.1156  0.3236  0.2394
 6959SOL    HW132336   3.502   2.911   4.106  0.2195 -2.5006  2.1146
 6959SOL    HW232337   3.518   2.770   4.061  0.4591 -0.0663 -0.8150
 6960SOL     OW32338   2.154   2.193  11.864 -0.0540 -0.2928 -0.1381
 6960SOL    HW132339   2.092   2.121  11.849  0.9568 -0.5916 -2.8920
 6960SOL    HW232340   2.101   2.265  11.831 -1.1252 -0.6121  0.8847
 6961SOL     OW32341   0.101   2.129   1.797 -0.2331  0.6135 -0.0222
 6961SOL    HW132342   0.098   2.068   1.723 -1.4120  0.7917 -0.1261
 6961SOL    HW232343   0.007   2.136   1.817  0.0388 -0.8126  1.6724
 6962SOL     OW32344   1.841   1.159   2.981  0.1195  0.2538 -0.5771
 6962SOL    HW132345   1.904   1.204   2.925  0.2839  0.0027 -0.5907
 6962SOL    HW232346   1.834   1.071   2.944  1.5926  0.1698 -0.6458
 6963SOL     OW32347   4.598   3.603   7.910 -0.0341 -0.3695 -0.0304
 6963SOL    HW132348   4.562   3.627   7.995  1.1135 -2.7773  1.1300
 6963SOL    HW232349   4.590   3.509   7.924  1.7538 -0.4588  0.3543
 6964SOL     OW32350   1.132   1.537   3.171 -0.0443 -0.1009  0.5967
 6964SOL    HW132351   1.207   1.483   3.197 -1.6236 -3.1044 -1.1019
 6964SOL    HW232352   1.060   1.474   3.179  1.8434 -2.4474 -1.2634
 6965SOL     OW32353   3.470   2.493  10.859 -0.4964  0.0803 -0.3721
 6965SOL    HW132354   3.485   2.434  10.785  1.0769  2.4837 -1.9762
 6965SOL    HW232355   3.563   2.499  10.880  0.0093 -1.4501 -2.2118
 6966SOL     OW32356   1.638   2.733  15.968  0.3886  0.7178  0.1669
 6966SOL    HW132357   1.627   2.739  16.063  1.6995  1.9060  0.2348
 6966SOL    HW232358   1.732   2.747  15.958  0.4884 -0.4025 -0.5058
 6967SOL     OW32359   4.079   0.784   4.856 -0.3496  0.1593  0.2286
 6967SOL    HW132360   4.075   0.784   4.760  2.3617 -0.0818  0.1166
 6967SOL    HW232361   4.172   0.802   4.870 -0.5572  0.2249  1.4802
 6968SOL     OW32362   1.949   2.910   7.269  0.3006  0.1904 -0.0478
 6968SOL    HW132363   1.883   2.951   7.324  0.6199 -0.2023  0.6177
 6968SOL    HW232364   1.991   2.851   7.331 -0.5496  0.8338  1.1235
 6969SOL     OW32365   1.898   0.436   8.624 -0.4796 -0.0530 -0.1299
 6969SOL    HW132366   1.985   0.458   8.656 -0.6192  1.7938 -1.0117
 6969SOL    HW232367   1.909   0.341   8.622 -0.3208 -0.0016 -1.8301
 6970SOL     OW32368   0.251   0.036  10.563  0.0986  0.4745 -0.1049
 6970SOL    HW132369   0.253   0.088  10.644 -1.5277  0.3678 -0.0020
 6970SOL    HW232370   0.322   4.697  10.576  0.2431  1.2153  2.5897
 6971SOL     OW32371   2.204   1.370  15.999  0.1411  0.1041 -0.0880
 6971SOL    HW132372   2.271   1.390  15.935  0.4888 -0.9534 -0.0547
 6971SOL    HW232373   2.246   1.291  16.034 -1.0145 -0.7717 -0.6633
 6972SOL     OW32374   3.121   2.363  16.764 -0.6172  0.1415  0.1742
 6972SOL    HW132375   3.043   2.388  16.716  1.6144  2.5199 -2.2551
 6972SOL    HW232376   3.143   2.439  16.818  0.7132 -0.3994  0.3989
 6973SOL     OW32377   2.204   0.578  15.869 -0.1456 -0.9852 -0.7188
 6973SOL    HW132378   2.244   0.537  15.793  1.4526 -0.0427 -0.3740
 6973SOL    HW232379   2.133   0.633  15.834 -0.9659 -0.5844  1.5055
 6974SOL     OW32380   1.635   2.550   2.710  0.0773  0.3229 -0.4348
 6974SOL    HW132381   1.672   2.626   2.755 -1.8508  0.4965  0.8870
 6974SOL    HW232382   1.603   2.493   2.780 -0.0760 -1.0184 -1.5986
 6975SOL     OW32383   0.227   2.151   4.051 -0.0636 -0.6613  0.2203
 6975SOL    HW132384   0.156   2.112   4.000 -1.2191  2.5866 -0.6978
 6975SOL    HW232385   0.313   2.127   4.015 -0.2369 -0.5025 -0.3005
 6976SOL     OW32386   2.292   2.195  16.349 -0.3898  0.0319  0.1273
 6976SOL    HW132387   2.214   2.201  16.404  0.6452 -0.6597  1.6751
 6976SOL    HW232388   2.256   2.152  16.271  1.0531 -3.9765  1.6488
 6977SOL     OW32389   1.533   1.750   5.079  0.3274  0.0375 -0.6251
 6977SOL    HW132390   1.587   1.714   5.150 -1.1640  1.4612  1.2142
 6977SOL    HW232391   1.490   1.823   5.122  0.8437 -0.2888  0.4565
 6978SOL     OW32392   0.252   4.364   2.684  0.4425 -0.2221 -0.4581
 6978SOL    HW132393   0.233   4.455   2.659  0.3092  0.4248  1.9549
 6978SOL    HW232394   0.347   4.373   2.692  0.4900 -1.6103  0.4820
 6979SOL     OW32395   4.159   0.072   3.450  0.0561 -0.2441  0.0891
 6979SOL    HW132396   4.212   0.027   3.384  2.9195  2.9874  0.2213
 6979SOL    HW232397   4.071   0.042   3.424  0.7088 -2.0127 -0.1114
 6980SOL     OW32398   0.600   2.263  13.070 -0.4597 -0.4879  0.0829
 6980SOL    HW132399   0.560   2.238  13.153 -0.2669 -1.2865 -0.0691
 6980SOL    HW232400   0.584   2.186  13.016  1.8355 -1.2689  0.5137
 6981SOL     OW32401   0.432   2.445   4.842 -0.1086 -0.4524  0.0515
 6981SOL    HW132402   0.481   2.377   4.888 -0.2219  0.6454  1.8307
 6981SOL    HW232403   0.502   2.503   4.811 -1.0026  0.6946  0.1942
 6982SOL     OW32404   2.281   2.612   3.966  0.7893  0.6090  0.2035
 6982SOL    HW132405   2.216   2.573   4.024  3.0725 -1.9974  1.0038
 6982SOL    HW232406   2.305   2.538   3.909  0.0690  0.5941 -0.0948
 6983SOL     OW32407   4.206   3.803  12.233  0.3731 -0.5913 -0.1226
 6983SOL    HW132408   4.254   3.820  12.152  0.9694 -2.5835 -0.1656
 6983SOL    HW232409   4.275   3.814  12.298 -0.0843 -1.1029  0.4474
 6984SOL     OW32410   0.771   4.524   1.236  0.0668  0.0473 -0.2058
 6984SOL    HW132411   0.718   4.508   1.314 -2.3629  2.2424 -1.3898
 6984SOL    HW232412   0.848   4.470   1.254 -0.9618 -1.2000  0.4370
 6985SOL     OW32413   0.100   1.625   8.006  0.4069 -0.0715 -0.3160
 6985SOL    HW132414   0.139   1.710   8.026 -1.5159  0.7200  0.0429
 6985SOL    HW232415   0.154   1.559   8.051 -1.0913  0.2742  2.0095
 6986SOL     OW32416   4.129   4.709  14.813  0.3221  0.3840 -0.1064
 6986SOL    HW132417   4.207   0.029  14.848  0.5272  0.7796 -1.0392
 6986SOL    HW232418   4.058   0.050  14.822 -0.6776 -0.8650  0.9654
 6987SOL     OW32419   2.715   2.383   3.341 -0.0828 -0.0063 -0.1880
 6987SOL    HW132420   2.762   2.465   3.324  0.0338  0.4199  2.1170
 6987SOL    HW232421   2.711   2.386   3.437 -1.7416 -0.0408 -0.2540
 6988SOL     OW32422   4.290   4.395   4.369 -0.2520  0.2450 -0.2837
 6988SOL    HW132423   4.269   4.427   4.457  4.2967  1.2170  0.4441
 6988SOL    HW232424   4.201   4.405   4.334  0.4726 -0.4444 -2.3060
 6989SOL     OW32425   0.851   3.814   5.462  0.0236  0.2594 -0.7380
 6989SOL    HW132426   0.864   3.816   5.368  0.0478 -0.4060 -0.7501
 6989SOL    HW232427   0.793   3.740   5.481 -2.8927  2.8239  0.3546
 6990SOL     OW32428   1.892   0.118   9.336  0.4365 -0.1055  0.1601
 6990SOL    HW132429   1.914   0.211   9.345  2.7478 -0.6205 -0.4873
 6990SOL    HW232430   1.939   0.103   9.255  2.7909 -0.1059  1.5128
 6991SOL     OW32431   3.784   2.892   8.203  0.0489  0.3228 -0.0267
 6991SOL    HW132432   3.834   2.811   8.197 -1.1523 -0.4074 -0.1648
 6991SOL    HW232433   3.846   2.965   8.199 -1.6934  1.7047 -1.9687
 6992SOL     OW32434   0.910   2.248   4.386 -0.2731  1.1508  0.8646
 6992SOL    HW132435   0.830   2.301   4.392 -2.3744 -2.0025  0.8643
 6992SOL    HW232436   0.974   2.319   4.380 -0.7282  1.5169  0.2754
 6993SOL     OW32437   3.554   3.484  16.367  0.0812 -0.0088 -0.3535
 6993SOL    HW132438   3.623   3.463  16.304  0.4169  0.9835 -0.3156
 6993SOL    HW232439   3.580   3.421  16.434  3.5268 -0.5366 -2.1644
 6994SOL     OW32440   0.865   1.520   5.212 -0.1215  0.2731  0.5616
 6994SOL    HW132441   0.925   1.463   5.164  0.0875  1.8948 -1.1066
 6994SOL    HW232442   0.931   1.545   5.277 -0.0822  0.2506  0.5301
 6995SOL     OW32443   4.617   4.717   8.810 -0.0615 -0.2879  0.0205
 6995SOL    HW132444   4.637   0.080   8.848  2.1899 -0.0539 -1.6944
 6995SOL    HW232445   4.699   4.667   8.813 -0.1103 -0.4349 -1.2527
 6996SOL     OW32446   2.152   1.233   4.186 -0.6200 -0.1729 -0.7764
 6996SOL    HW132447   2.088   1.255   4.119  1.0526 -0.0235 -2.3204
 6996SOL    HW232448   2.152   1.318   4.230 -1.0437 -0.7867  0.4214
 6997SOL     OW32449   4.307   2.719   7.904  0.2622 -0.1368 -0.0764
 6997SOL    HW132450   4.338   2.701   7.815  0.6881  0.5182 -0.0620
 6997SOL    HW232451   4.306   2.815   7.898 -0.4000  0.0005  2.2566
 6998SOL     OW32452   0.996   1.140   8.153 -0.3515  0.2807  0.6094
 6998SOL    HW132453   1.066   1.202   8.135  1.3950 -1.2614  2.1580
 6998SOL    HW232454   0.953   1.176   8.231 -2.4398 -0.1191 -0.3546
 6999SOL     OW32455   2.070   0.267   6.528 -0.3517  0.3793  0.2866
 6999SOL    HW132456   1.992   0.309   6.492  0.1965  1.3026  0.1911
 6999SOL    HW232457   2.033   0.188   6.568  0.2386  0.2186  0.5139
 7000SOL     OW32458   3.705   1.709  13.942  0.6031  0.3467  0.6919
 7000SOL    HW132459   3.716   1.662  14.025  1.2268  0.4274  0.6601
 7000SOL    HW232460   3.637   1.774  13.958  1.8241  1.5260  1.1599
 7001SOL     OW32461   1.004   4.703  10.450 -0.3820 -0.1817 -0.0518
 7001SOL    HW132462   0.988   4.680  10.541 -1.1246 -0.8174 -0.3469
 7001SOL    HW232463   1.083   4.650  10.439 -1.8157 -2.5388  1.0713
 7002SOL     OW32464   1.283   2.201   4.786  0.1682  0.2082  0.4517
 7002SOL    HW132465   1.285   2.143   4.862 -0.1680 -0.0480  0.2644
 7002SOL    HW232466   1.212   2.163   4.734  0.5675 -1.7103  1.3371
 7003SOL     OW32467   3.280   4.280  16.041 -0.3288 -0.1395 -0.3454
 7003SOL    HW132468   3.367   4.300  16.076 -0.4944  0.7207 -0.4227
 7003SOL    HW232469   3.310   4.206  15.988  1.6225 -0.1116  0.7327
 7004SOL     OW32470   4.484   3.777   6.822  0.4295  0.2384 -0.6649
 7004SOL    HW132471   4.457   3.849   6.765  1.6034  0.2651 -1.1899
 7004SOL    HW232472   4.572   3.764   6.788  0.0042 -1.2925 -1.2139
 7005SOL     OW32473   1.419   4.373  17.464 -0.2818 -0.2328  0.8217
 7005SOL    HW132474   1.421   4.358  17.558 -0.6908 -0.3655  0.8108
 7005SOL    HW232475   1.331   4.406  17.444  1.3824  3.4084 -0.3996
 7006SOL     OW32476   2.340   3.499   0.571 -0.2550  0.0010  0.7039
 7006SOL    HW132477   2.378   3.576   0.529  1.6895 -1.6057 -0.4829
 7006SOL    HW232478   2.354   3.428   0.509 -0.2609 -1.3450  2.2488
 7007SOL     OW32479   3.536   4.441  13.636 -0.3326 -0.1043 -0.2565
 7007SOL    HW132480   3.468   4.396  13.686  0.0675  2.1770  2.3732
 7007SOL    HW232481   3.538   4.521  13.689  1.4188  0.6710 -1.4748
 7008SOL     OW32482   2.055   3.083   0.893  0.1528 -0.1811  1.0244
 7008SOL    HW132483   2.091   3.161   0.851  1.1817 -1.1427  0.1476
 7008SOL    HW232484   2.085   3.015   0.832  0.5645 -0.1662  1.2176
 7009SOL     OW32485   0.962   2.067   4.079 -0.0530 -0.3580 -0.3177
 7009SOL    HW132486   0.875   2.073   4.120 -1.0224 -1.8632 -2.1677
 7009SOL    HW232487   1.006   2.034   4.157 -2.1212  2.1523  1.9312
 7010SOL     OW32488   0.049   4.135   2.992 -0.3686  0.4454  0.2842
 7010SOL    HW132489   4.711   4.142   3.065  2.4929 -0.1261  2.7631
 7010SOL    HW232490   0.078   4.044   2.998 -1.0722  0.3125  1.6710
 7011SOL     OW32491   3.566   4.075   5.822  0.0396 -0.1296 -0.7521
 7011SOL    HW132492   3.599   4.156   5.782  0.4445  0.1643  0.1629
 7011SOL    HW232493   3.649   4.029   5.827  1.1209  1.7997 -0.9344
 7012SOL     OW32494   1.577   4.676   7.438 -0.0678  0.8018 -0.0619
 7012SOL    HW132495   1.571   4.611   7.509 -0.2606 -1.2457 -1.9416
 7012SOL    HW232496   1.659   4.647   7.399 -1.1796  0.0612 -1.8555
 7013SOL     OW32497   3.128   1.824   2.127  0.0147 -0.0761  0.4212
 7013SOL    HW132498   3.110   1.846   2.218 -1.6085  0.8513 -0.1240
 7013SOL    HW232499   3.204   1.766   2.130  1.3962  1.6807 -0.4630
 7014SOL     OW32500   0.730   0.576  13.993 -0.1204 -0.4650 -0.4085
 7014SOL    HW132501   0.661   0.530  13.946  2.0313 -3.5858 -0.5579
 7014SOL    HW232502   0.755   0.515  14.063  0.5237  0.6368  0.3283
 7015SOL     OW32503   0.075   4.667   3.214  0.4346 -0.4281  0.4559
 7015SOL    HW132504   0.143   4.688   3.277  2.5445  1.6039 -2.4898
 7015SOL    HW232505   0.124   4.696   3.137 -1.5392  0.4091 -0.5156
 7016SOL     OW32506   2.522   3.901   1.900  0.2529  0.2975  0.3891
 7016SOL    HW132507   2.499   3.958   1.826  1.0502  0.7487  0.4924
 7016SOL    HW232508   2.497   3.813   1.871 -2.7019  0.4563  2.4871
 7017SOL     OW32509   0.743   4.033   0.991  0.4057  0.1448  0.5183
 7017SOL    HW132510   0.829   4.031   0.950  0.0303  1.9859 -0.3269
 7017SOL    HW232511   0.685   4.054   0.918  0.8484 -0.6634 -0.0651
 7018SOL     OW32512   4.433   0.807   7.119 -0.2650 -0.0736  0.0107
 7018SOL    HW132513   4.454   0.714   7.116  0.9969  0.2148 -0.4939
 7018SOL    HW232514   4.497   0.842   7.056  1.4058 -1.6670  0.8239
 7019SOL     OW32515   2.781   1.477   4.839  0.8394  0.2417  0.3820
 7019SOL    HW132516   2.713   1.438   4.785 -0.1613 -3.2605  4.1289
 7019SOL    HW232517   2.800   1.404   4.899 -0.8765  0.0338  0.6825
 7020SOL     OW32518   3.781   3.494   7.847  0.2680 -0.0813  0.5173
 7020SOL    HW132519   3.790   3.456   7.935 -0.1287 -0.4580  0.3979
 7020SOL    HW232520   3.688   3.510   7.830  0.8524  2.8449  0.1678
 7021SOL     OW32521   0.410   2.679   9.829  0.4949  0.4096 -0.0314
 7021SOL    HW132522   0.330   2.724   9.855 -0.2945 -0.7125 -0.5306
 7021SOL    HW232523   0.387   2.647   9.742 -1.1844 -0.3786  0.7133
 7022SOL     OW32524   1.121   2.372  13.188  0.4980  0.4347 -0.4714
 7022SOL    HW132525   1.072   2.328  13.258 -1.0183  0.9616 -1.1830
 7022SOL    HW232526   1.195   2.397  13.243  1.0582  1.6187 -1.7880
 7023SOL     OW32527   1.446   1.751  13.853 -0.1268  0.0694  0.0109
 7023SOL    HW132528   1.456   1.688  13.924 -1.6129  1.3870  1.3933
 7023SOL    HW232529   1.360   1.721  13.823 -0.1836 -0.0511  0.2943
 7024SOL     OW32530   4.199   2.975   7.735 -0.4748  0.4542 -0.2498
 7024SOL    HW132531   4.233   3.045   7.792  0.6533  0.6975 -1.2424
 7024SOL    HW232532   4.270   2.984   7.672  0.7541 -0.7343  0.9745
 7025SOL     OW32533   3.959   0.059   5.375 -0.1454 -0.0793 -0.1257
 7025SOL    HW132534   3.918   0.108   5.304 -0.4259  0.7705  0.6167
 7025SOL    HW232535   4.000   0.123   5.433  0.2988 -2.1808  1.8911
 7026SOL     OW32536   0.933   2.162  13.004 -1.1525 -1.1310  0.0490
 7026SOL    HW132537   0.958   2.191  12.916 -3.7010 -1.4203 -0.7894
 7026SOL    HW232538   0.877   2.235  13.030 -0.5449 -0.6913  0.0971
 7027SOL     OW32539   1.857   1.566   9.056  0.6016 -0.6318  0.2763
 7027SOL    HW132540   1.924   1.546   9.121  0.0601 -0.4317  0.8935
 7027SOL    HW232541   1.858   1.661   9.070  0.2630 -0.8464  1.7994
 7028SOL     OW32542   4.334   1.857   2.045 -0.0898 -0.1282 -0.1840
 7028SOL    HW132543   4.297   1.941   2.018 -0.9516 -0.7756 -1.0203
 7028SOL    HW232544   4.373   1.872   2.131  0.5084  0.6323 -0.5976
 7029SOL     OW32545   4.209   1.265   9.311 -0.1871  0.0106  0.2903
 7029SOL    HW132546   4.252   1.184   9.340  0.0692  0.4472  1.1147
 7029SOL    HW232547   4.271   1.335   9.330 -1.0153  1.3673 -1.9439
 7030SOL     OW32548   1.384   1.712   0.174  0.0475  0.1419 -0.1274
 7030SOL    HW132549   1.385   1.774   0.101  0.6992  1.8610  1.3497
 7030SOL    HW232550   1.474   1.728   0.202 -0.7241  0.9503  1.8966
 7031SOL     OW32551   0.005   3.649   7.615 -0.6033  0.1300  0.2445
 7031SOL    HW132552   0.044   3.644   7.702 -3.3412 -2.7891  1.2802
 7031SOL    HW232553   4.711   3.743   7.608 -2.8507 -0.3619 -0.4834
 7032SOL     OW32554   0.789   0.339   3.141 -0.0500 -0.1863  0.5616
 7032SOL    HW132555   0.835   0.409   3.095 -2.4270 -0.5288 -2.3208
 7032SOL    HW232556   0.760   0.285   3.067 -0.7632 -0.1735  0.8314
 7033SOL     OW32557   0.992   3.258   7.233 -0.1438  0.4810 -0.2591
 7033SOL    HW132558   1.056   3.249   7.162  1.7184 -0.7186  1.5999
 7033SOL    HW232559   1.043   3.218   7.303 -1.6611 -0.3300  0.3853
 7034SOL     OW32560   4.052   2.159   2.182  0.3369  0.7256 -0.3989
 7034SOL    HW132561   4.139   2.188   2.155  2.3432 -0.2198  4.8979
 7034SOL    HW232562   4.061   2.187   2.273 -0.7290  0.8238 -0.3319
 7035SOL     OW32563   0.957   2.627   9.914  0.2353 -0.4574 -0.6522
 7035SOL    HW132564   0.943   2.573   9.992 -0.5508  0.4883 -0.1425
 7035SOL    HW232565   0.973   2.565   9.844  1.5164  0.7563 -1.4214
 7036SOL     OW32566   1.192   1.688  13.848 -0.3222 -0.1609  0.1743
 7036SOL    HW132567   1.167   1.610  13.897  1.7372 -0.9064  0.0366
 7036SOL    HW232568   1.167   1.662  13.760  2.7136 -1.0703 -0.4423
 7037SOL     OW32569   3.898   1.808   2.749  0.0430 -0.2057  0.2191
 7037SOL    HW132570   3.851   1.861   2.684 -1.1842  0.9396  2.0509
 7037SOL    HW232571   3.867   1.848   2.830 -0.1344  1.5455 -0.7077
 7038SOL     OW32572   4.235   3.904   7.286  0.2872 -0.0223 -0.1941
 7038SOL    HW132573   4.162   3.964   7.304  0.9217  0.2619  1.4214
 7038SOL    HW232574   4.209   3.863   7.204  0.4177  0.1547 -0.3257
 7039SOL     OW32575   1.441   3.301   0.627  0.7438  0.1544  0.2944
 7039SOL    HW132576   1.406   3.386   0.601  1.4147  0.1249 -0.7046
 7039SOL    HW232577   1.483   3.313   0.712 -0.2062 -0.1300  0.8031
 7040SOL     OW32578   0.996   3.306   6.754 -0.0138 -0.1479  0.1674
 7040SOL    HW132579   0.952   3.379   6.711  0.8470  0.1850 -0.1448
 7040SOL    HW232580   1.057   3.273   6.688  1.1669 -1.9725  2.1790
 7041SOL     OW32581   4.083   4.636   1.606  0.0605 -0.2077 -0.5909
 7041SOL    HW132582   4.097   4.609   1.697 -1.0236  3.3489  0.6402
 7041SOL    HW232583   3.989   4.652   1.614  0.3052  2.1074 -2.2908
 7042SOL     OW32584   4.713   4.415   6.750 -0.0828 -0.5645  0.2160
 7042SOL    HW132585   0.010   4.363   6.828 -1.1636  1.2419  1.7083
 7042SOL    HW232586   0.041   4.495   6.764 -0.1602 -0.1208 -2.0412
 7043SOL     OW32587   2.772   0.641   7.624  0.2791 -0.4093 -0.2047
 7043SOL    HW132588   2.677   0.633   7.622  0.3953 -2.7248  2.6087
 7043SOL    HW232589   2.785   0.672   7.714 -0.0562  1.0801 -0.6614
 7044SOL     OW32590   0.498   1.188   6.176 -0.3879 -0.1192 -0.3286
 7044SOL    HW132591   0.577   1.168   6.226 -0.6618  0.5254  0.3595
 7044SOL    HW232592   0.435   1.220   6.241 -3.0724  0.3559 -3.1516
 7045SOL     OW32593   2.210   0.551   8.631  0.1371  0.1970 -0.4380
 7045SOL    HW132594   2.244   0.496   8.560 -0.4538 -1.3781  0.5103
 7045SOL    HW232595   2.200   0.627   8.573 -0.4528  0.5059  0.0706
 7046SOL     OW32596   2.616   3.107   2.986 -0.1072 -0.4288 -0.2324
 7046SOL    HW132597   2.637   3.079   3.075 -0.7247  0.3944  0.1711
 7046SOL    HW232598   2.608   3.018   2.951  0.4839 -0.9181  0.8775
 7047SOL     OW32599   3.758   0.939   2.453  0.3228  0.0112  0.4198
 7047SOL    HW132600   3.721   1.009   2.399  0.4814  0.2808  0.6630
 7047SOL    HW232601   3.847   0.970   2.439 -0.1115  1.0980  0.0160
 7048SOL     OW32602   2.644   0.271  15.201  0.2425 -0.0537 -0.0829
 7048SOL    HW132603   2.602   0.185  15.202  0.1512  0.0208  1.7929
 7048SOL    HW232604   2.735   0.250  15.225 -0.2154  0.1602  1.7510
 7049SOL     OW32605   4.032   2.063   0.796 -0.2412  0.2322 -0.3736
 7049SOL    HW132606   4.016   2.078   0.703 -1.4149 -0.6801 -0.3213
 7049SOL    HW232607   4.064   1.973   0.798 -1.4030 -0.2208 -2.6891
 7050SOL     OW32608   1.750   2.544   8.660 -0.4725  0.1972 -0.1185
 7050SOL    HW132609   1.833   2.591   8.665 -0.2230 -0.0960 -1.4817
 7050SOL    HW232610   1.697   2.613   8.622 -1.4641  0.4586  1.7291
 7051SOL     OW32611   0.434   2.731  12.600  0.4644 -0.2512 -0.5765
 7051SOL    HW132612   0.359   2.788  12.583 -0.3205 -1.1999 -0.3020
 7051SOL    HW232613   0.502   2.792  12.626  0.8972 -0.4880 -1.1407
 7052SOL     OW32614   0.956   2.486   6.548  0.0419  0.3808  0.4199
 7052SOL    HW132615   0.887   2.522   6.603  0.9796  1.7829  0.6511
 7052SOL    HW232616   1.016   2.452   6.615 -1.7092  1.5661  2.5604
 7053SOL     OW32617   4.243   1.936   3.758  0.2359 -0.6393  0.9006
 7053SOL    HW132618   4.181   2.005   3.785  0.7254  0.1938 -0.1051
 7053SOL    HW232619   4.250   1.885   3.839  2.5587 -2.5932 -0.5629
 7054SOL     OW32620   2.841   3.946   5.762 -0.1262 -0.2498 -0.0705
 7054SOL    HW132621   2.926   3.956   5.720 -1.7808  0.6969 -3.2578
 7054SOL    HW232622   2.782   3.933   5.687 -0.7324 -0.4526  0.4389
 7055SOL     OW32623   2.958   3.103   4.565 -0.2265  0.1050  0.5115
 7055SOL    HW132624   2.985   3.056   4.486  0.9867  0.7495  0.5245
 7055SOL    HW232625   2.864   3.087   4.563 -0.3017  0.2959  2.9935
 7056SOL     OW32626   0.963   2.562  14.795  0.5194 -0.4439 -0.1391
 7056SOL    HW132627   1.011   2.502  14.737 -1.7328 -3.6744  1.3458
 7056SOL    HW232628   0.908   2.616  14.738 -1.0100 -2.1644 -0.2799
 7057SOL     OW32629   2.179   1.300   6.557  0.3289 -0.4262 -0.3401
 7057SOL    HW132630   2.209   1.257   6.637 -0.6308 -0.4195  0.0265
 7057SOL    HW232631   2.256   1.355   6.543 -0.4657  0.8920  0.4401
 7058SOL     OW32632   2.227   4.375   3.121  0.7623 -1.0796 -0.1914
 7058SOL    HW132633   2.214   4.289   3.081  1.0185 -1.0407 -0.3568
 7058SOL    HW232634   2.307   4.402   3.076  0.4431 -2.5988 -1.6860
 7059SOL     OW32635   4.483   1.292   3.258  0.5722  0.1066  0.1367
 7059SOL    HW132636   4.437   1.371   3.230  1.0233 -0.2991 -1.7915
 7059SOL    HW232637   4.559   1.335   3.297  1.4038 -0.0682 -1.3050
 7060SOL     OW32638   4.107   4.239  15.560 -1.2259  0.0825 -0.1002
 7060SOL    HW132639   4.119   4.328  15.527  1.2592 -1.2147 -2.6466
 7060SOL    HW232640   4.011   4.233  15.557 -1.3120  1.5212 -0.1036
 7061SOL     OW32641   2.819   0.253   5.076  0.2770  0.2735 -0.1249
 7061SOL    HW132642   2.774   0.229   5.157  1.7367 -2.2905 -0.0898
 7061SOL    HW232643   2.805   0.348   5.078 -0.8064  0.1529 -1.8904
 7062SOL     OW32644   1.750   3.038   1.297  0.1219  0.1677  0.7574
 7062SOL    HW132645   1.715   3.115   1.343  0.4091 -0.6723  2.3982
 7062SOL    HW232646   1.821   3.074   1.245 -0.3502 -0.4249 -0.3059
 7063SOL     OW32647   1.812   2.470   4.639  0.5093 -0.1013  0.2083
 7063SOL    HW132648   1.749   2.526   4.595 -0.8116 -1.1473  0.7189
 7063SOL    HW232649   1.763   2.394   4.673  0.7870 -0.1312  0.5439
 7064SOL     OW32650   1.637   4.047   3.969 -0.0198 -0.3175 -0.3018
 7064SOL    HW132651   1.577   4.029   4.042 -1.7606  1.7667 -1.2106
 7064SOL    HW232652   1.714   4.010   4.011 -0.1955 -2.1368 -1.5850
 7065SOL     OW32653   3.648   3.883  17.422  0.0574 -0.2628 -0.0377
 7065SOL    HW132654   3.657   3.806  17.365 -0.2184 -1.1646  1.1274
 7065SOL    HW232655   3.557   3.907  17.407 -0.3096 -1.3439  0.4440
 7066SOL     OW32656   2.154   2.844  10.215 -0.4343 -0.5917 -0.0129
 7066SOL    HW132657   2.067   2.877  10.241  0.5128  3.0135 -1.4249
 7066SOL    HW232658   2.210   2.916  10.244 -0.1347 -1.3171  1.2245
 7067SOL     OW32659   1.569   3.948   7.217  0.3722  0.4283 -0.2363
 7067SOL    HW132660   1.658   3.913   7.226 -0.5029 -2.3716 -2.7928
 7067SOL    HW232661   1.520   3.869   7.238  0.4707 -0.0993 -2.0624
 7068SOL     OW32662   0.833   1.662   4.260 -0.3742  0.2568  0.4614
 7068SOL    HW132663   0.795   1.657   4.347 -0.1175 -0.0366  0.5570
 7068SOL    HW232664   0.890   1.585   4.252  0.2140  0.6393  1.0024
 7069SOL     OW32665   3.074   4.589  14.430 -0.3639 -0.2305 -0.3442
 7069SOL    HW132666   3.029   4.648  14.369 -0.2688 -0.1066 -0.2934
 7069SOL    HW232667   3.165   4.607  14.405 -1.0589  0.2056 -2.5985
 7070SOL     OW32668   0.279   4.148   8.655  0.1305  0.4262  0.5995
 7070SOL    HW132669   0.225   4.090   8.601 -1.3477  0.1547  2.3593
 7070SOL    HW232670   0.361   4.099   8.660 -0.6455 -0.7213  2.2459
 7071SOL     OW32671   3.718   3.531   5.779  0.7010 -0.3424  0.5873
 7071SOL    HW132672   3.638   3.495   5.819  1.4068 -3.0225 -0.4784
 7071SOL    HW232673   3.784   3.471   5.813  3.1502  2.1141  0.1997
 7072SOL     OW32674   2.493   0.500   5.739 -0.2892 -0.0250  0.2642
 7072SOL    HW132675   2.528   0.575   5.787 -0.5735  0.7437 -0.7205
 7072SOL    HW232676   2.450   0.457   5.813  0.6534  0.3495  1.0156
 7073SOL     OW32677   0.039   0.323   5.672 -0.3164  0.1547  0.0739
 7073SOL    HW132678   0.036   0.372   5.754  0.2908 -1.2665  0.9534
 7073SOL    HW232679   0.067   0.236   5.702  0.9959  0.3091 -0.6831
 7074SOL     OW32680   2.000   1.914   6.920 -0.2532 -0.7634 -0.2736
 7074SOL    HW132681   1.926   1.927   6.980  0.8305  2.8275  0.2829
 7074SOL    HW232682   2.050   1.995   6.929 -0.0813 -0.9050  0.0284
 7075SOL     OW32683   0.687   1.091   5.555  0.2027  0.2443 -0.5602
 7075SOL    HW132684   0.665   1.126   5.468 -0.0267  0.6406 -0.3394
 7075SOL    HW232685   0.734   1.168   5.586  0.6899 -1.2389  2.3777
 7076SOL     OW32686   0.915   1.482   7.222  0.0656 -0.4263 -0.0323
 7076SOL    HW132687   1.004   1.464   7.253 -0.3000 -0.5577  0.9596
 7076SOL    HW232688   0.885   1.549   7.284 -2.0361 -2.1659  0.8496
 7077SOL     OW32689   3.585   2.869  17.176 -0.7470  0.5731  0.4306
 7077SOL    HW132690   3.532   2.935  17.133 -1.6416 -0.2257  0.2869
 7077SOL    HW232691   3.649   2.916  17.229 -0.0939  0.6315 -0.4287
 7078SOL     OW32692   3.037   2.591   7.890 -0.7124  0.0754 -0.6093
 7078SOL    HW132693   2.950   2.569   7.857 -0.0203 -1.1134 -1.6161
 7078SOL    HW232694   3.070   2.647   7.820 -1.0629 -0.4958 -1.2300
 7079SOL     OW32695   2.175   2.065   5.801 -0.1839  0.0176  0.4817
 7079SOL    HW132696   2.169   2.048   5.895 -0.1817 -0.1368  0.4550
 7079SOL    HW232697   2.132   1.987   5.764  0.9647  0.0662 -0.9502
 7080SOL     OW32698   3.636   1.280  13.429  0.1378  0.5930 -0.4577
 7080SOL    HW132699   3.731   1.284  13.438  0.2844  2.7770 -2.7716
 7080SOL    HW232700   3.632   1.206  13.369  0.2474  0.4264 -0.2559
 7081SOL     OW32701   0.748   0.462   3.956  0.3427  1.0424  0.7074
 7081SOL    HW132702   0.711   0.536   4.004  0.8802  0.8046  1.4842
 7081SOL    HW232703   0.782   0.411   4.030 -2.0002 -0.1426  0.9649
 7082SOL     OW32704   1.872   0.480   7.570  0.2792  0.2249 -0.2552
 7082SOL    HW132705   1.805   0.464   7.504 -1.6362  1.0708  1.5029
 7082SOL    HW232706   1.837   0.553   7.620 -0.5584  0.4443 -1.1790
 7083SOL     OW32707   2.632   2.827   7.242 -0.6730 -0.0779  0.3684
 7083SOL    HW132708   2.664   2.869   7.322 -0.7283  0.7663 -0.0627
 7083SOL    HW232709   2.603   2.908   7.200  0.7104 -1.6200 -3.5103
 7084SOL     OW32710   2.670   0.516   7.908  0.2532 -0.3505  0.6166
 7084SOL    HW132711   2.634   0.552   7.989 -0.2137  0.0039  0.2527
 7084SOL    HW232712   2.735   0.587   7.908 -2.2105  1.9082 -0.2764
 7085SOL     OW32713   1.193   0.879   1.517 -0.5613 -0.3338 -0.4931
 7085SOL    HW132714   1.274   0.929   1.506  0.2596 -1.7643 -1.0793
 7085SOL    HW232715   1.229   0.790   1.519  1.9784  0.5321 -5.5075
 7086SOL     OW32716   1.379   2.537   4.521 -0.2034  0.7448  0.3168
 7086SOL    HW132717   1.399   2.482   4.597 -2.6580 -0.4612  0.0630
 7086SOL    HW232718   1.439   2.611   4.531 -1.0582  1.5971 -0.8729
 7087SOL     OW32719   3.270   1.877  12.323  0.4533 -0.1356  0.3109
 7087SOL    HW132720   3.348   1.851  12.273  0.8158 -0.8938  1.2640
 7087SOL    HW232721   3.305   1.954  12.368 -1.1159  0.5171  0.4165
 7088SOL     OW32722   2.813   1.557   8.695 -0.6952 -0.2294 -0.4350
 7088SOL    HW132723   2.898   1.591   8.723 -0.1851  1.0201 -3.4459
 7088SOL    HW232724   2.824   1.465   8.718  0.0342  0.0686  0.3992
 7089SOL     OW32725   1.833   4.314   7.196 -0.1401  0.0026 -0.0805
 7089SOL    HW132726   1.806   4.252   7.264 -0.1206  0.4408  0.3246
 7089SOL    HW232727   1.827   4.256   7.119  0.0440 -0.1881  0.0489
 7090SOL     OW32728   0.248   4.152   6.402 -0.3436 -0.1373  0.0330
 7090SOL    HW132729   0.291   4.090   6.462 -0.7535  0.8776  1.3605
 7090SOL    HW232730   0.281   4.237   6.430 -2.3944  0.8721 -0.6392
 7091SOL     OW32731   1.428   2.208   7.712 -0.4389 -0.6900  1.1482
 7091SOL    HW132732   1.393   2.283   7.758 -1.3951 -1.0286  0.9788
 7091SOL    HW232733   1.384   2.229   7.629  1.3677  1.6615  0.7685
 7092SOL     OW32734   2.501   2.860   0.416 -0.1369  0.0743  0.2212
 7092SOL    HW132735   2.447   2.782   0.420  1.2679 -0.7342  3.2069
 7092SOL    HW232736   2.478   2.889   0.328 -0.8585 -1.3261 -0.0524
 7093SOL     OW32737   2.016   3.049   8.766  0.5284  0.5608 -0.2629
 7093SOL    HW132738   2.063   3.123   8.728  1.8995  0.3984  1.1264
 7093SOL    HW232739   1.948   3.081   8.825  3.2147  3.3324  1.3591
 7094SOL     OW32740   1.788   1.203   1.590  0.3209  0.0898  0.0602
 7094SOL    HW132741   1.701   1.181   1.556  1.1979 -2.9602 -0.1844
 7094SOL    HW232742   1.835   1.210   1.507  2.5770 -1.7082  1.1754
 7095SOL     OW32743   0.659   3.695   8.489  0.1469 -0.5333 -0.1390
 7095SOL    HW132744   0.624   3.698   8.578  0.0543 -0.7026 -0.1697
 7095SOL    HW232745   0.687   3.786   8.486  1.6639 -0.9580  0.8867
 7096SOL     OW32746   1.369   4.617   3.365 -0.7164  0.0781 -0.0865
 7096SOL    HW132747   1.362   4.614   3.269 -0.7957 -3.0901  0.0127
 7096SOL    HW232748   1.414   4.700   3.379  1.1479 -0.8290 -0.7447
 7097SOL     OW32749   1.401   2.059  10.223 -0.1706 -0.7857 -0.2888
 7097SOL    HW132750   1.486   2.053  10.268  0.8321 -1.2596 -2.2467
 7097SOL    HW232751   1.389   2.151  10.242 -1.0879 -0.7057 -1.2704
 7098SOL     OW32752   0.399   1.881   1.317 -0.3949  0.1339 -0.0108
 7098SOL    HW132753   0.335   1.816   1.346  1.9517 -2.1315  0.0827
 7098SOL    HW232754   0.345   1.937   1.260 -0.5895 -1.2386 -1.1534
 7099SOL     OW32755   0.348   4.574  11.328  0.6394  0.1173  0.4921
 7099SOL    HW132756   0.387   4.607  11.408 -1.6363  1.2207  1.1383
 7099SOL    HW232757   0.269   4.527  11.356  0.2115  0.8398  0.5002
 7100SOL     OW32758   1.742   2.281  11.939  0.2293  0.2485  0.1390
 7100SOL    HW132759   1.755   2.372  11.965 -0.6810  0.4399 -0.0670
 7100SOL    HW232760   1.725   2.249  12.027 -1.6209 -1.4637 -0.8418
 7101SOL     OW32761   0.861   3.224   3.908  0.2698  0.6831 -0.2220
 7101SOL    HW132762   0.892   3.292   3.968 -0.6562  2.6958 -2.0142
 7101SOL    HW232763   0.766   3.232   3.915  0.0277 -1.2251 -1.3159
 7102SOL     OW32764   0.231   2.268   3.627 -0.9830  0.1723 -0.0800
 7102SOL    HW132765   0.211   2.338   3.689  0.0963 -0.9255  1.5262
 7102SOL    HW232766   0.207   2.308   3.544  1.6515  0.3700 -0.7569
 7103SOL     OW32767   2.180   0.575  12.225 -0.0039  0.3272 -0.4580
 7103SOL    HW132768   2.093   0.590  12.187  0.4148 -0.5835 -1.7445
 7103SOL    HW232769   2.158   0.585  12.318  2.4200  0.0401  0.1440
 7104SOL     OW32770   4.068   2.319   6.453  0.4576 -0.4813 -0.5719
 7104SOL    HW132771   4.146   2.308   6.399  1.2873 -0.3160  0.5964
 7104SOL    HW232772   4.098   2.278   6.533 -0.9000 -0.2311  0.0738
 7105SOL     OW32773   0.321   3.896  16.599  0.1780 -0.7447 -0.3249
 7105SOL    HW132774   0.344   3.988  16.589 -1.4055 -0.6631 -3.2655
 7105SOL    HW232775   0.226   3.905  16.603  0.3074 -0.1461  1.4488
 7106SOL     OW32776   0.099   0.075   2.332  0.2963  0.1310 -0.3879
 7106SOL    HW132777   0.072   0.132   2.261  1.9935  1.4073  0.0000
 7106SOL    HW232778   0.074   4.711   2.301  0.7736 -0.6679  1.4781
 7107SOL     OW32779   2.621   3.380   4.867  0.3840  0.2098 -0.9979
 7107SOL    HW132780   2.701   3.416   4.830  0.0577  0.7758 -1.1607
 7107SOL    HW232781   2.566   3.458   4.881 -1.6706 -1.3033 -0.5301
 7108SOL     OW32782   3.438   1.338   4.742 -0.2766  0.4444  0.5389
 7108SOL    HW132783   3.521   1.362   4.702 -1.6978  0.7926 -2.2427
 7108SOL    HW232784   3.471   1.300   4.823 -1.3131 -2.2240 -0.2711
 7109SOL     OW32785   2.192   0.990   2.416 -0.2781  0.2769  0.1194
 7109SOL    HW132786   2.179   1.017   2.325  1.8014 -1.9471 -0.8647
 7109SOL    HW232787   2.146   0.906   2.421 -1.9254  1.1672 -0.1671
 7110SOL     OW32788   3.490   0.002   1.512  0.1760 -0.1002  0.8768
 7110SOL    HW132789   3.401   4.692   1.509  0.8910 -1.8613 -0.7541
 7110SOL    HW232790   3.520   4.670   1.439 -2.2263 -0.4925  0.1971
 7111SOL     OW32791   2.527   4.163  14.262  0.2988 -0.2115 -0.0068
 7111SOL    HW132792   2.522   4.252  14.296  0.4236 -1.2423  2.7430
 7111SOL    HW232793   2.435   4.152  14.237  0.0704  0.1299  0.6820
 7112SOL     OW32794   2.344   2.484   6.498  0.0379  1.1235 -1.2761
 7112SOL    HW132795   2.372   2.462   6.410  1.0757  0.2556 -0.7343
 7112SOL    HW232796   2.403   2.445   6.564  0.4671 -2.8647 -4.0396
 7113SOL     OW32797   0.896   4.439   7.250  0.2891 -0.4856  0.2610
 7113SOL    HW132798   0.870   4.437   7.158 -1.1665  0.0890  0.6547
 7113SOL    HW232799   0.813   4.433   7.298  1.0255  1.3288  1.7833
 7114SOL     OW32800   1.787   2.641   3.081  0.0767  0.3901  0.6254
 7114SOL    HW132801   1.816   2.592   3.159  1.8560  0.3657 -0.0499
 7114SOL    HW232802   1.879   2.664   3.067  0.2630  1.0816  2.9043
 7115SOL     OW32803   4.385   1.148   5.189 -0.5152  0.3784 -0.2101
 7115SOL    HW132804   4.322   1.219   5.198  0.3115  1.2863 -1.6914
 7115SOL    HW232805   4.442   1.189   5.125 -3.2341  2.8223 -1.0474
 7116SOL     OW32806   1.421   4.356   2.048 -0.0998  0.1420  0.2970
 7116SOL    HW132807   1.508   4.334   2.080 -0.3908  1.1699  1.8096
 7116SOL    HW232808   1.373   4.386   2.125 -1.5419  0.0554 -0.5537
 7117SOL     OW32809   0.911   1.622   6.718 -0.4076 -0.0449  0.3801
 7117SOL    HW132810   0.979   1.682   6.689 -0.0098 -1.5221 -1.7745
 7117SOL    HW232811   0.941   1.572   6.793 -0.8022  0.0835  0.6262
 7118SOL     OW32812   2.375   4.140   5.021 -0.3745 -0.2101  0.0418
 7118SOL    HW132813   2.415   4.174   5.102  1.1197 -2.4823  0.2437
 7118SOL    HW232814   2.450   4.141   4.961 -1.0656 -1.1143 -0.8117
 7119SOL     OW32815   3.547   4.064  12.099 -0.0098 -0.0942 -0.2506
 7119SOL    HW132816   3.484   3.999  12.069 -0.8495  0.3067  0.6450
 7119SOL    HW232817   3.514   4.102  12.181  0.5864 -0.9581  0.3895
 7120SOL     OW32818   0.050   0.934   5.418  0.3233 -0.1539  0.7584
 7120SOL    HW132819   0.042   0.930   5.323 -1.5596 -2.6589  1.0473
 7120SOL    HW232820   0.142   0.924   5.441  1.2788  3.9746 -1.2173
 7121SOL     OW32821   1.223   4.035   4.090  0.1494  0.3411  0.2501
 7121SOL    HW132822   1.178   4.002   4.013  1.4918 -0.9071 -0.0191
 7121SOL    HW232823   1.188   3.997   4.171  0.9632 -2.8701 -0.8943
 7122SOL     OW32824   3.040   1.325   8.039 -0.0945 -0.3744  0.0116
 7122SOL    HW132825   2.949   1.298   8.024 -0.0148  0.7008 -2.3844
 7122SOL    HW232826   3.022   1.417   8.058  0.8707 -0.2971  0.5604
 7123SOL     OW32827   4.217   3.155   6.989 -0.2225  0.0559  0.2298
 7123SOL    HW132828   4.252   3.074   7.026  0.0871 -0.4936 -1.2460
 7123SOL    HW232829   4.289   3.211   6.958 -1.3186  0.7543 -1.0680
 7124SOL     OW32830   2.533   2.654   4.041 -0.3717 -0.4471 -0.1368
 7124SOL    HW132831   2.524   2.601   4.120 -1.4061 -1.1048 -0.6955
 7124SOL    HW232832   2.443   2.665   4.011 -0.1637 -2.0475 -1.3644
 7125SOL     OW32833   4.702   2.740   3.817  0.3387  0.4995  0.5186
 7125SOL    HW132834   4.625   2.766   3.767  0.2042 -0.0528  0.4372
 7125SOL    HW232835   4.679   2.649   3.835 -1.5519  0.5687 -1.6040
 7126SOL     OW32836   0.150   4.452  11.527  0.7794  0.0622  0.2074
 7126SOL    HW132837   0.204   4.412  11.596  1.2835 -1.4225 -1.0366
 7126SOL    HW232838   0.163   4.546  11.534  0.9114  0.1035 -0.6824
 7127SOL     OW32839   0.395   4.545  12.266  0.2043  0.5782 -0.0845
 7127SOL    HW132840   0.406   4.505  12.352  0.7331  1.2555  0.1602
 7127SOL    HW232841   0.486   4.553  12.239  0.4654  1.3216  1.0026
 7128SOL     OW32842   2.992   1.937   5.712 -0.1208 -0.5784 -0.0320
 7128SOL    HW132843   3.070   1.986   5.738 -0.7051 -0.9785  2.4507
 7128SOL    HW232844   3.011   1.924   5.619 -0.0743 -0.0135 -0.1003
 7129SOL     OW32845   4.422   3.679   3.924 -0.1643 -0.0766  0.0929
 7129SOL    HW132846   4.490   3.746   3.926 -0.1051 -0.0900 -2.0614
 7129SOL    HW232847   4.340   3.726   3.936 -0.4453  0.0820 -2.5238
 7130SOL     OW32848   0.819   1.698   3.015  0.0408 -0.6426  0.6266
 7130SOL    HW132849   0.814   1.648   2.933 -0.7785 -0.2906  0.4641
 7130SOL    HW232850   0.914   1.702   3.026  0.1204 -2.5703  0.6115
 7131SOL     OW32851   0.705   4.450   2.615  0.7248  0.0945 -0.0288
 7131SOL    HW132852   0.640   4.422   2.550  2.1316 -1.7135 -0.6568
 7131SOL    HW232853   0.744   4.524   2.569  0.5779  0.6496  0.7350
 7132SOL     OW32854   4.083   3.570   4.525  0.0909  0.1772 -0.4564
 7132SOL    HW132855   4.080   3.498   4.462 -3.2375  0.0754 -0.2020
 7132SOL    HW232856   4.100   3.639   4.460  2.5300 -1.9952 -2.1545
 7133SOL     OW32857   4.384   2.786  13.336 -0.3677 -0.1334 -0.1300
 7133SOL    HW132858   4.452   2.725  13.307 -0.3866 -0.4918  0.5666
 7133SOL    HW232859   4.338   2.807  13.255 -0.3146  0.1380 -0.0883
 7134SOL     OW32860   3.010   2.732   1.528 -0.4661 -0.6684  0.5565
 7134SOL    HW132861   2.929   2.714   1.481  0.6505 -1.3881 -1.1363
 7134SOL    HW232862   3.072   2.759   1.460  0.2454 -0.9313  1.0978
 7135SOL     OW32863   3.868   4.154   7.779 -0.4628  0.0311  0.4514
 7135SOL    HW132864   3.783   4.148   7.822 -1.1507 -0.9082 -1.0192
 7135SOL    HW232865   3.920   4.208   7.838 -1.1314 -0.4637  1.4795
 7136SOL     OW32866   0.149   4.543   5.886  0.1611  0.1519 -0.6299
 7136SOL    HW132867   0.073   4.522   5.941  1.7422 -0.3876  1.3443
 7136SOL    HW232868   0.211   4.565   5.955 -0.2892  0.7410 -0.4183
 7137SOL     OW32869   1.671   0.004  10.184  0.1349  0.2506 -0.2938
 7137SOL    HW132870   1.703   0.062  10.253 -0.6257 -0.6626  0.8244
 7137SOL    HW232871   1.580   4.721  10.213  0.1328  1.0472 -0.1359
 7138SOL     OW32872   2.869   3.321   8.690 -0.5610  0.5609 -0.0164
 7138SOL    HW132873   2.947   3.327   8.635 -0.8597 -1.7773 -0.6832
 7138SOL    HW232874   2.896   3.349   8.777  0.2616  2.6843 -0.9503
 7139SOL     OW32875   4.126   4.513   8.517 -0.1185 -0.4665 -0.3395
 7139SOL    HW132876   4.107   4.564   8.596  0.0797 -0.6689 -0.1587
 7139SOL    HW232877   4.107   4.578   8.450  1.2005 -0.8319 -1.0573
 7140SOL     OW32878   2.914   2.616   8.143  0.2099 -0.0826  0.7347
 7140SOL    HW132879   2.957   2.575   8.068 -0.3862  0.7213 -0.0395
 7140SOL    HW232880   2.853   2.548   8.171 -0.7503  0.0352 -1.0985
 7141SOL     OW32881   0.771   3.383   0.188 -0.1375  0.0299 -0.0663
 7141SOL    HW132882   0.681   3.354   0.205 -0.4595 -0.5996 -2.7856
 7141SOL    HW232883   0.813   3.353   0.268 -0.1614 -0.9779 -0.4315
 7142SOL     OW32884   0.177   1.648   8.928 -0.7762  0.9375 -0.3618
 7142SOL    HW132885   0.091   1.634   8.968 -0.9084  1.7257 -0.3662
 7142SOL    HW232886   0.225   1.656   9.010 -0.3015  1.3331 -0.6824
 7143SOL     OW32887   4.512   3.182   4.131 -0.4675  0.0718 -0.0353
 7143SOL    HW132888   4.555   3.102   4.159  1.1791  0.4074 -1.6021
 7143SOL    HW232889   4.524   3.237   4.208  0.5264  0.5634 -0.5438
 7144SOL     OW32890   1.318   2.284   3.887 -0.5669  0.1019 -0.4814
 7144SOL    HW132891   1.226   2.287   3.915  0.1006 -0.2290  1.8194
 7144SOL    HW232892   1.301   2.266   3.795  0.6269  0.7522 -0.8246
 7145SOL     OW32893   1.697   2.224  16.189 -0.3173  0.0304  0.3744
 7145SOL    HW132894   1.771   2.163  16.182 -0.2576  0.1914 -0.4617
 7145SOL    HW232895   1.630   2.165  16.155 -1.1863  0.9574  0.4808
 7146SOL     OW32896   2.516   0.507   4.505  0.0639  0.1034 -0.1061
 7146SOL    HW132897   2.553   0.422   4.481  0.1537  0.5980 -1.6909
 7146SOL    HW232898   2.596   0.556   4.487 -0.1961 -0.2759 -2.2132
 7147SOL     OW32899   4.448   4.044  11.829  0.0402  0.4615  0.0740
 7147SOL    HW132900   4.410   3.962  11.859 -0.0301  0.1344 -0.8893
 7147SOL    HW232901   4.523   4.070  11.883 -0.7876 -1.2084  2.0257
 7148SOL     OW32902   1.832   4.343  15.271  0.5599  0.0031 -0.2983
 7148SOL    HW132903   1.834   4.432  15.308  0.8898  0.4501 -1.3921
 7148SOL    HW232904   1.757   4.308  15.318  0.3795  0.4408 -0.2547
 7149SOL     OW32905   1.285   1.963  15.799 -0.7898 -0.9911 -0.0559
 7149SOL    HW132906   1.206   2.006  15.768 -0.4145  0.9911  1.7593
 7149SOL    HW232907   1.322   1.937  15.714 -0.7671 -0.5127 -0.1943
 7150SOL     OW32908   4.695   4.528   9.228 -0.3231  0.3900  0.5715
 7150SOL    HW132909   4.672   4.579   9.306 -2.4544 -0.1696  0.2886
 7150SOL    HW232910   0.061   4.500   9.247 -1.3180 -3.2155 -0.1569
 7151SOL     OW32911   1.928   0.342   4.338 -0.1670  0.5239 -0.0492
 7151SOL    HW132912   2.003   0.285   4.351 -0.5391 -0.6222 -3.0104
 7151SOL    HW232913   1.856   0.291   4.302 -0.5769  0.7612  0.4273
 7152SOL     OW32914   0.831   3.120   8.091  0.4234 -0.1837 -0.3765
 7152SOL    HW132915   0.806   3.094   8.003  0.9613 -0.9052 -0.3075
 7152SOL    HW232916   0.782   3.197   8.123 -0.6885 -1.7042  1.5868
 7153SOL     OW32917   1.646   2.797  10.435 -0.5904 -0.1136  0.0099
 7153SOL    HW132918   1.638   2.881  10.479  1.0164  0.7539 -1.3842
 7153SOL    HW232919   1.721   2.812  10.378  1.0132 -0.3694  2.0355
 7154SOL     OW32920   3.943   2.796   4.040  0.3136  0.4139 -1.0402
 7154SOL    HW132921   4.038   2.783   4.039  0.4385  1.4107 -2.0912
 7154SOL    HW232922   3.917   2.709   4.069  1.1737  0.1783 -0.9951
 7155SOL     OW32923   3.075   2.542   2.142  0.1938  0.3282  0.4569
 7155SOL    HW132924   2.983   2.516   2.142  0.4541 -0.5738 -1.6412
 7155SOL    HW232925   3.094   2.509   2.054  0.0131  0.7349  0.2664
 7156SOL     OW32926   3.669   1.231   4.149 -0.1968 -0.0339  0.0293
 7156SOL    HW132927   3.684   1.171   4.076  0.1579 -0.9662  0.8729
 7156SOL    HW232928   3.651   1.316   4.110 -0.6802 -1.0125 -1.8449
 7157SOL     OW32929   3.914   4.676   3.358  0.7595  0.0269 -0.4901
 7157SOL    HW132930   3.869   0.028   3.320 -2.2702 -0.6072  1.8213
 7157SOL    HW232931   3.858   4.603   3.330  1.4486 -0.7768  0.2285
 7158SOL     OW32932   4.078   2.622   7.256  0.3492  0.2292 -0.3063
 7158SOL    HW132933   4.026   2.559   7.307  1.6417 -0.9658 -0.4634
 7158SOL    HW232934   4.143   2.568   7.212 -0.8010 -1.1573 -0.3320
 7159SOL     OW32935   2.534   1.694   2.305  0.0013  0.0781 -0.1598
 7159SOL    HW132936   2.453   1.744   2.312  0.0904  0.2482 -0.3424
 7159SOL    HW232937   2.578   1.753   2.244  1.6844 -0.5444  0.4511
 7160SOL     OW32938   3.121   4.530   2.560  0.1239  0.3141 -0.6085
 7160SOL    HW132939   3.205   4.504   2.521  1.3108 -0.4161  2.4087
 7160SOL    HW232940   3.100   4.599   2.497 -2.1736 -0.3645 -0.5882
 7161SOL     OW32941   0.409   3.942   6.809  0.0122 -0.7383  0.2800
 7161SOL    HW132942   0.465   3.969   6.882  0.8177  0.6074 -0.8340
 7161SOL    HW232943   0.331   3.928   6.862  0.2431 -0.5392  0.6743
 7162SOL     OW32944   0.398   3.654  16.778 -0.0482  0.1844 -0.4033
 7162SOL    HW132945   0.356   3.711  16.713  0.3662 -0.4603 -1.2335
 7162SOL    HW232946   0.487   3.683  16.761 -0.7127  1.9611 -0.8097
 7163SOL     OW32947   1.779   1.313   9.479  0.2467 -0.3842  0.4647
 7163SOL    HW132948   1.790   1.245   9.547 -1.4162  0.0970  1.2181
 7163SOL    HW232949   1.694   1.346   9.508  0.5483  0.8290 -0.0773
 7164SOL     OW32950   3.553   0.250  10.707 -0.1497 -0.1532  0.0924
 7164SOL    HW132951   3.638   0.280  10.741 -0.4593 -0.4209  1.1069
 7164SOL    HW232952   3.509   0.237  10.791 -1.5145  0.4331 -0.5294
 7165SOL     OW32953   3.920   0.404  11.962 -0.2913  0.2064 -0.5645
 7165SOL    HW132954   3.947   0.313  11.971 -1.3343  0.2113  2.4439
 7165SOL    HW232955   3.984   0.438  11.900  1.1074  1.6235  1.6720
 7166SOL     OW32956   4.410   4.559   6.127  0.3125  0.6164 -0.0210
 7166SOL    HW132957   4.407   4.560   6.031  1.3381  0.0137 -0.0535
 7166SOL    HW232958   4.401   4.466   6.146 -0.4146  0.7268  0.1842
 7167SOL     OW32959   2.056   1.453   6.169  0.1014 -0.1708 -0.2925
 7167SOL    HW132960   2.017   1.378   6.213 -2.0793  0.2157 -1.6023
 7167SOL    HW232961   2.144   1.449   6.206 -0.0510 -2.1019 -0.1346
 7168SOL     OW32962   2.776   0.881   5.713 -0.0580  0.5557 -0.0798
 7168SOL    HW132963   2.746   0.888   5.803 -0.9251  2.0505 -0.4804
 7168SOL    HW232964   2.786   0.974   5.693  1.9748  0.4475  0.4180
 7169SOL     OW32965   2.855   4.038   7.618 -0.4189  0.6261  0.6728
 7169SOL    HW132966   2.946   4.057   7.639 -0.3394  2.3239 -1.1794
 7169SOL    HW232967   2.831   3.977   7.687  0.5342 -0.6262 -0.1027
 7170SOL     OW32968   0.200   1.512   4.443  0.1339  0.0861  0.3639
 7170SOL    HW132969   0.112   1.478   4.427  0.4213 -1.6512  2.5249
 7170SOL    HW232970   0.186   1.604   4.421 -0.1057  0.0799  0.4942
 7171SOL     OW32971   4.257   4.457  14.809 -0.0495  0.0216  0.4959
 7171SOL    HW132972   4.329   4.499  14.762  0.8613 -0.5854  1.3401
 7171SOL    HW232973   4.201   4.534  14.824 -0.6481 -0.2020 -0.5619
 7172SOL     OW32974   1.994   2.467   1.636 -0.6082  0.0623 -0.5452
 7172SOL    HW132975   1.949   2.462   1.721  0.7602  0.7010  0.2202
 7172SOL    HW232976   2.076   2.420   1.649 -0.4220  0.2468 -1.0654
 7173SOL     OW32977   2.685   3.621  15.888  0.3309 -0.1157  0.4788
 7173SOL    HW132978   2.623   3.678  15.934  0.0820  0.4159 -0.5143
 7173SOL    HW232979   2.626   3.552  15.857 -1.1021  1.5308 -0.5043
 7174SOL     OW32980   3.168   1.416   8.275 -0.1564  0.1007  0.1346
 7174SOL    HW132981   3.171   1.371   8.359  0.1584 -1.6817 -0.8204
 7174SOL    HW232982   3.140   1.343   8.220 -0.1183  0.0790  0.1439
 7175SOL     OW32983   1.402   1.957   9.935 -0.9181 -0.0270 -0.2369
 7175SOL    HW132984   1.446   2.016   9.873 -0.8876  0.8203  0.5833
 7175SOL    HW232985   1.403   2.002  10.020  1.0585 -1.5585  0.5657
 7176SOL     OW32986   3.679   4.515   6.627  0.4161 -0.0142  0.2504
 7176SOL    HW132987   3.771   4.524   6.601 -0.6017  1.1829 -2.9574
 7176SOL    HW232988   3.671   4.577   6.700  0.1697  0.7890 -0.4552
 7177SOL     OW32989   0.256   2.513   3.747  0.2959  0.0110  0.4672
 7177SOL    HW132990   0.249   2.606   3.725 -0.7391 -0.5625 -1.6378
 7177SOL    HW232991   0.343   2.510   3.788  0.8491 -0.5943 -0.7312
 7178SOL     OW32992   1.985   0.371   9.286  0.1472 -0.4388  0.4419
 7178SOL    HW132993   1.943   0.443   9.331  0.8460 -1.6032  2.9294
 7178SOL    HW232994   1.978   0.405   9.196 -2.4322 -1.8791  0.0977
 7179SOL     OW32995   1.137   3.897   1.535 -0.1200 -0.2036  0.0505
 7179SOL    HW132996   1.158   3.922   1.445 -0.2187 -1.2668 -0.2634
 7179SOL    HW232997   1.104   3.809   1.519  0.3766 -0.3716 -0.0448
 7180SOL     OW32998   1.487   1.870  10.576 -0.6211  0.0463  0.1519
 7180SOL    HW132999   1.492   1.908  10.663 -3.4277 -1.2660  0.9069
 7180SOL    HW233000   1.394   1.852  10.559 -0.2855 -1.5590  0.0040
 7181SOL     OW33001   3.957   3.259   4.106 -0.0350  0.0745  0.0275
 7181SOL    HW133002   4.051   3.240   4.108 -0.1518 -0.3839  1.6654
 7181SOL    HW233003   3.922   3.179   4.067 -0.3850 -1.6984  3.9480
 7182SOL     OW33004   2.990   3.920   5.384  0.1665 -0.1515  0.3887
 7182SOL    HW133005   3.024   3.858   5.449  0.0551  0.9000  1.4418
 7182SOL    HW233006   2.961   3.987   5.445 -0.8343 -0.2050 -0.0357
 7183SOL     OW33007   3.368   1.913   7.931 -0.1751 -0.6638 -0.1050
 7183SOL    HW133008   3.459   1.895   7.956 -0.0108  1.8937  1.1521
 7183SOL    HW233009   3.328   1.832   7.963 -1.0904 -1.7102 -3.8228
 7184SOL     OW33010   0.905   0.893   3.436  0.3126  0.3800 -0.6256
 7184SOL    HW133011   0.994   0.872   3.462 -0.8145 -1.7423  1.5332
 7184SOL    HW233012   0.902   0.870   3.343 -0.7878  0.7023 -0.6760
 7185SOL     OW33013   2.358   2.408  15.500 -0.6307  0.1791 -0.6677
 7185SOL    HW133014   2.351   2.484  15.558  1.4144 -2.0761  2.5590
 7185SOL    HW233015   2.326   2.342  15.562 -2.5193  3.1830  1.5522
 7186SOL     OW33016   4.275   4.078  12.400 -0.3686 -0.0437  0.1311
 7186SOL    HW133017   4.304   4.087  12.310  0.1445 -0.6731  0.2331
 7186SOL    HW233018   4.288   3.984  12.414  0.4403 -0.0318 -0.6038
 7187SOL     OW33019   0.729   0.354   9.084 -0.0953 -0.0935 -0.8133
 7187SOL    HW133020   0.711   0.289   9.152  0.5557  0.4553 -0.1179
 7187SOL    HW233021   0.821   0.373   9.103 -0.4997  1.0209  0.0551
 7188SOL     OW33022   2.594   2.924   3.478 -0.1057  0.9699  0.9111
 7188SOL    HW133023   2.571   3.014   3.455 -1.5864  0.5391  0.7110
 7188SOL    HW233024   2.682   2.946   3.508  0.5251 -0.3628  0.0546
 7189SOL     OW33025   0.452   3.816   5.008 -0.2984 -0.0536 -0.0564
 7189SOL    HW133026   0.468   3.869   5.085 -0.7701 -0.5979  0.4155
 7189SOL    HW233027   0.539   3.785   4.981 -0.0936 -0.5485  1.1566
 7190SOL     OW33028   0.384   0.129   9.790  0.0427  0.1636 -0.6629
 7190SOL    HW133029   0.398   0.155   9.881  0.8146 -3.7462  0.3116
 7190SOL    HW233030   0.469   0.159   9.756 -0.3604  1.0022 -0.9375
 7191SOL     OW33031   0.651   1.958   7.010  0.3240 -0.8351 -0.1631
 7191SOL    HW133032   0.731   1.908   7.027  0.7003 -0.6264 -1.3328
 7191SOL    HW233033   0.612   1.975   7.096 -0.6023  2.3546 -1.2033
 7192SOL     OW33034   0.408   2.522   8.103  0.1829  0.2266 -0.1729
 7192SOL    HW133035   0.470   2.592   8.122 -0.3224  0.6501 -0.0599
 7192SOL    HW233036   0.381   2.515   8.194  0.8174  0.5487  0.0397
 7193SOL     OW33037   1.212   1.184   5.516  0.0994  0.1682  0.2159
 7193SOL    HW133038   1.253   1.243   5.580 -0.9453  0.1275  0.9157
 7193SOL    HW233039   1.192   1.111   5.574 -1.7342 -0.4583 -1.2034
 7194SOL     OW33040   0.954   4.449  14.614  0.3372  0.1296 -0.3192
 7194SOL    HW133041   0.986   4.539  14.625 -1.0182  0.3789  1.4507
 7194SOL    HW233042   1.024   4.396  14.576  0.3297 -0.0925 -0.0278
 7195SOL     OW33043   2.889   2.492   8.443 -0.6798  0.1577 -0.0124
 7195SOL    HW133044   2.884   2.585   8.464  1.1635  0.0565  0.8621
 7195SOL    HW233045   2.983   2.481   8.428 -0.1668  4.0676  0.3343
 7196SOL     OW33046   4.577   1.969  13.110 -0.6194  0.2258  0.4667
 7196SOL    HW133047   4.673   1.970  13.109 -0.6450 -0.3904 -2.1922
 7196SOL    HW233048   4.554   1.892  13.058 -1.5247  1.0101 -0.2822
 7197SOL     OW33049   2.090   3.728   4.434 -0.6040  0.1375 -0.5698
 7197SOL    HW133050   2.126   3.747   4.521  1.6414  1.2624 -1.7433
 7197SOL    HW233051   2.009   3.778   4.426 -2.1482 -2.2215  0.0824
 7198SOL     OW33052   0.378   3.602   6.317 -0.4545  0.4706 -0.0885
 7198SOL    HW133053   0.448   3.606   6.381  1.1244  0.7057 -1.8373
 7198SOL    HW233054   0.423   3.584   6.235 -0.5979 -2.2805  0.4169
 7199SOL     OW33055   4.190   1.224   4.175 -0.2705 -0.6641  0.0971
 7199SOL    HW133056   4.285   1.220   4.165 -0.3171  1.4326 -1.0144
 7199SOL    HW233057   4.184   1.138   4.217 -2.8420 -0.2978  0.5120
 7200SOL     OW33058   0.097   2.857   8.147 -0.2037 -0.4904 -0.3348
 7200SOL    HW133059   0.027   2.889   8.203  0.5927  2.7549 -1.1987
 7200SOL    HW233060   0.167   2.913   8.182  0.4972 -1.2105 -0.5589
 7201SOL     OW33061   2.473   4.406  14.347  0.1576  0.2058  0.0638
 7201SOL    HW133062   2.417   4.420  14.424  1.7292  0.2844  1.1822
 7201SOL    HW233063   2.471   4.489  14.299  1.8757 -0.1888 -0.6566
 7202SOL     OW33064   3.864   4.648   4.683  0.1583 -0.0227 -0.1972
 7202SOL    HW133065   3.782   4.682   4.647 -1.0776 -0.9178  1.7270
 7202SOL    HW233066   3.841   4.557   4.704 -1.6531  0.2761 -0.8682
 7203SOL     OW33067   3.759   4.409   8.191 -0.4513 -0.8515 -0.1124
 7203SOL    HW133068   3.738   4.444   8.105 -1.0594 -2.5077 -0.6348
 7203SOL    HW233069   3.768   4.485   8.249  0.0479 -0.0128 -1.3041
 7204SOL     OW33070   2.546   0.679   4.198  0.3645  0.4371  0.0465
 7204SOL    HW133071   2.452   0.693   4.184  0.2542  0.5338  0.8687
 7204SOL    HW233072   2.553   0.587   4.172 -0.3903  0.0496  1.2266
 7205SOL     OW33073   2.976   0.467   0.808  0.3487 -0.0554  0.5238
 7205SOL    HW133074   2.910   0.460   0.877 -1.2143  1.0893 -0.8345
 7205SOL    HW233075   3.023   0.544   0.842 -1.5493  0.5087  1.8613
 7206SOL     OW33076   2.946   3.725  15.822  0.2069 -0.2110  0.2266
 7206SOL    HW133077   2.860   3.695  15.852  0.0242 -1.3135 -1.3811
 7206SOL    HW233078   2.935   3.820  15.818 -0.5699 -0.3083  0.0629
 7207SOL     OW33079   1.340   0.913  10.283 -0.3106  0.7228  0.3429
 7207SOL    HW133080   1.414   0.973  10.288  0.0738  0.3870 -1.2853
 7207SOL    HW233081   1.383   0.830  10.303  0.0544  1.0114  0.7358
 7208SOL     OW33082   1.014   4.673   6.678 -0.6049  0.0632  0.0659
 7208SOL    HW133083   0.952   4.650   6.609 -1.2793 -0.8162  0.9508
 7208SOL    HW233084   1.037   4.582   6.695 -0.7972  0.2313  1.2174
 7209SOL     OW33085   0.454   3.128   5.853 -0.1457  0.1461 -0.8068
 7209SOL    HW133086   0.371   3.080   5.847 -0.2197  0.5141 -2.5625
 7209SOL    HW233087   0.433   3.206   5.802 -0.7699  0.6690  0.2551
 7210SOL     OW33088   1.627   3.290   1.859  0.4107  0.2554  0.3857
 7210SOL    HW133089   1.709   3.251   1.889  0.9329  1.0442 -0.0169
 7210SOL    HW233090   1.611   3.230   1.787 -0.6354 -0.9549  1.6353
 7211SOL     OW33091   2.407   0.786   2.564 -0.0729 -0.0952 -0.2984
 7211SOL    HW133092   2.314   0.794   2.547 -0.0353  2.7293  0.8711
 7211SOL    HW233093   2.442   0.728   2.496  3.1714 -1.3667  2.4987
 7212SOL     OW33094   2.080   2.237  15.408  0.8794  0.6122  0.1243
 7212SOL    HW133095   2.176   2.231  15.410  0.6876 -2.5180  0.5149
 7212SOL    HW233096   2.065   2.238  15.314  1.2291 -2.2222  0.0180
 7213SOL     OW33097   0.575   2.585  13.246  0.7436 -1.1969  0.0707
 7213SOL    HW133098   0.612   2.505  13.284  1.5673 -1.2427 -0.8235
 7213SOL    HW233099   0.510   2.607  13.313  1.8316  2.0226  0.0197
 7214SOL     OW33100   1.908   3.299   3.850 -0.0086  0.2953 -0.3250
 7214SOL    HW133101   1.855   3.265   3.922 -0.7390 -1.7699 -1.8220
 7214SOL    HW233102   1.927   3.385   3.886  0.6574  0.0438 -0.0696
 7215SOL     OW33103   4.145   2.100  12.949  0.7568  0.1127 -0.0936
 7215SOL    HW133104   4.208   2.153  12.997 -0.0874 -1.4791  2.8021
 7215SOL    HW233105   4.204   2.054  12.889 -0.5816 -2.0750  0.2622
 7216SOL     OW33106   4.058   2.140   4.585 -0.2981 -0.1809 -0.2666
 7216SOL    HW133107   4.048   2.072   4.518 -0.6646 -2.4181  2.0703
 7216SOL    HW233108   3.994   2.115   4.651  0.3669 -0.6386  0.2064
 7217SOL     OW33109   3.166   1.276  12.389 -0.3527 -0.1498  0.2692
 7217SOL    HW133110   3.185   1.209  12.455  3.1321  1.0952  0.5111
 7217SOL    HW233111   3.255   1.299  12.360 -0.8826  0.1999 -1.0686
 7218SOL     OW33112   1.636   2.460   7.155 -0.1034  0.2559  0.0350
 7218SOL    HW133113   1.695   2.521   7.112  1.6667 -0.8591  0.8855
 7218SOL    HW233114   1.557   2.471   7.101 -0.5223  1.7511  0.9613
 7219SOL     OW33115   0.535   1.427   6.438 -0.2369 -0.2992  0.2534
 7219SOL    HW133116   0.586   1.437   6.357  1.2987 -0.3345  1.2106
 7219SOL    HW233117   0.603   1.424   6.505 -0.1568 -0.3159  0.1716
 7220SOL     OW33118   1.090   3.232   1.231  0.4819 -0.5113  0.2634
 7220SOL    HW133119   0.999   3.219   1.204  0.5812  0.0893 -0.3555
 7220SOL    HW233120   1.070   3.222   1.324  2.4681  1.6205  0.9208
 7221SOL     OW33121   0.672   3.032  13.511 -0.1796 -0.5072  0.4073
 7221SOL    HW133122   0.621   2.954  13.486 -0.9876 -0.1268  0.8699
 7221SOL    HW233123   0.757   2.989  13.507  1.0256  2.0638 -1.2060
 7222SOL     OW33124   1.612   0.587   6.167 -0.2251 -0.3382 -0.1662
 7222SOL    HW133125   1.683   0.606   6.230  0.2337 -0.5201 -0.6296
 7222SOL    HW233126   1.556   0.661   6.190 -0.4912 -1.2205  1.9978
 7223SOL     OW33127   3.226   3.998   6.954 -0.3281  0.4045  0.2290
 7223SOL    HW133128   3.199   3.908   6.971  0.7599 -0.2013 -1.1485
 7223SOL    HW233129   3.276   3.981   6.874 -1.3979  1.0736 -0.5850
 7224SOL     OW33130   2.856   0.811   4.690 -0.3772 -0.6835  0.3978
 7224SOL    HW133131   2.943   0.809   4.731  1.0593 -1.3443 -2.6941
 7224SOL    HW233132   2.797   0.781   4.759 -0.6694  1.0019  0.8714
 7225SOL     OW33133   0.634   0.593   9.353  0.7178  0.4784 -0.0994
 7225SOL    HW133134   0.611   0.627   9.267 -0.2215  1.1881  0.4252
 7225SOL    HW233135   0.545   0.577   9.386  2.2335 -0.5363  3.5004
 7226SOL     OW33136   1.185   4.654   4.597 -0.2207  1.0327 -0.0845
 7226SOL    HW133137   1.123   0.003   4.610 -3.2308 -1.7148  0.8008
 7226SOL    HW233138   1.184   4.661   4.501 -1.0639  2.6690  0.0354
 7227SOL     OW33139   1.574   3.636   7.645  0.4670  0.0009  0.0381
 7227SOL    HW133140   1.576   3.541   7.633  1.2665  0.2092 -1.5410
 7227SOL    HW233141   1.624   3.646   7.726  1.0126 -0.5748 -0.2297
 7228SOL     OW33142   1.851   2.497  16.188 -0.5188  0.0822 -0.2829
 7228SOL    HW133143   1.930   2.447  16.166 -1.4765 -1.5828  0.0075
 7228SOL    HW233144   1.806   2.421  16.226  0.2493 -0.4421 -0.4225
 7229SOL     OW33145   0.940   3.184   9.691  0.1688 -1.1616 -0.0471
 7229SOL    HW133146   0.859   3.174   9.742 -0.1960  1.2847 -0.1544
 7229SOL    HW233147   0.997   3.114   9.722  0.3851 -0.8302  0.2895
 7230SOL     OW33148   2.460   3.352  10.281 -0.0580 -0.1996 -0.0914
 7230SOL    HW133149   2.415   3.290  10.338  2.1448 -0.1538  1.6939
 7230SOL    HW233150   2.542   3.303  10.275 -0.1495 -0.3993  0.3327
 7231SOL     OW33151   1.200   4.390   4.391  0.4200 -0.6530 -0.1159
 7231SOL    HW133152   1.123   4.375   4.337  0.2749  2.2183 -0.6744
 7231SOL    HW233153   1.231   4.474   4.357  1.8301  0.1027  3.0316
 7232SOL     OW33154   2.572   0.789   2.255 -0.3338  0.1480 -0.0631
 7232SOL    HW133155   2.526   0.722   2.307 -1.1244  2.1261  1.7718
 7232SOL    HW233156   2.571   0.866   2.312 -0.0277  0.7008 -0.8067
 7233SOL     OW33157   1.263   2.762   6.670 -0.5512 -0.2836  0.0560
 7233SOL    HW133158   1.212   2.681   6.674  2.8819 -2.4316  0.2227
 7233SOL    HW233159   1.323   2.745   6.742 -0.5425 -2.0547 -0.3611
 7234SOL     OW33160   1.561   2.569   9.679 -0.0356  0.7171  0.5739
 7234SOL    HW133161   1.639   2.563   9.624  0.2711  2.2845  0.8401
 7234SOL    HW233162   1.504   2.583   9.603  0.4398 -1.1916 -0.1184
 7235SOL     OW33163   0.515   3.807   4.603 -0.2293 -0.1454 -0.0767
 7235SOL    HW133164   0.454   3.750   4.651  1.3440 -1.8128 -0.0574
 7235SOL    HW233165   0.457   3.881   4.584  2.9506  1.9091 -1.7288
 7236SOL     OW33166   0.995   3.980   3.098 -0.3504 -0.1619  0.5806
 7236SOL    HW133167   0.906   3.972   3.131  0.0774 -0.7421  1.5915
 7236SOL    HW233168   0.975   3.953   3.008  1.4101 -2.0531  0.7664
 7237SOL     OW33169   1.767   1.137   9.254  0.2496  0.1046  0.3886
 7237SOL    HW133170   1.800   1.178   9.334  0.0829  0.4079  0.3012
 7237SOL    HW233171   1.848   1.110   9.211  0.0542 -0.5586  0.4492
 7238SOL     OW33172   1.146   0.721   7.331 -0.0385  0.0025 -0.2136
 7238SOL    HW133173   1.104   0.790   7.280  0.1022  0.7599  0.7049
 7238SOL    HW233174   1.188   0.783   7.390  0.9946 -2.0135  1.1849
 7239SOL     OW33175   2.460   1.527   8.043  0.7753  0.0485 -0.2916
 7239SOL    HW133176   2.436   1.435   8.031  1.7173 -0.5686  2.5034
 7239SOL    HW233177   2.411   1.572   7.974 -0.5604  0.7893  1.1270
 7240SOL     OW33178   0.326   0.567   4.091  0.9597  0.1988  0.8916
 7240SOL    HW133179   0.367   0.495   4.138  1.0831 -0.9961 -1.0294
 7240SOL    HW233180   0.249   0.586   4.144  0.0667  0.4189 -0.4704
 7241SOL     OW33181   1.926   4.079   5.801 -0.6164 -0.1408 -0.0315
 7241SOL    HW133182   1.834   4.101   5.786 -0.2830 -0.2648 -2.3107
 7241SOL    HW233183   1.968   4.163   5.820 -1.4245  0.5471 -1.2502
 7242SOL     OW33184   0.592   1.925   4.455  0.2288 -0.7486  0.7188
 7242SOL    HW133185   0.586   1.904   4.548  1.2888  0.8599  1.1538
 7242SOL    HW233186   0.511   1.890   4.418  0.4689  1.0501 -1.4952
 7243SOL     OW33187   3.513   3.358   2.636  0.3806 -0.3595  0.4725
 7243SOL    HW133188   3.509   3.421   2.564 -5.4002  0.3092  1.3596
 7243SOL    HW233189   3.456   3.294   2.595 -0.2789  0.1304  0.6229
 7244SOL     OW33190   2.348   0.325   3.391  0.1930  0.0584  0.4600
 7244SOL    HW133191   2.440   0.350   3.397  0.0306  0.7505  0.0855
 7244SOL    HW233192   2.335   0.284   3.477 -0.9529  0.5540  0.5246
 7245SOL     OW33193   1.444   0.624  15.349 -0.0008 -0.4876 -0.5165
 7245SOL    HW133194   1.529   0.581  15.336  0.4021 -0.3223  1.6475
 7245SOL    HW233195   1.466   0.711  15.316  1.1151 -0.5670  0.0286
 7246SOL     OW33196   0.347   4.512  17.515  0.1169 -0.1528 -0.2942
 7246SOL    HW133197   0.344   4.551  17.428  1.6888 -0.2676 -0.4026
 7246SOL    HW233198   0.371   4.589  17.567  0.1624 -0.8448  0.7207
 7247SOL     OW33199   1.279   3.710   4.094  0.3417  0.3735 -0.0783
 7247SOL    HW133200   1.228   3.651   4.040  0.6649  1.1076 -1.1920
 7247SOL    HW233201   1.217   3.738   4.162 -0.9147 -0.4158 -0.8949
 7248SOL     OW33202   0.163   0.751   9.741  0.6515 -0.1550  0.1663
 7248SOL    HW133203   0.201   0.716   9.660  0.7179  0.0897  0.0922
 7248SOL    HW233204   0.206   0.836   9.751  0.8152 -0.4818  2.4245
 7249SOL     OW33205   3.567   4.587   1.899 -0.2429 -0.8050  0.7392
 7249SOL    HW133206   3.655   4.550   1.888 -1.3998 -2.9722 -1.3143
 7249SOL    HW233207   3.509   4.528   1.851  0.2413 -0.1389 -0.6467
 7250SOL     OW33208   3.481   3.834   4.737  1.1622  0.0115  0.0136
 7250SOL    HW133209   3.426   3.891   4.683 -0.1199  0.2270  1.5394
 7250SOL    HW233210   3.412   3.783   4.779 -0.1889  1.1103 -0.8626
 7251SOL     OW33211   3.786   4.240  14.493 -0.4395 -0.3028 -0.5861
 7251SOL    HW133212   3.800   4.266  14.584  0.1292  0.7224 -0.9640
 7251SOL    HW233213   3.822   4.320  14.455 -1.5072  1.5779  2.3271
 7252SOL     OW33214   3.734   1.754   5.888 -0.0710 -0.3830  0.5775
 7252SOL    HW133215   3.775   1.680   5.934 -1.4996 -3.4288 -3.0313
 7252SOL    HW233216   3.639   1.741   5.894  0.0755 -1.3042  0.9743
 7253SOL     OW33217   2.763   0.568   6.828  0.1144 -0.0015  0.4139
 7253SOL    HW133218   2.725   0.515   6.899 -2.6702  4.0247  1.9008
 7253SOL    HW233219   2.737   0.657   6.851  1.4013  0.8079 -1.3541
 7254SOL     OW33220   1.495   0.646   4.554 -0.2107  0.2353 -0.0190
 7254SOL    HW133221   1.511   0.573   4.613 -0.3047  1.2024  1.1866
 7254SOL    HW233222   1.475   0.599   4.473  0.3021  0.8110 -0.4855
 7255SOL     OW33223   2.065   1.148  10.306  0.6965 -1.2313 -0.6343
 7255SOL    HW133224   2.054   1.228  10.357  0.2793 -1.5201 -0.2757
 7255SOL    HW233225   2.035   1.175  10.219 -0.8591  2.1769  0.9827
 7256SOL     OW33226   2.487   4.017  15.903  0.7551  0.4756  0.3879
 7256SOL    HW133227   2.468   4.110  15.892 -1.8013  0.1830  2.2954
 7256SOL    HW233228   2.577   4.021  15.938  0.6116 -1.2911  0.9447
 7257SOL     OW33229   4.307   4.533   4.623 -0.0026  0.2104 -0.8577
 7257SOL    HW133230   4.289   4.617   4.663  1.0540  0.1602 -0.2605
 7257SOL    HW233231   4.281   4.470   4.690  1.5750  0.1738 -0.2806
 7258SOL     OW33232   4.218   1.316   0.349 -0.5025 -0.5369  0.7922
 7258SOL    HW133233   4.161   1.247   0.316 -0.2509 -0.3267 -0.0904
 7258SOL    HW233234   4.304   1.277   0.335  0.4796  1.8948 -0.1364
 7259SOL     OW33235   2.856   4.076   6.913  0.0146  0.8360  0.0563
 7259SOL    HW133236   2.839   3.982   6.903  1.0902  0.7955 -1.3563
 7259SOL    HW233237   2.924   4.092   6.978  0.2809  2.9689 -0.7391
 7260SOL     OW33238   1.894   4.606   7.927 -0.3643 -0.1290  0.2904
 7260SOL    HW133239   1.944   4.630   7.849  0.4168  0.9130  1.1126
 7260SOL    HW233240   1.870   4.695   7.954 -0.5780 -0.0594 -0.1345
 7261SOL     OW33241   1.939   1.755  13.294 -0.3366  0.2990 -0.1322
 7261SOL    HW133242   1.989   1.674  13.283  0.6411  0.9736 -0.6002
 7261SOL    HW233243   2.014   1.815  13.289 -1.1565  1.1424 -2.1960
 7262SOL     OW33244   0.264   1.405  12.853 -0.4424 -0.1239  0.2686
 7262SOL    HW133245   0.253   1.356  12.934 -1.4187 -1.0606 -0.4303
 7262SOL    HW233246   0.350   1.442  12.873  0.1496 -0.9270 -0.7517
 7263SOL     OW33247   3.216   2.884   4.138 -0.3377  0.6128 -0.0416
 7263SOL    HW133248   3.281   2.830   4.183  1.9798  0.5945 -3.4099
 7263SOL    HW233249   3.251   2.972   4.154 -0.0424  0.3462  0.7949
 7264SOL     OW33250   0.922   0.153   6.313  0.1673 -0.1941  0.0479
 7264SOL    HW133251   0.864   0.078   6.326 -0.7735  0.7031  1.0154
 7264SOL    HW233252   0.953   0.132   6.225  2.2276 -0.1416  0.7529
 7265SOL     OW33253   4.320   3.079  10.642  0.1160 -0.2370 -0.4445
 7265SOL    HW133254   4.280   3.087  10.555 -0.2322 -0.0404 -0.2675
 7265SOL    HW233255   4.387   3.147  10.639  1.0157 -1.0786  0.8441
 7266SOL     OW33256   0.091   4.136  12.328 -0.2208 -0.3174 -0.3558
 7266SOL    HW133257   0.015   4.121  12.385  1.5274 -3.1086  1.2172
 7266SOL    HW233258   0.053   4.199  12.267  1.2216  0.8390 -0.0406
 7267SOL     OW33259   1.285   4.597   0.891  0.5514 -0.3132 -0.3628
 7267SOL    HW133260   1.232   4.593   0.811 -1.4559  0.4603  0.9298
 7267SOL    HW233261   1.360   4.542   0.866 -0.0397 -1.6628  0.8234
 7268SOL     OW33262   0.536   2.125  11.701 -0.1333 -0.1276  0.5826
 7268SOL    HW133263   0.606   2.166  11.651 -0.3298 -1.2029 -0.5867
 7268SOL    HW233264   0.580   2.090  11.778  2.1067 -1.8941 -1.4972
 7269SOL     OW33265   0.868   2.313  15.591 -0.2218 -0.1724 -0.2207
 7269SOL    HW133266   0.787   2.263  15.599  0.1892 -0.9638 -0.9625
 7269SOL    HW233267   0.839   2.378  15.527  1.5769  0.0675 -0.8090
 7270SOL     OW33268   1.120   1.576   9.422  0.0000  0.1877  0.2729
 7270SOL    HW133269   1.046   1.634   9.405 -0.2809 -0.0630  0.6601
 7270SOL    HW233270   1.075   1.493   9.431 -0.5652  0.6323  1.4570
 7271SOL     OW33271   0.872   1.217   6.528  0.5041  0.4537 -0.0983
 7271SOL    HW133272   0.832   1.299   6.557 -0.1975 -0.3806  1.2784
 7271SOL    HW233273   0.951   1.262   6.498  1.2248  0.1866  1.3883
 7272SOL     OW33274   2.259   1.713   6.193 -0.5528  0.3173  0.5910
 7272SOL    HW133275   2.200   1.757   6.133 -0.7184  0.2943  0.7387
 7272SOL    HW233276   2.248   1.760   6.275  0.0408  1.2700  0.1263
 7273SOL     OW33277   0.875   2.866  15.897 -0.0809 -0.0160  0.1701
 7273SOL    HW133278   0.822   2.876  15.818 -0.4534  0.7224  0.5147
 7273SOL    HW233279   0.856   2.955  15.927 -1.0981 -0.2059  0.0944
 7274SOL     OW33280   0.737   3.878   7.701  0.3186 -0.1544  0.0103
 7274SOL    HW133281   0.798   3.908   7.768  0.3046 -0.1940  0.0410
 7274SOL    HW233282   0.678   3.947   7.731 -1.3810 -2.3031  1.6462
 7275SOL     OW33283   1.812   3.459   8.429 -0.5758  0.0583  0.2249
 7275SOL    HW133284   1.819   3.553   8.413  1.7038 -0.0728  0.3349
 7275SOL    HW233285   1.726   3.434   8.397 -0.9592  0.7512  0.7061
 7276SOL     OW33286   2.706   1.378   7.279  0.4884  0.5516 -0.6112
 7276SOL    HW133287   2.778   1.413   7.331  0.8727 -0.5111 -0.4117
 7276SOL    HW233288   2.748   1.361   7.195  1.9598  0.4568  0.1513
 7277SOL     OW33289   3.638   2.640   8.457  0.4011 -0.7304 -0.0630
 7277SOL    HW133290   3.569   2.599   8.405  1.3694 -1.5221 -0.7343
 7277SOL    HW233291   3.712   2.632   8.397 -1.1570  0.7163 -2.1452
 7278SOL     OW33292   2.572   3.206   5.938  0.1870  0.0643  0.3171
 7278SOL    HW133293   2.662   3.211   5.908 -0.8385 -0.5925 -2.8818
 7278SOL    HW233294   2.557   3.293   5.976 -2.6464 -0.5137  0.5736
 7279SOL     OW33295   2.821   3.215   5.827 -0.1394 -0.3755 -0.2225
 7279SOL    HW133296   2.846   3.304   5.849 -0.4602 -0.1283 -0.8727
 7279SOL    HW233297   2.835   3.208   5.733  0.4920  1.5052 -0.2659
 7280SOL     OW33298   1.572   2.808   8.900  0.4951  0.3356  0.4225
 7280SOL    HW133299   1.511   2.868   8.943  0.4144  0.0476  0.7104
 7280SOL    HW233300   1.565   2.832   8.808  0.6020 -0.0696  0.3090
 7281SOL     OW33301   0.789   0.460  15.620 -0.2576 -0.4188 -0.3377
 7281SOL    HW133302   0.827   0.486  15.704  0.7101 -1.0824 -0.5645
 7281SOL    HW233303   0.832   0.518  15.557 -0.3879  0.9465  0.8156
 7282SOL     OW33304   3.823   1.969  16.093 -0.3892 -0.3310  0.0207
 7282SOL    HW133305   3.812   2.064  16.094 -0.1547 -0.2945 -1.2242
 7282SOL    HW233306   3.768   1.950  16.017 -0.2023  0.1441 -0.2338
 7283SOL     OW33307   1.944   4.425   5.593  0.0968  0.0063  0.3240
 7283SOL    HW133308   1.862   4.438   5.641  0.6018  0.7168  1.0017
 7283SOL    HW233309   1.911   4.383   5.514 -0.7455  0.6163  0.3424
 7284SOL     OW33310   3.931   2.063   5.327  0.0345  0.1887  0.4650
 7284SOL    HW133311   3.882   2.145   5.324 -1.4318 -0.6840  0.8398
 7284SOL    HW233312   3.900   2.027   5.410 -0.7027 -0.8616 -0.2707
 7285SOL     OW33313   3.487   0.646   7.146  0.3058  0.1156  0.0991
 7285SOL    HW133314   3.533   0.562   7.146 -2.0786 -1.2215 -0.7091
 7285SOL    HW233315   3.497   0.686   7.233  1.6947  0.0820 -0.0493
 7286SOL     OW33316   4.052   0.288   9.939  0.0992 -0.1543  0.8529
 7286SOL    HW133317   3.983   0.337   9.983  0.3097 -0.0717  1.0927
 7286SOL    HW233318   3.999   0.208   9.932 -0.5841  0.2836  1.0896
 7287SOL     OW33319   1.113   1.614   1.135 -0.0937  0.2935 -0.4574
 7287SOL    HW133320   1.157   1.529   1.138 -1.2753 -0.2935 -0.0236
 7287SOL    HW233321   1.134   1.641   1.225  0.6558 -1.2316 -0.1901
 7288SOL     OW33322   4.610   4.307   2.546 -0.7287 -0.0576  0.3370
 7288SOL    HW133323   4.654   4.323   2.629  1.6772 -1.0537 -0.7429
 7288SOL    HW233324   4.532   4.269   2.586 -0.3113 -0.5773  0.6439
 7289SOL     OW33325   0.485   1.367   7.161  0.7794  0.0937 -0.1425
 7289SOL    HW133326   0.456   1.407   7.079 -0.6785 -0.3921  0.1397
 7289SOL    HW233327   0.558   1.314   7.129  1.0784 -0.2290  1.0953
 7290SOL     OW33328   1.711   3.656   5.174 -0.2203  0.7136  0.2605
 7290SOL    HW133329   1.735   3.642   5.266  0.3757 -0.4173 -0.0732
 7290SOL    HW233330   1.789   3.636   5.123 -1.6884 -2.6009 -0.6814
 7291SOL     OW33331   1.109   2.143   4.553 -0.6584  0.0281  0.1153
 7291SOL    HW133332   1.140   2.219   4.503 -2.8657  1.0095  0.2508
 7291SOL    HW233333   1.021   2.129   4.517 -0.7568  1.0303 -0.0414
 7292SOL     OW33334   3.790   3.210   4.758 -1.0906 -0.2624  0.5780
 7292SOL    HW133335   3.724   3.242   4.820 -0.4124 -0.8293  1.6032
 7292SOL    HW233336   3.869   3.201   4.812 -0.1788 -2.0905 -1.0541
 7293SOL     OW33337   3.240   3.571   3.504  0.4527  0.2374  0.0553
 7293SOL    HW133338   3.159   3.577   3.453  1.9218  2.3937 -2.0278
 7293SOL    HW233339   3.212   3.526   3.584 -0.5232 -0.1267 -0.4962
 7294SOL     OW33340   0.577   1.721  10.071 -0.4795  0.3374 -0.4062
 7294SOL    HW133341   0.562   1.632  10.103  0.5088 -0.0185 -0.9422
 7294SOL    HW233342   0.586   1.769  10.153  1.8738  1.3793 -1.2816
 7295SOL     OW33343   3.202   1.145  13.760  0.0454  0.4656 -0.5834
 7295SOL    HW133344   3.245   1.062  13.741  0.7736  0.0160  2.9958
 7295SOL    HW233345   3.269   1.209  13.735 -0.6349  1.4659  0.1483
 7296SOL     OW33346   4.296   4.357   8.114 -0.2753  0.2068  0.1630
 7296SOL    HW133347   4.309   4.318   8.028  0.5366 -0.0264  0.3870
 7296SOL    HW233348   4.224   4.305   8.150 -0.3146  0.4954  0.5006
 7297SOL     OW33349   2.747   2.903  11.127 -0.0682  0.0649  0.8160
 7297SOL    HW133350   2.666   2.875  11.171  0.2992  1.3894  2.3274
 7297SOL    HW233351   2.698   2.933  11.050 -1.0741 -0.3580  1.2858
 7298SOL     OW33352   3.347   4.466  15.241  0.2251  0.1861 -0.1829
 7298SOL    HW133353   3.413   4.412  15.198 -0.6309  0.5364 -1.9356
 7298SOL    HW233354   3.328   4.409  15.315  1.4544  1.0382  0.7990
 7299SOL     OW33355   2.966   2.837   7.418  0.6331  0.0742 -0.1099
 7299SOL    HW133356   2.885   2.876   7.451  1.8921  1.2048  1.6784
 7299SOL    HW233357   2.958   2.749   7.453  0.6551  0.0636 -0.1313
 7300SOL     OW33358   3.022   1.547   5.416 -0.3946 -0.4902 -0.0206
 7300SOL    HW133359   2.986   1.493   5.486 -0.0333 -0.5061  0.1532
 7300SOL    HW233360   3.116   1.533   5.430 -0.0149  0.5197 -1.5040
 7301SOL     OW33361   0.504   3.990   8.720  0.0898  0.1616  0.2200
 7301SOL    HW133362   0.472   4.020   8.805  0.1924  1.6854 -0.2866
 7301SOL    HW233363   0.598   4.003   8.730  0.0117  0.3400  0.7394
 7302SOL     OW33364   4.286   1.535  17.001  1.0559 -0.4559 -0.6217
 7302SOL    HW133365   4.293   1.622  16.962 -1.4967  0.2660  0.5509
 7302SOL    HW233366   4.377   1.507  17.001  1.8177  2.0509  0.4728
 7303SOL     OW33367   4.715   3.991   5.294 -0.3989 -0.8746 -0.0430
 7303SOL    HW133368   0.040   4.058   5.341 -1.5985  0.1000 -0.1936
 7303SOL    HW233369   0.005   3.904   5.331 -1.3425 -0.5326  1.1000
 7304SOL     OW33370   0.554   2.523   2.800 -0.4262 -0.7362 -0.3890
 7304SOL    HW133371   0.553   2.613   2.831  3.3390 -1.0245  0.6609
 7304SOL    HW233372   0.478   2.483   2.842 -0.5517  0.5146  0.5632
 7305SOL     OW33373   3.013   4.503   2.125 -0.2568 -0.9705  0.1250
 7305SOL    HW133374   2.987   4.441   2.057  0.4398 -1.7155  0.5329
 7305SOL    HW233375   3.010   4.586   2.079 -2.5075 -0.2477  1.5597
 7306SOL     OW33376   1.127   3.243   3.581  0.2772 -0.3188  0.2121
 7306SOL    HW133377   1.047   3.271   3.536  1.2758 -1.0610 -1.9994
 7306SOL    HW233378   1.171   3.328   3.584  0.2938 -0.2500 -2.2480
 7307SOL     OW33379   4.655   4.507  16.517 -0.3782  0.2391 -0.1394
 7307SOL    HW133380   4.606   4.426  16.505  1.5296 -0.6782 -1.8218
 7307SOL    HW233381   4.586   4.565  16.487 -0.7242 -0.6187 -0.9949
 7308SOL     OW33382   2.278   1.700  14.517 -0.2343 -0.7041  0.0697
 7308SOL    HW133383   2.267   1.690  14.612  0.6531 -1.7428  0.0615
 7308SOL    HW233384   2.187   1.685  14.491  0.9994 -2.2946 -3.2402
 7309SOL     OW33385   1.314   2.067   9.500  0.0305  0.2771 -0.0660
 7309SOL    HW133386   1.385   2.124   9.530 -0.7228  0.4684  1.3460
 7309SOL    HW233387   1.274   2.126   9.437 -0.7276  0.6861  0.7993
 7310SOL     OW33388   3.404   2.620  14.463 -0.2698  0.1010 -0.5080
 7310SOL    HW133389   3.417   2.701  14.512 -1.1643  0.0222 -0.1509
 7310SOL    HW233390   3.492   2.602  14.429 -0.5479 -1.6481 -0.2833
 7311SOL     OW33391   3.499   1.175   3.581 -0.3578  0.0835  0.3406
 7311SOL    HW133392   3.539   1.233   3.645  1.8971 -2.8469  1.5725
 7311SOL    HW233393   3.414   1.218   3.590 -0.2465  0.0844  1.3553
 7312SOL     OW33394   3.260   1.529  17.432  0.5588 -0.2695 -0.3197
 7312SOL    HW133395   3.165   1.530  17.428  0.5418 -1.0913 -0.0540
 7312SOL    HW233396   3.277   1.563  17.520  2.0749 -0.4591 -0.5377
 7313SOL     OW33397   0.672   3.673   4.134 -0.2218  0.4447 -0.0608
 7313SOL    HW133398   0.706   3.711   4.215  1.1347 -1.1952  0.1285
 7313SOL    HW233399   0.596   3.729   4.118 -0.0568  1.2841  2.1515
 7314SOL     OW33400   1.439   2.110   2.644  0.0242 -0.0316 -0.2895
 7314SOL    HW133401   1.447   2.076   2.555 -0.4214  2.4936 -1.2994
 7314SOL    HW233402   1.373   2.177   2.627  0.5653  0.7548  0.7033
 7315SOL     OW33403   2.742   0.299   4.424  0.7659 -0.4214 -1.1111
 7315SOL    HW133404   2.769   0.354   4.498  1.1986  0.5841 -2.0064
 7315SOL    HW233405   2.675   0.242   4.462 -0.1775  2.7963  2.1478
 7316SOL     OW33406   2.078   0.991  11.486  0.1044  0.7263 -0.6775
 7316SOL    HW133407   2.038   0.912  11.522 -0.7796  0.5723 -1.9740
 7316SOL    HW233408   2.088   1.055  11.556  0.1028  0.4435 -0.4201
 7317SOL     OW33409   3.900   0.455   5.826  0.0868  0.1230 -0.3346
 7317SOL    HW133410   3.959   0.525   5.795  1.2032 -0.7235 -0.1211
 7317SOL    HW233411   3.880   0.411   5.743 -0.0919  0.1159 -0.2873
 7318SOL     OW33412   1.245   2.809   0.523 -0.0535 -0.4838 -0.0210
 7318SOL    HW133413   1.296   2.745   0.574 -0.3153  0.2420  1.1524
 7318SOL    HW233414   1.214   2.756   0.450  0.9515 -1.0743 -0.0254
 7319SOL     OW33415   3.469   1.817  12.154  0.3623  0.1179 -0.1885
 7319SOL    HW133416   3.559   1.846  12.168  0.5751 -0.5791 -0.1215
 7319SOL    HW233417   3.450   1.854  12.068  1.9965  1.9440  0.2557
 7320SOL     OW33418   2.729   1.398  17.380  1.1251  0.1353  0.0412
 7320SOL    HW133419   2.664   1.347  17.430  1.2899 -3.5329 -3.4618
 7320SOL    HW233420   2.702   1.408  17.289 -0.4324 -1.7746  0.2889
 7321SOL     OW33421   0.369   1.034   7.340 -0.2409 -0.0776  0.4481
 7321SOL    HW133422   0.434   1.079   7.395  0.2716  0.2553 -0.4455
 7321SOL    HW233423   0.415   0.956   7.309 -0.5393 -0.4609  0.9561
 7322SOL     OW33424   3.649   3.144   6.169 -0.0331 -0.0194 -0.0424
 7322SOL    HW133425   3.639   3.063   6.120 -0.4909  0.3309 -0.5375
 7322SOL    HW233426   3.742   3.143   6.191 -0.3439  0.8249  1.2700
 7323SOL     OW33427   4.444   2.613   4.786 -0.0600  0.1957 -0.2712
 7323SOL    HW133428   4.352   2.589   4.797 -0.5003  1.9043 -0.1873
 7323SOL    HW233429   4.489   2.552   4.844  1.2884  0.0917 -1.4313
 7324SOL     OW33430   1.576   4.590   5.587 -0.3893 -0.2108 -0.1797
 7324SOL    HW133431   1.637   4.580   5.514  0.4206 -0.6338  0.5523
 7324SOL    HW233432   1.636   4.563   5.656  0.8024 -0.8306 -1.4561
 7325SOL     OW33433   2.470   3.889   8.337 -0.0580  0.4470 -0.1916
 7325SOL    HW133434   2.459   3.982   8.316  2.7609  0.7003 -0.5885
 7325SOL    HW233435   2.563   3.890   8.357 -0.1241  0.7001  0.0982
 7326SOL     OW33436   1.084   0.047   1.415 -0.9970 -0.5042  0.0851
 7326SOL    HW133437   1.034   0.119   1.376  0.0435 -0.1447 -0.5983
 7326SOL    HW233438   1.120   0.084   1.496  0.8336 -0.0817 -0.9202
 7327SOL     OW33439   0.405   4.645  13.600 -0.2890  0.7325 -0.4451
 7327SOL    HW133440   0.441   4.700  13.670 -2.2886 -0.8193  1.7931
 7327SOL    HW233441   0.430   4.559  13.633  0.5094  1.2813  0.3860
 7328SOL     OW33442   2.130   1.635   6.947  0.1737  0.0979 -0.3668
 7328SOL    HW133443   2.070   1.709   6.951 -0.7150 -0.5504 -1.8752
 7328SOL    HW233444   2.175   1.638   7.032 -0.3642  0.9418 -0.1147
 7329SOL     OW33445   3.967   0.234   2.115 -0.4413  0.5186  0.9603
 7329SOL    HW133446   4.004   0.147   2.102 -1.2814  0.1217  1.2348
 7329SOL    HW233447   3.921   0.208   2.195  1.1870  0.3682  1.8436
 7330SOL     OW33448   3.268   0.196  10.040 -0.1569 -0.0942 -0.4367
 7330SOL    HW133449   3.308   0.282  10.029  1.7204 -1.1695 -2.0017
 7330SOL    HW233450   3.298   0.173  10.127  0.2069  1.1223 -0.2459
 7331SOL     OW33451   4.651   3.849   4.180 -0.5848 -0.1290 -0.2505
 7331SOL    HW133452   0.015   3.811   4.169  0.1777  1.7136 -0.5010
 7331SOL    HW233453   4.618   3.861   4.091  1.8257  0.3237 -1.0774
 7332SOL     OW33454   3.689   3.777   5.041  0.1416 -0.0564 -0.6020
 7332SOL    HW133455   3.748   3.841   5.081  1.8751 -1.8799 -0.3032
 7332SOL    HW233456   3.623   3.752   5.105  1.2561 -1.7876 -0.1361
 7333SOL     OW33457   2.651   1.415   3.792 -0.3330 -0.5607 -0.2355
 7333SOL    HW133458   2.737   1.428   3.831 -0.9327 -0.3772  1.0561
 7333SOL    HW233459   2.651   1.328   3.752  0.1834  0.7948 -3.1497
 7334SOL     OW33460   3.933   1.068   9.441  0.1394 -0.5385 -0.0878
 7334SOL    HW133461   3.882   1.141   9.406  0.8488 -0.1242 -0.2579
 7334SOL    HW233462   3.872   0.994   9.439  0.8789 -1.0904 -1.7106
 7335SOL     OW33463   1.754   1.570   4.252  0.1878  0.0366  0.0097
 7335SOL    HW133464   1.769   1.502   4.318 -1.2715  1.6469  2.0168
 7335SOL    HW233465   1.834   1.624   4.257 -1.0947  1.8458  1.2007
 7336SOL     OW33466   1.215   0.648   0.061 -0.1084 -0.4419 -0.5126
 7336SOL    HW133467   1.176   0.641  17.668  1.7125  1.5768 -1.5002
 7336SOL    HW233468   1.152   0.596   0.110  1.9016 -1.1354  1.3089
 7337SOL     OW33469   0.385   3.768  13.548 -0.6588 -0.0245 -0.1536
 7337SOL    HW133470   0.467   3.721  13.557 -0.1007  1.4200  2.0993
 7337SOL    HW233471   0.318   3.701  13.535 -1.2660  0.3721  0.9722
 7338SOL     OW33472   3.138   4.523  13.688  0.9623  0.3457 -0.3715
 7338SOL    HW133473   3.193   4.448  13.664  1.7147  0.7005  0.2630
 7338SOL    HW233474   3.165   4.535  13.779 -2.0096 -1.1209  0.7185
 7339SOL     OW33475   3.468   4.122  16.749 -0.5274 -0.3749 -0.4883
 7339SOL    HW133476   3.527   4.102  16.822  0.1973 -1.3246 -1.3375
 7339SOL    HW233477   3.402   4.175  16.794 -0.1951 -0.7786  0.4733
 7340SOL     OW33478   1.193   4.143   3.175 -0.8466 -0.2538  0.5444
 7340SOL    HW133479   1.128   4.079   3.149  0.7091 -2.5241  2.1703
 7340SOL    HW233480   1.271   4.087   3.183 -1.3022 -1.2130 -2.0272
 7341SOL     OW33481   4.614   2.583  17.120 -0.1186 -0.3496 -0.2101
 7341SOL    HW133482   4.661   2.657  17.083 -0.1100  0.1515  0.8186
 7341SOL    HW233483   4.538   2.574  17.063 -0.0838 -3.3213  0.1859
 7342SOL     OW33484   2.171   0.232  17.255  0.1123  0.4530  0.5299
 7342SOL    HW133485   2.137   0.321  17.270 -0.4959  0.4240 -0.6660
 7342SOL    HW233486   2.204   0.206  17.341  0.3733 -0.7672  0.0624
 7343SOL     OW33487   1.705   0.805  13.944 -0.2217  0.4543  0.1259
 7343SOL    HW133488   1.770   0.869  13.915 -0.6347 -0.2198 -2.2934
 7343SOL    HW233489   1.661   0.780  13.863 -1.2863  1.0919  0.5051
 7344SOL     OW33490   3.868   0.786   4.272  0.1714  0.0856 -0.3406
 7344SOL    HW133491   3.807   0.717   4.248 -0.4447  0.1182  1.1756
 7344SOL    HW233492   3.817   0.861   4.241  1.6573  2.3141  2.5938
 7345SOL     OW33493   2.923   3.760   6.885  0.1844  0.0979  0.1914
 7345SOL    HW133494   3.010   3.746   6.923 -0.4355 -0.9772  1.2181
 7345SOL    HW233495   2.856   3.765   6.953  0.0038  2.2619 -0.1327
 7346SOL     OW33496   1.383   0.517  16.722 -0.3012  0.1146  0.0607
 7346SOL    HW133497   1.302   0.466  16.725 -1.2647  1.5878 -0.8324
 7346SOL    HW233498   1.405   0.522  16.815 -1.7171  1.1246  0.3490
 7347SOL     OW33499   1.798   4.718   0.641 -0.2699  0.4949 -0.1812
 7347SOL    HW133500   1.843   4.637   0.668 -0.5491 -0.4392 -2.5286
 7347SOL    HW233501   1.871   0.051   0.667  0.7190 -0.9170  0.1171
 7348SOL     OW33502   2.386   0.360  16.827  0.7496 -0.1142  0.0029
 7348SOL    HW133503   2.447   0.401  16.888  0.0648  0.9276 -0.0078
 7348SOL    HW233504   2.314   0.337  16.886  1.9592 -1.2132  1.0455
 7349SOL     OW33505   0.044   2.030   3.695 -0.1944  0.0614 -0.1455
 7349SOL    HW133506   0.139   2.044   3.701  0.1936 -0.5938 -4.5720
 7349SOL    HW233507   0.039   1.953   3.638 -0.5586 -0.9326  1.2359
 7350SOL     OW33508   2.765   1.217   5.483  0.2788 -0.1476 -0.2422
 7350SOL    HW133509   2.857   1.188   5.482  0.1260 -0.6453  0.3541
 7350SOL    HW233510   2.763   1.237   5.576 -0.1179  0.3203 -0.3517
 7351SOL     OW33511   4.432   1.801   4.938  0.1335 -0.1416 -0.0990
 7351SOL    HW133512   4.357   1.793   4.997 -1.2647 -1.5608 -2.0465
 7351SOL    HW233513   4.477   1.880   4.968  0.5900 -0.9534  1.3716
 7352SOL     OW33514   3.348   0.010   4.582  0.3702  0.2607 -0.2581
 7352SOL    HW133515   3.376   0.073   4.649 -1.7350  0.5546  0.3693
 7352SOL    HW233516   3.267   4.715   4.631  1.0882  1.9682  1.5725
 7353SOL     OW33517   2.839   0.747   2.874 -0.0036  0.4268  0.5083
 7353SOL    HW133518   2.832   0.670   2.818  3.1710  0.6467 -0.1429
 7353SOL    HW233519   2.803   0.709   2.954  2.5070 -2.3067  0.3379
 7354SOL     OW33520   2.913   2.460   2.591 -0.7605  0.4534  1.0847
 7354SOL    HW133521   2.891   2.440   2.500  0.4729  2.1124  0.4192
 7354SOL    HW233522   2.969   2.537   2.584  0.2965 -0.2943  1.3769
 7355SOL     OW33523   4.699   0.871  12.936 -0.4104 -0.6440 -0.2784
 7355SOL    HW133524   4.652   0.838  12.859  0.4979 -3.3325  0.3136
 7355SOL    HW233525   0.033   0.932  12.890  0.9732 -0.9511  1.0191
 7356SOL     OW33526   0.682   0.134   4.315 -0.2538 -0.2293 -0.1863
 7356SOL    HW133527   0.682   0.073   4.389  0.4074 -0.4438 -0.3638
 7356SOL    HW233528   0.603   0.109   4.267  0.5866  0.4182 -1.9122
 7357SOL     OW33529   3.284   3.903   0.441 -0.3522  0.0291 -0.1417
 7357SOL    HW133530   3.260   3.982   0.488  0.7125 -0.0465  0.5196
 7357SOL    HW233531   3.354   3.932   0.383  1.1946 -0.2427  1.6350
 7358SOL     OW33532   3.907   3.421  13.031  0.0281 -0.4455  0.3476
 7358SOL    HW133533   3.840   3.419  13.100 -0.3799  1.6331  0.0090
 7358SOL    HW233534   3.842   3.424  12.960  0.8774 -2.9871 -0.5077
 7359SOL     OW33535   4.273   1.002   4.549 -0.7751  0.5932  0.1630
 7359SOL    HW133536   4.310   0.921   4.584 -0.9832  1.0082  1.3412
 7359SOL    HW233537   4.225   1.036   4.624 -0.6650  1.0342  0.0310
 7360SOL     OW33538   1.102   4.307   8.428  0.0801  0.0577  0.5483
 7360SOL    HW133539   1.068   4.220   8.405 -0.9414  0.0643  2.0188
 7360SOL    HW233540   1.079   4.307   8.521 -1.4592  1.2496  0.1595
 7361SOL     OW33541   0.321   1.324   7.602  0.0087 -0.3217  0.1148
 7361SOL    HW133542   0.313   1.414   7.632  0.8796 -0.5516  1.0530
 7361SOL    HW233543   0.239   1.311   7.555 -0.2095  0.5099  0.2789
 7362SOL     OW33544   1.508   3.737  17.654  0.5347 -0.1813 -0.2972
 7362SOL    HW133545   1.462   3.795   0.020  1.9938  2.0243 -1.3091
 7362SOL    HW233546   1.601   3.754  17.668  0.2419 -1.6684  3.3015
 7363SOL     OW33547   1.730   4.631   2.853 -0.1175  0.3715  0.3330
 7363SOL    HW133548   1.814   4.643   2.808 -1.3729  1.8694 -1.6130
 7363SOL    HW233549   1.704   4.547   2.816 -0.2361  0.5446  0.0226
 7364SOL     OW33550   2.715   0.391  17.289 -0.1948 -0.4884 -0.4898
 7364SOL    HW133551   2.783   0.339  17.247  0.9725  0.1907  0.5772
 7364SOL    HW233552   2.646   0.331  17.320  1.9421 -0.7479  3.6582
 7365SOL     OW33553   2.205   4.497   6.831 -0.6138 -0.1477  0.6336
 7365SOL    HW133554   2.232   4.585   6.805 -2.3062  0.7443  1.8400
 7365SOL    HW233555   2.267   4.442   6.783 -1.9970 -0.8215 -0.3960
 7366SOL     OW33556   0.165   2.989   3.184 -0.5494 -0.3567  0.6438
 7366SOL    HW133557   0.147   2.946   3.267 -0.5127 -3.4457 -0.9697
 7366SOL    HW233558   0.077   3.016   3.158 -0.2459 -1.8832 -1.8971
 7367SOL     OW33559   3.340   4.290   6.577  0.5247 -0.1188 -0.3663
 7367SOL    HW133560   3.285   4.237   6.635 -1.0217  0.3728 -1.4134
 7367SOL    HW233561   3.335   4.244   6.493 -1.1399 -0.6629  0.0235
 7368SOL     OW33562   2.634   4.710   6.227  0.0684 -0.6822 -0.1944
 7368SOL    HW133563   2.708   0.047   6.234 -1.7023  1.2855  1.7309
 7368SOL    HW233564   2.676   4.659   6.157  2.1926 -0.7127  1.0929
 7369SOL     OW33565   2.615   1.022  13.735 -0.0156 -0.1215 -0.3920
 7369SOL    HW133566   2.704   0.995  13.714 -0.2238 -1.0392 -0.1186
 7369SOL    HW233567   2.567   0.943  13.711 -2.4884  1.1732  0.3094
 7370SOL     OW33568   4.013   2.259   0.333  0.0751 -0.4024  0.0485
 7370SOL    HW133569   4.042   2.190   0.272  1.9800 -0.0168  0.5104
 7370SOL    HW233570   3.959   2.309   0.271  0.8187  0.9946  0.5400
 7371SOL     OW33571   0.130   1.493   1.225 -0.3794 -0.6504 -0.0660
 7371SOL    HW133572   0.081   1.505   1.144 -1.2079  0.9698  0.6835
 7371SOL    HW233573   0.190   1.427   1.190  2.1256  1.9695 -0.7978
 7372SOL     OW33574   2.787   0.391   4.683 -0.1413 -0.5514  0.1792
 7372SOL    HW133575   2.719   0.364   4.745  0.0248  1.7415  1.3434
 7372SOL    HW233576   2.862   0.394   4.743 -0.0908  1.3671  0.0105
 7373SOL     OW33577   2.680   4.556   2.536  0.1776 -0.3244  0.8069
 7373SOL    HW133578   2.584   4.560   2.529  0.2773 -0.0873 -0.4239
 7373SOL    HW233579   2.714   4.643   2.517 -0.5520 -0.3508 -0.6365
 7374SOL     OW33580   1.370   4.127   8.053  0.2311  0.2505  0.0700
 7374SOL    HW133581   1.442   4.068   8.030 -0.5291 -0.6151 -0.0773
 7374SOL    HW233582   1.406   4.171   8.129  2.4739  0.8186 -1.3038
 7375SOL     OW33583   0.824   1.034  10.702  0.4007  0.2554 -0.0356
 7375SOL    HW133584   0.815   1.060  10.794  0.6003 -0.8032  0.2825
 7375SOL    HW233585   0.736   1.065  10.678 -0.1395 -1.1512  0.0995
 7376SOL     OW33586   3.438   3.446  10.378  0.0979  0.2454  0.3579
 7376SOL    HW133587   3.374   3.382  10.349  0.7414 -0.4091  0.3933
 7376SOL    HW233588   3.436   3.430  10.472 -0.8214 -0.1571  0.2668
 7377SOL     OW33589   2.219   0.538   3.501  0.2152  0.2169  0.9341
 7377SOL    HW133590   2.276   0.473   3.461 -0.3821  0.0718  0.3283
 7377SOL    HW233591   2.148   0.480   3.526 -0.5929  0.5264 -0.6017
 7378SOL     OW33592   1.250   1.854   9.136 -0.4367  0.2059 -0.4280
 7378SOL    HW133593   1.158   1.848   9.160 -0.3054  1.9459  0.5176
 7378SOL    HW233594   1.274   1.764   9.116  1.3795  0.5435  0.2237
 7379SOL     OW33595   4.167   4.574   9.306 -0.1192  0.3789  0.1476
 7379SOL    HW133596   4.124   4.647   9.352  1.1563  2.1416 -1.4394
 7379SOL    HW233597   4.182   4.615   9.220  1.5505 -0.2761  0.1230
 7380SOL     OW33598   0.740   3.623   5.985 -0.0914  0.1648 -0.4185
 7380SOL    HW133599   0.695   3.679   5.922  1.1348  0.0681 -1.3746
 7380SOL    HW233600   0.762   3.684   6.055 -1.6036  0.7519 -0.4514
 7381SOL     OW33601   0.468   3.493   5.206  0.3011  0.8168 -0.4896
 7381SOL    HW133602   0.558   3.478   5.177 -0.3861 -1.6106 -1.3566
 7381SOL    HW233603   0.449   3.576   5.163 -1.1680  0.2619 -0.9069
 7382SOL     OW33604   1.813   1.081  15.359 -0.0303 -0.9658  0.1576
 7382SOL    HW133605   1.844   1.172  15.354 -0.6591 -0.7145  0.7749
 7382SOL    HW233606   1.819   1.056  15.266 -1.2807 -1.4827  0.2137
 7383SOL     OW33607   1.956   1.037   6.627  0.5340  0.4407 -0.5958
 7383SOL    HW133608   1.997   0.962   6.669 -1.2128 -1.0425 -1.5753
 7383SOL    HW233609   2.028   1.082   6.582  0.7142  0.8067  0.0552
 7384SOL     OW33610   3.938   0.670  17.172  0.1572  0.0461 -0.4122
 7384SOL    HW133611   3.985   0.726  17.234  0.1467 -2.0802  1.5271
 7384SOL    HW233612   3.879   0.617  17.227  1.5892  1.6174  2.6525
 7385SOL     OW33613   2.375   3.684   2.496 -0.2563 -0.4185 -0.4061
 7385SOL    HW133614   2.387   3.643   2.411  1.9821  2.5290 -1.5025
 7385SOL    HW233615   2.415   3.769   2.481 -0.3527  0.1762  2.6617
 7386SOL     OW33616   3.674   1.759   3.405 -0.2798  0.1284 -0.6004
 7386SOL    HW133617   3.768   1.759   3.392 -0.3395 -0.9638 -1.0766
 7386SOL    HW233618   3.662   1.807   3.487 -1.2096 -1.5366  0.2518
 7387SOL     OW33619   3.743   4.599   8.392 -0.2778 -0.0657 -0.3626
 7387SOL    HW133620   3.691   4.677   8.411 -3.1665 -1.2988 -3.0889
 7387SOL    HW233621   3.810   4.589   8.459 -0.0235 -1.9905 -0.9117
 7388SOL     OW33622   1.510   2.523   6.726 -0.3356 -0.6923  0.1224
 7388SOL    HW133623   1.578   2.558   6.669  0.6122 -0.3616  1.4639
 7388SOL    HW233624   1.452   2.479   6.663  0.1979  1.9382 -2.2450
 7389SOL     OW33625   0.987   0.105  10.955 -0.2053  0.5462 -0.2657
 7389SOL    HW133626   1.008   0.107  11.048  1.4502  1.4553 -0.6560
 7389SOL    HW233627   1.069   0.134  10.914 -0.2049 -1.8287 -1.9773
 7390SOL     OW33628   2.953   3.076   8.082 -0.1908 -0.1376 -0.0110
 7390SOL    HW133629   2.981   3.137   8.014  0.6200  0.2939  0.7149
 7390SOL    HW233630   3.032   3.077   8.137 -1.2002 -2.2441  1.4665
 7391SOL     OW33631   4.462   2.355  10.948  0.3336  0.6676  0.6423
 7391SOL    HW133632   4.469   2.290  11.018 -1.1302 -1.4420 -1.1719
 7391SOL    HW233633   4.480   2.437  10.995  0.6580  1.1197 -0.2810
 7392SOL     OW33634   2.254   1.929   1.342 -0.0022  0.5764  0.2106
 7392SOL    HW133635   2.329   1.965   1.295  0.3861 -0.7960 -0.2091
 7392SOL    HW233636   2.290   1.846   1.373  1.2330  0.8367 -0.5401
 7393SOL     OW33637   0.609   3.344   4.011  0.1847  0.0382  0.2022
 7393SOL    HW133638   0.616   3.416   3.949 -0.6392 -1.7686 -2.0042
 7393SOL    HW233639   0.517   3.318   3.998  1.2952 -2.8023 -2.0052
 7394SOL     OW33640   0.557   1.166   7.862 -0.1059 -0.0459 -0.4549
 7394SOL    HW133641   0.602   1.103   7.805 -0.0421 -2.4645  2.2112
 7394SOL    HW233642   0.553   1.116   7.944 -1.2510 -3.1152 -2.3534
 7395SOL     OW33643   1.615   3.384   9.493  0.1333 -0.6728  0.0027
 7395SOL    HW133644   1.624   3.393   9.399  0.6576  0.9148  0.1982
 7395SOL    HW233645   1.575   3.297   9.485 -0.1094 -0.3475 -2.2317
 7396SOL     OW33646   4.377   4.660   8.339  0.6801  0.2304  0.1896
 7396SOL    HW133647   4.407   4.671   8.429  2.6371 -0.5547 -0.3683
 7396SOL    HW233648   4.436   4.595   8.303  0.2299 -0.3319  0.4726
 7397SOL     OW33649   3.224   1.523   4.193  0.2788 -0.0524  0.2866
 7397SOL    HW133650   3.239   1.608   4.235 -1.5721  0.5679 -0.2623
 7397SOL    HW233651   3.290   1.463   4.226  1.3183  0.2730 -1.2163
 7398SOL     OW33652   2.717   4.054  16.026 -0.0463 -0.3627  0.0295
 7398SOL    HW133653   2.759   4.138  16.044  0.2337 -0.7983  1.3670
 7398SOL    HW233654   2.799   4.008  16.006  0.0370 -0.1528 -0.1123
 7399SOL     OW33655   1.376   4.066  14.179  0.3544  1.0895  0.7498
 7399SOL    HW133656   1.371   3.997  14.113 -0.2988  0.8181  1.0888
 7399SOL    HW233657   1.285   4.092  14.191 -1.1255 -3.1233 -1.4452
 7400SOL     OW33658   1.968   4.360   2.823 -0.1369  0.5864  0.1564
 7400SOL    HW133659   2.024   4.283   2.818 -0.2263  0.4757  0.7749
 7400SOL    HW233660   1.887   4.318   2.795 -0.1836  0.9529 -0.2626
 7401SOL     OW33661   2.871   3.734   9.692  0.6173 -0.4898  0.1824
 7401SOL    HW133662   2.911   3.723   9.778 -0.7033 -2.1238  0.5837
 7401SOL    HW233663   2.781   3.725   9.722  0.5626  1.5548  0.6309
 7402SOL     OW33664   1.638   3.343   7.700 -0.3955  0.1051  0.2549
 7402SOL    HW133665   1.722   3.298   7.700 -1.3455 -1.6467 -0.5776
 7402SOL    HW233666   1.605   3.345   7.789 -2.6280  0.7405 -0.5979
 7403SOL     OW33667   1.867   0.353   3.051  0.0593  0.0040 -0.5906
 7403SOL    HW133668   1.773   0.352   3.066  0.2136  0.3194  0.4198
 7403SOL    HW233669   1.871   0.333   2.958 -1.4300  1.2873 -0.9238
 7404SOL     OW33670   4.015   0.706   1.893  1.1370  0.0792 -0.0060
 7404SOL    HW133671   3.940   0.709   1.953  1.4338 -1.3612  0.4319
 7404SOL    HW233672   4.074   0.676   1.962  0.5184  1.6808  1.2066
 7405SOL     OW33673   2.781   0.990   3.205  0.5627  0.5895  0.1730
 7405SOL    HW133674   2.860   1.005   3.153  1.9255  1.2544  2.4342
 7405SOL    HW233675   2.811   0.922   3.264  0.3363  0.1711 -0.1966
 7406SOL     OW33676   1.825   3.948   8.010  0.0725  0.3651  0.3841
 7406SOL    HW133677   1.894   4.006   7.978 -0.4580  0.2622 -0.9385
 7406SOL    HW233678   1.875   3.881   8.057  0.0103 -0.0461 -0.1365
 7407SOL     OW33679   2.280   2.987  15.305 -0.0797  0.2622 -0.3203
 7407SOL    HW133680   2.355   3.031  15.343 -1.4209  1.5964  0.7566
 7407SOL    HW233681   2.281   2.999  15.210 -1.2057 -1.2169 -0.5362
 7408SOL     OW33682   4.653   1.740   4.700  0.1595 -0.5150 -0.1810
 7408SOL    HW133683   4.634   1.696   4.617  0.3727 -0.2826 -0.3544
 7408SOL    HW233684   0.015   1.780   4.679  0.3551 -0.8068  0.0623
 7409SOL     OW33685   3.653   3.497  15.056  0.4691 -0.5142  0.3305
 7409SOL    HW133686   3.657   3.567  15.122 -1.7162  0.7229 -0.8329
 7409SOL    HW233687   3.561   3.469  15.048  0.4584 -0.6150  0.7646
 7410SOL     OW33688   0.721   1.405   2.650  0.2107  0.6267  0.1165
 7410SOL    HW133689   0.775   1.464   2.598  0.5349  0.4665  0.2727
 7410SOL    HW233690   0.659   1.472   2.681 -1.1955 -0.1229 -1.0604
 7411SOL     OW33691   2.633   3.419  17.066 -0.0278 -0.0278  0.3016
 7411SOL    HW133692   2.575   3.343  17.054 -1.2538  0.7534  1.2669
 7411SOL    HW233693   2.703   3.370  17.108 -1.0656 -0.7826  1.1761
 7412SOL     OW33694   2.656   3.822  11.402  0.1485 -0.5395  0.1697
 7412SOL    HW133695   2.578   3.776  11.435  1.6073 -1.0684  2.9152
 7412SOL    HW233696   2.701   3.747  11.363  0.8314 -1.4080  2.6171
 7413SOL     OW33697   3.433   0.946   5.867 -0.5273 -0.3983  0.5238
 7413SOL    HW133698   3.492   1.019   5.845 -0.3318 -0.7679 -0.1729
 7413SOL    HW233699   3.482   0.869   5.840  1.2707  1.7423 -2.3062
 7414SOL     OW33700   2.036   1.860   8.415  0.1419 -0.1709 -0.1571
 7414SOL    HW133701   1.976   1.797   8.376 -0.7763  0.8574 -0.4284
 7414SOL    HW233702   2.053   1.914   8.337  0.6596  0.8354  0.6466
 7415SOL     OW33703   2.454   4.492   5.364 -0.2840  0.2941  0.4910
 7415SOL    HW133704   2.390   4.523   5.299 -0.6150 -3.3748 -0.9481
 7415SOL    HW233705   2.538   4.504   5.320 -0.0011  1.1734  1.2627
 7416SOL     OW33706   3.133   1.311   6.945 -0.2961  0.2138 -0.1072
 7416SOL    HW133707   3.210   1.366   6.929 -0.9701  0.4068 -2.8124
 7416SOL    HW233708   3.178   1.245   6.997 -1.6881 -0.5550  0.1201
 7417SOL     OW33709   0.612   0.587   8.009  0.0911 -0.3737 -0.2122
 7417SOL    HW133710   0.648   0.646   8.074 -1.7357  2.1677 -1.5139
 7417SOL    HW233711   0.693   0.566   7.963  0.7082  0.1992  0.6091
 7418SOL     OW33712   0.269   1.423  15.857  0.8077  0.2924 -0.4707
 7418SOL    HW133713   0.304   1.511  15.843  0.0985  0.7237  0.4416
 7418SOL    HW233714   0.320   1.375  15.922  2.2521 -1.0715 -2.6021
 7419SOL     OW33715   1.510   1.943   7.449 -0.4654  0.6736  0.0160
 7419SOL    HW133716   1.578   1.912   7.390  0.8845  1.2112  1.3072
 7419SOL    HW233717   1.519   2.038   7.452 -0.0957  0.5862  1.5355
 7420SOL     OW33718   1.869   2.756  16.299 -0.2714  0.3493 -0.6479
 7420SOL    HW133719   1.944   2.703  16.327 -0.2798  0.9418  0.4800
 7420SOL    HW233720   1.827   2.689  16.245 -1.3723 -0.4929  1.2696
 7421SOL     OW33721   0.747   2.782   6.890  0.5151 -0.1707  0.0865
 7421SOL    HW133722   0.748   2.783   6.985  0.5479  0.3672  0.0801
 7421SOL    HW233723   0.653   2.787   6.875  0.9579  1.0581 -2.3314
 7422SOL     OW33724   2.386   3.249   7.783 -0.1239 -0.2425 -0.4763
 7422SOL    HW133725   2.426   3.184   7.841  0.0306  0.9949  0.7940
 7422SOL    HW233726   2.460   3.300   7.751 -1.3843  2.5319  1.1148
 7423SOL     OW33727   2.759   1.586   6.938 -0.6484 -0.5533 -0.4914
 7423SOL    HW133728   2.736   1.619   7.025 -1.2213 -0.4840 -0.6693
 7423SOL    HW233729   2.677   1.551   6.902 -0.6473 -0.2684 -0.7684
 7424SOL     OW33730   0.650   4.310   3.805 -0.4226 -0.1688 -0.0549
 7424SOL    HW133731   0.651   4.222   3.767  2.0002 -0.1288 -0.1010
 7424SOL    HW233732   0.649   4.292   3.899 -0.4104 -0.5063 -0.1204
 7425SOL     OW33733   2.635   3.474   0.444  0.0888  0.0729 -0.3910
 7425SOL    HW133734   2.571   3.407   0.418  0.8494 -1.6122  2.0761
 7425SOL    HW233735   2.711   3.448   0.391  0.8385  0.3143  0.5627
 7426SOL     OW33736   2.323   3.319  15.364 -0.3906  0.2496  0.2786
 7426SOL    HW133737   2.319   3.327  15.269  0.2936 -0.6015  0.1857
 7426SOL    HW233738   2.406   3.273  15.375  0.3660  1.2134 -1.5345
 7427SOL     OW33739   4.278   4.107   6.398 -0.3805  0.2400 -0.2677
 7427SOL    HW133740   4.208   4.097   6.462 -2.0099  1.0186 -1.9355
 7427SOL    HW233741   4.244   4.047   6.331  2.4892 -0.6316 -0.9665
 7428SOL     OW33742   2.096   1.925   2.451 -0.5144 -0.4044 -0.2956
 7428SOL    HW133743   2.146   1.981   2.510  1.4879 -1.8934 -0.6048
 7428SOL    HW233744   2.066   1.853   2.506 -0.3188 -0.8799 -0.8167
 7429SOL     OW33745   2.604   3.933   8.688 -0.5473  0.2569  0.1236
 7429SOL    HW133746   2.640   3.869   8.749  1.1556  1.4749  0.4023
 7429SOL    HW233747   2.657   4.009   8.713 -0.1902 -0.5357  1.7833
 7430SOL     OW33748   2.602   4.427   7.383  0.1777 -0.7971  0.6089
 7430SOL    HW133749   2.646   4.460   7.461 -1.6647  0.5966  1.0475
 7430SOL    HW233750   2.542   4.376   7.437 -0.4765  0.7893  1.3703
 7431SOL     OW33751   2.179   4.088  14.505  0.0737 -0.5837  0.0220
 7431SOL    HW133752   2.091   4.117  14.481 -0.0953 -1.0961  0.0365
 7431SOL    HW233753   2.218   4.091  14.417  0.8620 -1.4622  0.3398
 7432SOL     OW33754   0.433   4.077   0.319  0.4036 -0.3830 -0.2918
 7432SOL    HW133755   0.493   4.068   0.245  3.4152  0.2757  2.0927
 7432SOL    HW233756   0.478   4.145   0.369 -0.0765  1.5439 -2.4976
 7433SOL     OW33757   0.921   4.342  14.100 -0.5071 -0.0508  0.1914
 7433SOL    HW133758   0.888   4.254  14.120 -0.7026  0.4183  1.9270
 7433SOL    HW233759   0.912   4.372  14.190  0.5059  2.0270 -0.4052
 7434SOL     OW33760   4.672   4.649   7.014 -0.1482 -0.3026 -0.2147
 7434SOL    HW133761   4.602   4.714   7.004  1.3029  1.3586  0.2508
 7434SOL    HW233762   0.023   4.710   7.016  0.0988 -0.5811 -1.0318
 7435SOL     OW33763   4.565   1.754   8.862  0.3211  0.0614 -0.0360
 7435SOL    HW133764   4.508   1.750   8.785 -1.0517 -0.9119  1.0311
 7435SOL    HW233765   4.622   1.829   8.843  0.0709  0.1703 -0.3606
 7436SOL     OW33766   2.924   1.929  16.188 -0.3794 -0.3911 -0.0801
 7436SOL    HW133767   2.862   1.982  16.239 -0.7193 -2.0793  1.2842
 7436SOL    HW233768   2.950   1.986  16.116  1.0978  1.9709  2.3275
 7437SOL     OW33769   4.425   2.355   9.075 -0.3406 -0.2430  0.3245
 7437SOL    HW133770   4.457   2.269   9.051  0.1588 -0.7365  2.8546
 7437SOL    HW233771   4.486   2.402   9.017  1.1885 -0.9808  1.3550
 7438SOL     OW33772   1.782   1.535   3.031 -0.2256  0.7252  0.3975
 7438SOL    HW133773   1.733   1.479   3.091  3.6040 -2.1114  0.9063
 7438SOL    HW233774   1.739   1.504   2.951  2.4148 -0.9424 -0.3782
 7439SOL     OW33775   1.653   3.801   8.301 -0.0259 -0.2039  0.3344
 7439SOL    HW133776   1.659   3.767   8.212  0.8516 -0.5951  0.5418
 7439SOL    HW233777   1.735   3.849   8.313 -1.0896  1.2956  1.6765
 7440SOL     OW33778   0.280   1.138   4.120 -0.6394  0.2594  0.0617
 7440SOL    HW133779   0.273   1.227   4.087 -2.7878 -0.4908 -1.5113
 7440SOL    HW233780   0.247   1.088   4.046 -0.5496  1.3527 -0.7112
 7441SOL     OW33781   3.336   3.712   0.645  0.7337 -0.3520 -0.1754
 7441SOL    HW133782   3.319   3.779   0.579 -1.3310  0.1550  0.8650
 7441SOL    HW233783   3.407   3.751   0.697 -1.6152  0.1116  2.6952
 7442SOL     OW33784   1.173   2.688   7.674  0.3684 -0.0656 -0.6141
 7442SOL    HW133785   1.175   2.778   7.641  2.1544  0.5919  1.2808
 7442SOL    HW233786   1.218   2.634   7.608 -0.0815 -1.3591  0.1291
 7443SOL     OW33787   3.704   0.508   1.807  0.0135  0.9220 -0.4327
 7443SOL    HW133788   3.766   0.580   1.820 -0.3235  0.8670  1.4255
 7443SOL    HW233789   3.763   0.435   1.785 -2.3284 -0.4434 -2.2558
 7444SOL     OW33790   0.437   3.816   4.092  0.3585 -0.3076  1.0213
 7444SOL    HW133791   0.453   3.894   4.040  0.9993 -2.1176 -1.4652
 7444SOL    HW233792   0.341   3.817   4.101  0.2544  0.6060 -0.2243
 7445SOL     OW33793   1.138   4.205  14.202  0.2666  0.2122  0.3443
 7445SOL    HW133794   1.074   4.276  14.197  1.2474  1.1194  0.4501
 7445SOL    HW233795   1.076   4.133  14.207 -0.9636  1.2869  0.7301
 7446SOL     OW33796   4.368   4.274   9.211  0.3061 -0.2632  0.1660
 7446SOL    HW133797   4.313   4.290   9.288 -1.9276 -0.4694 -1.3897
 7446SOL    HW233798   4.451   4.309   9.243 -0.0045  1.3984 -0.8088
 7447SOL     OW33799   4.474   3.254  15.018  0.1710  0.3166 -0.1148
 7447SOL    HW133800   4.550   3.287  15.067  1.6982 -0.9694 -1.5930
 7447SOL    HW233801   4.414   3.317  15.057  1.4769  1.2091  0.4725
 7448SOL     OW33802   0.647   1.160   3.619  0.4533 -0.8398  0.5305
 7448SOL    HW133803   0.658   1.206   3.536  2.3615  0.9428  1.8030
 7448SOL    HW233804   0.582   1.217   3.658 -0.1775 -0.5435 -0.9472
 7449SOL     OW33805   2.729   2.700   2.722 -0.0088  0.0436  0.0429
 7449SOL    HW133806   2.691   2.619   2.686 -1.5350  1.2385 -1.0144
 7449SOL    HW233807   2.812   2.709   2.675  0.5646  2.7955  1.5946
 7450SOL     OW33808   0.931   2.058  14.705  0.5125 -0.3460  0.6724
 7450SOL    HW133809   1.012   2.055  14.655 -1.0642  0.0800 -1.8844
 7450SOL    HW233810   0.880   2.103  14.638  2.8470 -1.9726 -2.1970
 7451SOL     OW33811   0.106   2.009  14.155 -0.1685  0.0161  0.3110
 7451SOL    HW133812   0.012   1.994  14.161  0.1643 -0.8983  3.7585
 7451SOL    HW233813   0.134   1.961  14.077 -1.8673  0.6319 -0.6747
 7452SOL     OW33814   0.437   0.068   3.631  0.2387  0.0443  0.0170
 7452SOL    HW133815   0.530   0.066   3.657  0.1412 -1.9781  0.1451
 7452SOL    HW233816   0.420   0.160   3.653  1.5077  0.3856 -0.4127
 7453SOL     OW33817   0.869   3.698  14.270  0.6660  0.0725 -0.8295
 7453SOL    HW133818   0.777   3.696  14.294  0.6433 -3.2917 -1.2866
 7453SOL    HW233819   0.907   3.755  14.337 -0.5156 -1.1547  0.8827
 7454SOL     OW33820   2.131   4.652   5.816  0.4483  1.0133 -0.1665
 7454SOL    HW133821   2.176   0.013   5.812  1.8032  0.2761 -0.1878
 7454SOL    HW233822   2.106   4.641   5.908 -2.6513 -1.7501 -1.3272
 7455SOL     OW33823   3.721   3.146   1.192 -0.4153 -0.2228 -0.4512
 7455SOL    HW133824   3.665   3.173   1.119  1.3113  0.6338 -1.4799
 7455SOL    HW233825   3.673   3.192   1.260 -3.9559  0.1486 -3.1817
 7456SOL     OW33826   2.350   0.119  12.401  0.6757 -0.5199  0.6229
 7456SOL    HW133827   2.270   0.074  12.429  1.7365 -2.5942  0.3037
 7456SOL    HW233828   2.315   0.208  12.406  1.7308  0.0829 -2.4661
 7457SOL     OW33829   1.898   0.705   4.333 -0.4319  0.2620 -0.3419
 7457SOL    HW133830   1.855   0.662   4.407  0.6371  0.4428  0.3926
 7457SOL    HW233831   1.872   0.644   4.264  1.6638 -1.6916  0.6244
 7458SOL     OW33832   2.912   2.918   5.614  0.2461 -0.2969  0.0072
 7458SOL    HW133833   2.921   3.012   5.633 -0.9786 -0.4932  1.6348
 7458SOL    HW233834   2.975   2.928   5.544 -2.2512 -0.9707 -2.3343
 7459SOL     OW33835   4.158   1.543  14.824  0.3172 -0.3885 -0.3161
 7459SOL    HW133836   4.081   1.525  14.877  0.4061 -0.2622 -0.1404
 7459SOL    HW233837   4.127   1.484  14.757  0.7795 -1.3928  0.3500
 7460SOL     OW33838   4.407   0.651   3.080 -0.0203  0.0070  0.5511
 7460SOL    HW133839   4.452   0.727   3.043  1.5128 -0.8996  0.5678
 7460SOL    HW233840   4.456   0.582   3.036  2.0359  1.7312  0.1468
 7461SOL     OW33841   3.951   2.440   3.848 -0.4832 -0.2346  0.0130
 7461SOL    HW133842   3.923   2.395   3.768 -1.2418 -1.0869  0.7543
 7461SOL    HW233843   4.045   2.421   3.847 -0.4824 -0.1781 -0.7841
 7462SOL     OW33844   1.952   3.384   5.005 -0.0604  0.0310 -0.2357
 7462SOL    HW133845   1.888   3.360   5.072  0.2789  0.6770  0.3192
 7462SOL    HW233846   1.897   3.436   4.946  0.0140  1.0902  0.6287
 7463SOL     OW33847   1.362   0.365   9.789  0.2680 -0.0169 -0.3481
 7463SOL    HW133848   1.274   0.336   9.813  0.0269  0.2969 -0.8428
 7463SOL    HW233849   1.357   0.399   9.699  1.2258 -1.0410 -0.7920
 7464SOL     OW33850   0.650   2.928   4.127  0.2892  0.3272 -0.0535
 7464SOL    HW133851   0.592   2.905   4.054  3.0837 -1.2221 -1.7978
 7464SOL    HW233852   0.614   3.007   4.167  0.9590  0.6475 -0.0712
 7465SOL     OW33853   1.363   3.675   1.162  0.5013  0.1412  0.6299
 7465SOL    HW133854   1.320   3.760   1.147 -0.5537 -0.2549  1.3992
 7465SOL    HW233855   1.426   3.672   1.090  1.9554 -0.6235  1.9687
 7466SOL     OW33856   0.793   2.681   2.941 -0.3158 -0.3019  0.4347
 7466SOL    HW133857   0.731   2.688   2.868 -0.2893 -2.7595  0.1723
 7466SOL    HW233858   0.729   2.678   3.012  0.0632  1.8568  0.8579
 7467SOL     OW33859   3.572   4.345   5.327  0.5776  0.6485 -0.1795
 7467SOL    HW133860   3.496   4.345   5.268  2.7047 -2.2039 -2.8800
 7467SOL    HW233861   3.640   4.330   5.261  1.4251  0.3542  0.7723
 7468SOL     OW33862   4.615   1.158   1.948 -0.5929 -0.1349 -1.1277
 7468SOL    HW133863   4.634   1.200   1.863  1.1653  1.2039 -0.0713
 7468SOL    HW233864   4.703   1.154   1.987 -1.4159 -0.3383  0.6916
 7469SOL     OW33865   2.506   3.318   1.847 -0.2891 -0.1980  0.2407
 7469SOL    HW133866   2.528   3.232   1.810 -0.6163  1.0961 -2.9410
 7469SOL    HW233867   2.461   3.362   1.774  2.1361  0.1458 -1.0466
 7470SOL     OW33868   1.036   2.710   1.504 -0.6678 -0.7212 -0.5085
 7470SOL    HW133869   1.013   2.619   1.483  0.6894 -0.6479 -2.2989
 7470SOL    HW233870   0.955   2.738   1.545  0.0537  0.7368 -0.0829
 7471SOL     OW33871   0.484   3.876  14.057 -0.5535 -0.6411 -0.1921
 7471SOL    HW133872   0.446   3.840  14.137  0.2589  0.3978  0.6563
 7471SOL    HW233873   0.509   3.791  14.020  2.5960 -0.6601  2.0646
 7472SOL     OW33874   0.370   1.858  12.652 -0.3691  0.4231  0.1984
 7472SOL    HW133875   0.361   1.922  12.581  0.1214 -0.2038 -0.4241
 7472SOL    HW233876   0.376   1.922  12.723  0.1503 -0.1594  0.6748
 7473SOL     OW33877   0.154   1.200   9.443  0.0275  0.3971 -0.0938
 7473SOL    HW133878   0.091   1.233   9.508 -1.1083 -1.3690 -0.2842
 7473SOL    HW233879   0.089   1.170   9.379 -0.0722  0.2857  0.0591
 7474SOL     OW33880   0.072   4.584   7.279  0.1862 -0.3610 -0.4804
 7474SOL    HW133881   4.709   4.593   7.238  0.1221  2.9752  0.4124
 7474SOL    HW233882   0.124   4.650   7.233 -0.5880  2.1110  2.2038
 7475SOL     OW33883   3.144   0.194   5.184 -0.0025  0.5384 -0.3163
 7475SOL    HW133884   3.124   0.131   5.254 -1.1132 -0.3097 -1.4011
 7475SOL    HW233885   3.146   0.279   5.229 -0.3820 -1.2736  3.1819
 7476SOL     OW33886   3.128   1.073  16.800 -0.1332 -0.1043  0.1210
 7476SOL    HW133887   3.170   0.994  16.765  2.1808  0.6745  1.1421
 7476SOL    HW233888   3.053   1.088  16.742 -0.1611 -2.0782 -0.3648
 7477SOL     OW33889   1.310   0.688   9.373  0.2050 -0.0136 -0.5279
 7477SOL    HW133890   1.257   0.763   9.402  0.1197  0.0265 -0.7895
 7477SOL    HW233891   1.262   0.664   9.294 -1.0854 -0.3024  0.3326
 7478SOL     OW33892   2.678   4.555   5.201  0.4175 -0.2318  0.3926
 7478SOL    HW133893   2.663   4.509   5.119  1.9432 -0.0825  0.0238
 7478SOL    HW233894   2.758   4.604   5.182  0.4806 -0.8728 -1.0167
 7479SOL     OW33895   2.109   2.360  16.186 -0.3834 -0.4463  0.2948
 7479SOL    HW133896   2.098   2.329  16.276  2.9618 -3.0161 -0.1917
 7479SOL    HW233897   2.176   2.299  16.157 -0.0638 -0.9854  2.1842
 7480SOL     OW33898   3.476   2.116   7.054  0.0822 -0.2523 -0.1853
 7480SOL    HW133899   3.386   2.089   7.036  0.2037 -1.3076  0.7611
 7480SOL    HW233900   3.504   2.059   7.126 -0.4063  0.1062  0.2950
 7481SOL     OW33901   0.676   2.103   1.855 -0.5430 -0.5406  0.3850
 7481SOL    HW133902   0.595   2.152   1.841  1.8037  3.3533  0.6031
 7481SOL    HW233903   0.644   2.024   1.898  0.2004  0.1114  2.1292
 7482SOL     OW33904   0.944   3.429  14.282 -0.0115  0.0408  0.0841
 7482SOL    HW133905   0.924   3.523  14.281 -0.9188 -0.1507  0.2184
 7482SOL    HW233906   0.961   3.418  14.376 -1.1375 -2.4545 -0.0131
 7483SOL     OW33907   0.971   4.402   9.665 -0.2454 -0.0474 -0.2563
 7483SOL    HW133908   0.981   4.410   9.570  0.3455 -0.7383 -0.2543
 7483SOL    HW233909   0.925   4.318   9.663  1.1519 -0.7945 -1.6066
 7484SOL     OW33910   0.618   2.777   9.992  0.6275  0.4783 -0.2327
 7484SOL    HW133911   0.655   2.694  10.024 -1.1822 -0.4040 -0.3824
 7484SOL    HW233912   0.537   2.737   9.960 -0.1940  2.1231 -0.1894
 7485SOL     OW33913   1.695   4.257   4.602  0.9028  0.4203 -0.0442
 7485SOL    HW133914   1.605   4.277   4.575 -0.2527 -0.6257  3.0553
 7485SOL    HW233915   1.733   4.340   4.576  0.8288 -0.0927 -1.7629
 7486SOL     OW33916   3.744   3.918  11.945  0.4004  0.1785  0.0784
 7486SOL    HW133917   3.738   3.993  11.886 -0.7299 -1.0352 -1.3548
 7486SOL    HW233918   3.717   3.959  12.027  0.7621  0.0487  0.2630
 7487SOL     OW33919   4.271   2.528   3.664  0.5428 -0.3850  0.1389
 7487SOL    HW133920   4.203   2.579   3.708  1.7763  0.7426  0.7416
 7487SOL    HW233921   4.274   2.451   3.720  0.5426  0.4862  1.3275
 7488SOL     OW33922   1.363   4.322   8.309 -0.1039  0.0124 -0.2286
 7488SOL    HW133923   1.376   4.415   8.292  0.0462 -0.1199 -0.8626
 7488SOL    HW233924   1.277   4.320   8.352  0.5421 -0.8979  0.9966
 7489SOL     OW33925   4.405   2.194  11.420 -0.1230 -0.4623 -0.3043
 7489SOL    HW133926   4.374   2.115  11.465  1.0018 -0.4416  0.5253
 7489SOL    HW233927   4.358   2.256  11.476  0.4167 -0.1949 -0.1545
 7490SOL     OW33928   0.244   1.561  10.764  0.0097 -0.4370 -0.3601
 7490SOL    HW133929   0.206   1.645  10.790 -1.1540 -0.4547 -2.0704
 7490SOL    HW233930   0.304   1.559  10.839 -1.3191 -0.6346  0.6828
 7491SOL     OW33931   4.430   1.487  17.677 -0.6586 -0.0966  0.0590
 7491SOL    HW133932   4.454   1.512  17.588  0.0018  0.5918  0.4326
 7491SOL    HW233933   4.422   1.391  17.675  1.4955 -0.2899  0.5168
 7492SOL     OW33934   3.213   4.351   2.938  0.1940  0.1637 -0.5539
 7492SOL    HW133935   3.198   4.326   2.847 -0.1763  0.2761 -0.5233
 7492SOL    HW233936   3.170   4.281   2.987  1.5329 -0.3230 -0.0969
 7493SOL     OW33937   4.578   1.516   6.534 -0.8024 -0.1485 -0.4783
 7493SOL    HW133938   4.543   1.605   6.527 -1.4148 -0.2540  1.3235
 7493SOL    HW233939   4.672   1.529   6.521 -1.1922  1.7902 -1.3568
 7494SOL     OW33940   3.136   4.671   4.732  0.2283 -0.2340  0.3237
 7494SOL    HW133941   3.158   4.660   4.825 -3.4870 -0.9149  1.1550
 7494SOL    HW233942   3.043   4.694   4.738  0.4546  0.4802  1.1217
 7495SOL     OW33943   3.017   2.327  16.193  0.1919  0.0921  0.3022
 7495SOL    HW133944   2.991   2.401  16.247 -0.2743  0.3472 -0.2826
 7495SOL    HW233945   3.074   2.280  16.255 -1.3200 -2.1631 -0.0152
 7496SOL     OW33946   4.203   1.232  16.370  0.0072  0.5444 -0.1190
 7496SOL    HW133947   4.219   1.310  16.317 -1.1907 -1.3547 -3.2527
 7496SOL    HW233948   4.111   1.217  16.350 -1.2336  2.5111  4.1243
 7497SOL     OW33949   4.567   2.892   7.997  0.1373  0.3561  0.1861
 7497SOL    HW133950   4.531   2.804   7.990 -0.3720  0.4843  1.2439
 7497SOL    HW233951   4.610   2.897   8.083  1.4337  2.7891 -0.5796
 7498SOL     OW33952   0.083   3.785   7.875 -0.0788 -0.7496  0.2521
 7498SOL    HW133953   0.037   3.848   7.931  0.9492 -0.9812  1.3404
 7498SOL    HW233954   0.034   3.705   7.895  0.4688 -1.0591  0.3416
 7499SOL     OW33955   0.899   1.006   5.996  0.8064  0.3752 -0.0234
 7499SOL    HW133956   0.855   0.987   5.913  1.2454 -1.1490  0.0817
 7499SOL    HW233957   0.958   0.932   6.011  1.5153  0.7617 -0.8942
 7500SOL     OW33958   4.573   0.253   5.109  0.0688 -0.0337 -0.4912
 7500SOL    HW133959   4.586   0.235   5.203 -0.6157  3.4052  0.2634
 7500SOL    HW233960   4.566   0.169   5.064 -0.9912  0.1127 -0.6077
 7501SOL     OW33961   4.562   2.053   1.857  0.4215 -0.6045 -0.0557
 7501SOL    HW133962   4.551   1.969   1.812  0.0638 -1.7447  2.1583
 7501SOL    HW233963   4.470   2.072   1.874  0.1376 -1.8769 -0.1524
 7502SOL     OW33964   4.052   4.078   7.431  0.1645  0.1692 -0.4606
 7502SOL    HW133965   4.001   4.158   7.422 -0.9039 -0.4186  0.3818
 7502SOL    HW233966   3.987   4.025   7.477 -0.8029  1.8201  0.0520
 7503SOL     OW33967   0.269   2.565  15.821  0.0344 -0.3669  0.1473
 7503SOL    HW133968   0.328   2.639  15.831  0.2401 -0.4526 -0.4265
 7503SOL    HW233969   0.217   2.600  15.750  0.2316 -0.3733 -0.0001
 7504SOL     OW33970   0.419   2.201  17.569  0.2974 -0.1596  0.1302
 7504SOL    HW133971   0.403   2.291  17.542 -0.5811 -0.0184  1.1165
 7504SOL    HW233972   0.448   2.218  17.658  1.7309  0.4628 -0.4532
 7505SOL     OW33973   1.177   3.956   8.122  0.5285 -0.1045 -0.7569
 7505SOL    HW133974   1.253   4.002   8.085  0.5417 -2.4012 -3.6700
 7505SOL    HW233975   1.114   3.970   8.052 -1.8855 -3.5131  0.7238
 7506SOL     OW33976   0.562   3.449  14.740  0.4501  0.3261  0.2202
 7506SOL    HW133977   0.506   3.487  14.672 -0.5680  1.9784  1.9688
 7506SOL    HW233978   0.526   3.361  14.750 -0.2604  0.3459 -2.3728
 7507SOL     OW33979   4.262   1.281   8.618 -0.0067 -0.1265 -0.1412
 7507SOL    HW133980   4.325   1.327   8.673  1.4371 -0.1631 -1.7342
 7507SOL    HW233981   4.285   1.191   8.641  1.0106 -0.5794 -2.8899
 7508SOL     OW33982   3.253   1.329   0.655  0.1589 -0.4811  0.6414
 7508SOL    HW133983   3.208   1.407   0.687  1.7696  0.9417 -0.5591
 7508SOL    HW233984   3.226   1.259   0.715 -1.0330  0.1603  0.8373
 7509SOL     OW33985   0.990   2.956  17.376  0.6264 -0.2826 -0.2362
 7509SOL    HW133986   0.957   2.886  17.320  0.4430 -0.2395 -0.1829
 7509SOL    HW233987   1.001   3.031  17.318  1.2912 -1.4246 -1.5926
 7510SOL     OW33988   1.866   2.404   1.863 -0.5224 -0.0644  0.4252
 7510SOL    HW133989   1.782   2.448   1.849  0.1359  1.6250  1.7556
 7510SOL    HW233990   1.874   2.418   1.957  1.1393 -1.1261  0.4313
 7511SOL     OW33991   3.442   1.266   3.947  0.1769  0.7192 -0.0453
 7511SOL    HW133992   3.373   1.307   3.894 -0.5423  0.4881  0.7110
 7511SOL    HW233993   3.474   1.338   4.000  0.4924  0.3863  0.2135
 7512SOL     OW33994   0.576   4.697   7.270 -0.2769  0.4897 -0.2019
 7512SOL    HW133995   0.624   0.042   7.223 -3.2403  1.8016 -1.3807
 7512SOL    HW233996   0.638   4.640   7.314  0.6002  1.4211 -0.2225
 7513SOL     OW33997   1.057   1.241   7.436 -0.7209 -0.2275  0.3577
 7513SOL    HW133998   1.050   1.254   7.530  1.0845  1.6921  0.2263
 7513SOL    HW233999   1.023   1.154   7.417 -1.9186  0.5483 -1.0862
 7514SOL     OW34000   2.330   0.153   5.831  0.3662 -0.0926 -0.6008
 7514SOL    HW134001   2.392   0.081   5.844 -0.1400 -0.3504  0.4286
 7514SOL    HW234002   2.374   0.220   5.883 -0.2558 -0.5256  0.4979
 7515SOL     OW34003   2.345   1.383  12.390 -0.1961 -0.2786  0.0780
 7515SOL    HW134004   2.405   1.382  12.315 -2.7745 -2.6942 -1.9556
 7515SOL    HW234005   2.266   1.353  12.347 -0.1215  1.1929 -1.0992
 7516SOL     OW34006   2.419   2.929   6.124 -0.1290  0.3684 -0.0941
 7516SOL    HW134007   2.512   2.908   6.116 -0.4583 -0.4075 -1.8069
 7516SOL    HW234008   2.392   2.886   6.043 -0.0529 -0.0097  0.0791
 7517SOL     OW34009   1.202   2.228   8.602  0.0639 -0.1229 -0.4787
 7517SOL    HW134010   1.216   2.134   8.589 -1.3625 -0.4861  0.5658
 7517SOL    HW234011   1.111   2.237   8.631 -0.0523  0.4129 -0.9966
 7518SOL     OW34012   1.191   0.630   4.468 -0.4387 -0.6107  0.4543
 7518SOL    HW134013   1.266   0.573   4.452 -1.1178 -1.2120 -0.5871
 7518SOL    HW234014   1.228   0.697   4.526 -1.0451 -0.1794  0.3421
 7519SOL     OW34015   2.654   4.458   3.836  0.5864 -0.5135 -0.4010
 7519SOL    HW134016   2.579   4.433   3.783  0.1584  2.3956 -1.1796
 7519SOL    HW234017   2.618   4.519   3.901 -0.3764 -1.4503 -0.0723
 7520SOL     OW34018   0.034   2.791   0.874 -1.1698 -0.4773 -0.1263
 7520SOL    HW134019   0.020   2.808   0.781  1.4739 -0.6471 -0.5728
 7520SOL    HW234020   0.090   2.714   0.888 -2.4290 -1.8641 -2.8293
 7521SOL     OW34021   4.664   0.676   6.027 -0.4146 -0.1610  0.8360
 7521SOL    HW134022   4.707   0.745   6.078 -0.3253  0.5577 -0.2023
 7521SOL    HW234023   4.586   0.721   5.995  1.3432  1.9076 -0.5201
 7522SOL     OW34024   0.734   2.269  12.797 -0.4296 -0.0177 -0.5043
 7522SOL    HW134025   0.670   2.331  12.831  0.9288  0.8121  0.5413
 7522SOL    HW234026   0.799   2.328  12.757 -1.7106  0.3782 -2.0027
 7523SOL     OW34027   3.414   3.967  17.395 -0.0122  0.6007  0.0616
 7523SOL    HW134028   3.408   3.982  17.301  1.3205  1.0404  0.0425
 7523SOL    HW234029   3.326   3.960  17.433  1.9965 -0.5979  4.5018
 7524SOL     OW34030   4.163   0.285   2.344  0.0923  0.5769  0.0008
 7524SOL    HW134031   4.146   0.231   2.266 -0.2990 -0.1682  0.5990
 7524SOL    HW234032   4.110   0.225   2.396 -1.1420  0.4351 -1.4063
 7525SOL     OW34033   0.160   2.257  12.549  0.0520  0.7320  0.2447
 7525SOL    HW134034   0.226   2.326  12.551 -1.1114  1.7894  1.9512
 7525SOL    HW234035   0.079   2.308  12.547 -1.8450 -2.3903 -3.0417
 7526SOL     OW34036   2.751   0.797   0.701  0.2849 -0.2890 -0.2050
 7526SOL    HW134037   2.785   0.710   0.682 -0.0456 -0.7556  1.3153
 7526SOL    HW234038   2.705   0.818   0.620  0.8550 -0.8498 -0.6671
 7527SOL     OW34039   2.536   1.223  14.971  0.3581 -0.0995 -0.2648
 7527SOL    HW134040   2.587   1.239  15.051 -0.1243  0.9563 -0.1675
 7527SOL    HW234041   2.606   1.187  14.917  1.6055  1.3975  0.3734
 7528SOL     OW34042   3.976   1.316  16.670 -0.0295 -0.4863  0.8306
 7528SOL    HW134043   4.019   1.316  16.755  1.7647  1.0366 -0.0870
 7528SOL    HW234044   3.931   1.231  16.674  0.8552 -0.9428  1.0205
 7529SOL     OW34045   2.984   4.176   3.027  0.2744 -0.0268 -0.2230
 7529SOL    HW134046   2.936   4.093   3.025 -1.1765  0.8513 -1.6375
 7529SOL    HW234047   3.002   4.187   3.120  0.2231 -1.1526 -0.0766
 7530SOL     OW34048   0.114   4.601   4.596  0.2632  0.3110  0.2160
 7530SOL    HW134049   0.149   4.580   4.683 -1.1704  0.5403  0.8553
 7530SOL    HW234050   0.044   4.538   4.577 -0.5934  1.4339 -0.3601
 7531SOL     OW34051   0.650   0.528   5.013  0.0836  0.8515 -0.0562
 7531SOL    HW134052   0.670   0.492   4.927  1.2567 -0.6138  0.8346
 7531SOL    HW234053   0.566   0.489   5.038  0.0650  0.8588 -0.1054
 7532SOL     OW34054   2.861   3.530   2.527 -0.1568 -0.0096 -0.5094
 7532SOL    HW134055   2.902   3.586   2.461 -0.2482  2.9264  1.9146
 7532SOL    HW234056   2.830   3.457   2.474  0.5404  0.8533 -2.1075
 7533SOL     OW34057   2.501   4.489   3.116 -0.0101  0.4501  0.4809
 7533SOL    HW134058   2.567   4.554   3.139 -0.7940  1.4217 -0.0338
 7533SOL    HW234059   2.551   4.409   3.098  0.8859  0.3124  3.5877
 7534SOL     OW34060   2.955   1.193   8.971  0.2837 -0.6439 -0.2888
 7534SOL    HW134061   2.905   1.203   9.051 -0.3623 -0.7517 -0.6785
 7534SOL    HW234062   2.969   1.098   8.971 -1.5680 -0.9129 -1.1875
 7535SOL     OW34063   1.859   4.242  13.890  0.3857 -0.0454  0.2346
 7535SOL    HW134064   1.875   4.266  13.799  0.7477  0.2738  0.3806
 7535SOL    HW234065   1.784   4.183  13.891  0.6367 -0.4013 -1.7204
 7536SOL     OW34066   4.084   0.618  16.296 -0.6804 -0.7506  0.5168
 7536SOL    HW134067   3.992   0.625  16.273 -0.7080  0.7607  1.0877
 7536SOL    HW234068   4.123   0.706  16.297 -0.8194 -0.6721 -0.3322
 7537SOL     OW34069   4.017   3.972  13.101  0.3077 -0.2050  0.4117
 7537SOL    HW134070   3.995   3.912  13.172 -0.3144 -2.0829 -1.3616
 7537SOL    HW234071   4.110   3.979  13.119  0.8692  0.2535 -2.5378
 7538SOL     OW34072   1.218   1.958   8.518  0.5720 -0.4414 -0.2997
 7538SOL    HW134073   1.262   1.906   8.585  2.5259  2.7223  0.8394
 7538SOL    HW234074   1.170   1.888   8.473  2.1201 -0.5359 -1.8157
 7539SOL     OW34075   2.309   4.084   0.136  0.6995  0.6020 -0.7445
 7539SOL    HW134076   2.343   4.034   0.062  0.5588  1.0757 -1.1293
 7539SOL    HW234077   2.262   4.160   0.102 -0.6257 -0.8163 -2.0716
 7540SOL     OW34078   0.792   1.588   9.288  0.6404 -0.7928  0.0056
 7540SOL    HW134079   0.814   1.495   9.291  0.6045 -0.8624 -2.7483
 7540SOL    HW234080   0.750   1.590   9.374  0.5798 -1.2691 -0.0162
 7541SOL     OW34081   1.500   3.108  14.614  0.1183 -0.6082 -0.2348
 7541SOL    HW134082   1.414   3.075  14.638 -1.0761  0.7356 -2.6127
 7541SOL    HW234083   1.524   3.161  14.690 -3.4104  1.1031 -0.2969
 7542SOL     OW34084   1.931   3.385   3.569 -0.0748 -0.1702  0.0761
 7542SOL    HW134085   1.968   3.473   3.568 -1.4360  0.4025 -0.2377
 7542SOL    HW234086   1.932   3.367   3.663  0.2457  2.0396  0.4803
 7543SOL     OW34087   4.604   3.257  13.820 -0.3031  0.0087 -0.1966
 7543SOL    HW134088   4.535   3.231  13.760  0.4553 -2.4833  0.0059
 7543SOL    HW234089   4.553   3.255  13.901 -0.1862 -0.1150 -0.1257
 7544SOL     OW34090   3.633   2.601   4.152  0.0933 -1.2176 -0.0776
 7544SOL    HW134091   3.721   2.596   4.115  1.2519  0.4298  2.3934
 7544SOL    HW234092   3.593   2.517   4.131 -1.7508 -0.5385  0.7000
 7545SOL     OW34093   3.356   2.022   1.062  0.2347 -0.3847 -0.2718
 7545SOL    HW134094   3.274   2.056   1.028  1.3290  4.2345  1.7875
 7545SOL    HW234095   3.377   1.947   1.006 -0.6766 -1.0196  0.2392
 7546SOL     OW34096   3.325   2.978  14.907  0.2404 -0.0110 -0.4870
 7546SOL    HW134097   3.311   2.936  14.992 -0.5924 -0.7763 -0.9997
 7546SOL    HW234098   3.236   2.984  14.872  1.2761 -0.6473 -3.2320
 7547SOL     OW34099   1.118   0.254   0.909  0.0316  0.1303  0.8547
 7547SOL    HW134100   1.047   0.309   0.875 -1.2708 -0.0352  3.2739
 7547SOL    HW234101   1.190   0.253   0.846  1.6835  1.1466  2.7332
 7548SOL     OW34102   2.129   3.122   2.883 -0.0839  0.9890 -0.1325
 7548SOL    HW134103   2.092   3.197   2.931 -0.9562  1.4817 -1.5795
 7548SOL    HW234104   2.176   3.090   2.960 -0.0448 -0.0572 -0.5966
 7549SOL     OW34105   3.174   3.965  14.320 -0.4135  0.4837  0.3030
 7549SOL    HW134106   3.114   4.012  14.262 -1.8578 -1.2992  0.3412
 7549SOL    HW234107   3.246   3.949  14.259 -2.2094  2.3783 -2.3360
 7550SOL     OW34108   2.054   0.228   7.424  1.0960 -1.1317  0.2005
 7550SOL    HW134109   2.090   0.317   7.430 -0.9736 -0.2452 -0.3457
 7550SOL    HW234110   1.978   0.242   7.481  1.7029 -1.4204  1.0804
 7551SOL     OW34111   0.472   3.374   4.870  0.3456 -0.0278 -0.2469
 7551SOL    HW134112   0.500   3.290   4.907  2.2022  0.6393 -0.0976
 7551SOL    HW234113   0.558   3.417   4.876  1.9188 -3.1041 -0.5439
 7552SOL     OW34114   2.766   2.503   2.052  0.2914  0.2842 -0.1874
 7552SOL    HW134115   2.686   2.492   2.104 -0.1841  1.1923 -0.7245
 7552SOL    HW234116   2.732   2.508   1.963  1.3236 -1.6152 -0.6823
 7553SOL     OW34117   3.292   3.085   3.030 -0.2423 -0.2310  0.1784
 7553SOL    HW134118   3.227   3.141   2.987  0.7875  1.4499  0.8260
 7553SOL    HW234119   3.313   3.146   3.101  0.2405  1.0501 -1.0605
 7554SOL     OW34120   0.271   0.717  17.019 -0.4226 -0.7690  0.0986
 7554SOL    HW134121   0.355   0.717  17.066 -0.0003 -0.3847 -0.6584
 7554SOL    HW234122   0.281   0.730  16.925  0.4757  1.3155  0.4887
 7555SOL     OW34123   1.309   0.003  13.568 -0.0083 -0.0758  0.2146
 7555SOL    HW134124   1.355   0.028  13.488 -1.7998 -1.9899 -1.4108
 7555SOL    HW234125   1.306   4.633  13.546  0.4169 -0.2471  0.8627
 7556SOL     OW34126   1.835   2.481  10.808  0.0307  0.1861 -0.2401
 7556SOL    HW134127   1.752   2.502  10.851 -0.0072 -1.1276  0.3258
 7556SOL    HW234128   1.850   2.561  10.759 -0.3613  0.5835  0.2890
 7557SOL     OW34129   1.930   0.168   1.858  0.3534 -0.4193 -0.1541
 7557SOL    HW134130   1.966   0.140   1.943  0.4766  0.2285  0.0097
 7557SOL    HW234131   1.839   0.175   1.888  1.1368  2.2027  1.6341
 7558SOL     OW34132   1.521   1.200   1.562 -0.0395  0.1220 -0.1674
 7558SOL    HW134133   1.467   1.220   1.486 -2.0315 -0.7033  1.0052
 7558SOL    HW234134   1.455   1.217   1.629 -1.3636  2.1945 -2.0131
 7559SOL     OW34135   2.030   0.772   7.534 -0.6157 -0.3814 -0.2464
 7559SOL    HW134136   2.024   0.766   7.629  1.9633  1.2567  0.0153
 7559SOL    HW234137   1.941   0.748   7.511 -0.5780 -0.8961  0.1243
 7560SOL     OW34138   0.695   0.675   4.140 -1.4396  0.0809  0.4823
 7560SOL    HW134139   0.661   0.755   4.178 -0.2173  0.7141  0.2598
 7560SOL    HW234140   0.788   0.675   4.166 -1.4219  0.3357  0.4164
 7561SOL     OW34141   4.146   4.529   6.643 -0.0221 -0.2229 -0.5485
 7561SOL    HW134142   4.073   4.573   6.600 -0.5943 -1.0387 -0.4209
 7561SOL    HW234143   4.137   4.556   6.734  1.5172  0.0502 -0.4782
 7562SOL     OW34144   0.377   3.353   7.113  0.8776  0.0599  0.3364
 7562SOL    HW134145   0.378   3.309   7.198 -1.0083  1.0645  0.8802
 7562SOL    HW234146   0.284   3.367   7.098  0.5579 -1.9233  0.4657
 7563SOL     OW34147   1.094   0.446   3.640  0.0166  0.2598 -0.4176
 7563SOL    HW134148   1.088   0.374   3.703  1.0224 -0.1809 -0.8278
 7563SOL    HW234149   1.025   0.432   3.576 -0.7903  0.1178  0.4896
 7564SOL     OW34150   4.344   2.039   6.857  0.1651 -0.1330  0.2297
 7564SOL    HW134151   4.431   2.042   6.817 -0.2983  2.7911 -0.5627
 7564SOL    HW234152   4.295   2.108   6.812 -0.7675 -0.6140  0.5119
 7565SOL     OW34153   2.009   2.409  11.739 -0.1618  0.1815  0.8076
 7565SOL    HW134154   1.989   2.502  11.727 -0.9428  0.1150  1.5966
 7565SOL    HW234155   2.027   2.389  11.647 -2.3517  2.7711 -0.1709
 7566SOL     OW34156   0.163   0.489   2.049  0.2172 -0.1139 -0.0023
 7566SOL    HW134157   0.205   0.498   1.963 -1.2978  0.1064 -0.7193
 7566SOL    HW234158   0.197   0.405   2.080 -0.9599 -0.3535  0.6233
 7567SOL     OW34159   4.048   4.424  14.107 -0.1725 -0.3481  0.0826
 7567SOL    HW134160   3.999   4.439  14.188  1.2461 -2.2890  1.2881
 7567SOL    HW234161   3.986   4.364  14.066  0.2555 -1.4684  1.1014
 7568SOL     OW34162   3.144   3.412  16.026  0.1752  0.4448 -0.5632
 7568SOL    HW134163   3.130   3.335  16.081  0.4295 -0.1352 -1.3107
 7568SOL    HW234164   3.209   3.454  16.084  1.6409 -1.6329 -0.6879
 7569SOL     OW34165   1.476   0.944  17.008  0.5615  0.4988  0.1142
 7569SOL    HW134166   1.396   0.949  17.060  1.4959  3.2322  1.2968
 7569SOL    HW234167   1.430   0.969  16.927 -2.1158  0.0708  1.5144
 7570SOL     OW34168   3.514   3.058   4.423 -0.1745  0.6703  0.3476
 7570SOL    HW134169   3.551   3.049   4.511  1.4011 -2.0499 -0.6081
 7570SOL    HW234170   3.472   2.972   4.418 -0.1059  0.5808  1.1731
 7571SOL     OW34171   4.204   3.518   7.500  0.5269  1.2181 -0.6468
 7571SOL    HW134172   4.228   3.429   7.477  0.2292  1.3032 -1.2851
 7571SOL    HW234173   4.273   3.571   7.459  2.2606  0.2860  1.0349
 7572SOL     OW34174   0.099   4.684   5.411  0.2546  0.4426  0.8461
 7572SOL    HW134175   0.118   4.617   5.345  2.0413  1.0335  0.7794
 7572SOL    HW234176   0.042   4.630   5.466  1.5547 -0.9640  0.7930
 7573SOL     OW34177   0.362   4.424   6.806  0.2871 -0.0950 -0.2327
 7573SOL    HW134178   0.452   4.405   6.831  0.1560 -1.4580 -0.8284
 7573SOL    HW234179   0.325   4.391   6.888  0.4993  0.8085  0.2314
 7574SOL     OW34180   3.183   3.347   2.516 -0.2832  0.0122 -0.3552
 7574SOL    HW134181   3.264   3.296   2.525  0.7379  2.0709  2.2932
 7574SOL    HW234182   3.145   3.321   2.433  0.8163 -1.0090 -0.5365
 7575SOL     OW34183   0.774   2.369   2.068 -0.4984 -0.0252 -0.3014
 7575SOL    HW134184   0.771   2.359   1.973  0.5191 -1.3403 -0.1870
 7575SOL    HW234185   0.823   2.450   2.079 -1.4815  0.5383 -0.0472
 7576SOL     OW34186   3.857   2.844   5.192  0.6583 -0.2551  0.1330
 7576SOL    HW134187   3.865   2.909   5.262 -1.9777  0.2502 -0.0303
 7576SOL    HW234188   3.772   2.802   5.201  0.1138  0.9770  0.6828
 7577SOL     OW34189   1.390   0.678   8.568  0.5527 -0.4799  0.2546
 7577SOL    HW134190   1.333   0.677   8.644 -1.3729  1.0562 -1.1598
 7577SOL    HW234191   1.386   0.590   8.529 -0.4559 -0.4324  0.2387
 7578SOL     OW34192   2.279   4.697   3.053 -0.0784  0.2923  0.1656
 7578SOL    HW134193   2.224   0.007   3.124 -0.1079 -2.0234  1.2465
 7578SOL    HW234194   2.337   4.635   3.097 -0.6846  0.4176  1.1459
 7579SOL     OW34195   1.141   3.499   2.323  0.0856 -0.0442 -0.1975
 7579SOL    HW134196   1.237   3.501   2.326  0.0521  0.3322  0.5355
 7579SOL    HW234197   1.124   3.531   2.412  1.2739  0.2545 -0.0704
 7580SOL     OW34198   1.256   2.386   8.373  0.8033  0.1099 -0.1507
 7580SOL    HW134199   1.226   2.476   8.384  1.4539  0.8414 -4.2443
 7580SOL    HW234200   1.251   2.366   8.466 -3.7895 -1.5439 -0.7563
 7581SOL     OW34201   2.528   1.273   7.535  0.1370 -0.0324 -0.0439
 7581SOL    HW134202   2.432   1.270   7.530  0.0251  2.7882  0.3647
 7581SOL    HW234203   2.548   1.221   7.457 -1.5807 -0.4868 -0.1864
 7582SOL     OW34204   1.771   0.073   5.860  0.2609  0.4914 -0.6336
 7582SOL    HW134205   1.685   0.096   5.825  0.4545  2.0218 -0.1391
 7582SOL    HW234206   1.763   0.102   5.951 -0.1468  0.9996 -0.8274
 7583SOL     OW34207   1.756   3.315   2.543 -0.5028 -0.0518  0.3209
 7583SOL    HW134208   1.700   3.237   2.541 -1.5351  0.6742  1.1048
 7583SOL    HW234209   1.841   3.277   2.566  0.0719 -0.7232 -2.8722
 7584SOL     OW34210   0.442   0.778   6.458 -0.2190  0.3559  0.6271
 7584SOL    HW134211   0.392   0.705   6.496  0.5612  0.1362  1.2340
 7584SOL    HW234212   0.515   0.791   6.518 -0.6151 -0.1026  1.2064
 7585SOL     OW34213   3.014   3.293  10.260  0.4890 -0.3111 -0.0912
 7585SOL    HW134214   2.985   3.291  10.169  2.6234  2.4811 -0.8409
 7585SOL    HW234215   2.997   3.387  10.270 -2.9551 -0.7262 -2.2664
 7586SOL     OW34216   3.349   4.648   3.298 -0.3269 -0.3818  0.2356
 7586SOL    HW134217   3.393   4.721   3.254 -2.8614 -0.1358 -1.9053
 7586SOL    HW234218   3.260   4.664   3.266  0.9811  1.8710 -2.3076
 7587SOL     OW34219   1.534   0.949   9.117  0.2316  0.2204 -0.3866
 7587SOL    HW134220   1.439   0.947   9.103  0.4478  0.3850 -1.9133
 7587SOL    HW234221   1.568   0.930   9.029  1.3953  1.3375 -0.1765
 7588SOL     OW34222   1.578   2.193  14.142  0.3030  0.0363  0.3733
 7588SOL    HW134223   1.549   2.274  14.099 -0.6422  0.8006  2.4234
 7588SOL    HW234224   1.530   2.129  14.090  1.1362 -1.5326  1.5584
 7589SOL     OW34225   0.684   0.514  14.736 -0.5382  0.2637 -0.3679
 7589SOL    HW134226   0.738   0.566  14.794  1.2308  1.0755 -2.7440
 7589SOL    HW234227   0.698   0.425  14.767 -1.3949 -0.2142 -1.3279
 7590SOL     OW34228   0.260   3.063   8.652 -0.5854 -0.1242  0.6502
 7590SOL    HW134229   0.268   3.059   8.747  0.5034  2.7475  0.6676
 7590SOL    HW234230   0.241   2.972   8.627  1.1678 -1.4479  4.0511
 7591SOL     OW34231   1.630   4.229   8.172 -0.0570 -0.6364 -0.1321
 7591SOL    HW134232   1.634   4.312   8.124 -1.9193 -0.2444  0.3766
 7591SOL    HW234233   1.718   4.221   8.208 -0.4198 -2.1943  0.3866
 7592SOL     OW34234   1.331   1.501  12.875 -0.2713  0.6926  0.7624
 7592SOL    HW134235   1.279   1.557  12.932 -0.8145  0.6301  0.3262
 7592SOL    HW234236   1.349   1.425  12.932  2.1649  0.4307 -0.3482
 7593SOL     OW34237   1.859   0.705   8.569 -0.0960 -0.1822 -0.0667
 7593SOL    HW134238   1.847   0.610   8.564 -1.6866 -0.0083  0.4188
 7593SOL    HW234239   1.829   0.710   8.659  0.1805  0.4438 -0.0079
 7594SOL     OW34240   2.435   3.765  15.817  0.2069  0.2416 -0.2675
 7594SOL    HW134241   2.428   3.853  15.853  1.6952 -0.0060  0.6436
 7594SOL    HW234242   2.491   3.774  15.740 -0.1732 -0.0015 -0.5675
 7595SOL     OW34243   1.858   3.459   2.055 -0.3790 -0.5567  0.2893
 7595SOL    HW134244   1.861   3.545   2.012 -3.4990  0.0202  1.2259
 7595SOL    HW234245   1.817   3.480   2.139  0.0168 -1.0827  0.6127
 7596SOL     OW34246   2.223   3.820   4.667  0.2879  0.0671 -0.4195
 7596SOL    HW134247   2.307   3.831   4.623  0.5609  0.2628  0.1513
 7596SOL    HW234248   2.219   3.903   4.715 -0.2443  0.6453 -1.4739
 7597SOL     OW34249   1.545   3.269   6.004  0.0894  0.6723 -0.4930
 7597SOL    HW134250   1.572   3.181   5.979 -0.6234  0.0350  0.9525
 7597SOL    HW234251   1.618   3.308   6.052 -1.6130  1.2549  1.6134
 7598SOL     OW34252   2.092   1.935   4.488 -0.0582  0.0022  0.2662
 7598SOL    HW134253   2.154   1.895   4.549 -1.3388 -1.4658  0.6192
 7598SOL    HW234254   2.014   1.945   4.543 -1.8840  1.7829 -2.6175
 7599SOL     OW34255   3.938   0.595   2.838 -0.0990 -0.6808  0.2890
 7599SOL    HW134256   3.865   0.655   2.823  1.9226  1.6986  0.0315
 7599SOL    HW234257   3.984   0.646   2.905  2.3952 -2.8571  0.2142
 7600SOL     OW34258   0.238   4.387  13.911  0.0783 -0.0865 -0.2099
 7600SOL    HW134259   0.197   4.434  13.838  1.5396  0.0413 -0.9521
 7600SOL    HW234260   0.180   4.423  13.978  0.7842  2.0657 -0.7406
 7601SOL     OW34261   1.207   3.671   8.042 -0.1451  0.0325 -0.1119
 7601SOL    HW134262   1.278   3.610   8.059  1.4756  1.2737 -2.4971
 7601SOL    HW234263   1.226   3.748   8.095  0.0205 -0.2777  0.2772
 7602SOL     OW34264   1.804   4.651   7.272  0.1573 -0.4770 -0.2761
 7602SOL    HW134265   1.899   4.639   7.271  0.2987  0.5550  1.7555
 7602SOL    HW234266   1.772   4.565   7.242 -1.4525 -0.9961  2.9300
 7603SOL     OW34267   1.566   2.796  10.776  0.5649  0.1907 -0.9995
 7603SOL    HW134268   1.580   2.734  10.705  1.6786  0.6301 -1.1658
 7603SOL    HW234269   1.479   2.835  10.764  0.8711  1.4369  0.8714
 7604SOL     OW34270   3.789   4.320   9.566  0.4002  0.0733  0.1005
 7604SOL    HW134271   3.696   4.317   9.545  0.5379  2.0952 -0.8339
 7604SOL    HW234272   3.802   4.415   9.556  0.2517  0.2882  1.9156
 7605SOL     OW34273   3.734   0.758   1.588 -0.0406  0.0238  0.6550
 7605SOL    HW134274   3.829   0.746   1.589 -0.0044  0.3105  0.5951
 7605SOL    HW234275   3.713   0.687   1.527 -0.8852 -0.1659  1.1621
 7606SOL     OW34276   0.946   2.739   8.094 -0.4220  0.1502  0.2953
 7606SOL    HW134277   0.877   2.788   8.138 -0.8001  0.3269 -0.4890
 7606SOL    HW234278   0.926   2.647   8.106 -0.0153 -0.1357 -1.1440
 7607SOL     OW34279   0.007   1.221   8.690 -0.0837  0.1963 -0.1368
 7607SOL    HW134280   0.079   1.284   8.696 -0.0731  0.0558  1.1342
 7607SOL    HW234281   4.668   1.253   8.755 -1.0133 -1.1376 -0.3801
 7608SOL     OW34282   4.631   1.881   8.046 -0.0714  0.6440  0.5237
 7608SOL    HW134283   4.656   1.970   8.020  0.3842 -0.2341 -2.0312
 7608SOL    HW234284   4.601   1.842   7.963 -0.8475 -1.9019  2.0087
 7609SOL     OW34285   3.376   3.420   9.236 -0.1700  0.1739  0.5215
 7609SOL    HW134286   3.350   3.335   9.270  0.4351 -0.5441 -0.8187
 7609SOL    HW234287   3.443   3.440   9.303  0.6188  2.8455 -1.0683
 7610SOL     OW34288   1.205   4.448   6.090 -0.6696  0.1203 -0.2564
 7610SOL    HW134289   1.150   4.462   6.167 -0.1674 -1.3493  0.3710
 7610SOL    HW234290   1.157   4.369   6.066  0.0952 -0.9050  1.5908
 7611SOL     OW34291   1.601   2.166   6.909  0.2109  0.4749 -0.3156
 7611SOL    HW134292   1.622   2.244   6.959  0.3070  0.1487  0.1552
 7611SOL    HW234293   1.643   2.091   6.952 -1.1435  0.1706  0.4828
 7612SOL     OW34294   3.440   0.416   8.235 -0.4408 -0.0647  0.0961
 7612SOL    HW134295   3.501   0.447   8.168 -0.3491 -0.3880  0.0295
 7612SOL    HW234296   3.473   0.446   8.320  2.9968 -1.1352 -0.8837
 7613SOL     OW34297   2.801   1.071   3.810 -0.1083  0.3016 -0.1525
 7613SOL    HW134298   2.743   1.029   3.873 -0.5372  1.5710  0.2887
 7613SOL    HW234299   2.739   1.080   3.739  0.4904  2.4566 -0.3888
 7614SOL     OW34300   2.848   3.472   3.024  0.1368 -0.6525 -0.5408
 7614SOL    HW134301   2.759   3.505   3.032  0.8816  1.3987 -0.5773
 7614SOL    HW234302   2.840   3.420   2.944  1.3265  0.9037 -1.6740
 7615SOL     OW34303   1.714   0.411   0.689 -0.7818 -0.3290 -0.4546
 7615SOL    HW134304   1.684   0.369   0.769  0.2706 -0.2127 -0.0062
 7615SOL    HW234305   1.704   0.348   0.617 -2.7195 -0.7424  0.1712
 7616SOL     OW34306   2.544   1.497   0.767  0.1457  0.1539  0.3810
 7616SOL    HW134307   2.452   1.481   0.746 -0.2887  0.2054  2.2626
 7616SOL    HW234308   2.588   1.463   0.689 -0.3203  1.5953 -0.5012
 7617SOL     OW34309   2.698   2.155   6.760 -0.5743  0.0583  0.1152
 7617SOL    HW134310   2.656   2.128   6.842 -1.0214 -0.1054 -0.1664
 7617SOL    HW234311   2.743   2.072   6.741 -0.1742  0.6045 -1.3217
 7618SOL     OW34312   0.338   4.105   5.705 -0.1260 -0.1834 -0.6330
 7618SOL    HW134313   0.391   4.149   5.638  2.4575 -1.4864  0.5181
 7618SOL    HW234314   0.400   4.058   5.761  0.0014  1.0431  0.2541
 7619SOL     OW34315   3.997   1.277  13.958  0.6065 -0.4083  0.0481
 7619SOL    HW134316   3.992   1.372  13.947 -0.1746 -0.5542 -0.8121
 7619SOL    HW234317   3.990   1.273  14.053  1.3885  0.0643  0.1243
 7620SOL     OW34318   4.658   2.708   5.254 -0.0465 -0.4249  0.1448
 7620SOL    HW134319   4.712   2.658   5.315 -0.7049  0.3206  1.3221
 7620SOL    HW234320   4.716   2.784   5.242  0.4250 -0.7952  0.0677
 7621SOL     OW34321   4.196   1.210   7.785 -0.3046 -0.5282  0.0887
 7621SOL    HW134322   4.248   1.285   7.814 -1.4450  0.3322 -0.0859
 7621SOL    HW234323   4.264   1.160   7.740 -1.1287  0.9065 -2.7036
 7622SOL     OW34324   3.920   3.506   6.655  0.0875 -0.4001 -0.3232
 7622SOL    HW134325   3.968   3.575   6.610 -0.7486  1.9348  2.3883
 7622SOL    HW234326   3.993   3.445   6.663 -0.4577 -0.9651  0.3400
 7623SOL     OW34327   0.661   3.668   6.921  0.0988 -0.3657  0.3420
 7623SOL    HW134328   0.573   3.671   6.959  0.1812  1.1040  0.4095
 7623SOL    HW234329   0.719   3.644   6.993  0.6787  1.7978  0.5710
 7624SOL     OW34330   1.560   2.736   5.522 -0.1670  0.4488 -0.1874
 7624SOL    HW134331   1.531   2.725   5.612 -2.4250  0.5696 -0.8962
 7624SOL    HW234332   1.478   2.727   5.474  0.1781  1.5034 -0.9845
 7625SOL     OW34333   1.033   1.683  15.657  0.3241 -0.3797  0.4037
 7625SOL    HW134334   1.116   1.726  15.639 -1.5252  3.4076  1.0629
 7625SOL    HW234335   0.969   1.753  15.664 -1.0780 -1.7046  0.7915
 7626SOL     OW34336   0.513   4.455   5.396  0.1602  0.2355  0.2521
 7626SOL    HW134337   0.465   4.514   5.337 -0.4201  0.1694  0.6485
 7626SOL    HW234338   0.587   4.511   5.419  0.8593 -1.0652  1.1744
 7627SOL     OW34339   2.881   4.395   5.427  0.2118 -0.1238  0.3072
 7627SOL    HW134340   2.831   4.452   5.368  1.2076  0.2529 -0.1716
 7627SOL    HW234341   2.971   4.403   5.395  0.4025 -0.3513  0.7813
 7628SOL     OW34342   2.293   1.855   8.777 -0.3443 -0.4539  0.6364
 7628SOL    HW134343   2.199   1.862   8.758  0.4422  1.5813 -2.4459
 7628SOL    HW234344   2.298   1.921   8.847  2.0029 -0.3804  0.3953
 7629SOL     OW34345   4.366   3.940  11.592  0.4547  0.1409 -0.0663
 7629SOL    HW134346   4.435   3.991  11.549 -0.1827  1.2796  0.2550
 7629SOL    HW234347   4.372   3.978  11.680  0.3283  0.7891 -0.3340
 7630SOL     OW34348   1.790   1.766   2.793 -0.1419  0.2336 -0.4740
 7630SOL    HW134349   1.832   1.848   2.767  1.0282 -0.1906  0.0752
 7630SOL    HW234350   1.853   1.724   2.853  0.0084 -1.3800 -1.7693
 7631SOL     OW34351   2.793   4.010   4.918  0.1231  0.3298 -0.0478
 7631SOL    HW134352   2.780   3.917   4.937  1.5537 -0.3683 -2.4460
 7631SOL    HW234353   2.826   4.040   5.002 -0.8303  0.1421  0.3964
 7632SOL     OW34354   2.158   3.985  11.783 -0.2024  0.3995 -0.4669
 7632SOL    HW134355   2.084   4.038  11.753  0.2540 -0.9112 -4.0313
 7632SOL    HW234356   2.110   3.902  11.774 -1.1041  0.5148  3.6235
 7633SOL     OW34357   2.971   0.031   2.015  0.0170 -0.0469  0.2711
 7633SOL    HW134358   2.896   0.089   2.002  1.4197  1.7451  0.1790
 7633SOL    HW234359   3.013   0.072   2.090 -0.8248 -1.1524  1.3586
 7634SOL     OW34360   1.521   3.280  14.852  0.2760 -0.0100 -0.0267
 7634SOL    HW134361   1.443   3.331  14.874  0.3678 -0.3384  1.0562
 7634SOL    HW234362   1.519   3.210  14.918 -0.5380  0.7094  0.7096
 7635SOL     OW34363   1.332   3.897  13.937  0.0969 -0.0966 -0.2125
 7635SOL    HW134364   1.348   3.866  13.848 -1.6549 -2.5569  0.3533
 7635SOL    HW234365   1.237   3.900  13.936  0.0983  0.2732  1.7447
 7636SOL     OW34366   1.389   2.593   5.166  0.0691  0.6797  0.0432
 7636SOL    HW134367   1.435   2.648   5.103  0.9729 -2.3235 -1.9309
 7636SOL    HW234368   1.403   2.508   5.125  2.2087  0.2476  1.6284
 7637SOL     OW34369   0.369   1.213  13.175  0.1201  0.0009  0.1222
 7637SOL    HW134370   0.280   1.207  13.141 -0.3405  1.4168  1.0536
 7637SOL    HW234371   0.387   1.122  13.151 -0.1025  0.4962 -1.9257
 7638SOL     OW34372   3.456   2.853  12.061 -0.6187 -0.6412  0.3172
 7638SOL    HW134373   3.485   2.916  12.127  1.1219 -1.8041  0.6949
 7638SOL    HW234374   3.493   2.885  11.978  1.4394 -3.1744  0.2430
 7639SOL     OW34375   0.705   0.094  13.924 -0.3850  0.3789 -0.2087
 7639SOL    HW134376   0.677   0.132  14.007 -1.6816  0.3047 -0.6141
 7639SOL    HW234377   0.759   0.020  13.951  0.6982  1.3067  0.1965
 7640SOL     OW34378   3.574   3.351   6.809 -0.2650  0.3596  0.2442
 7640SOL    HW134379   3.603   3.276   6.861 -0.8745  0.6842  1.0615
 7640SOL    HW234380   3.621   3.420   6.856  0.0270 -0.9286  1.8509
 7641SOL     OW34381   4.414   0.006   8.601  0.9775 -0.0207  0.2358
 7641SOL    HW134382   4.493   4.702   8.647  0.9841 -0.4059 -0.0030
 7641SOL    HW234383   4.348   0.018   8.670  1.3148  2.2020  0.1719
 7642SOL     OW34384   1.890   0.783  13.514 -0.3705  0.1409 -0.6097
 7642SOL    HW134385   1.862   0.699  13.477 -0.4100  0.2634 -0.8601
 7642SOL    HW234386   1.956   0.755  13.577 -0.5937 -2.1861 -1.4156
 7643SOL     OW34387   4.685   3.546   0.555  0.7165 -0.2481  0.6666
 7643SOL    HW134388   4.610   3.571   0.608  0.6885  0.9466  0.0550
 7643SOL    HW234389   4.693   3.609   0.484 -0.7184  1.8512  2.4026
 7644SOL     OW34390   1.354   1.316  17.110  0.0535  0.2717  0.1912
 7644SOL    HW134391   1.287   1.325  17.042  1.4863 -0.4008 -1.3172
 7644SOL    HW234392   1.316   1.249  17.167 -0.6789  0.5053 -0.0272
 7645SOL     OW34393   1.213   0.650  12.186  0.0132 -0.6312  0.0408
 7645SOL    HW134394   1.205   0.658  12.091 -2.1332  0.9131  0.3595
 7645SOL    HW234395   1.289   0.708  12.189 -0.6131  0.1290  1.4158
 7646SOL     OW34396   0.891   0.947   8.389  0.3993 -0.1023  0.5957
 7646SOL    HW134397   0.837   1.023   8.372  0.1032 -0.6718 -0.9716
 7646SOL    HW234398   0.825   0.877   8.393 -0.4626  0.6922  0.1155
 7647SOL     OW34399   3.556   0.776   1.168 -0.4660  0.9024 -0.2691
 7647SOL    HW134400   3.461   0.772   1.170 -0.3370 -1.9158 -0.3237
 7647SOL    HW234401   3.564   0.865   1.202  2.6827 -0.0609  1.4517
 7648SOL     OW34402   1.808   0.997  13.664  0.2295  0.1927 -0.0756
 7648SOL    HW134403   1.834   0.910  13.633  1.9328  1.2192 -1.5117
 7648SOL    HW234404   1.868   1.046  13.608  0.9716 -0.4855  0.1133
 7649SOL     OW34405   0.329   1.606   5.936 -0.4224  0.9277  0.4031
 7649SOL    HW134406   0.421   1.622   5.954 -0.5045 -0.4697  2.0980
 7649SOL    HW234407   0.335   1.541   5.865  1.0495 -0.7304  2.0459
 7650SOL     OW34408   3.950   1.919   6.979  0.2197  0.0747  0.5892
 7650SOL    HW134409   3.957   1.870   7.061  1.7554  0.8925  0.9467
 7650SOL    HW234410   3.964   2.007   7.012 -2.2482  0.4147  0.7429
 7651SOL     OW34411   0.444   4.521   4.580 -0.1922  0.2011 -0.2384
 7651SOL    HW134412   0.375   4.471   4.624  0.8331 -0.2964  0.8233
 7651SOL    HW234413   0.394   4.596   4.548 -1.1797  0.0840  1.0448
 7652SOL     OW34414   3.376   0.874   3.316 -0.0527 -0.7530 -0.2678
 7652SOL    HW134415   3.390   0.874   3.222 -2.0920 -0.9031 -0.5809
 7652SOL    HW234416   3.458   0.901   3.358 -0.0705 -2.0760  0.6091
 7653SOL     OW34417   0.342   0.143   6.922 -0.0662 -0.1640  0.8834
 7653SOL    HW134418   0.278   0.169   6.856  1.3427 -0.2988 -0.5286
 7653SOL    HW234419   0.423   0.175   6.881  0.2830 -1.5090  0.5147
 7654SOL     OW34420   2.157   1.433   8.645  0.4118 -0.3168 -0.1795
 7654SOL    HW134421   2.238   1.463   8.684  0.4155  0.2480 -0.6170
 7654SOL    HW234422   2.097   1.439   8.719 -0.0289  1.5074 -0.6892
 7655SOL     OW34423   3.089   3.300   9.912  0.2044 -0.0383 -0.4524
 7655SOL    HW134424   2.997   3.292   9.938  0.3933  0.0056  0.2158
 7655SOL    HW234425   3.080   3.252   9.830 -0.0383 -0.5691 -0.1159
 7656SOL     OW34426   2.684   3.847  13.902  0.2794 -0.0637  0.0834
 7656SOL    HW134427   2.686   3.933  13.944  0.0279 -0.2763  0.5270
 7656SOL    HW234428   2.611   3.855  13.840  0.5349  0.3949 -0.1562
 7657SOL     OW34429   3.920   4.305   3.768  0.8988  0.4565 -0.4822
 7657SOL    HW134430   3.832   4.338   3.750  0.3355  0.9986  3.1065
 7657SOL    HW234431   3.959   4.387   3.799 -0.3187  0.6585  0.5295
 7658SOL     OW34432   2.447   1.646   4.233 -0.3999  0.2304 -0.3125
 7658SOL    HW134433   2.510   1.584   4.269 -1.5613 -0.3293  0.7463
 7658SOL    HW234434   2.373   1.588   4.214 -1.6389  2.1089 -1.1867
 7659SOL     OW34435   0.063   1.274   7.498  0.4068 -0.1178  0.0162
 7659SOL    HW134436   0.104   1.282   7.411 -0.2942  2.6608 -0.0320
 7659SOL    HW234437   0.005   1.350   7.490 -1.2443 -1.2141  1.6459
 7660SOL     OW34438   0.307   0.364   3.297 -0.5331 -0.2645  0.3745
 7660SOL    HW134439   0.319   0.271   3.274 -1.2078 -0.0764 -0.7604
 7660SOL    HW234440   0.397   0.396   3.305 -0.7804  0.2157  1.1177
 7661SOL     OW34441   3.776   1.292   8.218  0.5404  0.3724 -0.0888
 7661SOL    HW134442   3.748   1.363   8.160 -2.3290 -0.2430  0.5234
 7661SOL    HW234443   3.807   1.348   8.289  0.6289  1.0958 -0.6893
 7662SOL     OW34444   3.949   1.721  12.731  0.4556  0.0817  0.2894
 7662SOL    HW134445   4.034   1.739  12.691 -0.0597 -1.4145 -1.4889
 7662SOL    HW234446   3.927   1.812  12.747 -0.3700 -0.3867  1.8484
 7663SOL     OW34447   0.315   2.151   4.438 -0.5556 -0.0131 -0.2893
 7663SOL    HW134448   0.263   2.201   4.375 -3.7902  0.1015  2.4392
 7663SOL    HW234449   0.383   2.214   4.459 -1.5779  0.9035  0.3102
 7664SOL     OW34450   3.658   1.463   0.352 -0.5097 -0.1375  0.1851
 7664SOL    HW134451   3.721   1.496   0.417 -0.6768  2.5763 -1.0188
 7664SOL    HW234452   3.596   1.415   0.406 -0.9345 -1.0820 -1.1624
 7665SOL     OW34453   4.393   1.348  12.916  0.4554 -0.1110  0.2002
 7665SOL    HW134454   4.356   1.378  12.833  2.7954  0.1335 -0.7756
 7665SOL    HW234455   4.319   1.359  12.975  1.4811  1.3990  1.2178
 7666SOL     OW34456   1.565   1.385   3.140  0.2174 -0.0730 -0.0790
 7666SOL    HW134457   1.493   1.385   3.077 -0.7825  3.3793  1.0426
 7666SOL    HW234458   1.518   1.401   3.223 -1.7804 -0.5424 -1.1081
 7667SOL     OW34459   2.228   2.767   5.546 -0.5418  0.2050  0.0365
 7667SOL    HW134460   2.285   2.749   5.620 -1.2457 -0.9795  0.2805
 7667SOL    HW234461   2.247   2.861   5.536 -0.7731  0.1882 -0.5722
 7668SOL     OW34462   3.494   0.135   2.280 -0.1115 -0.1439 -0.0774
 7668SOL    HW134463   3.580   0.177   2.288 -0.1481  0.1809 -1.2765
 7668SOL    HW234464   3.451   0.221   2.282  0.9147  0.3972 -1.5990
 7669SOL     OW34465   1.068   2.294   3.986  0.1920 -0.0307 -0.6120
 7669SOL    HW134466   1.088   2.343   4.066 -0.9503  0.4912 -0.6501
 7669SOL    HW234467   1.047   2.207   4.019  0.4821  0.3591  0.6087
 7670SOL     OW34468   4.445   0.839   5.174  0.3640  0.4861 -0.1743
 7670SOL    HW134469   4.462   0.759   5.223  1.0645 -0.6149 -2.1919
 7670SOL    HW234470   4.433   0.895   5.251 -1.4477  0.3462 -0.3601
 7671SOL     OW34471   0.634   4.546   8.060 -0.3234  0.2883  0.0194
 7671SOL    HW134472   0.635   4.525   7.966  0.3779  1.9510 -0.3545
 7671SOL    HW234473   0.551   4.507   8.084 -0.2648  0.2031  0.0832
 7672SOL     OW34474   0.777   0.514   2.891 -0.0195 -0.3053  0.4364
 7672SOL    HW134475   0.694   0.544   2.927  0.0669 -0.0509  0.4189
 7672SOL    HW234476   0.831   0.591   2.905  0.7392 -0.8336  0.4507
 7673SOL     OW34477   2.820   0.079   2.482  0.5639  0.1079 -0.4338
 7673SOL    HW134478   2.861   0.037   2.407 -0.0055  0.0613 -0.7217
 7673SOL    HW234479   2.890   0.132   2.519  2.0482 -1.7953 -0.5578
 7674SOL     OW34480   3.436   1.053  10.944 -0.9226  0.5503  0.3875
 7674SOL    HW134481   3.441   1.146  10.966 -0.6952  0.0039  2.6442
 7674SOL    HW234482   3.408   1.053  10.852 -0.9794 -2.5163  0.4089
 7675SOL     OW34483   2.173   4.418   1.027  0.6127 -0.1700 -0.4849
 7675SOL    HW134484   2.251   4.473   1.021  0.3344 -0.0221 -2.7753
 7675SOL    HW234485   2.188   4.351   0.961 -2.5663  1.3874 -2.7711
 7676SOL     OW34486   3.137   1.233  10.969  0.5276  0.3732 -0.5428
 7676SOL    HW134487   3.152   1.139  10.954 -0.0545  0.3830 -1.1818
 7676SOL    HW234488   3.147   1.237  11.064  2.4248 -0.2725 -0.6937
 7677SOL     OW34489   0.273   0.403   1.349 -0.2174  0.6230  0.0862
 7677SOL    HW134490   0.276   0.359   1.434 -2.8996 -1.5226 -0.9108
 7677SOL    HW234491   0.247   0.488   1.383 -0.3994  0.1843  1.0450
 7678SOL     OW34492   3.350   4.700  14.970  0.3309 -0.2114 -0.5132
 7678SOL    HW134493   3.341   4.619  14.919  1.1837 -0.7950  0.2543
 7678SOL    HW234494   3.257   4.723  14.966  0.5868  0.5617 -1.8732
 7679SOL     OW34495   1.594   3.161   7.283 -0.3218 -0.5087  0.3022
 7679SOL    HW134496   1.668   3.191   7.335  1.2073 -1.4436 -1.3139
 7679SOL    HW234497   1.539   3.239   7.285  0.1449 -0.1612 -0.4455
 7680SOL     OW34498   0.533   1.646   2.690  0.2848 -0.2497  0.1901
 7680SOL    HW134499   0.522   1.705   2.765 -2.1720 -1.1920  0.5741
 7680SOL    HW234500   0.446   1.606   2.690 -0.4693  1.3727 -0.6426
 7681SOL     OW34501   2.472   3.863   0.752 -0.1512 -0.2971 -0.6271
 7681SOL    HW134502   2.530   3.874   0.827 -0.4903  0.1731 -0.4324
 7681SOL    HW234503   2.542   3.838   0.692  0.1018  0.9340 -0.8576
 7682SOL     OW34504   2.998   1.996   4.550  0.0130 -0.0071  0.1438
 7682SOL    HW134505   2.935   2.026   4.485 -0.2635 -2.5014 -0.7489
 7682SOL    HW234506   2.944   1.928   4.590  1.8198 -1.9189 -0.6883
 7683SOL     OW34507   0.117   2.714  11.144  0.5900 -0.4468  0.2215
 7683SOL    HW134508   0.213   2.712  11.149  0.6878  0.2312 -1.4222
 7683SOL    HW234509   0.098   2.805  11.122  0.8176 -0.7043 -1.0391
 7684SOL     OW34510   1.537   1.999   5.191  0.2491 -0.1721  0.0179
 7684SOL    HW134511   1.623   1.993   5.152  0.7863 -0.1577  1.1907
 7684SOL    HW234512   1.516   2.092   5.182 -0.8412 -0.3126  1.0505
 7685SOL     OW34513   1.858   2.633   6.349 -0.1878 -0.2290 -0.0794
 7685SOL    HW134514   1.893   2.714   6.386  0.2289 -1.2218  1.7248
 7685SOL    HW234515   1.795   2.616   6.419 -0.3385  0.4715 -0.0494
 7686SOL     OW34516   3.496   4.372   6.262  0.4598  0.1151  0.1656
 7686SOL    HW134517   3.485   4.282   6.289 -0.9452  0.4789  0.7825
 7686SOL    HW234518   3.468   4.365   6.171  0.2054 -3.2715  0.5229
 7687SOL     OW34519   4.344   0.010   9.513  0.4044 -0.8285  0.3097
 7687SOL    HW134520   4.353   0.105   9.527  0.1013 -0.5881 -1.1863
 7687SOL    HW234521   4.409   4.714   9.446 -0.0325 -0.3698 -0.2436
 7688SOL     OW34522   4.050   0.731  13.592 -0.2198  0.6056  0.2680
 7688SOL    HW134523   4.112   0.669  13.629  0.3068  0.3412 -1.0596
 7688SOL    HW234524   3.983   0.667  13.568  0.1396  0.0440  0.7975
 7689SOL     OW34525   0.264   4.598   3.684 -0.0603 -0.5880  0.3993
 7689SOL    HW134526   0.345   4.647   3.671 -0.6605  0.0777 -0.8517
 7689SOL    HW234527   0.209   4.676   3.686 -0.4206 -0.8096 -0.8839
 7690SOL     OW34528   2.227   1.448   5.703  0.0186  0.2286  0.2308
 7690SOL    HW134529   2.221   1.393   5.625 -0.7053  1.2430 -0.4355
 7690SOL    HW234530   2.203   1.532   5.665 -0.8783  0.5691  1.5277
 7691SOL     OW34531   3.962   1.226  16.293  0.8394  0.4021 -0.6611
 7691SOL    HW134532   3.886   1.174  16.319  0.5385  0.9851 -0.3659
 7691SOL    HW234533   3.962   1.217  16.198  1.6153 -1.9927 -0.4288
 7692SOL     OW34534   0.205   1.294  12.298 -0.9737  0.4233  0.7251
 7692SOL    HW134535   0.219   1.200  12.282  0.0968  1.1095 -2.4693
 7692SOL    HW234536   0.262   1.302  12.374  1.4477  2.0129 -1.2520
 7693SOL     OW34537   1.523   4.125   5.526  0.8492 -0.6172 -0.5806
 7693SOL    HW134538   1.472   4.045   5.527 -1.5422  0.9715  2.2799
 7693SOL    HW234539   1.514   4.137   5.620 -1.6510 -2.7766 -0.5442
 7694SOL     OW34540   1.749   0.294   3.939 -0.3669  0.2971  0.1956
 7694SOL    HW134541   1.704   0.257   3.864 -1.8992  1.3109  0.6141
 7694SOL    HW234542   1.834   0.309   3.897  0.0413 -0.2876  0.7990
 7695SOL     OW34543   3.691   4.336   4.355  0.9416  0.4788 -0.0626
 7695SOL    HW134544   3.696   4.249   4.315 -0.5762  0.4519 -0.1861
 7695SOL    HW234545   3.747   4.317   4.431 -1.8075 -0.6652  1.6488
 7696SOL     OW34546   1.987   3.599  13.184  0.1388 -0.7656 -0.2734
 7696SOL    HW134547   2.071   3.594  13.139  1.4584 -0.8575  2.1877
 7696SOL    HW234548   1.971   3.506  13.195 -1.3393 -0.3780  0.8469
 7697SOL     OW34549   2.932   0.511   6.117  0.2641 -0.7665  0.0746
 7697SOL    HW134550   2.974   0.597   6.112  1.7140 -1.4165  0.9291
 7697SOL    HW234551   2.981   0.465   6.186  0.2447  1.2747  1.4550
 7698SOL     OW34552   2.501   0.796   7.994 -0.1378  0.4402  0.2075
 7698SOL    HW134553   2.590   0.830   8.002  0.6065 -1.3465 -0.2910
 7698SOL    HW234554   2.514   0.721   8.053 -2.1626 -0.7609 -0.8668
 7699SOL     OW34555   0.014   3.949   6.463  0.0520  0.5444 -0.3622
 7699SOL    HW134556   0.098   3.905   6.452 -0.1346 -0.0076  0.5077
 7699SOL    HW234557   0.047   4.023   6.514 -0.4384  0.5650 -0.0740
 7700SOL     OW34558   2.567   0.909   2.820 -0.0842  0.3617 -0.0074
 7700SOL    HW134559   2.502   0.850   2.859  1.3106 -1.2984 -0.1654
 7700SOL    HW234560   2.645   0.853   2.819 -0.9291 -0.8500  1.2715
 7701SOL     OW34561   3.930   3.956   7.608  0.1469  0.1622 -0.0907
 7701SOL    HW134562   4.002   3.916   7.657  0.0458 -1.1194 -1.0008
 7701SOL    HW234563   3.900   4.025   7.667 -1.3157 -0.0922 -0.5318
 7702SOL     OW34564   4.237   3.237   2.894  0.1743  0.0457 -0.5074
 7702SOL    HW134565   4.181   3.302   2.852  0.0791  1.3564  1.6194
 7702SOL    HW234566   4.222   3.164   2.835  0.1677 -1.4286  1.3234
 7703SOL     OW34567   3.150   0.213   3.048  0.0508 -0.2525 -0.2738
 7703SOL    HW134568   3.236   0.173   3.036  1.2930  2.5046 -0.4753
 7703SOL    HW234569   3.106   0.134   3.081  1.7032 -1.5196 -1.0979
 7704SOL     OW34570   1.029   3.489  14.543 -0.8315 -0.2064 -0.3224
 7704SOL    HW134571   1.113   3.450  14.568 -1.4509  1.5335  4.5112
 7704SOL    HW234572   0.969   3.432  14.591 -1.5189  0.4191 -0.4552
 7705SOL     OW34573   2.377   0.815   1.282  0.0331 -0.2883  0.1940
 7705SOL    HW134574   2.429   0.895   1.292  0.4050 -0.1735 -2.5691
 7705SOL    HW234575   2.316   0.844   1.215 -2.0284  0.3563  2.3569
 7706SOL     OW34576   0.068   4.227   7.965  0.0317 -0.2330  0.7937
 7706SOL    HW134577   0.068   4.267   8.052 -1.8145 -0.2412  0.7878
 7706SOL    HW234578   0.033   4.143   7.994  0.9109 -1.1486 -0.7590
 7707SOL     OW34579   2.339   2.031   6.941  0.2933  0.6761 -0.2821
 7707SOL    HW134580   2.424   2.060   6.973 -0.4268 -0.8941  3.0270
 7707SOL    HW234581   2.295   1.997   7.018  2.2037  2.7026  1.6812
 7708SOL     OW34582   4.149   4.521  10.450  0.3604 -0.0769 -0.0170
 7708SOL    HW134583   4.123   4.599  10.498  0.0841  0.1317 -0.5019
 7708SOL    HW234584   4.075   4.461  10.466 -0.2916  0.8831  0.5779
 7709SOL     OW34585   4.067   4.009   4.177 -0.0800  0.4406  0.6038
 7709SOL    HW134586   4.039   4.073   4.111  0.5836 -0.4483 -0.5358
 7709SOL    HW234587   4.059   4.058   4.258  1.5553  1.4430  0.1661
 7710SOL     OW34588   0.402   0.004  14.112  0.3670  0.0957  0.5144
 7710SOL    HW134589   0.332   0.001  14.177  0.3471  2.4576  0.6230
 7710SOL    HW234590   0.467   0.067  14.143  1.5855 -0.6754 -0.4868
 7711SOL     OW34591   4.700   3.461  16.817  0.0629 -0.1031  0.0484
 7711SOL    HW134592   4.622   3.516  16.818 -0.4194 -0.7453 -1.9372
 7711SOL    HW234593   4.681   3.399  16.746  0.4432  0.8302 -0.8719
 7712SOL     OW34594   2.991   0.872   7.635 -0.5122 -0.0512 -0.0380
 7712SOL    HW134595   3.075   0.833   7.658 -0.5030  1.1790  1.9909
 7712SOL    HW234596   3.016   0.964   7.640  0.3425 -0.2378 -0.9149
 7713SOL     OW34597   0.254   2.860   4.507 -0.2833  0.1542  0.0696
 7713SOL    HW134598   0.272   2.881   4.599 -0.9846  0.1765  0.2014
 7713SOL    HW234599   0.285   2.938   4.461  0.9854 -1.0326 -1.0801
 7714SOL     OW34600   1.197   0.958   4.105 -0.6987  0.1307 -0.0496
 7714SOL    HW134601   1.292   0.968   4.101 -0.5292 -1.9995 -1.5030
 7714SOL    HW234602   1.173   0.973   4.013  0.8359  1.4342 -0.2240
 7715SOL     OW34603   0.545   0.086   9.314 -0.7096  0.3235 -0.6379
 7715SOL    HW134604   0.500   0.027   9.375  2.4691 -1.0879  0.3715
 7715SOL    HW234605   0.476   0.111   9.253 -1.0259  0.8212 -0.0772
 7716SOL     OW34606   1.304   0.466   9.523 -0.1563  0.1744 -0.3811
 7716SOL    HW134607   1.210   0.452   9.507 -0.5328  2.7800 -0.3541
 7716SOL    HW234608   1.319   0.553   9.488 -0.3037  0.1593 -0.4829
 7717SOL     OW34609   3.035   2.932   5.385  0.8621 -0.3750  0.0073
 7717SOL    HW134610   3.080   2.993   5.327  0.5912 -1.5926 -1.4871
 7717SOL    HW234611   2.971   2.894   5.325  0.8599 -0.3391 -0.0128
 7718SOL     OW34612   1.484   0.526  16.990  0.2192  0.0726 -0.4964
 7718SOL    HW134613   1.425   0.473  17.043 -0.4417  0.5528 -0.7581
 7718SOL    HW234614   1.566   0.488  17.022 -0.3756  0.4096  1.4280
 7719SOL     OW34615   3.665   2.736   2.935  0.2619 -0.7345 -0.0792
 7719SOL    HW134616   3.682   2.804   3.000 -1.4938 -1.5793  1.2491
 7719SOL    HW234617   3.593   2.778   2.888  2.1690  0.8619 -1.5971
 7720SOL     OW34618   0.235   0.276  10.094  0.1166 -0.1912  0.0768
 7720SOL    HW134619   0.321   0.233  10.092  1.6518  2.8491  1.3738
 7720SOL    HW234620   0.200   0.215  10.158  1.2182  0.9297  1.7355
 7721SOL     OW34621   2.625   3.578   3.975 -0.0609  0.1249  0.0887
 7721SOL    HW134622   2.614   3.615   3.887 -2.2703 -0.8980 -0.0715
 7721SOL    HW234623   2.714   3.543   3.979  0.4518  1.6729  2.0468
 7722SOL     OW34624   2.405   2.957   8.231  0.2447 -0.6468  0.0469
 7722SOL    HW134625   2.422   2.867   8.202  0.7816 -0.4917 -0.1219
 7722SOL    HW234626   2.316   2.952   8.266 -0.0489  0.2283 -0.5545
 7723SOL     OW34627   0.221   2.247   3.305  0.7304 -0.0709  0.0594
 7723SOL    HW134628   0.261   2.176   3.354 -1.6616 -0.0685  1.9862
 7723SOL    HW234629   0.191   2.197   3.228  2.8668 -1.7196  0.2987
 7724SOL     OW34630   0.216   0.046  12.906 -0.1720 -0.4168 -0.9692
 7724SOL    HW134631   0.302   0.033  12.947 -0.3417  0.0100 -0.4709
 7724SOL    HW234632   0.184   0.099  12.979  0.1933  0.4220 -1.4177
 7725SOL     OW34633   1.628   4.070   1.354  0.2670  0.1702  1.3689
 7725SOL    HW134634   1.555   4.102   1.408 -0.3424  1.3501 -0.1248
 7725SOL    HW234635   1.678   4.151   1.344 -1.8935  1.0983 -2.0745
 7726SOL     OW34636   0.040   3.625   3.169  0.0786  0.0894 -0.1257
 7726SOL    HW134637   0.062   3.534   3.150 -1.0009 -0.2296  0.1220
 7726SOL    HW234638   4.667   3.620   3.165  0.1483 -0.5659 -0.8678
 7727SOL     OW34639   3.396   4.076   4.246  0.1623  0.3597  0.1288
 7727SOL    HW134640   3.430   4.062   4.158 -0.1415  0.7554 -0.0508
 7727SOL    HW234641   3.475   4.054   4.296 -0.3107  0.1595  0.7931
 7728SOL     OW34642   3.848   3.843   0.686  0.8958  0.2417 -0.4884
 7728SOL    HW134643   3.869   3.933   0.710  1.3012 -0.1312  0.5315
 7728SOL    HW234644   3.763   3.849   0.643  1.1047 -2.4435 -1.2794
 7729SOL     OW34645   3.443   4.067   0.260  0.2988 -0.0089 -0.8203
 7729SOL    HW134646   3.520   4.120   0.280 -0.3203 -0.5449  2.8420
 7729SOL    HW234647   3.467   4.007   0.190 -1.3897  0.0609 -1.4663
 7730SOL     OW34648   0.426   2.618  17.042 -0.2214 -0.6327 -0.4990
 7730SOL    HW134649   0.467   2.589  16.961  1.4184 -1.9711  0.8125
 7730SOL    HW234650   0.499   2.640  17.101  0.0062 -1.7644 -0.3704
 7731SOL     OW34651   1.015   1.973   4.986 -0.6323 -0.2302 -0.4808
 7731SOL    HW134652   0.988   1.892   5.029 -0.7114 -0.3348 -0.7280
 7731SOL    HW234653   1.040   1.932   4.903 -1.5759 -0.5294 -0.6207
 7732SOL     OW34654   1.124   4.610  13.307  1.2471  0.0623  0.0732
 7732SOL    HW134655   1.118   4.674  13.235 -2.2313 -0.2304  0.0663
 7732SOL    HW234656   1.084   4.534  13.264 -0.1271  0.2720  0.9995
 7733SOL     OW34657   3.529   0.603  17.310 -0.2071 -0.0193  0.5949
 7733SOL    HW134658   3.537   0.679  17.367  1.0262  0.9248 -0.8490
 7733SOL    HW234659   3.510   0.535  17.374 -2.0192  0.5092  0.6244
 7734SOL     OW34660   2.552   0.162  17.248 -0.5599 -0.1901  0.2715
 7734SOL    HW134661   2.616   0.094  17.271  1.6777  1.7648 -0.1323
 7734SOL    HW234662   2.481   0.117  17.203  1.3852 -1.2942 -1.6760
 7735SOL     OW34663   0.525   3.045  15.891  0.2006  0.2126 -0.6167
 7735SOL    HW134664   0.593   3.053  15.824 -0.4162  1.8468 -1.0434
 7735SOL    HW234665   0.548   2.964  15.937 -0.7987 -0.5883 -1.5389
 7736SOL     OW34666   1.602   1.553   2.439 -0.5670  1.1472  0.4164
 7736SOL    HW134667   1.604   1.649   2.441  2.1991  1.0891 -0.6374
 7736SOL    HW234668   1.507   1.547   2.430 -0.4266  1.0969 -1.0188
 7737SOL     OW34669   2.591   3.784  15.581  0.2012  0.3467  0.7303
 7737SOL    HW134670   2.544   3.750  15.504  0.5879 -0.0870  0.6813
 7737SOL    HW234671   2.641   3.710  15.615  1.4950  0.5173 -0.7970
 7738SOL     OW34672   3.668   1.671   1.343  0.6570  0.0437  0.1779
 7738SOL    HW134673   3.578   1.648   1.318  0.2280  2.3066 -0.3349
 7738SOL    HW234674   3.700   1.705   1.259 -3.2776  1.7179 -0.6507
 7739SOL     OW34675   4.551   1.223   4.269  0.4840  0.0427  0.3581
 7739SOL    HW134676   4.524   1.233   4.178 -3.1800 -0.3124  1.3722
 7739SOL    HW234677   4.642   1.198   4.257  0.8688  1.2236  0.7987
 7740SOL     OW34678   1.350   4.468  12.029  0.1208 -0.1712 -0.0907
 7740SOL    HW134679   1.321   4.530  11.962 -1.8169 -0.0880  0.8380
 7740SOL    HW234680   1.443   4.472  12.007 -0.0021  2.3611 -0.1220
 7741SOL     OW34681   0.785   4.265  13.331 -0.6457  0.4649  0.0507
 7741SOL    HW134682   0.691   4.252  13.341 -0.4465  1.0684  2.6854
 7741SOL    HW234683   0.822   4.183  13.363 -0.7185  0.4201  0.0210
 7742SOL     OW34684   1.197   0.241   7.414 -0.4011 -0.2687  0.2853
 7742SOL    HW134685   1.171   0.333   7.425 -2.1710 -0.9085  1.3837
 7742SOL    HW234686   1.281   0.253   7.370  0.8684 -3.3534  1.8826
 7743SOL     OW34687   0.250   4.391   5.493  0.3902 -0.3975  0.4401
 7743SOL    HW134688   0.323   4.336   5.519  1.0385  1.5593  2.7569
 7743SOL    HW234689   0.276   4.466   5.547 -2.9574  2.1353 -1.4333
 7744SOL     OW34690   3.595   0.158   6.235 -0.3017 -0.2697  0.3255
 7744SOL    HW134691   3.680   0.173   6.194 -0.5415  0.8057  0.2101
 7744SOL    HW234692   3.606   0.071   6.273 -0.1888 -0.0640  0.7661
 7745SOL     OW34693   4.269   2.394   7.554 -0.2831 -0.3719 -0.6476
 7745SOL    HW134694   4.197   2.443   7.594  2.1908  1.9931  0.9173
 7745SOL    HW234695   4.320   2.380   7.634 -1.2036  0.2892  0.0589
 7746SOL     OW34696   4.432   1.538   2.434 -0.4409 -0.1384  0.2240
 7746SOL    HW134697   4.353   1.491   2.407 -1.4018  1.2432  0.6387
 7746SOL    HW234698   4.384   1.617   2.460  1.0182  0.8662 -0.1328
 7747SOL     OW34699   2.834   3.167   1.899 -0.6880  0.0188  0.0481
 7747SOL    HW134700   2.782   3.212   1.966 -1.0291  1.7624 -1.3659
 7747SOL    HW234701   2.915   3.138   1.941  0.5755 -0.1644 -2.4890
 7748SOL     OW34702   2.528   3.031   9.098 -0.0809  0.3004  0.2075
 7748SOL    HW134703   2.512   2.938   9.088 -1.3003  0.4959  0.3374
 7748SOL    HW234704   2.478   3.047   9.179 -0.5223 -0.6008  0.1069
 7749SOL     OW34705   4.582   0.915   1.625  0.5245  0.0537 -0.6008
 7749SOL    HW134706   4.596   0.836   1.678  0.2161  1.4469  1.5627
 7749SOL    HW234707   4.529   0.868   1.561  0.1866  0.1001 -0.3574
 7750SOL     OW34708   0.768   1.750   2.351  0.5473  0.0372 -0.3716
 7750SOL    HW134709   0.795   1.840   2.368 -1.7656  0.8929 -1.1814
 7750SOL    HW234710   0.690   1.733   2.404  1.1239 -5.0996 -1.1945
 7751SOL     OW34711   4.645   4.538   5.569  0.2232 -0.2311  0.3483
 7751SOL    HW134712   4.571   4.599   5.563  0.2023 -0.3881 -0.8096
 7751SOL    HW234713   4.652   4.527   5.664 -1.3849 -1.1923  0.3552
 7752SOL     OW34714   3.437   4.537   5.502 -0.3874 -0.2425 -0.5616
 7752SOL    HW134715   3.470   4.467   5.446  0.6331 -0.6871  0.5935
 7752SOL    HW234716   3.454   4.610   5.442 -0.5896  0.4182  0.1722
 7753SOL     OW34717   4.573   3.471   1.915 -0.1983  0.4431  0.2831
 7753SOL    HW134718   4.655   3.429   1.887 -0.7592  0.9729 -2.0966
 7753SOL    HW234719   4.532   3.398   1.962  0.6517  0.9324  1.8061
 7754SOL     OW34720   3.684   3.470   3.396 -0.0976  0.2052  0.2840
 7754SOL    HW134721   3.624   3.399   3.416  0.9957 -0.2827  1.8458
 7754SOL    HW234722   3.644   3.499   3.314  1.3312 -2.1360 -1.2696
 7755SOL     OW34723   0.174   1.405   2.205 -0.3112  0.4753 -0.0785
 7755SOL    HW134724   0.090   1.431   2.243 -0.3923 -1.5061  1.0990
 7755SOL    HW234725   0.196   1.485   2.157  1.3906 -0.8324 -1.4763
 7756SOL     OW34726   2.449   0.641  15.980  0.1248 -0.4250 -0.3196
 7756SOL    HW134727   2.369   0.593  15.960  0.6018 -0.4672 -2.1484
 7756SOL    HW234728   2.457   0.701  15.906  1.9231 -1.7651 -1.2261
 7757SOL     OW34729   2.040   0.463   9.015 -0.3252  0.2672  0.1570
 7757SOL    HW134730   1.962   0.409   9.002 -1.2718  2.0058 -1.4030
 7757SOL    HW234731   2.113   0.425   8.967  0.0998  0.9625  0.2519
 7758SOL     OW34732   2.351   0.249  13.300 -0.4865 -0.1923  0.0031
 7758SOL    HW134733   2.336   0.299  13.219 -0.6030 -1.9847 -1.0789
 7758SOL    HW234734   2.443   0.222  13.293 -0.3285  0.4049 -0.2598
 7759SOL     OW34735   3.011   3.170   9.671 -0.1271  0.3570  0.0619
 7759SOL    HW134736   3.081   3.115   9.636  0.2109 -0.2350  1.6982
 7759SOL    HW234737   2.959   3.098   9.707  2.3416 -1.7223 -0.6012
 7760SOL     OW34738   2.835   1.991   1.363 -0.3171  0.4240  0.4377
 7760SOL    HW134739   2.836   2.025   1.453 -2.3288 -1.9449  1.3568
 7760SOL    HW234740   2.897   1.919   1.369  0.8479  1.4406  0.5072
 7761SOL     OW34741   0.441   2.719   3.478 -0.6456 -0.2008 -0.6390
 7761SOL    HW134742   0.511   2.779   3.452 -1.7839  0.8140 -1.3499
 7761SOL    HW234743   0.491   2.665   3.539 -1.5838  0.5584  0.8189
 7762SOL     OW34744   3.740   3.676   8.169  0.5706 -0.4290 -0.4884
 7762SOL    HW134745   3.770   3.683   8.079  1.5846 -0.5208 -0.1566
 7762SOL    HW234746   3.653   3.716   8.159 -0.4777 -3.2912 -2.6492
 7763SOL     OW34747   1.752   1.932   4.334  0.0667  0.0385  0.3783
 7763SOL    HW134748   1.790   2.016   4.361  0.0674  0.1173  0.1331
 7763SOL    HW234749   1.696   1.958   4.260  1.4575 -1.5782 -1.2190
 7764SOL     OW34750   3.630   0.390  15.397  0.1297  0.7795  0.2368
 7764SOL    HW134751   3.582   0.383  15.314  1.8468 -0.2433 -0.6741
 7764SOL    HW234752   3.640   0.484  15.411 -1.4369  0.6752  1.9786
 7765SOL     OW34753   1.884   2.442   4.048 -0.6556  0.2181 -0.2970
 7765SOL    HW134754   1.836   2.373   4.094  0.2972 -0.3907 -0.2351
 7765SOL    HW234755   1.969   2.426   4.089  0.1279  0.2497 -1.9203
 7766SOL     OW34756   2.342   4.523   7.546  0.4619  0.1797  0.1895
 7766SOL    HW134757   2.335   4.431   7.519  2.7768  0.4952 -1.5075
 7766SOL    HW234758   2.416   4.515   7.606  0.2214  1.7361  0.6822
 7767SOL     OW34759   0.581   0.961  16.349 -0.1034  0.3835 -0.3884
 7767SOL    HW134760   0.660   0.937  16.399 -1.3025 -1.6924  0.5127
 7767SOL    HW234761   0.616   1.050  16.339 -0.3723  0.5762  0.3254
 7768SOL     OW34762   3.615   2.799   9.451 -0.2613 -0.3812 -0.3213
 7768SOL    HW134763   3.639   2.812   9.359  0.9965 -3.8668 -0.4901
 7768SOL    HW234764   3.611   2.890   9.480  0.3729  0.1897 -2.0373
 7769SOL     OW34765   4.235   1.178   2.758  0.5148 -0.4214 -0.5613
 7769SOL    HW134766   4.212   1.270   2.746  2.7491  0.3261  0.8385
 7769SOL    HW234767   4.282   1.157   2.678 -1.8147 -0.6700 -1.8398
 7770SOL     OW34768   3.455   2.755  10.892  0.4246  0.5435  0.4067
 7770SOL    HW134769   3.426   2.664  10.884  1.7546  0.1677  0.0144
 7770SOL    HW234770   3.548   2.740  10.909 -0.0895  0.0175  2.7455
 7771SOL     OW34771   0.201   2.742   2.945  0.0948  0.1541 -0.1785
 7771SOL    HW134772   0.245   2.757   3.029 -2.2749 -2.8079  1.5770
 7771SOL    HW234773   0.161   2.823   2.913  1.9564  1.4642  0.8349
 7772SOL     OW34774   4.580   1.425   4.526 -0.1970  0.8438  0.1327
 7772SOL    HW134775   4.642   1.367   4.571 -1.2516  1.0382  1.8368
 7772SOL    HW234776   4.498   1.380   4.503  1.6320 -3.1631  1.4480
 7773SOL     OW34777   2.921   1.497   3.808 -0.7412 -0.3902 -0.1854
 7773SOL    HW134778   2.941   1.418   3.757 -1.4118 -0.0056 -1.0535
 7773SOL    HW234779   2.900   1.561   3.740  0.4421  1.7076  1.4332
 7774SOL     OW34780   2.516   1.039   1.259  0.1991  0.2172  0.3180
 7774SOL    HW134781   2.557   1.081   1.335 -1.5346  1.1481  0.7480
 7774SOL    HW234782   2.599   1.021   1.215  0.1646 -0.7044  0.6397
 7775SOL     OW34783   4.645   1.494   2.237 -0.3748  0.3696 -0.8614
 7775SOL    HW134784   4.590   1.508   2.314  0.0102  0.5333 -0.6185
 7775SOL    HW234785   4.662   1.584   2.208  0.0985  0.5692  0.0224
 7776SOL     OW34786   4.291   3.161   6.179 -0.6825  0.4325 -0.0419
 7776SOL    HW134787   4.341   3.160   6.260  1.1145 -0.4772 -1.1492
 7776SOL    HW234788   4.361   3.142   6.116  0.6180  2.2741  0.8500
 7777SOL     OW34789   0.100   1.023   4.824 -0.5266 -0.1152 -0.2901
 7777SOL    HW134790   0.092   0.975   4.742  1.2205  2.2891 -1.8850
 7777SOL    HW234791   0.009   1.028   4.852  0.3142  0.4851  2.3449
 7778SOL     OW34792   3.033   1.209  17.005 -0.1144 -0.0860  0.0447
 7778SOL    HW134793   3.065   1.152  16.934 -0.8425 -0.7168  0.2172
 7778SOL    HW234794   3.071   1.291  16.974 -1.4391  0.5119  0.0037
 7779SOL     OW34795   2.867   2.810   1.967 -0.3411 -0.7672 -0.2226
 7779SOL    HW134796   2.942   2.787   1.912  0.8186  0.2935  0.9268
 7779SOL    HW234797   2.873   2.736   2.029  1.0008  0.0427  0.6000
 7780SOL     OW34798   0.821   0.137  12.061 -0.3487  0.2492  0.3182
 7780SOL    HW134799   0.801   0.169  12.150  0.0606  0.5534  0.3002
 7780SOL    HW234800   0.768   0.058  12.065 -1.3101  0.9342  1.4146
 7781SOL     OW34801   2.981   3.526  12.221  0.5775  0.0972 -0.3076
 7781SOL    HW134802   3.044   3.597  12.212  1.4487 -0.5421  0.6495
 7781SOL    HW234803   2.972   3.519  12.317 -0.6061  0.6596 -0.3784
 7782SOL     OW34804   0.777   0.747  11.499  0.5577  0.1170  0.3861
 7782SOL    HW134805   0.796   0.703  11.582  2.1787  1.0945  0.5346
 7782SOL    HW234806   0.745   0.680  11.439  1.7297  0.2318 -0.3755
 7783SOL     OW34807   0.742   3.776  13.743  0.0954 -0.0865 -0.1071
 7783SOL    HW134808   0.753   3.842  13.812 -1.8907 -0.5191  0.6061
 7783SOL    HW234809   0.703   3.708  13.797 -0.4116  0.4171  0.1596
 7784SOL     OW34810   1.296   3.620   7.389  0.0513 -0.2615  0.0741
 7784SOL    HW134811   1.364   3.667   7.339  0.1479  0.3473  0.7775
 7784SOL    HW234812   1.340   3.537   7.404  0.1118 -0.1923  0.2816
 7785SOL     OW34813   2.630   2.441  15.386 -0.3839  0.2824  0.4410
 7785SOL    HW134814   2.654   2.526  15.349  1.9633 -0.8740 -0.6783
 7785SOL    HW234815   2.547   2.465  15.429 -0.7769  0.0430 -0.1794
 7786SOL     OW34816   1.929   0.699   1.011 -0.1444 -0.5225  0.4539
 7786SOL    HW134817   1.870   0.637   1.053 -1.4821  0.0428 -0.5878
 7786SOL    HW234818   1.926   0.671   0.919 -3.1367  2.9176 -0.4839
 7787SOL     OW34819   1.160   0.584   9.170 -0.1297 -0.7698 -0.2795
 7787SOL    HW134820   1.207   0.531   9.106 -1.3175 -0.5487 -1.3336
 7787SOL    HW234821   1.106   0.510   9.198  0.4362 -1.3295 -0.6677
 7788SOL     OW34822   0.693   2.617   5.040  0.3701 -1.0096 -0.3722
 7788SOL    HW134823   0.747   2.685   5.082 -2.0980  0.9777 -0.4458
 7788SOL    HW234824   0.751   2.541   5.037  3.3953  1.2879 -1.3690
 7789SOL     OW34825   1.168   1.050   7.756 -0.1848  0.1188 -0.6213
 7789SOL    HW134826   1.141   1.007   7.838  0.3338  1.9368  0.4953
 7789SOL    HW234827   1.125   1.135   7.761 -0.5182 -0.1037  0.4672
 7790SOL     OW34828   3.595   2.420  14.206  0.4636 -0.6704  0.1782
 7790SOL    HW134829   3.588   2.505  14.163 -0.4954  0.2144  2.0752
 7790SOL    HW234830   3.502   2.398  14.215  0.6458 -1.0507  1.1455
 7791SOL     OW34831   1.378   2.681  16.567 -0.0007 -0.0028  0.0003
 7791SOL    HW134832   1.367   2.635  16.483  1.9658 -1.6417  0.6267
 7791SOL    HW234833   1.288   2.680  16.597  0.2395  0.3557  0.7198
 7792SOL     OW34834   0.407   0.024   8.919 -0.0284 -0.0881  0.0393
 7792SOL    HW134835   0.393   0.064   8.833  2.0149  1.6567  0.4920
 7792SOL    HW234836   0.354   0.071   8.984  0.3973  0.3359  0.0781
 7793SOL     OW34837   3.830   2.616  16.684 -0.0845  0.3300  0.0597
 7793SOL    HW134838   3.821   2.571  16.599 -0.4313  1.1163 -0.3207
 7793SOL    HW234839   3.775   2.691  16.664 -1.7401 -0.9045  0.0038
 7794SOL     OW34840   0.734   2.035  12.663 -0.1410  0.6548  0.1555
 7794SOL    HW134841   0.693   2.056  12.579 -0.3154  1.3578  0.4155
 7794SOL    HW234842   0.707   2.112  12.714 -0.9910  0.0619  0.6066
 7795SOL     OW34843   0.149   4.309   3.341  0.3427  0.2866 -0.3437
 7795SOL    HW134844   0.067   4.316   3.390  0.6866  1.4137  0.0688
 7795SOL    HW234845   0.215   4.338   3.404  0.2928 -0.7327  0.1853
 7796SOL     OW34846   0.819   3.008  10.898  0.5872  0.1658 -0.1902
 7796SOL    HW134847   0.822   3.104  10.893  2.4415  0.0627 -1.0137
 7796SOL    HW234848   0.741   2.986  10.846 -0.1177  2.2649 -0.0117
 7797SOL     OW34849   2.221   1.468  12.815 -0.5884 -0.3248  0.0414
 7797SOL    HW134850   2.237   1.463  12.909 -2.1884  2.8842  0.5054
 7797SOL    HW234851   2.137   1.513  12.821 -0.0955  0.7732 -1.3611
 7798SOL     OW34852   2.399   0.692   2.932  0.0553 -0.5542 -0.0910
 7798SOL    HW134853   2.436   0.605   2.951  1.4146 -0.1575 -0.9547
 7798SOL    HW234854   2.323   0.660   2.883 -1.3084  1.7958  0.4703
 7799SOL     OW34855   2.171   2.658   9.754 -0.6089  0.0797  0.0168
 7799SOL    HW134856   2.209   2.634   9.839  2.2053  1.2046 -0.9102
 7799SOL    HW234857   2.084   2.675   9.790 -0.2490 -0.3323  1.0962
 7800SOL     OW34858   1.251   3.213   3.280 -0.1137  0.2660  0.1862
 7800SOL    HW134859   1.188   3.172   3.340 -1.0450 -3.5373 -3.3941
 7800SOL    HW234860   1.314   3.141   3.275 -1.1886 -0.8473  2.4031
 7801SOL     OW34861   1.661   1.003   4.319 -0.5568  0.4630 -0.3937
 7801SOL    HW134862   1.574   1.041   4.327 -1.3953 -1.0107 -2.8370
 7801SOL    HW234863   1.653   0.924   4.373 -1.4671 -0.6888 -2.2369
 7802SOL     OW34864   0.622   2.918   7.603  0.3541  0.6788  0.1510
 7802SOL    HW134865   0.641   3.008   7.576  2.4272 -0.7551 -3.1545
 7802SOL    HW234866   0.532   2.925   7.634 -0.4817 -0.9537 -1.8913
 7803SOL     OW34867   1.153   4.212  17.359  0.3794 -0.1981  0.0386
 7803SOL    HW134868   1.168   4.306  17.367  0.9009 -0.2887  0.1076
 7803SOL    HW234869   1.240   4.173  17.363  0.3400 -0.5196 -2.5361
 7804SOL     OW34870   4.624   0.185   5.386 -0.3777  0.4362 -0.1364
 7804SOL    HW134871   4.650   0.099   5.353 -0.4226 -0.0925  1.2098
 7804SOL    HW234872   4.708   0.230   5.398 -0.5091  0.1219  1.9793
 7805SOL     OW34873   2.432   2.894  15.897 -0.0121  0.3968 -0.0111
 7805SOL    HW134874   2.347   2.882  15.855  0.4414 -0.3169 -0.7265
 7805SOL    HW234875   2.498   2.856  15.839 -0.7864 -0.1839 -0.5153
 7806SOL     OW34876   0.846   3.485   3.553  0.3292 -0.1807  0.2512
 7806SOL    HW134877   0.875   3.524   3.635 -2.9747  1.2776  0.7079
 7806SOL    HW234878   0.869   3.548   3.485  0.1532 -1.1519 -0.7087
 7807SOL     OW34879   2.848   1.720   3.651 -0.2241  0.3104  0.6189
 7807SOL    HW134880   2.903   1.736   3.574 -0.7777  0.3608  0.2382
 7807SOL    HW234881   2.770   1.690   3.604 -0.6599  0.8518  1.0027
 7808SOL     OW34882   2.604   3.527   0.716 -0.1970  0.1815 -0.1376
 7808SOL    HW134883   2.533   3.467   0.738 -0.7209 -0.0639 -2.4943
 7808SOL    HW234884   2.599   3.523   0.621 -1.6013 -1.7424  0.0047
 7809SOL     OW34885   0.167   1.889   7.802 -0.5649 -0.1473 -0.0368
 7809SOL    HW134886   0.121   1.970   7.824  0.7945  1.0143 -1.4763
 7809SOL    HW234887   0.111   1.847   7.735 -1.1560  2.2191 -1.0224
 7810SOL     OW34888   2.452   1.520  14.451 -0.4645  0.5737 -0.8770
 7810SOL    HW134889   2.391   1.585  14.486 -0.6642 -0.0692 -0.0445
 7810SOL    HW234890   2.409   1.515  14.366  1.4755  0.0570 -1.8264
 7811SOL     OW34891   2.871   2.097  15.460 -0.1279 -0.0619 -0.2645
 7811SOL    HW134892   2.946   2.128  15.511  1.2635 -0.3224 -2.1667
 7811SOL    HW234893   2.893   2.005  15.447 -2.7728 -0.6119 -0.9603
 7812SOL     OW34894   3.498   4.193   2.563 -0.7498  0.1377  0.4242
 7812SOL    HW134895   3.520   4.102   2.540 -0.0192  0.2756  0.5579
 7812SOL    HW234896   3.509   4.228   2.474 -1.6173 -4.6396 -1.5696
 7813SOL     OW34897   1.059   3.265   8.179 -0.3182  0.2028  0.1040
 7813SOL    HW134898   1.036   3.358   8.175  1.0279  0.5573  0.6304
 7813SOL    HW234899   0.979   3.219   8.151  0.4640 -0.8345 -0.4272
 7814SOL     OW34900   0.434   1.603   5.057 -0.8448 -0.2913  0.4048
 7814SOL    HW134901   0.441   1.660   5.133 -2.5588  1.2411 -0.5928
 7814SOL    HW234902   0.416   1.661   4.983 -0.1775 -0.9673 -0.2901
 7815SOL     OW34903   3.650   2.725   4.462  0.3710 -0.1402  0.6525
 7815SOL    HW134904   3.736   2.714   4.422 -0.1809  0.2887 -0.6351
 7815SOL    HW234905   3.670   2.791   4.529  0.2590 -0.1480  0.6942
 7816SOL     OW34906   0.530   2.216  10.634  0.1283  0.2463 -0.3290
 7816SOL    HW134907   0.531   2.293  10.577  0.3879 -0.8258 -1.7545
 7816SOL    HW234908   0.445   2.181  10.610 -0.1912  2.9945 -3.2125
 7817SOL     OW34909   3.113   2.210  15.600 -0.2093 -0.0073  0.2064
 7817SOL    HW134910   3.194   2.190  15.554  0.0043 -1.3717  1.1480
 7817SOL    HW234911   3.141   2.210  15.692 -0.4856  1.9712  0.2828
 7818SOL     OW34912   0.579   2.610   3.141 -0.7419  0.3787 -0.6208
 7818SOL    HW134913   0.534   2.530   3.166  0.0437 -0.2351 -1.1722
 7818SOL    HW234914   0.500   2.662   3.126 -0.7713  0.2148 -1.0214
 7819SOL     OW34915   1.040   0.359   2.437 -0.1982 -0.6656 -0.1941
 7819SOL    HW134916   1.117   0.412   2.417 -1.7119  2.2575  1.6353
 7819SOL    HW234917   0.982   0.426   2.474 -0.0724 -0.8489  0.3315
 7820SOL     OW34918   1.391   3.678   3.470 -0.1460  0.1988 -0.3751
 7820SOL    HW134919   1.484   3.699   3.468 -0.0252 -0.2659  0.5489
 7820SOL    HW234920   1.410   3.585   3.455  0.0987  0.6154 -2.6187
 7821SOL     OW34921   3.818   0.966   7.113  0.6243  0.3628 -0.6349
 7821SOL    HW134922   3.734   0.979   7.157  0.9305 -1.5550  0.5074
 7821SOL    HW234923   3.884   0.992   7.177 -0.5557  0.5055  0.5244
 7822SOL     OW34924   2.751   0.222   9.395  0.2791  0.1704 -0.1662
 7822SOL    HW134925   2.743   0.169   9.316  0.1128  0.4562 -0.3392
 7822SOL    HW234926   2.666   0.193   9.427 -0.1338 -0.5337 -1.9163
 7823SOL     OW34927   1.323   4.174   6.085 -0.0731  0.3024 -0.3898
 7823SOL    HW134928   1.301   4.165   6.177  0.3317  0.5648 -0.2649
 7823SOL    HW234929   1.242   4.175   6.035  0.7861 -0.7697 -1.8103
 7824SOL     OW34930   0.415   4.453  12.519 -0.3956 -0.1718  0.1286
 7824SOL    HW134931   0.451   4.411  12.597  0.2192 -0.0727 -0.1018
 7824SOL    HW234932   0.335   4.403  12.503 -0.8316  0.3956  0.5343
 7825SOL     OW34933   1.817   1.140   6.870 -0.0764  0.4268 -0.2523
 7825SOL    HW134934   1.747   1.075   6.869 -1.1337  1.5885 -1.7763
 7825SOL    HW234935   1.871   1.119   6.794  0.3464 -0.9609  0.4351
 7826SOL     OW34936   4.133   1.073  16.836  0.4277  0.3032 -0.3516
 7826SOL    HW134937   4.142   1.160  16.874 -0.9787 -0.3320  1.4222
 7826SOL    HW234938   4.049   1.048  16.873 -0.2442  3.4233  0.1979
 7827SOL     OW34939   2.585   1.009   4.014  0.2813  0.3986  0.3629
 7827SOL    HW134940   2.660   0.984   4.069  1.4621  1.0863 -0.9324
 7827SOL    HW234941   2.528   1.048   4.080  1.5846 -1.7627  2.8093
 7828SOL     OW34942   2.234   2.150  16.085  0.1024 -0.1135  0.0053
 7828SOL    HW134943   2.251   2.057  16.094 -0.4107 -0.2609 -0.5222
 7828SOL    HW234944   2.181   2.156  16.005 -1.4028 -0.9917  0.9527
 7829SOL     OW34945   3.196   2.435  14.523 -0.3519 -0.3448  0.8540
 7829SOL    HW134946   3.255   2.360  14.515  2.4002  2.1091 -2.0458
 7829SOL    HW234947   3.247   2.508  14.488 -2.7613  0.6621 -0.5822
 7830SOL     OW34948   3.077   2.424   3.438  0.0758 -0.1277 -0.4772
 7830SOL    HW134949   3.009   2.474   3.393 -0.7613  0.1381  1.0730
 7830SOL    HW234950   3.017   2.384   3.501 -1.3310 -1.4342 -2.6363
 7831SOL     OW34951   0.886   0.459   3.473  0.9858  0.5254  0.5648
 7831SOL    HW134952   0.807   0.480   3.524  0.9287 -0.4441  0.8888
 7831SOL    HW234953   0.868   0.506   3.392 -1.4782 -1.1288  0.1179
 7832SOL     OW34954   1.458   2.114   9.119  0.0167  0.0319 -0.6003
 7832SOL    HW134955   1.411   2.194   9.099 -0.8752 -0.6317 -1.1390
 7832SOL    HW234956   1.417   2.047   9.064 -1.0652  0.4744 -0.3164
 7833SOL     OW34957   1.556   2.829   3.873  0.3329 -0.1451  0.1088
 7833SOL    HW134958   1.650   2.841   3.856 -0.0841  1.5773 -1.0061
 7833SOL    HW234959   1.524   2.904   3.823 -1.1821  0.0095  1.2944
 7834SOL     OW34960   3.519   2.004  10.307  0.3883 -0.2122 -0.1587
 7834SOL    HW134961   3.472   2.042  10.233  0.4368 -2.3962 -1.3213
 7834SOL    HW234962   3.445   1.972  10.360  1.0258 -1.9990 -0.3487
 7835SOL     OW34963   3.883   2.682   8.619 -0.4923 -0.6832  0.2010
 7835SOL    HW134964   3.793   2.682   8.589  0.2967  1.9936 -2.1991
 7835SOL    HW234965   3.902   2.588   8.617  0.0570 -0.5641 -0.5657
 7836SOL     OW34966   1.923   0.398   3.778  0.5471  0.3932 -0.0816
 7836SOL    HW134967   1.924   0.382   3.683  0.5391 -2.1500  0.3548
 7836SOL    HW234968   1.987   0.468   3.785  0.8094 -0.0035  1.4458
 7837SOL     OW34969   0.531   0.336  16.678 -0.1781 -0.0872 -0.0947
 7837SOL    HW134970   0.579   0.418  16.669  0.2724 -0.2682  0.6573
 7837SOL    HW234971   0.531   0.321  16.772 -1.0467  2.6063  0.3085
 7838SOL     OW34972   3.843   4.271   4.567  0.2575 -0.1306  0.4675
 7838SOL    HW134973   3.926   4.257   4.614 -0.1518  0.6205  1.4145
 7838SOL    HW234974   3.774   4.261   4.632 -0.0575 -0.5700  0.0640
 7839SOL     OW34975   3.345   4.298   0.486  0.4036  0.8483  0.0061
 7839SOL    HW134976   3.340   4.388   0.457 -2.8708  0.1813 -1.4878
 7839SOL    HW234977   3.252   4.275   0.492  0.4014  0.4041 -1.6933
 7840SOL     OW34978   2.527   3.175   3.485  0.1651  0.0464  0.3203
 7840SOL    HW134979   2.471   3.237   3.531 -0.2353 -0.1632  0.1144
 7840SOL    HW234980   2.589   3.167   3.558  0.9822 -0.2272 -0.4076
 7841SOL     OW34981   3.180   4.147   4.721 -0.3459 -0.7444  0.2739
 7841SOL    HW134982   3.164   4.124   4.812 -1.1413  2.4396  0.9478
 7841SOL    HW234983   3.105   4.093   4.696  0.9496 -2.9600  1.2222
 7842SOL     OW34984   4.512   3.351   7.907  0.4723 -0.3934  0.3380
 7842SOL    HW134985   4.568   3.274   7.906 -2.2962 -2.4313  2.4341
 7842SOL    HW234986   4.458   3.333   7.984  0.4743 -2.3319 -0.1288
 7843SOL     OW34987   3.513   4.124   0.589 -0.5971 -0.1012 -0.6499
 7843SOL    HW134988   3.465   4.196   0.547  0.0521 -0.0631 -1.3253
 7843SOL    HW234989   3.551   4.164   0.668  3.1905 -0.3040 -2.4087
 7844SOL     OW34990   2.847   0.991  13.369  0.3876 -1.0264  0.2791
 7844SOL    HW134991   2.781   0.944  13.318 -1.6486 -0.5738  2.5499
 7844SOL    HW234992   2.906   0.999  13.293 -0.0640 -1.1019 -0.0778
 7845SOL     OW34993   2.042   3.493  15.708 -0.2945  0.1241 -0.0672
 7845SOL    HW134994   2.049   3.469  15.800 -0.0546 -1.3539 -0.4686
 7845SOL    HW234995   2.057   3.407  15.669 -2.7472  0.2823 -1.3872
 7846SOL     OW34996   0.766   3.915   1.957  0.2305  0.2283 -0.4463
 7846SOL    HW134997   0.843   3.957   1.919  0.0790  0.9712  0.0779
 7846SOL    HW234998   0.725   3.875   1.880 -0.2892  1.5646 -0.8623
 7847SOL     OW34999   1.917   3.194   6.869  0.0043  0.1845 -0.2791
 7847SOL    HW135000   1.953   3.106   6.880 -0.4769 -0.0132 -0.2866
 7847SOL    HW235001   1.841   3.195   6.927 -0.3691  0.6037 -0.7738
 7848SOL     OW35002   1.639   3.718  11.911 -0.1073  0.2666 -0.1637
 7848SOL    HW135003   1.712   3.745  11.966  1.0121 -5.2105  1.1038
 7848SOL    HW235004   1.624   3.796  11.859 -1.9087  0.0514  0.0285
 7849SOL     OW35005   2.253   4.624   2.779 -0.0763 -0.5579  0.3328
 7849SOL    HW135006   2.255   4.639   2.873 -2.0905 -2.1123  0.6382
 7849SOL    HW235007   2.310   4.547   2.776  2.0011  0.9968  0.4023
 7850SOL     OW35008   0.202   0.749   6.672  0.7208 -0.3238  0.3068
 7850SOL    HW135009   0.184   0.721   6.762 -0.4247 -0.2594  0.0924
 7850SOL    HW235010   0.222   0.839   6.699 -1.6007  0.0448  0.7863
 7851SOL     OW35011   4.050   4.209   8.851  0.5851  0.1358 -0.0751
 7851SOL    HW135012   4.037   4.208   8.946 -0.3546  0.7485 -0.1984
 7851SOL    HW235013   4.141   4.239   8.854  0.6307 -0.0448  0.4777
 7852SOL     OW35014   1.078   2.969   6.701 -0.5160  0.1096  0.7874
 7852SOL    HW135015   1.124   2.888   6.678  0.3945  1.0608 -0.7867
 7852SOL    HW235016   1.067   2.952   6.794 -2.4045 -0.8132  0.3939
 7853SOL     OW35017   1.902   0.403   4.833  0.8382 -0.5026  1.0206
 7853SOL    HW135018   1.977   0.344   4.842  0.7341 -0.6232  1.0928
 7853SOL    HW235019   1.902   0.460   4.910 -0.6930  0.8240  0.0496
 7854SOL     OW35020   2.242   4.081   1.257 -1.0292 -0.5074 -0.4271
 7854SOL    HW135021   2.282   4.081   1.170 -0.2154 -1.2547 -0.0594
 7854SOL    HW235022   2.197   3.997   1.254 -0.1572 -0.9094 -2.4543
 7855SOL     OW35023   0.852   4.041   1.245 -0.2826 -0.7132  0.1080
 7855SOL    HW135024   0.814   4.040   1.157  0.8412 -3.1624 -0.3634
 7855SOL    HW235025   0.845   3.950   1.276 -1.1695 -0.6241  0.1720
 7856SOL     OW35026   2.862   3.558   7.160 -0.2889 -0.3916 -0.0526
 7856SOL    HW135027   2.934   3.495   7.159 -0.5313 -0.6813  0.5075
 7856SOL    HW235028   2.802   3.509   7.104 -0.3994 -0.4110  0.0827
 7857SOL     OW35029   2.749   3.561  15.592  0.4361  0.1687 -0.1855
 7857SOL    HW135030   2.843   3.549  15.574  0.5857  0.9251  0.0907
 7857SOL    HW235031   2.711   3.475  15.575  1.5557 -0.4721  0.5825
 7858SOL     OW35032   1.491   4.636   1.512 -0.0988  0.4429  0.2809
 7858SOL    HW135033   1.476   4.544   1.533 -1.2830  0.7158  0.6157
 7858SOL    HW235034   1.421   4.653   1.448  1.4532 -0.0972 -1.5711
 7859SOL     OW35035   2.078   2.557   8.198  0.1206  0.1710  0.5336
 7859SOL    HW135036   2.112   2.475   8.236 -2.9870 -1.6373 -0.5315
 7859SOL    HW235037   2.006   2.530   8.141  0.5619 -1.3262  0.6671
 7860SOL     OW35038   4.162   3.462   6.291 -0.0887  0.2127 -0.6352
 7860SOL    HW135039   4.097   3.407   6.248  0.8934 -1.3610 -0.1054
 7860SOL    HW235040   4.138   3.542   6.244  0.8027  2.2610  2.3447
 7861SOL     OW35041   0.311   2.319  11.735  0.1800 -0.1887 -0.0414
 7861SOL    HW135042   0.383   2.261  11.710 -1.3844 -1.1787 -2.3533
 7861SOL    HW235043   0.296   2.350  11.645  1.1332 -0.0138 -0.1375
 7862SOL     OW35044   0.367   0.003   8.552  0.0295  0.1743 -0.7451
 7862SOL    HW135045   0.372   0.004   8.456  1.8068  0.2586 -0.6531
 7862SOL    HW235046   0.373   4.633   8.571  0.1131  0.0938 -1.1531
 7863SOL     OW35047   0.126   1.314   3.148 -0.2796 -0.0444  0.6558
 7863SOL    HW135048   0.095   1.269   3.070 -1.0552  2.6114 -0.5653
 7863SOL    HW235049   0.085   1.269   3.222 -1.6390 -0.0131 -0.0868
 7864SOL     OW35050   0.058   4.041   1.259  0.1263 -0.8058 -0.0911
 7864SOL    HW135051   0.004   4.076   1.189 -0.8769 -0.6086  0.7788
 7864SOL    HW235052   0.064   4.109   1.326 -2.6956 -0.9607  0.2974
 7865SOL     OW35053   2.695   2.655  15.243  0.0923  0.6986 -0.2797
 7865SOL    HW135054   2.669   2.615  15.160  1.5387 -1.0802  0.1314
 7865SOL    HW235055   2.630   2.725  15.246 -0.3056  0.2617  1.3173
 7866SOL     OW35056   2.007   0.809   7.796 -0.0311  0.6389 -0.1212
 7866SOL    HW135057   1.943   0.866   7.838 -1.4628 -0.1145 -1.2746
 7866SOL    HW235058   2.095   0.846   7.809  0.3856  0.2473 -1.8351
 7867SOL     OW35059   1.368   1.510   8.387  0.1211 -0.0546 -0.3786
 7867SOL    HW135060   1.350   1.420   8.359 -1.7005  0.1924 -0.0218
 7867SOL    HW235061   1.436   1.506   8.454 -1.9761 -0.8029  1.7091
 7868SOL     OW35062   3.193   3.799   5.083 -0.7762 -0.0291 -0.1666
 7868SOL    HW135063   3.124   3.790   5.017 -0.2414 -0.0851 -0.7094
 7868SOL    HW235064   3.259   3.734   5.060  0.0071  1.0586 -0.9915
 7869SOL     OW35065   1.165   2.258   5.329 -0.3632 -0.1134  0.1352
 7869SOL    HW135066   1.105   2.333   5.334 -1.4063 -0.9602  0.3414
 7869SOL    HW235067   1.102   2.189   5.346  1.0211 -0.3883  4.0753
 7870SOL     OW35068   0.483   0.787   6.181  0.0249 -0.7619 -0.5176
 7870SOL    HW135069   0.547   0.848   6.146  1.8656 -0.8965  2.5997
 7870SOL    HW235070   0.486   0.786   6.277  0.4596 -0.3429 -0.5302
 7871SOL     OW35071   1.035   0.028   7.318 -0.4864  0.0283 -0.1419
 7871SOL    HW135072   0.946   0.062   7.327 -0.7579 -0.4293 -1.0976
 7871SOL    HW235073   1.093   0.098   7.347 -2.9740  2.5955 -1.3246
 7872SOL     OW35074   0.738   0.722   8.467 -0.4976 -0.1035 -0.3126
 7872SOL    HW135075   0.720   0.739   8.559 -1.0776 -0.8122 -0.2872
 7872SOL    HW235076   0.705   0.632   8.463  3.2781 -1.6569  3.5793
 7873SOL     OW35077   4.293   4.329   6.772  0.2294 -0.2884  0.1428
 7873SOL    HW135078   4.245   4.345   6.854 -0.5660  1.5821 -0.6656
 7873SOL    HW235079   4.236   4.376   6.711 -0.6824  0.7064  1.7456
 7874SOL     OW35080   1.123   4.352   5.431 -0.3546 -0.4122  0.1294
 7874SOL    HW135081   1.189   4.290   5.402 -0.4205 -0.9429  1.1102
 7874SOL    HW235082   1.170   4.389   5.506 -0.0973 -0.3505 -0.0655
 7875SOL     OW35083   4.501   0.525   5.095 -0.0929  0.3365 -0.2618
 7875SOL    HW135084   4.491   0.433   5.118 -1.2549  0.5579  0.1580
 7875SOL    HW235085   4.591   0.549   5.116 -1.3090  3.0114  1.9204
 7876SOL     OW35086   4.264   2.778  11.477  0.4881  0.5180 -0.2384
 7876SOL    HW135087   4.235   2.687  11.478  2.9402 -0.2646  1.5199
 7876SOL    HW235088   4.233   2.820  11.557 -0.1050 -1.2270  0.4445
 7877SOL     OW35089   0.543   3.671   7.710  0.1209  0.0933  0.3013
 7877SOL    HW135090   0.516   3.671   7.802  3.9959  2.7692  1.4173
 7877SOL    HW235091   0.602   3.745   7.703  0.2879 -0.1567 -0.8870
 7878SOL     OW35092   2.322   2.183  15.330  0.1849 -0.4253  0.3415
 7878SOL    HW135093   2.360   2.206  15.245 -0.5695  1.6377  0.5691
 7878SOL    HW235094   2.392   2.207  15.390 -0.1230 -0.8788  0.8783
 7879SOL     OW35095   2.683   1.035   4.704  0.4535  0.3473  0.1038
 7879SOL    HW135096   2.734   0.956   4.686 -0.9072 -0.1441 -1.5732
 7879SOL    HW235097   2.603   0.991   4.733 -0.1007  1.8896  0.9236
 7880SOL     OW35098   3.870   4.306   5.567  0.6260  0.4638 -0.4195
 7880SOL    HW135099   3.782   4.290   5.600  0.8906 -1.4771 -0.6469
 7880SOL    HW235100   3.922   4.358   5.628  2.2399 -0.9304 -0.5865
 7881SOL     OW35101   2.340   1.882   4.136 -0.2426 -0.4477 -0.8688
 7881SOL    HW135102   2.378   1.797   4.158 -0.0796  0.0471  0.7419
 7881SOL    HW235103   2.338   1.874   4.040  2.0839 -0.5202 -0.9130
 7882SOL     OW35104   2.724   1.590   6.390 -0.2445 -0.2162 -0.2820
 7882SOL    HW135105   2.703   1.681   6.372  1.4132  0.3446  0.6389
 7882SOL    HW235106   2.758   1.599   6.479  2.1460 -0.9965 -1.0979
 7883SOL     OW35107   1.642   3.560   3.940 -0.1765  0.1027  0.0138
 7883SOL    HW135108   1.627   3.636   3.883 -2.3895  0.7793  1.4933
 7883SOL    HW235109   1.735   3.546   3.924 -0.2550 -0.7990  0.3877
 7884SOL     OW35110   4.195   0.717   3.534 -0.7141  0.1513  0.2596
 7884SOL    HW135111   4.187   0.809   3.510  0.2962  0.3746  0.7391
 7884SOL    HW235112   4.229   0.673   3.456  4.0149  0.1689  2.3139
 7885SOL     OW35113   3.346   3.448   7.766  0.3680  0.0699  0.2574
 7885SOL    HW135114   3.370   3.537   7.791 -2.1954  0.5951  0.8328
 7885SOL    HW235115   3.365   3.407   7.851 -2.4679 -0.7423  0.5097
 7886SOL     OW35116   3.273   2.889  16.911  0.0270  0.2876  0.7748
 7886SOL    HW135117   3.204   2.880  16.845 -0.0181  3.6425  0.3722
 7886SOL    HW235118   3.273   2.981  16.938  1.7351  0.4589  0.1763
 7887SOL     OW35119   0.039   3.163   5.402  0.2304 -0.1347  0.5015
 7887SOL    HW135120   0.089   3.235   5.362 -0.3603  0.3180  0.5866
 7887SOL    HW235121   0.068   3.159   5.493  0.1035 -1.2505  0.4963
 7888SOL     OW35122   2.904   1.089   6.100  0.4915  0.5483 -0.3274
 7888SOL    HW135123   2.921   1.125   6.187 -0.6708 -0.8191  0.4614
 7888SOL    HW235124   2.973   1.136   6.054  1.5722 -0.4567  0.2640
 7889SOL     OW35125   2.792   0.312  10.551 -0.8918 -0.0085  0.1494
 7889SOL    HW135126   2.833   0.242  10.500  0.1161  1.1745 -0.6459
 7889SOL    HW235127   2.735   0.262  10.611 -0.1853 -1.9283 -0.7954
 7890SOL     OW35128   0.016   2.908  14.705 -0.5746  0.0963 -0.4336
 7890SOL    HW135129   4.686   2.923  14.627 -0.0719 -0.1386 -0.8194
 7890SOL    HW235130   0.078   2.838  14.684 -2.1753 -1.1999 -0.7545
 7891SOL     OW35131   2.659   1.043   2.068 -0.3759 -0.5345  0.5240
 7891SOL    HW135132   2.675   0.968   2.011  0.9109  0.1704 -0.0354
 7891SOL    HW235133   2.577   1.013   2.107 -1.3205  0.8507 -0.3783
 7892SOL     OW35134   3.943   1.943   1.292 -0.0475 -0.2788  0.2069
 7892SOL    HW135135   3.889   1.946   1.371  0.5881 -1.0111  0.6645
 7892SOL    HW235136   4.023   1.906   1.328 -2.0174 -2.6709  2.1238
 7893SOL     OW35137   4.633   3.952  10.360 -0.2803  0.2522  0.7536
 7893SOL    HW135138   4.570   4.024  10.356  0.4762  0.8413 -0.4150
 7893SOL    HW235139   4.702   3.973  10.423  1.9621  1.0055 -1.9719
 7894SOL     OW35140   0.462   1.295   8.510  0.4243 -0.2590  0.1094
 7894SOL    HW135141   0.485   1.268   8.599  4.3256 -0.8153 -1.0354
 7894SOL    HW235142   0.394   1.361   8.523  0.2973 -0.2705 -0.5013
 7895SOL     OW35143   1.966   1.422   6.688  0.2352  0.1402 -0.5086
 7895SOL    HW135144   2.025   1.371   6.633 -0.3400 -1.8774  0.7695
 7895SOL    HW235145   1.912   1.350   6.722 -2.1395  1.7136 -0.9227
 7896SOL     OW35146   0.672   4.141   1.717  0.1192  0.0883  0.2336
 7896SOL    HW135147   0.674   4.047   1.732 -3.0286 -0.2804 -1.6728
 7896SOL    HW235148   0.755   4.177   1.750  0.1885  1.2204 -1.1671
 7897SOL     OW35149   1.300   4.048   6.704  0.4659 -0.2568 -0.8797
 7897SOL    HW135150   1.226   4.069   6.762  0.2635 -1.9292 -0.5436
 7897SOL    HW235151   1.373   4.100   6.738 -0.5449  1.1709 -0.8695
 7898SOL     OW35152   1.811   0.038   9.808  0.4589  0.1320 -0.1194
 7898SOL    HW135153   1.906   0.053   9.816  0.5368 -1.2329  1.2841
 7898SOL    HW235154   1.797   0.016   9.716  0.7699 -0.8567  0.0750
 7899SOL     OW35155   4.643   2.363  13.786  0.2706 -0.4169 -0.1372
 7899SOL    HW135156   4.614   2.317  13.865 -0.6008 -1.1010 -0.8593
 7899SOL    HW235157   4.625   2.453  13.811  1.2177  0.0732 -1.2123
 7900SOL     OW35158   0.412   0.838   8.424  0.1667 -0.6370  0.6496
 7900SOL    HW135159   0.403   0.933   8.417  0.8836 -0.5344  1.1807
 7900SOL    HW235160   0.396   0.811   8.333 -0.9123 -1.0694  0.9671
 7901SOL     OW35161   1.244   3.168   7.392 -0.3683 -0.1533  0.1092
 7901SOL    HW135162   1.200   3.083   7.390  0.3172 -0.5428  1.4956
 7901SOL    HW235163   1.277   3.182   7.480  1.6776 -1.2909 -0.4703
 7902SOL     OW35164   2.659   1.365   6.277  0.0196  0.0079  0.0667
 7902SOL    HW135165   2.603   1.394   6.205  1.7194  2.5072 -0.2715
 7902SOL    HW235166   2.697   1.445   6.314  0.1762 -0.2271  0.4100
 7903SOL     OW35167   2.878   2.328   6.089 -0.5816 -0.7355 -0.2157
 7903SOL    HW135168   2.879   2.244   6.044  0.4679 -0.5403 -0.5549
 7903SOL    HW235169   2.899   2.395   6.023 -0.3588 -0.4896  0.1053
 7904SOL     OW35170   2.042   1.402   5.903  0.0881 -0.0038  0.3771
 7904SOL    HW135171   2.096   1.434   5.831 -0.7622  3.3867  1.2359
 7904SOL    HW235172   2.061   1.446   5.986  3.8191 -1.5386  0.3419
 7905SOL     OW35173   4.336   1.005   8.750  0.1741  0.1257  0.1763
 7905SOL    HW135174   4.242   1.010   8.765  0.3370  1.1121  0.8750
 7905SOL    HW235175   4.344   0.965   8.663  0.4967  1.5161 -0.4403
 7906SOL     OW35176   2.549   3.591   7.290 -0.5596 -0.1478  0.5461
 7906SOL    HW135177   2.589   3.615   7.374  0.3615  2.5345 -0.6668
 7906SOL    HW235178   2.550   3.496   7.293  0.1278 -0.1719 -0.5364
 7907SOL     OW35179   0.271   1.389   4.025 -0.0394  0.3143  0.6797
 7907SOL    HW135180   0.218   1.457   4.066  0.7480  2.7370 -2.3405
 7907SOL    HW235181   0.361   1.420   4.039  0.8397 -1.2883 -1.3506
 7908SOL     OW35182   0.823   0.785   7.810  0.2458  0.2474  0.4456
 7908SOL    HW135183   0.766   0.818   7.741  0.4926  0.1599  0.2019
 7908SOL    HW235184   0.851   0.861   7.860  2.3759 -1.9234  2.5374
 7909SOL     OW35185   4.628   3.664   4.815  0.8476 -0.5611  0.0958
 7909SOL    HW135186   4.570   3.628   4.749  0.2833 -2.5925  1.7297
 7909SOL    HW235187   4.701   3.602   4.816  1.0139 -0.3748 -0.4829
 7910SOL     OW35188   2.239   2.775   0.252  0.0365  0.1266 -0.7813
 7910SOL    HW135189   2.145   2.774   0.231 -0.6186 -0.4067  2.2299
 7910SOL    HW235190   2.249   2.704   0.316  0.6205  0.8398 -0.0859
 7911SOL     OW35191   1.692   2.742   3.373 -0.2596 -0.2915 -0.2345
 7911SOL    HW135192   1.658   2.758   3.285 -1.4743  0.5529  0.3900
 7911SOL    HW235193   1.623   2.687   3.410 -1.2235  0.3497 -1.0734
 7912SOL     OW35194   3.454   0.302  16.609 -0.1708  0.1730  0.7512
 7912SOL    HW135195   3.526   0.264  16.659 -0.1456 -1.0320 -0.1972
 7912SOL    HW235196   3.502   0.376  16.571  2.6350 -2.1078 -0.1767
 7913SOL     OW35197   2.006   2.678   8.584  0.5259 -0.3999  0.9098
 7913SOL    HW135198   2.086   2.699   8.537  2.7192 -3.0516  3.4638
 7913SOL    HW235199   1.961   2.763   8.586  2.8564  0.8894 -1.5147
 7914SOL     OW35200   0.852   2.863   6.254  0.0315 -0.0982  0.0711
 7914SOL    HW135201   0.910   2.820   6.317  0.1282 -0.7271 -0.4465
 7914SOL    HW235202   0.776   2.806   6.267 -1.2481  1.6748  0.4906
 7915SOL     OW35203   1.865   2.705   1.578  0.0144  0.5529 -0.1707
 7915SOL    HW135204   1.921   2.629   1.597  0.0505  0.3469 -1.0910
 7915SOL    HW235205   1.828   2.723   1.664 -1.6458  0.3813 -0.8395
 7916SOL     OW35206   2.771   1.861   8.180 -0.3190 -0.2460  0.1229
 7916SOL    HW135207   2.736   1.812   8.255 -0.5900  0.8675  0.7134
 7916SOL    HW235208   2.727   1.810   8.111 -2.5739  0.9635  0.6615
 7917SOL     OW35209   0.309   1.934  13.884 -0.4437  0.5505 -0.8743
 7917SOL    HW135210   0.248   1.879  13.835 -0.1393 -0.2288 -0.3834
 7917SOL    HW235211   0.269   2.021  13.873  0.6583  0.7644 -3.2706
 7918SOL     OW35212   3.095   3.009   6.124 -0.2898  0.3997  0.5004
 7918SOL    HW135213   3.125   3.060   6.049 -1.4856 -0.4387 -0.5568
 7918SOL    HW235214   3.171   3.019   6.182 -0.9802 -0.8209  1.6277
 7919SOL     OW35215   3.834   2.792   3.280 -0.0316  0.3652 -0.7770
 7919SOL    HW135216   3.869   2.877   3.307 -1.6304  0.0460  2.1795
 7919SOL    HW235217   3.764   2.817   3.219 -0.1053 -0.5562 -1.0839
 7920SOL     OW35218   3.347   1.454   6.859 -0.2825 -0.6728 -0.0710
 7920SOL    HW135219   3.339   1.485   6.769 -0.0019 -0.9272 -0.1810
 7920SOL    HW235220   3.418   1.392   6.842  0.1525 -0.8545  2.3964
 7921SOL     OW35221   3.678   3.027  14.925 -0.2483  0.2903  0.3252
 7921SOL    HW135222   3.713   2.945  14.888 -1.7557  0.3421 -1.2129
 7921SOL    HW235223   3.709   3.016  15.015 -1.5075  0.1741  0.7508
 7922SOL     OW35224   3.058   1.887  17.259  0.2772 -0.5943 -0.0574
 7922SOL    HW135225   3.033   1.970  17.218  0.1643  0.4073  1.9909
 7922SOL    HW235226   2.999   1.890  17.334  0.2263 -0.8320 -0.0892
 7923SOL     OW35227   1.172   2.867  10.440  0.2203 -0.4554  0.5042
 7923SOL    HW135228   1.206   2.947  10.401 -0.1143 -0.3075  0.5154
 7923SOL    HW235229   1.261   2.831  10.436  0.8093  1.1061 -0.4881
 7924SOL     OW35230   3.646   1.985  12.336 -0.1778  0.7558 -0.5057
 7924SOL    HW135231   3.713   2.036  12.381 -0.1831 -0.7697  1.2340
 7924SOL    HW235232   3.568   2.027  12.370 -1.3651 -0.2584 -1.9826
 7925SOL     OW35233   2.381   1.154   3.463  0.2279  0.0377 -0.0987
 7925SOL    HW135234   2.304   1.125   3.413  0.7685 -0.1274 -0.8216
 7925SOL    HW235235   2.421   1.067   3.466 -2.5896 -1.2722  0.3890
 7926SOL     OW35236   1.239   1.514   4.426  0.1847  0.4783 -0.6198
 7926SOL    HW135237   1.206   1.493   4.338 -1.7805 -1.5884  0.6106
 7926SOL    HW235238   1.334   1.501   4.420  0.1351  0.0193 -0.4063
 7927SOL     OW35239   3.239   0.227  10.368  0.1616 -0.1355  0.1768
 7927SOL    HW135240   3.331   0.239  10.343  0.1460  1.7533  1.0057
 7927SOL    HW235241   3.261   0.202  10.457 -0.5673 -1.7833 -0.1097
 7928SOL     OW35242   3.633   2.485   9.527 -0.2865  0.2727  0.4029
 7928SOL    HW135243   3.725   2.502   9.511 -0.0155 -0.8918  0.6782
 7928SOL    HW235244   3.606   2.575   9.509 -2.5269 -0.6224 -0.7533
 7929SOL     OW35245   1.770   3.181  10.379 -0.1387  0.9481 -0.1351
 7929SOL    HW135246   1.704   3.226  10.325 -2.3043  0.0993  1.8234
 7929SOL    HW235247   1.783   3.240  10.453 -0.9007  1.0104 -0.0491
 7930SOL     OW35248   3.124   3.393   0.697  0.3201  0.1634  0.5683
 7930SOL    HW135249   3.108   3.364   0.787 -0.4249 -1.3044 -0.0491
 7930SOL    HW235250   3.038   3.433   0.685  0.0107 -1.1682 -1.5681
 7931SOL     OW35251   4.003   1.719   5.711 -0.0611  0.0438 -0.1201
 7931SOL    HW135252   4.022   1.724   5.617 -0.4971  2.2749 -0.0986
 7931SOL    HW235253   3.909   1.699   5.709  0.0943 -0.6013 -1.3253
 7932SOL     OW35254   4.569   1.787   6.153 -0.3155 -0.4103  0.3988
 7932SOL    HW135255   4.621   1.717   6.113 -0.1630 -0.5284  0.7983
 7932SOL    HW235256   4.494   1.783   6.094 -1.7754 -0.2955  2.2360
 7933SOL     OW35257   2.614   0.354   7.710 -0.5090  0.3283 -0.2005
 7933SOL    HW135258   2.642   0.416   7.778  2.2173  0.2756 -1.2962
 7933SOL    HW235259   2.554   0.293   7.754 -0.8628 -0.2287 -1.4822
 7934SOL     OW35260   0.067   4.373   3.817  0.0131 -0.4644  0.2935
 7934SOL    HW135261   0.005   4.348   3.885 -2.9347 -3.1014 -3.3559
 7934SOL    HW235262   0.033   4.460   3.794  0.5407 -0.2836  0.2129
 7935SOL     OW35263   0.250   3.819  13.214 -0.3875  0.1226  0.0086
 7935SOL    HW135264   0.197   3.789  13.288 -0.1641 -2.4035 -0.8809
 7935SOL    HW235265   0.222   3.755  13.149  0.5989  0.3262 -0.6247
 7936SOL     OW35266   0.532   2.190   7.875  0.4333  0.0153  0.0800
 7936SOL    HW135267   0.474   2.152   7.942 -0.1300 -0.0107 -0.4207
 7936SOL    HW235268   0.490   2.274   7.859 -1.3559 -0.5457  1.7671
 7937SOL     OW35269   1.208   2.325   5.697  0.6689 -0.3915  0.0005
 7937SOL    HW135270   1.283   2.289   5.744  4.2641  4.3005 -2.0647
 7937SOL    HW235271   1.255   2.368   5.625 -2.0998  1.8243 -0.4860
 7938SOL     OW35272   3.466   3.931   6.829 -0.3277 -0.3182  0.1781
 7938SOL    HW135273   3.531   3.861   6.844 -0.4986 -0.5127 -0.0025
 7938SOL    HW235274   3.519   4.005   6.859  1.5949 -0.9264 -1.6897
 7939SOL     OW35275   3.429   2.983   0.493  0.3760  0.1386  0.3774
 7939SOL    HW135276   3.362   3.051   0.497  0.5220  0.3565 -0.8653
 7939SOL    HW235277   3.495   3.028   0.544  0.0495  0.6420  0.3569
 7940SOL     OW35278   2.411   3.627   8.282 -0.1514  0.1036  0.1847
 7940SOL    HW135279   2.457   3.554   8.323  2.5474  1.9678  0.4130
 7940SOL    HW235280   2.434   3.703   8.336  0.1490  0.1285  0.0179
 7941SOL     OW35281   1.124   3.314   1.729  0.7993  0.5197 -0.1193
 7941SOL    HW135282   1.178   3.280   1.801  0.6097 -0.2525 -0.3467
 7941SOL    HW235283   1.090   3.395   1.766  0.2966  0.3959 -0.3222
 7942SOL     OW35284   4.240   2.228  14.007 -0.1332 -0.2638  0.3393
 7942SOL    HW135285   4.228   2.276  13.925  1.4436  0.3631  0.4702
 7942SOL    HW235286   4.180   2.269  14.070 -0.2675 -0.1196  0.1169
 7943SOL     OW35287   2.661   4.142   4.671 -0.2404  0.3779  0.4861
 7943SOL    HW135288   2.742   4.182   4.703  1.0818 -1.2539 -0.8616
 7943SOL    HW235289   2.609   4.222   4.684  1.2397  1.7047 -1.7534
 7944SOL     OW35290   1.105   3.272  12.983  0.4948  0.0975  0.1104
 7944SOL    HW135291   1.115   3.190  13.032  2.3557  0.2319 -0.0571
 7944SOL    HW235292   1.012   3.267  12.963  0.2192  0.1763  1.3248
 7945SOL     OW35293   1.219   2.227   3.346 -0.1985 -0.0045 -0.0279
 7945SOL    HW135294   1.195   2.144   3.305 -1.3130  1.1873 -1.8076
 7945SOL    HW235295   1.304   2.197   3.379 -0.8495 -1.8389 -0.0085
 7946SOL     OW35296   2.675   3.017   1.470 -0.0107 -0.0715 -0.4491
 7946SOL    HW135297   2.753   2.995   1.520 -0.7673 -1.6157  0.0390
 7946SOL    HW235298   2.667   2.942   1.411 -1.6691 -1.9121  2.1145
 7947SOL     OW35299   2.360   2.288   4.537  0.4972  0.1105 -0.4346
 7947SOL    HW135300   2.302   2.224   4.579  1.2391  0.6688  1.4514
 7947SOL    HW235301   2.415   2.318   4.610  0.5395 -0.6165 -0.1670
 7948SOL     OW35302   2.856   0.872   5.304 -0.1675 -0.1964  0.2165
 7948SOL    HW135303   2.933   0.874   5.361  0.7858  1.3846 -1.1305
 7948SOL    HW235304   2.893   0.894   5.218 -0.1699  0.6203  0.4220
 7949SOL     OW35305   0.814   3.194   1.174 -0.3544 -0.4677  0.0251
 7949SOL    HW135306   0.786   3.155   1.091  0.8453 -1.4158  0.0586
 7949SOL    HW235307   0.758   3.148   1.236 -2.3014  1.6584 -0.1759
 7950SOL     OW35308   2.287   1.783   4.614  0.2513 -0.2002  0.3031
 7950SOL    HW135309   2.367   1.810   4.659 -0.4763 -1.4209  2.3218
 7950SOL    HW235310   2.278   1.699   4.659 -2.0339 -1.1835 -1.9644
 7951SOL     OW35311   2.453   4.627   8.809 -0.4776  0.6984  0.2704
 7951SOL    HW135312   2.476   4.537   8.787  0.8800  1.1776 -0.2183
 7951SOL    HW235313   2.412   4.653   8.726 -0.7358  1.2325  0.5583
 7952SOL     OW35314   1.142   3.077   5.037 -0.5336 -0.3327 -0.2762
 7952SOL    HW135315   1.159   2.984   5.048  1.2723  0.1050  0.6525
 7952SOL    HW235316   1.046   3.076   5.038 -0.5168 -0.3574  0.7835
 7953SOL     OW35317   4.372   3.358  15.826 -0.2327 -0.3228 -0.2020
 7953SOL    HW135318   4.445   3.338  15.885  1.1599 -2.6435 -2.7177
 7953SOL    HW235319   4.344   3.272  15.795 -0.5481 -0.2925 -0.0015
 7954SOL     OW35320   0.601   1.266   9.236 -0.2213  0.5649  0.7651
 7954SOL    HW135321   0.697   1.275   9.234 -0.3438  1.5515 -1.6255
 7954SOL    HW235322   0.579   1.241   9.146 -0.4275  0.2071  0.9177
 7955SOL     OW35323   2.662   4.504   8.231 -0.1516  0.1510  0.0543
 7955SOL    HW135324   2.571   4.532   8.240  0.1553  1.1375  0.0831
 7955SOL    HW235325   2.703   4.582   8.268 -0.4309  0.8554 -1.1042
 7956SOL     OW35326   3.183   2.321   3.760  0.2064 -0.5795 -0.4091
 7956SOL    HW135327   3.212   2.237   3.795 -0.3048 -0.3794  0.5166
 7956SOL    HW235328   3.180   2.382   3.834  1.4048 -0.6271 -0.3157
 7957SOL     OW35329   3.534   3.318   6.357  0.1592 -0.7253  0.5653
 7957SOL    HW135330   3.564   3.259   6.288  1.7640 -1.8022  2.1999
 7957SOL    HW235331   3.620   3.349   6.383 -0.3802  1.0906  0.1866
 7958SOL     OW35332   4.402   0.891   8.536 -0.6217 -0.5764  0.0254
 7958SOL    HW135333   4.450   0.948   8.477 -1.8131 -0.3359 -0.7064
 7958SOL    HW235334   4.326   0.873   8.482 -0.9811 -2.9701  1.3108
 7959SOL     OW35335   4.555   3.880   8.695  0.0915  0.0614  0.0116
 7959SOL    HW135336   4.460   3.881   8.706 -0.1079  2.2192 -1.9673
 7959SOL    HW235337   4.591   3.940   8.760  0.7159  0.1795 -0.4415
 7960SOL     OW35338   0.729   3.373   8.161 -0.2107  0.0126  0.7308
 7960SOL    HW135339   0.669   3.440   8.193 -1.1717 -0.1746 -0.6541
 7960SOL    HW235340   0.801   3.433   8.144 -0.2299 -0.7457 -2.0801
 7961SOL     OW35341   2.078   1.646   7.954 -0.3768 -0.1616 -1.0048
 7961SOL    HW135342   2.132   1.588   7.899  0.8722 -0.7412  0.8515
 7961SOL    HW235343   2.041   1.701   7.885  1.5826  1.7168 -0.5729
 7962SOL     OW35344   0.290   1.388   4.648 -0.4379 -0.6383  0.8714
 7962SOL    HW135345   0.223   1.319   4.656 -0.7647 -0.2101  1.7310
 7962SOL    HW235346   0.243   1.455   4.598  2.0638  1.6626  1.6198
 7963SOL     OW35347   3.024   3.304   4.960  0.9902  0.2013 -0.1704
 7963SOL    HW135348   2.963   3.345   4.899  0.1219 -0.5104  0.2063
 7963SOL    HW235349   3.022   3.214   4.928 -1.1438 -0.5201  2.0022
 7964SOL     OW35350   0.291   0.534   2.451 -0.6439  0.5695  0.0384
 7964SOL    HW135351   0.274   0.440   2.441  0.1949  0.4814 -0.5660
 7964SOL    HW235352   0.210   0.575   2.423 -0.7024  2.2754  2.6667
 7965SOL     OW35353   3.670   1.312   7.114 -0.3463 -0.6413 -0.3575
 7965SOL    HW135354   3.723   1.359   7.179 -0.9642 -2.1404  1.2444
 7965SOL    HW235355   3.707   1.347   7.033 -0.1693 -1.8735 -0.8106
 7966SOL     OW35356   0.860   4.054  10.659  0.0598 -0.8835 -0.1331
 7966SOL    HW135357   0.935   4.052  10.718 -0.0978  1.0991  0.1140
 7966SOL    HW235358   0.871   4.131  10.604 -2.3056  0.2800  0.9797
 7967SOL     OW35359   3.676   4.337   5.990 -0.0055 -0.2629  0.3260
 7967SOL    HW135360   3.710   4.288   6.065  3.6137  0.6298 -0.7360
 7967SOL    HW235361   3.755   4.338   5.935  0.2401 -0.1144  0.6760
 7968SOL     OW35362   1.885   3.212   4.493  0.1856 -0.5221 -0.0315
 7968SOL    HW135363   1.848   3.283   4.441  1.5930  0.6563  0.5701
 7968SOL    HW235364   1.920   3.157   4.423  0.3077 -0.4424 -0.0319
 7969SOL     OW35365   4.542   1.817   7.736 -0.2939 -0.0512  0.4096
 7969SOL    HW135366   4.601   1.840   7.664 -0.6545 -1.2289 -0.2605
 7969SOL    HW235367   4.488   1.749   7.696 -1.0619  1.0672 -0.4528
 7970SOL     OW35368   2.077   3.239  14.077 -0.3015  0.0935 -0.3856
 7970SOL    HW135369   2.155   3.237  14.131 -1.0209 -1.3834  0.5811
 7970SOL    HW235370   2.063   3.333  14.092  0.3803  0.1386 -0.0395
 7971SOL     OW35371   3.686   0.920   5.682  0.2684 -0.1611  0.3238
 7971SOL    HW135372   3.687   0.864   5.760 -3.9073  0.1365  0.5812
 7971SOL    HW235373   3.780   0.916   5.663  0.4701  0.4387  1.1582
 7972SOL     OW35374   1.332   3.077  10.343 -0.6941 -0.3110 -0.4225
 7972SOL    HW135375   1.285   3.159  10.353 -1.4309 -0.6661 -0.9609
 7972SOL    HW235376   1.402   3.097  10.405 -0.9034 -1.5226  0.2135
 7973SOL     OW35377   4.317   4.038   7.530 -0.4041 -0.6823  0.4965
 7973SOL    HW135378   4.374   3.969   7.495  1.6745  0.8050  0.9459
 7973SOL    HW235379   4.238   4.023   7.479  0.1149 -0.1011 -0.4785
 7974SOL     OW35380   0.742   1.125   4.523  0.5129 -0.3893  0.0300
 7974SOL    HW135381   0.713   1.068   4.594  1.1833  2.0830  2.2768
 7974SOL    HW235382   0.665   1.178   4.505  2.2707  2.2302  0.0985
 7975SOL     OW35383   0.573   2.894   9.721  0.0644  0.4585 -0.0753
 7975SOL    HW135384   0.541   2.807   9.696  0.6788  0.6580 -1.5870
 7975SOL    HW235385   0.624   2.873   9.799  3.3082 -1.5227 -2.7175
 7976SOL     OW35386   2.801   2.355  10.621 -0.4682  0.5427 -0.1192
 7976SOL    HW135387   2.859   2.306  10.680 -1.1414  1.3634  1.2342
 7976SOL    HW235388   2.831   2.445  10.636 -0.6282  0.5282  0.2968
 7977SOL     OW35389   2.641   3.298  15.569  0.1859 -0.1533  0.2557
 7977SOL    HW135390   2.614   3.279  15.479 -0.8447 -0.9503  0.7355
 7977SOL    HW235391   2.704   3.228  15.587  0.6151  0.1409 -0.0980
 7978SOL     OW35392   1.824   2.217   8.122 -0.1197  0.0816 -0.5929
 7978SOL    HW135393   1.755   2.192   8.061  1.2274  0.3544 -2.2370
 7978SOL    HW235394   1.782   2.201   8.207 -0.1538  0.2144 -0.5855
 7979SOL     OW35395   1.164   2.640   8.452 -0.4553  0.1323 -0.6501
 7979SOL    HW135396   1.154   2.705   8.383  0.2063 -0.0595 -0.9368
 7979SOL    HW235397   1.088   2.646   8.510 -0.0628  0.3717 -0.1590
 7980SOL     OW35398   1.248   0.888   6.832 -0.3928 -0.1105 -0.4227
 7980SOL    HW135399   1.163   0.872   6.873 -1.2341 -0.6888 -2.4256
 7980SOL    HW235400   1.251   0.810   6.778 -1.1175  0.1539 -0.8462
 7981SOL     OW35401   0.303   2.041   3.743  0.0824  0.4660  0.4400
 7981SOL    HW135402   0.307   2.121   3.691  1.5469  0.0131 -0.1419
 7981SOL    HW235403   0.380   1.993   3.712 -0.2475  0.3536 -0.2101
 7982SOL     OW35404   2.989   2.723  10.399 -0.1963 -0.3547 -0.4259
 7982SOL    HW135405   2.962   2.815  10.388 -3.7736 -1.5703 -1.8439
 7982SOL    HW235406   3.062   2.713  10.337 -0.1986  0.4483 -0.5594
 7983SOL     OW35407   2.041   1.786   5.770 -0.0121  0.5125 -0.0256
 7983SOL    HW135408   2.071   1.733   5.844  1.7729 -0.7511 -1.6511
 7983SOL    HW235409   1.959   1.819   5.807 -0.4316 -0.8206  0.2348
 7984SOL     OW35410   4.548   2.907  11.000  0.0865 -0.0987  0.3223
 7984SOL    HW135411   4.535   2.858  11.081  2.8883  0.9061  1.3796
 7984SOL    HW235412   4.631   2.949  11.025  1.2880 -0.5085 -2.9470
 7985SOL     OW35413   0.213   3.413   0.585 -0.1049 -0.2785 -0.9226
 7985SOL    HW135414   0.160   3.417   0.664 -2.0133 -1.8116 -2.1193
 7985SOL    HW235415   0.139   3.427   0.526 -1.0382  0.4249  0.4270
 7986SOL     OW35416   4.260   0.391   9.690 -0.2167  0.6451  0.4275
 7986SOL    HW135417   4.332   0.423   9.745  1.2976 -0.4859 -0.8701
 7986SOL    HW235418   4.227   0.316   9.740  2.1799  0.4787  1.7690
 7987SOL     OW35419   2.843   1.603   2.797 -0.3387  0.2361 -0.0475
 7987SOL    HW135420   2.825   1.664   2.725 -3.3095 -0.5833 -0.0033
 7987SOL    HW235421   2.769   1.542   2.792  0.0634 -0.1367 -1.4177
 7988SOL     OW35422   3.144   2.870   7.178  0.1266 -0.4834  0.7507
 7988SOL    HW135423   3.101   2.847   7.096  1.9816  0.6788 -0.5595
 7988SOL    HW235424   3.091   2.818   7.239  0.8641 -1.0497  0.9097
 7989SOL     OW35425   2.686   1.939   3.435  0.1757 -0.3269  0.2346
 7989SOL    HW135426   2.685   1.987   3.518 -1.6719 -0.3731  0.2307
 7989SOL    HW235427   2.750   1.984   3.380  1.8829 -3.5005 -0.3979
 7990SOL     OW35428   2.500   4.336  11.695  0.5436  0.2318 -0.5110
 7990SOL    HW135429   2.508   4.266  11.630  0.4624 -0.2421 -0.0091
 7990SOL    HW235430   2.581   4.380  11.668  1.6755 -0.7262  1.3600
 7991SOL     OW35431   0.529   2.784   2.882  0.2412  0.1260  0.4744
 7991SOL    HW135432   0.592   2.856   2.887 -2.9705  2.8093  1.8892
 7991SOL    HW235433   0.453   2.825   2.923 -0.4987  1.5771 -2.3646
 7992SOL     OW35434   1.000   4.719   6.069  0.6557  0.0837  0.0338
 7992SOL    HW135435   0.938   4.654   6.036  1.4703 -1.2013  1.0625
 7992SOL    HW235436   1.081   4.695   6.023  1.1211 -0.4411  1.1481
 7993SOL     OW35437   2.700   0.517   5.047 -0.1073  0.2538  0.1615
 7993SOL    HW135438   2.690   0.520   5.142  1.8338  0.8307  0.3339
 7993SOL    HW235439   2.759   0.587   5.020 -0.7080  0.3186 -0.9760
 7994SOL     OW35440   0.825   1.939   5.339  0.1211  0.4050  0.5014
 7994SOL    HW135441   0.791   1.973   5.421  0.4626 -0.5904  1.0433
 7994SOL    HW235442   0.753   1.881   5.316 -0.4018  2.2432 -2.6665
 7995SOL     OW35443   4.118   2.815   3.380 -0.0782  0.4125  0.0180
 7995SOL    HW135444   4.135   2.881   3.447 -1.0547 -1.1203  1.7929
 7995SOL    HW235445   4.074   2.871   3.316 -1.3976 -0.3490  0.2555
 7996SOL     OW35446   2.425   4.126  10.296  0.0907 -0.0122 -0.1875
 7996SOL    HW135447   2.475   4.167  10.226 -0.0735 -1.0654 -0.9256
 7996SOL    HW235448   2.441   4.035  10.271 -1.3740 -0.3553  0.0998
 7997SOL     OW35449   3.926   1.462   8.426 -0.4205 -0.1916 -0.2507
 7997SOL    HW135450   4.015   1.482   8.452 -0.7261  2.1102 -1.0224
 7997SOL    HW235451   3.870   1.535   8.450  0.7135  0.7093 -0.3735
 7998SOL     OW35452   4.378   1.799   8.645 -0.3024 -0.4433  0.0689
 7998SOL    HW135453   4.316   1.730   8.668  2.8723 -2.4910  2.3040
 7998SOL    HW235454   4.326   1.876   8.667 -0.2600 -0.0814 -1.0768
 7999SOL     OW35455   3.706   3.323   9.178  0.0480  0.1203  0.0694
 7999SOL    HW135456   3.769   3.392   9.195  0.2461  0.0218 -0.2784
 7999SOL    HW235457   3.745   3.260   9.239  0.2224 -0.5871 -0.7798
 8000SOL     OW35458   3.680   1.783   0.294  0.2644  0.4754  0.1517
 8000SOL    HW135459   3.765   1.787   0.251 -0.4718  0.8720 -1.2589
 8000SOL    HW235460   3.707   1.829   0.373  1.1167  3.8235 -2.1211
 8001SOL     OW35461   3.232   1.789   6.191  0.2258 -0.1168  0.3301
 8001SOL    HW135462   3.327   1.803   6.187 -0.0310  1.1305 -1.3414
 8001SOL    HW235463   3.218   1.830   6.277 -1.3947 -0.9594  0.4699
 8002SOL     OW35464   1.015   3.084   5.577  0.1477 -0.9408  0.3888
 8002SOL    HW135465   0.990   3.017   5.641 -0.7950 -0.4279  0.5664
 8002SOL    HW235466   1.058   3.035   5.507 -0.5437 -0.2067 -0.5469
 8003SOL     OW35467   0.927   0.805   2.460  0.4937  0.2226  0.0826
 8003SOL    HW135468   0.875   0.731   2.430  2.5733 -0.8568 -0.8849
 8003SOL    HW235469   0.855   0.860   2.492  1.0330  1.6496 -1.1251
 8004SOL     OW35470   2.562   2.613   5.730  0.4233 -0.2018  0.0496
 8004SOL    HW135471   2.635   2.664   5.765  1.8016 -1.1673 -1.3946
 8004SOL    HW235472   2.609   2.530   5.732 -0.8113 -0.9434 -2.0616
 8005SOL     OW35473   1.950   4.161   7.871 -0.0432 -0.1782 -0.3386
 8005SOL    HW135474   2.044   4.146   7.871  0.1076  0.7539 -0.0673
 8005SOL    HW235475   1.929   4.151   7.778 -1.1825 -1.7069  0.0906
 8006SOL     OW35476   4.539   0.677  16.643 -0.2679  0.0979 -0.3239
 8006SOL    HW135477   4.498   0.685  16.729  1.7869  0.1689  0.6440
 8006SOL    HW235478   4.558   0.768  16.618  0.4011 -0.3543 -1.4632
 8007SOL     OW35479   1.637   2.417   9.269  0.0480 -0.0516 -0.4042
 8007SOL    HW135480   1.571   2.483   9.245 -0.9347 -1.2094 -0.8903
 8007SOL    HW235481   1.672   2.449   9.352 -0.6492 -0.2709 -0.0245
 8008SOL     OW35482   3.059   3.447   7.786  0.1594 -0.1663  0.2391
 8008SOL    HW135483   3.153   3.435   7.777 -0.0399 -0.6337 -1.3221
 8008SOL    HW235484   3.031   3.388   7.856 -0.6584  0.0541  0.0971
 8009SOL     OW35485   2.652   4.304   4.966  0.0258 -0.1328  0.1478
 8009SOL    HW135486   2.718   4.346   4.912  0.9026 -2.3553 -0.4994
 8009SOL    HW235487   2.710   4.256   5.025 -0.4993  0.1899  0.9220
 8010SOL     OW35488   1.436   0.292   5.026 -0.1506  0.1408 -0.1040
 8010SOL    HW135489   1.462   0.343   4.949 -0.2261 -3.2886 -2.4021
 8010SOL    HW235490   1.453   0.206   4.987 -0.9072  1.0492 -2.4960
 8011SOL     OW35491   1.193   2.753   3.665  0.2619  0.0471 -0.2079
 8011SOL    HW135492   1.109   2.797   3.647  1.0158  1.0730 -1.2550
 8011SOL    HW235493   1.251   2.806   3.611  0.1230  0.6238  0.2073
 8012SOL     OW35494   1.665   4.475   4.285  0.1253  0.3938 -0.2243
 8012SOL    HW135495   1.739   4.415   4.291 -0.1473  0.3595  3.2004
 8012SOL    HW235496   1.659   4.497   4.378 -1.8089 -1.4394  0.0744
 8013SOL     OW35497   1.133   0.380  16.719  0.4045  0.1540  0.1658
 8013SOL    HW135498   1.122   0.302  16.665 -1.0271  1.1354 -0.9614
 8013SOL    HW235499   1.086   0.345  16.795 -1.3717  2.0835 -0.0279
 8014SOL     OW35500   4.237   4.355   9.456  0.3292 -0.2602 -0.6527
 8014SOL    HW135501   4.259   4.407   9.534 -0.5949  0.6014 -0.9598
 8014SOL    HW235502   4.222   4.426   9.394  3.8258 -0.2767 -1.4898
 8015SOL     OW35503   2.567   1.012  17.206 -0.2882 -0.1888 -0.6622
 8015SOL    HW135504   2.512   0.969  17.140  0.8796 -2.6434 -0.0473
 8015SOL    HW235505   2.644   1.023  17.151 -0.0772  0.5636 -0.2169
 8016SOL     OW35506   3.680   3.793   4.230  0.2766  0.0360  0.0163
 8016SOL    HW135507   3.718   3.753   4.309  0.4777 -0.2905 -0.2472
 8016SOL    HW235508   3.678   3.884   4.261  0.2025 -0.0669  0.3204
 8017SOL     OW35509   3.815   0.625  16.239  0.3311  0.1892  0.2868
 8017SOL    HW135510   3.766   0.654  16.315 -0.6187 -2.6526  0.7521
 8017SOL    HW235511   3.814   0.531  16.257 -1.1234  0.2995  0.7485
 8018SOL     OW35512   0.634   0.186   7.564 -0.1154  0.1604 -0.6369
 8018SOL    HW135513   0.674   0.225   7.642 -0.0626 -2.0650  0.4462
 8018SOL    HW235514   0.549   0.146   7.581 -1.3000  2.0451 -2.1221
 8019SOL     OW35515   3.770   3.676   0.926 -0.6674 -0.1250 -0.4372
 8019SOL    HW135516   3.818   3.707   0.850  0.5841 -0.7636  0.0806
 8019SOL    HW235517   3.823   3.598   0.945 -2.2346 -0.9740  0.4981
 8020SOL     OW35518   3.341   3.001  10.374  0.7009  0.9898  0.3897
 8020SOL    HW135519   3.292   2.954  10.441 -0.4314  0.4898 -0.7781
 8020SOL    HW235520   3.414   2.947  10.343  1.8752  0.9730  3.2238
 8021SOL     OW35521   2.722   2.892   6.926  0.0884  0.2930  0.8429
 8021SOL    HW135522   2.737   2.872   6.834  3.3135  1.2492  1.1487
 8021SOL    HW235523   2.808   2.910   6.966  0.1635 -0.7297  1.1316
 8022SOL     OW35524   4.644   0.258  13.257 -0.5539 -0.1983  0.5371
 8022SOL    HW135525   4.550   0.261  13.240 -0.5410 -0.0809  0.4813
 8022SOL    HW235526   4.657   0.352  13.270  0.0117 -0.0700 -0.9477
 8023SOL     OW35527   3.169   0.891   4.201 -0.5243 -0.3894 -0.5615
 8023SOL    HW135528   3.130   0.930   4.123  0.6960 -1.4705 -1.7159
 8023SOL    HW235529   3.119   0.809   4.199 -0.2459 -0.5498 -0.9027
 8024SOL     OW35530   2.634   0.755   4.869 -0.1506 -0.2698 -0.5735
 8024SOL    HW135531   2.599   0.783   4.953 -2.0531 -1.5787 -0.9269
 8024SOL    HW235532   2.555   0.721   4.826 -1.0377 -0.5451  1.2869
 8025SOL     OW35533   1.971   2.113   5.263 -0.5128 -0.8318 -0.3085
 8025SOL    HW135534   2.063   2.130   5.245 -1.0121  3.2589  0.9548
 8025SOL    HW235535   1.946   2.198   5.300  1.2536 -0.9368  1.0889
 8026SOL     OW35536   0.588   0.708   5.856 -0.1196 -0.2573 -0.0593
 8026SOL    HW135537   0.580   0.767   5.781  0.2384 -0.0134  0.0904
 8026SOL    HW235538   0.515   0.737   5.911  0.2340  1.2156 -0.3575
 8027SOL     OW35539   3.704   3.988   4.655 -0.4370 -0.0579  0.5110
 8027SOL    HW135540   3.718   4.030   4.740 -1.3378  1.1848  0.0388
 8027SOL    HW235541   3.623   3.939   4.672  0.4205 -1.8005 -0.3871
 8028SOL     OW35542   3.010   1.234   3.379  0.0872 -0.5899  0.4520
 8028SOL    HW135543   3.030   1.227   3.286  0.6169 -2.7401  0.7368
 8028SOL    HW235544   3.088   1.207   3.428  2.2841 -1.8394 -3.7198
 8029SOL     OW35545   0.935   2.204   5.606  0.2072  0.3555  0.0235
 8029SOL    HW135546   0.877   2.273   5.574  0.0299  0.6748  1.0666
 8029SOL    HW235547   1.004   2.250   5.653  0.2257  0.8994 -0.5423
 8030SOL     OW35548   0.128   1.563   5.562  0.3123 -0.1701  0.0384
 8030SOL    HW135549   0.062   1.500   5.533  0.9725 -0.9650  0.2442
 8030SOL    HW235550   0.212   1.518   5.559  0.8305  0.7998  0.0338
 8031SOL     OW35551   2.074   4.061   7.529 -0.0317  0.1833 -0.1007
 8031SOL    HW135552   2.131   3.986   7.548  0.2990  0.6748  0.8003
 8031SOL    HW235553   2.146   4.122   7.516 -0.7532  1.0415 -0.0325
 8032SOL     OW35554   2.542   2.343   3.691 -0.0787  0.4994  0.3994
 8032SOL    HW135555   2.541   2.438   3.679 -1.0013  0.6640  1.7917
 8032SOL    HW235556   2.467   2.332   3.750  0.4634  2.2876  1.4050
 8033SOL     OW35557   3.465   4.466   7.538  0.7197 -0.3127 -0.3628
 8033SOL    HW135558   3.387   4.430   7.496  1.3488 -1.0000 -0.9250
 8033SOL    HW235559   3.421   4.512   7.610 -0.4301 -1.0487 -0.6022
 8034SOL     OW35560   4.315   2.541  12.138  0.1918  0.1958 -0.0962
 8034SOL    HW135561   4.225   2.509  12.138  0.5010 -0.6921 -1.1996
 8034SOL    HW235562   4.308   2.593  12.218  2.6122  1.7817 -0.9177
 8035SOL     OW35563   3.322   4.603   7.729 -0.1968  0.0837  0.1684
 8035SOL    HW135564   3.266   4.532   7.761 -1.0129  1.4741  1.8479
 8035SOL    HW235565   3.263   4.678   7.730  1.2283  1.2352 -3.7653
 8036SOL     OW35566   2.583   4.012   7.397 -0.5000  0.8114 -0.2168
 8036SOL    HW135567   2.603   3.934   7.449 -3.2049  0.8214  0.8670
 8036SOL    HW235568   2.493   3.996   7.368  0.2645 -0.2651 -2.0254
 8037SOL     OW35569   1.948   2.765   2.312 -0.6595  0.1852  0.4610
 8037SOL    HW135570   1.957   2.677   2.347  1.9602  0.2723  0.0527
 8037SOL    HW235571   1.915   2.810   2.390 -0.2537 -1.7135  1.7340
 8038SOL     OW35572   3.822   2.410   5.999 -0.1799  0.3617  0.1666
 8038SOL    HW135573   3.773   2.332   5.974  1.5257 -0.2527 -1.2476
 8038SOL    HW235574   3.752   2.475   6.005 -1.1720 -0.4847 -2.7748
 8039SOL     OW35575   3.648   2.909   6.053 -0.2496 -0.0182  0.2882
 8039SOL    HW135576   3.587   2.869   5.990 -1.0172 -1.2770  1.8160
 8039SOL    HW235577   3.697   2.832   6.082  1.2482  1.4875  1.7272
 8040SOL     OW35578   2.470   4.180   4.233  0.5717 -0.0728  0.2452
 8040SOL    HW135579   2.400   4.227   4.277 -0.2312 -0.0113 -1.0892
 8040SOL    HW235580   2.511   4.252   4.185  0.5847 -0.8252 -0.8812
 8041SOL     OW35581   2.236   0.326   4.596  0.1477 -0.3787  0.2537
 8041SOL    HW135582   2.191   0.300   4.516 -1.4624 -2.4258  1.8247
 8041SOL    HW235583   2.172   0.348   4.664 -1.7619 -0.2723 -1.5857
 8042SOL     OW35584   3.249   2.598   4.337 -0.3251  0.2158 -0.2035
 8042SOL    HW135585   3.172   2.554   4.304 -0.5787  1.0837 -0.7839
 8042SOL    HW235586   3.211   2.637   4.416 -0.9106 -0.5928 -0.0995
 8043SOL     OW35587   3.366   0.465  17.507 -0.0801 -0.4211  0.2821
 8043SOL    HW135588   3.372   0.380  17.463  1.3316  0.7363 -1.7433
 8043SOL    HW235589   3.283   0.498  17.471  0.0183  2.4186  2.6702
 8044SOL     OW35590   4.352   1.839  17.526 -0.3203  0.0785 -0.0872
 8044SOL    HW135591   4.446   1.848  17.537 -0.4261 -0.8887  1.5868
 8044SOL    HW235592   4.324   1.925  17.557  0.6184  0.0344  0.8679
 8045SOL     OW35593   1.928   0.056   4.858  0.8455 -0.2992  0.4479
 8045SOL    HW135594   1.872   0.097   4.792  1.1694 -1.3612 -0.4906
 8045SOL    HW235595   1.868   0.031   4.928 -1.6831  1.8791 -0.9488
 8046SOL     OW35596   2.750   1.809   3.927  0.1200  0.3786  0.0568
 8046SOL    HW135597   2.731   1.798   3.834  2.2281 -1.8448 -0.1186
 8046SOL    HW235598   2.685   1.745   3.958  1.8463 -1.0676  0.7089
 8047SOL     OW35599   3.485   2.487   2.795  0.2367 -0.1715  0.1649
 8047SOL    HW135600   3.497   2.575   2.829 -0.3096  0.4243 -1.2018
 8047SOL    HW235601   3.494   2.428   2.869  0.9789  0.1575  0.3349
 8048SOL     OW35602   1.856   4.471   0.721 -0.6824  0.2920  0.4118
 8048SOL    HW135603   1.910   4.403   0.681  0.6746  0.4454  1.9704
 8048SOL    HW235604   1.835   4.430   0.805 -3.4993  0.1485 -0.3528
 8049SOL     OW35605   4.129   1.259   6.327  0.7840 -0.2897  0.0865
 8049SOL    HW135606   4.075   1.251   6.248  0.4412 -0.8263  0.3816
 8049SOL    HW235607   4.165   1.171   6.329  1.9164  0.1561 -0.6063
 8050SOL     OW35608   2.088   2.452   4.656  0.0305  0.6684 -0.0578
 8050SOL    HW135609   2.008   2.461   4.604  0.4000  0.0056 -0.7409
 8050SOL    HW235610   2.053   2.381   4.710  1.4302  0.8489  1.0721
 8051SOL     OW35611   2.504   2.633   3.654  0.4622  0.1508 -0.0298
 8051SOL    HW135612   2.520   2.681   3.735  1.6340  2.2863 -1.5285
 8051SOL    HW235613   2.591   2.641   3.616  0.6077  0.7736  0.4446
 8052SOL     OW35614   0.343   2.301   0.496 -0.7310 -0.0972  0.4065
 8052SOL    HW135615   0.297   2.384   0.484  1.4763  0.9006 -1.2323
 8052SOL    HW235616   0.413   2.308   0.430 -1.5847 -1.5672 -0.6492
 8053SOL     OW35617   2.747   2.835   6.653  0.3889 -0.0114 -0.1538
 8053SOL    HW135618   2.699   2.794   6.581  0.1407  0.9375 -0.5205
 8053SOL    HW235619   2.841   2.828   6.633  0.5378 -2.1813  1.2812
 8054SOL     OW35620   0.418   0.462   4.549 -0.5456 -0.0492  0.2959
 8054SOL    HW135621   0.491   0.478   4.609 -1.3982  1.3253  0.9658
 8054SOL    HW235622   0.419   0.366   4.549  2.0643 -0.0245  0.1870
 8055SOL     OW35623   2.916   1.848   8.585  0.6260 -0.3192 -0.4031
 8055SOL    HW135624   2.904   1.935   8.549  0.8777 -0.3259 -0.5026
 8055SOL    HW235625   2.905   1.784   8.515  2.3016  0.0985 -1.0507
 8056SOL     OW35626   3.723   4.625   6.119  0.1643 -0.0147 -0.1463
 8056SOL    HW135627   3.806   4.584   6.144  0.7956  2.1180  1.3140
 8056SOL    HW235628   3.671   4.596   6.194  0.3422 -4.1672 -1.6323
 8057SOL     OW35629   0.768   0.475   1.384 -0.2745  0.4797 -0.2275
 8057SOL    HW135630   0.680   0.493   1.419 -1.4233 -2.6482 -1.4885
 8057SOL    HW235631   0.783   0.402   1.445  0.1138  0.4119 -0.4060
 8058SOL     OW35632   1.158   3.636   4.532 -0.4251  0.7089  0.1978
 8058SOL    HW135633   1.199   3.560   4.492 -1.7965 -0.0084  0.1461
 8058SOL    HW235634   1.231   3.676   4.579 -0.2771 -1.4971  1.8079
 8059SOL     OW35635   1.154   0.835   8.323  0.8633  0.6657  1.1863
 8059SOL    HW135636   1.124   0.777   8.254 -0.2729  1.9352  0.6233
 8059SOL    HW235637   1.076   0.890   8.325  1.1713  1.1231  0.5698
 8060SOL     OW35638   0.928   4.104  11.140  0.0873 -0.0872 -0.0327
 8060SOL    HW135639   0.880   4.122  11.221 -1.7947 -1.0934 -0.9270
 8060SOL    HW235640   0.859   4.109  11.075  1.2934 -2.5323 -1.4996
 8061SOL     OW35641   3.821   1.181   0.454 -0.1328 -0.1103  0.4483
 8061SOL    HW135642   3.869   1.152   0.531  2.0821  1.7998 -0.2065
 8061SOL    HW235643   3.797   1.272   0.473  1.6834  0.6329 -0.8150
 8062SOL     OW35644   2.565   4.539   5.632 -0.9529 -0.1032  0.3121
 8062SOL    HW135645   2.530   4.520   5.545  0.9307 -0.1120 -0.4531
 8062SOL    HW235646   2.500   4.499   5.689 -1.3789 -1.8680 -1.4180
 8063SOL     OW35647   0.615   2.169   6.857  0.6681  0.2941  0.1004
 8063SOL    HW135648   0.615   2.078   6.885  0.5225 -0.5114 -2.6150
 8063SOL    HW235649   0.523   2.193   6.845  0.8350  0.4364 -0.8882
 8064SOL     OW35650   0.580   1.311   3.985 -0.1804  0.5661  0.2867
 8064SOL    HW135651   0.564   1.217   3.994 -0.3233  0.5422 -0.1829
 8064SOL    HW235652   0.637   1.315   4.062  0.3027  1.7523 -0.1344
 8065SOL     OW35653   3.078   4.156  12.196  0.4294 -0.5267  0.0453
 8065SOL    HW135654   3.020   4.226  12.226 -0.1379 -1.4094  1.0027
 8065SOL    HW235655   3.064   4.084  12.258 -0.6322 -1.2269 -0.9976
 8066SOL     OW35656   4.291   1.530  15.468 -0.1184 -0.1984  0.4153
 8066SOL    HW135657   4.352   1.496  15.534  0.6411 -1.1671 -0.8016
 8066SOL    HW235658   4.302   1.476  15.390  0.4702 -2.1030  1.8137
 8067SOL     OW35659   0.428   2.248   5.088 -0.4909  0.1708 -0.6611
 8067SOL    HW135660   0.393   2.185   5.025 -0.0383 -0.0574 -0.6886
 8067SOL    HW235661   0.479   2.197   5.152  1.3569  1.5345 -1.0426
 8068SOL     OW35662   0.374   2.219  12.287  0.0625  0.0853 -0.3467
 8068SOL    HW135663   0.337   2.301  12.255 -1.8636 -1.5260 -2.2803
 8068SOL    HW235664   0.433   2.200  12.214 -1.2388  1.0376 -1.6502
 8069SOL     OW35665   1.934   4.416   4.023 -0.4675  0.0146  0.3713
 8069SOL    HW135666   1.845   4.422   3.989  0.2720  0.3375 -1.4759
 8069SOL    HW235667   1.971   4.341   3.976 -2.4921 -0.7675  0.0216
 8070SOL     OW35668   0.875   2.461  12.618 -0.1038  0.1250  0.2775
 8070SOL    HW135669   0.929   2.509  12.682  0.2009 -0.6218  0.5751
 8070SOL    HW235670   0.794   2.513  12.620  0.2893  0.8686 -3.1314
 8071SOL     OW35671   2.270   4.210   1.512  0.4043  0.2885 -0.2204
 8071SOL    HW135672   2.300   4.133   1.561 -0.8356 -0.5461 -0.7608
 8071SOL    HW235673   2.235   4.161   1.437  1.4963 -1.3019  0.3109
 8072SOL     OW35674   2.157   2.152   6.763  0.1937 -0.0939  0.3601
 8072SOL    HW135675   2.224   2.107   6.814  1.8858  2.1754  0.1480
 8072SOL    HW235676   2.204   2.153   6.680  0.1145 -1.8922  0.2928
 8073SOL     OW35677   2.043   3.643   7.767 -0.4218 -0.0622  0.1498
 8073SOL    HW135678   2.024   3.578   7.834 -0.2960 -1.5980 -1.3141
 8073SOL    HW235679   2.095   3.603   7.697 -1.0982 -0.7244  0.0341
 8074SOL     OW35680   2.311   1.246  12.655  0.4268 -0.2973 -0.3488
 8074SOL    HW135681   2.277   1.312  12.715  3.3540  0.0294  0.9436
 8074SOL    HW235682   2.284   1.271  12.567  1.7893  1.2464 -0.3225
 8075SOL     OW35683   3.992   3.570  12.268  1.1255  0.5837 -0.2625
 8075SOL    HW135684   4.068   3.578  12.210  0.4570  0.8371 -1.1014
 8075SOL    HW235685   4.014   3.487  12.310  1.3496  0.1325 -1.2576
 8076SOL     OW35686   1.250   1.070  13.675 -0.3346 -0.1964 -0.0751
 8076SOL    HW135687   1.210   1.155  13.693 -1.2822 -0.3963 -1.2575
 8076SOL    HW235688   1.324   1.098  13.621 -0.8533  1.1684 -0.0844
 8077SOL     OW35689   1.603   3.716   1.511 -0.1930  0.3703  0.1334
 8077SOL    HW135690   1.603   3.732   1.417  1.3463  1.0595  0.2488
 8077SOL    HW235691   1.515   3.719   1.551 -0.3637 -1.0815 -0.1419
 8078SOL     OW35692   0.651   3.569   3.864 -0.0546 -0.0423  0.0600
 8078SOL    HW135693   0.677   3.628   3.935  0.6850 -1.4466  0.9356
 8078SOL    HW235694   0.640   3.633   3.793 -0.4014 -0.1832 -0.0095
 8079SOL     OW35695   0.636   2.185   3.906  0.3609 -0.1208 -0.0434
 8079SOL    HW135696   0.685   2.156   3.829  0.3832 -2.1773  0.7406
 8079SOL    HW235697   0.663   2.277   3.915  1.0885 -0.1689 -1.6403
 8080SOL     OW35698   2.979   0.118  10.379  0.1499  0.0120  0.1371
 8080SOL    HW135699   3.069   0.150  10.381 -0.3432  1.4240 -0.0002
 8080SOL    HW235700   2.964   0.130  10.285  2.4403 -1.4989 -0.4266
 8081SOL     OW35701   0.558   3.769   3.435 -0.5476 -0.1021 -0.0028
 8081SOL    HW135702   0.469   3.741   3.459 -0.9768  0.3620 -1.0486
 8081SOL    HW235703   0.575   3.727   3.351 -0.2743 -1.6384  0.8239
 8082SOL     OW35704   3.302   2.696   3.773 -0.5006 -0.5746  0.0617
 8082SOL    HW135705   3.213   2.721   3.799 -0.0596  0.8297  0.2361
 8082SOL    HW235706   3.342   2.665   3.854  1.7047  0.5815 -0.5576
 8083SOL     OW35707   4.456   2.074   4.435  0.0639  0.0831  0.0732
 8083SOL    HW135708   4.419   2.160   4.417 -0.5335  0.0793  1.2740
 8083SOL    HW235709   4.547   2.097   4.415 -0.1441  0.3284 -0.5609
 8084SOL     OW35710   1.336   1.304   7.084 -0.6135 -0.1312 -0.0453
 8084SOL    HW135711   1.370   1.267   7.002  0.6894 -0.2929  0.5685
 8084SOL    HW235712   1.262   1.352   7.048  1.6971  1.5078 -2.6932
 8085SOL     OW35713   1.793   3.903  14.954  0.1084  0.0647  0.0211
 8085SOL    HW135714   1.701   3.930  14.949  0.5344  1.3774 -0.5466
 8085SOL    HW235715   1.836   3.969  15.008  1.2510 -0.4847 -0.2263
 8086SOL     OW35716   1.404   2.475   6.967 -0.9254  0.4032  0.5060
 8086SOL    HW135717   1.439   2.478   6.878 -1.1049 -2.4533  0.3370
 8086SOL    HW235718   1.327   2.532   6.961 -1.5162 -0.4623 -0.1134
 8087SOL     OW35719   1.954   3.812   2.674 -0.4320 -0.2100  0.6131
 8087SOL    HW135720   1.948   3.723   2.639  3.0244  0.0534 -0.6134
 8087SOL    HW235721   1.898   3.797   2.751 -0.3513 -0.0681  0.6986
 8088SOL     OW35722   4.632   1.063   2.379 -0.3664 -0.1233  0.3903
 8088SOL    HW135723   4.587   1.143   2.351  1.9058  1.5523  1.4922
 8088SOL    HW235724   4.691   1.113   2.436  1.8556  0.2402 -2.2709
 8089SOL     OW35725   1.960   1.343   3.985 -0.2133 -0.1401  0.2851
 8089SOL    HW135726   2.008   1.416   4.023  0.0321 -1.1280  1.9024
 8089SOL    HW235727   1.971   1.366   3.893 -0.7056 -0.0465  0.2483
 8090SOL     OW35728   4.182   3.346  16.038  0.2261  0.1988 -0.0789
 8090SOL    HW135729   4.240   3.359  15.963  0.0456  2.1769  0.1225
 8090SOL    HW235730   4.129   3.425  16.026 -1.0042 -0.7361 -0.8886
 8091SOL     OW35731   4.424   0.304   3.609 -0.5293  0.2155 -0.1833
 8091SOL    HW135732   4.453   0.387   3.647 -0.7612  1.0181 -1.7904
 8091SOL    HW235733   4.353   0.275   3.667 -0.8036 -0.9091 -1.0906
 8092SOL     OW35734   1.122   0.834   2.924  0.2913  0.0237 -0.0032
 8092SOL    HW135735   1.104   0.913   2.872 -2.0817 -0.8572 -0.5437
 8092SOL    HW235736   1.034   0.798   2.922 -0.5943  2.2817 -1.9199
 8093SOL     OW35737   0.890   2.664   7.163 -0.2544  0.1750  0.1075
 8093SOL    HW135738   0.813   2.719   7.149 -1.5051 -2.0521 -1.9422
 8093SOL    HW235739   0.855   2.575   7.174 -1.2083  0.3983 -1.0643
 8094SOL     OW35740   4.174   2.598   8.736  0.0662 -0.0437  0.4348
 8094SOL    HW135741   4.108   2.562   8.677  0.2026 -0.1910  0.3747
 8094SOL    HW235742   4.156   2.553   8.819  1.3130 -0.9966  0.1753
 8095SOL     OW35743   1.576   1.388   8.526 -0.5157 -0.2761  0.0251
 8095SOL    HW135744   1.610   1.299   8.535 -0.0841 -0.0664  0.4574
 8095SOL    HW235745   1.596   1.398   8.433  0.4862 -0.4226  0.2336
 8096SOL     OW35746   3.731   3.539   6.163  0.1240 -0.4090  0.2765
 8096SOL    HW135747   3.740   3.522   6.256  0.2637  2.5185  0.7957
 8096SOL    HW235748   3.811   3.491   6.143  1.0274  1.2153  0.0367
 8097SOL     OW35749   0.475   4.442  14.140  0.5105 -0.1212 -0.3299
 8097SOL    HW135750   0.438   4.429  14.053  1.5195 -1.6332 -0.5205
 8097SOL    HW235751   0.457   4.536  14.145  1.4502  0.0221  0.3347
 8098SOL     OW35752   0.130   2.687   8.949  0.4350 -0.0173 -0.2217
 8098SOL    HW135753   0.095   2.762   8.998 -0.4777 -1.1243  0.7997
 8098SOL    HW235754   0.148   2.621   9.016  1.1328 -0.1577 -0.5442
 8099SOL     OW35755   2.207   0.306   9.450  0.8176  0.0443  0.2270
 8099SOL    HW135756   2.119   0.310   9.412 -1.1903 -0.7209  4.7464
 8099SOL    HW235757   2.196   0.376   9.515 -0.8463 -0.9813  1.0462
 8100SOL     OW35758   1.244   3.164  15.118  0.1829  0.8400 -0.2664
 8100SOL    HW135759   1.247   3.235  15.182  1.5199  0.9918 -0.4992
 8100SOL    HW235760   1.336   3.140  15.104 -0.5553 -2.0259 -0.2170
 8101SOL     OW35761   3.350   1.212  11.534 -0.1324 -0.5197 -0.6499
 8101SOL    HW135762   3.410   1.138  11.527  1.2437  0.7296 -2.0467
 8101SOL    HW235763   3.267   1.165  11.530  0.6829 -2.0306  0.1386
 8102SOL     OW35764   0.789   0.182   9.287  0.4186 -0.2236  0.1520
 8102SOL    HW135765   0.701   0.147   9.299  0.0958  1.1316  1.7681
 8102SOL    HW235766   0.810   0.198   9.379 -1.1466  1.6539  0.1931
 8103SOL     OW35767   3.505   1.398  15.356  0.0601 -0.6016 -0.0573
 8103SOL    HW135768   3.569   1.329  15.338 -1.2678 -1.6551 -0.6677
 8103SOL    HW235769   3.422   1.353  15.345 -0.4539  0.5177 -0.7331
 8104SOL     OW35770   1.418   3.110  16.243 -0.6195  0.0466 -0.0964
 8104SOL    HW135771   1.422   3.020  16.211 -1.9553  0.6401 -1.9649
 8104SOL    HW235772   1.396   3.160  16.164  0.4992  0.4257 -0.1680
 8105SOL     OW35773   2.369   3.609   6.742  0.0123 -0.1236  0.0658
 8105SOL    HW135774   2.398   3.531   6.695 -0.7372  1.2269 -2.6953
 8105SOL    HW235775   2.367   3.673   6.670  2.3083 -0.0375  0.0548
 8106SOL     OW35776   3.132   1.539   2.675 -0.5701 -0.2561  0.0927
 8106SOL    HW135777   3.059   1.589   2.638 -0.3405  0.3874  0.5167
 8106SOL    HW235778   3.127   1.464   2.615  0.0756 -2.0393  2.2659
 8107SOL     OW35779   2.661   3.510   8.746  0.1621 -0.3761  0.0422
 8107SOL    HW135780   2.731   3.447   8.728  2.4794  1.6117  2.0540
 8107SOL    HW235781   2.593   3.449   8.775  0.6443 -1.9592 -2.1567
 8108SOL     OW35782   4.207   2.048   5.214 -0.2456  0.6476  0.2952
 8108SOL    HW135783   4.161   2.058   5.130 -2.1629 -1.6201  1.0831
 8108SOL    HW235784   4.139   2.081   5.272 -0.8726 -0.0265 -0.0657
 8109SOL     OW35785   1.051   1.389   5.389  0.9435 -0.1491  0.6732
 8109SOL    HW135786   1.088   1.375   5.302  1.4195  0.8320  0.7274
 8109SOL    HW235787   1.112   1.335   5.440 -0.5614 -0.1202  2.4913
 8110SOL     OW35788   1.474   1.074   9.422 -0.1485 -0.3021 -0.5687
 8110SOL    HW135789   1.391   1.038   9.453 -0.9569 -0.6900 -3.1854
 8110SOL    HW235790   1.443   1.159   9.453 -0.2112 -0.8230  0.7789
 8111SOL     OW35791   2.135   3.068   5.963 -0.4554  0.2475  0.7604
 8111SOL    HW135792   2.169   3.121   6.036 -3.4058  0.9497  1.6423
 8111SOL    HW235793   2.109   2.987   6.007  0.4356 -1.5111 -1.9746
 8112SOL     OW35794   3.481   1.748  16.879  0.4142  0.1600 -0.0989
 8112SOL    HW135795   3.417   1.780  16.942  1.4282  0.9062  0.5516
 8112SOL    HW235796   3.525   1.830  16.857  1.0526  0.1149  1.0379
 8113SOL     OW35797   4.584   1.307   5.604 -0.5247  0.2803  0.0843
 8113SOL    HW135798   4.577   1.337   5.513 -0.3744  2.4648  0.7963
 8113SOL    HW235799   4.656   1.246   5.591 -0.3694  0.7519 -1.3276
 8114SOL     OW35800   0.921   3.945   7.180  0.1360  0.3338 -0.2527
 8114SOL    HW135801   0.931   4.031   7.222  1.6249  0.6389 -1.2481
 8114SOL    HW235802   0.984   3.899   7.236 -0.3889 -1.1980 -0.9173
 8115SOL     OW35803   0.587   3.278  13.573 -0.2309 -0.4435  0.3670
 8115SOL    HW135804   0.610   3.189  13.547  0.0538  0.0247 -0.9950
 8115SOL    HW235805   0.498   3.263  13.603  0.1387  0.0191  1.7083
 8116SOL     OW35806   1.289   2.708   7.162 -0.0141  0.2264 -1.1066
 8116SOL    HW135807   1.296   2.660   7.245  0.4599 -0.8437 -1.7663
 8116SOL    HW235808   1.371   2.756   7.158 -0.6386  1.4495  0.7517
 8117SOL     OW35809   2.297   2.178   6.325  0.4545  0.4569  0.4073
 8117SOL    HW135810   2.319   2.145   6.412  0.1411 -2.4099 -0.6086
 8117SOL    HW235811   2.364   2.246   6.317 -0.0672  0.7907 -1.0344
 8118SOL     OW35812   0.689   0.818   9.513  0.0552 -0.0668 -0.2988
 8118SOL    HW135813   0.677   0.745   9.452  2.4513 -0.2313 -0.5631
 8118SOL    HW235814   0.638   0.784   9.587 -0.4258 -1.6570 -1.3476
 8119SOL     OW35815   2.714   1.387   5.278 -0.4372  0.4113  0.2204
 8119SOL    HW135816   2.728   1.479   5.298 -2.9013  0.6258  0.9028
 8119SOL    HW235817   2.706   1.359   5.369  1.1337 -0.2678  0.1555
 8120SOL     OW35818   3.179   0.049  13.593 -0.4143  0.2635 -0.4731
 8120SOL    HW135819   3.152   4.686  13.625 -2.4404  0.0591 -2.7399
 8120SOL    HW235820   3.156   0.103  13.668  1.7387  2.3954 -1.3380
 8121SOL     OW35821   2.136   4.602  17.107 -0.3741 -0.2651 -0.3845
 8121SOL    HW135822   2.138   4.512  17.074  1.2338  0.7394 -3.0087
 8121SOL    HW235823   2.058   4.636  17.063 -2.4512 -0.4002  3.1645
 8122SOL     OW35824   0.969   3.732   4.017  0.0305 -0.0439  0.5266
 8122SOL    HW135825   0.959   3.741   3.923 -0.1545 -2.8248  0.2937
 8122SOL    HW235826   0.942   3.641   4.026  0.0168  0.0264  1.2782
 8123SOL     OW35827   1.980   0.886   5.504  0.2394 -0.3880 -0.1825
 8123SOL    HW135828   1.992   0.837   5.586 -0.2202 -1.1616 -0.5779
 8123SOL    HW235829   2.045   0.952   5.528 -0.2032  0.5734 -1.6518
 8124SOL     OW35830   1.006   3.024  17.656  0.2004 -0.0085  0.0998
 8124SOL    HW135831   0.971   3.113  17.665  1.5779  0.7251 -1.7869
 8124SOL    HW235832   0.966   3.009  17.570  1.8186 -0.1158 -0.6418
 8125SOL     OW35833   0.088   3.685   2.261  0.3849  0.1774 -0.6312
 8125SOL    HW135834   0.028   3.719   2.193 -0.8950 -2.9559 -1.0524
 8125SOL    HW235835   0.036   3.670   2.340 -0.5366  0.4311 -1.1784
 8126SOL     OW35836   4.564   4.302   7.254  0.0332 -0.0506 -0.0832
 8126SOL    HW135837   4.502   4.300   7.327  2.1957  0.7435  1.7750
 8126SOL    HW235838   4.616   4.224   7.271  0.0189  0.0300  0.3134
 8127SOL     OW35839   4.058   4.125   7.131  0.2354 -0.2510  0.1331
 8127SOL    HW135840   4.139   4.087   7.097 -0.7925 -2.1364 -0.1977
 8127SOL    HW235841   3.991   4.091   7.071 -0.0328 -2.8119  1.9185
 8128SOL     OW35842   3.867   2.039  12.827  0.5053 -0.0138  0.0775
 8128SOL    HW135843   3.955   2.076  12.824  0.4689  0.3625  2.9420
 8128SOL    HW235844   3.811   2.094  12.773  2.2390  1.0860 -0.5736
 8129SOL     OW35845   4.227   2.004   7.200  0.4084 -0.4140 -0.1530
 8129SOL    HW135846   4.226   1.950   7.279  0.3880  0.2782  0.3211
 8129SOL    HW235847   4.141   2.046   7.206  1.4827  1.8817 -0.9551
 8130SOL     OW35848   3.085   0.856   8.255 -0.4709  0.4423 -0.2074
 8130SOL    HW135849   3.145   0.866   8.329  0.8622 -0.9835 -1.0865
 8130SOL    HW235850   3.021   0.791   8.287  0.0366 -1.6866 -3.5616
 8131SOL     OW35851   1.170   2.658   4.856 -0.2145  0.3786  0.3309
 8131SOL    HW135852   1.115   2.579   4.858 -1.9055  1.5082 -1.3167
 8131SOL    HW235853   1.114   2.735   4.848  0.2283  0.7065  0.3729
 8132SOL     OW35854   1.166   1.302   6.179  0.0052 -0.1540  0.1945
 8132SOL    HW135855   1.242   1.274   6.128  0.5500  2.7178 -0.5918
 8132SOL    HW235856   1.104   1.325   6.109 -1.4945 -0.0400  1.5574
 8133SOL     OW35857   1.819   0.048   5.109  0.4016  0.4830  0.0431
 8133SOL    HW135858   1.893   0.035   5.169 -0.8802 -1.0456  1.2571
 8133SOL    HW235859   1.811   0.142   5.125 -1.4451 -0.0406  2.2171
 8134SOL     OW35860   0.939   2.551   4.628  0.3499 -0.0768  0.2189
 8134SOL    HW135861   0.908   2.641   4.623  0.2733  0.0016  2.1207
 8134SOL    HW235862   0.953   2.545   4.534 -2.4753 -1.5597 -0.1026
 8135SOL     OW35863   0.764   2.468   3.393  0.2634 -0.1092  0.2336
 8135SOL    HW135864   0.800   2.465   3.304  2.3543  0.2889  1.0747
 8135SOL    HW235865   0.844   2.452   3.443  0.2976  1.0553  0.5669
 8136SOL     OW35866   1.680   1.453   4.021  0.3726 -0.0297  0.0332
 8136SOL    HW135867   1.692   1.495   4.106  1.0157 -0.6926  0.2583
 8136SOL    HW235868   1.765   1.411   4.020  0.3461 -0.0879  1.5011
 8137SOL     OW35869   4.146   0.337  11.640 -0.2599  0.7507  0.2223
 8137SOL    HW135870   4.143   0.428  11.670 -0.9880 -0.6525  4.3590
 8137SOL    HW235871   4.193   0.343  11.557 -2.6312 -2.0941 -1.2957
 8138SOL     OW35872   2.906   0.513   2.771 -0.2175  0.8621  0.4539
 8138SOL    HW135873   2.840   0.449   2.798  0.5643 -0.2193 -0.1999
 8138SOL    HW235874   2.976   0.493   2.833 -1.3134 -0.8641  1.1306
 8139SOL     OW35875   0.489   3.576   6.075 -1.0956 -0.6204  0.2276
 8139SOL    HW135876   0.580   3.584   6.048 -1.1499 -2.2994 -0.4378
 8139SOL    HW235877   0.470   3.483   6.066 -1.3201 -0.7471  2.0322
 8140SOL     OW35878   2.181   1.464   3.114  0.7935 -0.1962  0.2978
 8140SOL    HW135879   2.148   1.376   3.095  0.3924 -0.1233  0.6635
 8140SOL    HW235880   2.258   1.432   3.162  1.7888  0.3335 -0.9416
 8141SOL     OW35881   2.006   3.184   1.539 -0.0650 -0.4900  0.4565
 8141SOL    HW135882   2.076   3.207   1.601  0.4804 -1.0499  0.0481
 8141SOL    HW235883   2.027   3.237   1.463  0.9750 -0.8076  0.5078
 8142SOL     OW35884   4.718   2.100   5.413 -0.2513  0.5368 -0.3659
 8142SOL    HW135885   4.680   2.174   5.366  0.4281  1.6353  0.8099
 8142SOL    HW235886   4.663   2.097   5.491  0.8208 -1.0928  0.3239
 8143SOL     OW35887   4.207   0.931   0.739  0.3048 -0.2913 -0.2381
 8143SOL    HW135888   4.156   0.928   0.820  1.7639  0.2332  0.6987
 8143SOL    HW235889   4.299   0.933   0.767  0.3306  2.1358 -0.5130
 8144SOL     OW35890   3.496   1.113  15.601  0.4366 -0.4150 -0.1131
 8144SOL    HW135891   3.586   1.097  15.631  0.8724 -1.0872 -1.7441
 8144SOL    HW235892   3.514   1.099  15.508 -1.2668  1.1272 -0.6739
 8145SOL     OW35893   4.583   0.994   4.987  0.3946  0.0883  0.1787
 8145SOL    HW135894   4.518   0.963   5.051 -0.5183  2.3941  0.3544
 8145SOL    HW235895   4.583   1.089   4.998 -2.7305  0.1057  0.1047
 8146SOL     OW35896   0.295   0.798   1.968  0.7751  0.2947  0.0849
 8146SOL    HW135897   0.335   0.743   2.034  1.3689  1.3630  0.6092
 8146SOL    HW235898   0.204   0.791   1.997 -0.2243 -0.2152 -3.0605
 8147SOL     OW35899   4.484   0.664   9.708  0.1601  0.6207  0.2380
 8147SOL    HW135900   4.407   0.677   9.653 -0.6229 -0.5824  1.0782
 8147SOL    HW235901   4.501   0.748   9.752 -5.0889  2.3996 -1.2050
 8148SOL     OW35902   2.894   2.480   7.239  0.1862 -0.3516 -0.6603
 8148SOL    HW135903   2.871   2.394   7.202  0.4761 -1.3368  1.4837
 8148SOL    HW235904   2.828   2.532   7.192  0.8880  2.5313  1.6049
 8149SOL     OW35905   0.014   4.129   5.042 -0.5796  0.3112  0.6114
 8149SOL    HW135906   0.081   4.196   5.052 -1.1406  0.7516  1.3592
 8149SOL    HW235907   0.035   4.074   5.118  0.1823 -2.6191 -1.7065
 8150SOL     OW35908   4.244   4.500   3.735  0.2567 -0.0672 -0.3131
 8150SOL    HW135909   4.177   4.530   3.673  0.5442  0.1286 -0.5267
 8150SOL    HW235910   4.291   4.441   3.676  2.0488  0.2104  0.8644
 8151SOL     OW35911   0.954   2.910   3.589 -0.0657  0.0495 -0.2264
 8151SOL    HW135912   0.928   3.000   3.607  1.1053  0.3059  0.2185
 8151SOL    HW235913   0.958   2.914   3.494 -1.3956  0.2007 -0.2680
 8152SOL     OW35914   0.309   2.259  11.173 -0.4274  0.1642 -0.0377
 8152SOL    HW135915   0.368   2.332  11.152  1.0432 -0.6095  1.3984
 8152SOL    HW235916   0.374   2.196  11.204  0.3210  1.0031  0.0971
 8153SOL     OW35917   4.167   2.354   8.227 -0.2429  0.1461 -0.2028
 8153SOL    HW135918   4.154   2.376   8.135  0.1326  1.6769  0.1050
 8153SOL    HW235919   4.092   2.407   8.256 -1.9545 -1.9974 -0.7570
 8154SOL     OW35920   4.324   1.929   5.484 -0.2334 -0.6071 -0.3461
 8154SOL    HW135921   4.354   2.011   5.523 -1.7541 -0.4787  0.5700
 8154SOL    HW235922   4.263   1.973   5.424 -1.3072 -0.8359  0.5768
 8155SOL     OW35923   2.058   1.677   3.751 -1.0654  0.2933 -0.1266
 8155SOL    HW135924   2.060   1.696   3.845 -3.4830  2.8691 -0.5838
 8155SOL    HW235925   2.078   1.764   3.715 -0.6986  0.8930  1.5412
 8156SOL     OW35926   0.188   3.602  15.727 -0.3704 -0.2289  0.2510
 8156SOL    HW135927   0.252   3.671  15.711 -0.6491 -0.4606 -1.8415
 8156SOL    HW235928   0.152   3.613  15.815 -0.2628  0.2559  0.2355
 8157SOL     OW35929   0.282   3.090   2.561  1.0285  0.1545 -0.1949
 8157SOL    HW135930   0.246   3.005   2.535  2.1534  0.1534 -1.7510
 8157SOL    HW235931   0.200   3.138   2.575  1.3645  0.9690 -0.9640
 8158SOL     OW35932   1.984   4.722  15.196 -0.3389  0.3509 -0.1696
 8158SOL    HW135933   1.978   4.709  15.101  0.3639 -1.0811 -0.0085
 8158SOL    HW235934   1.902   4.682  15.225 -0.7491  2.2385  1.3183
 8159SOL     OW35935   1.404   4.447   5.439 -0.4080 -0.5364 -0.6969
 8159SOL    HW135936   1.467   4.503   5.486 -2.0070  0.5564  0.1392
 8159SOL    HW235937   1.405   4.384   5.511 -2.0055  1.4303  1.0222
 8160SOL     OW35938   2.442   0.700   1.648  0.4000  0.3053  0.6617
 8160SOL    HW135939   2.409   0.773   1.700  1.6451  1.2871  0.0640
 8160SOL    HW235940   2.532   0.731   1.642  0.1964  0.0012 -3.4200
 8161SOL     OW35941   0.196   1.741   3.148  0.0420  0.1657  0.0461
 8161SOL    HW135942   0.259   1.669   3.148  1.0510  1.0599  0.9267
 8161SOL    HW235943   0.211   1.773   3.237  3.0016  0.0951 -0.4442
 8162SOL     OW35944   3.937   3.737   5.774  0.1589 -0.0971  0.8031
 8162SOL    HW135945   3.963   3.722   5.683 -0.9044  2.0631  0.1506
 8162SOL    HW235946   3.857   3.684   5.772 -1.1738  1.8936  0.9433
 8163SOL     OW35947   1.975   1.997  11.801  0.2014  0.0144  0.4907
 8163SOL    HW135948   1.915   1.951  11.859 -1.0100 -0.0770 -0.8477
 8163SOL    HW235949   1.989   1.946  11.721  0.5612  0.4664  0.2660
 8164SOL     OW35950   2.855   2.016   2.955 -0.1022  0.4112  0.2468
 8164SOL    HW135951   2.877   2.083   3.020  0.7062 -0.3192  0.7253
 8164SOL    HW235952   2.892   1.936   2.994 -1.4988 -0.7950 -0.8805
 8165SOL     OW35953   0.213   2.183   5.983 -0.2168 -0.1807  0.2095
 8165SOL    HW135954   0.169   2.191   5.899  1.8079  1.3099 -0.7151
 8165SOL    HW235955   0.297   2.227   5.973  0.0134 -0.6199  0.1867
 8166SOL     OW35956   3.742   2.447   7.723  0.1896  0.2493  0.4308
 8166SOL    HW135957   3.724   2.510   7.793  2.9365  2.0135 -0.4654
 8166SOL    HW235958   3.693   2.371   7.754 -0.1392  0.9024  1.5039
 8167SOL     OW35959   1.289   3.398  10.869 -0.4899  0.0192 -0.2228
 8167SOL    HW135960   1.195   3.390  10.855 -0.4199 -1.3022  0.0310
 8167SOL    HW235961   1.304   3.492  10.869 -0.2764 -0.0094 -1.4375
 8168SOL     OW35962   3.468   1.766  13.394 -0.3089  0.1766  0.0350
 8168SOL    HW135963   3.544   1.709  13.383 -2.0229 -2.6057  2.7755
 8168SOL    HW235964   3.475   1.830  13.323 -1.7822 -0.8024 -1.0015
 8169SOL     OW35965   0.382   1.032   4.877  0.4714 -0.5970  0.2737
 8169SOL    HW135966   0.292   1.065   4.883  1.0463  1.3700 -2.3287
 8169SOL    HW235967   0.403   1.044   4.785 -0.9504  0.1407  0.0495
 8170SOL     OW35968   3.963   0.299   1.632 -0.3596  0.5398  0.0243
 8170SOL    HW135969   3.989   0.338   1.715  2.6670 -2.6214  0.5792
 8170SOL    HW235970   3.942   0.213   1.668  1.3077 -0.1018 -0.5490
 8171SOL     OW35971   1.743   0.223  10.008 -0.2238 -0.3593 -0.0810
 8171SOL    HW135972   1.764   0.156   9.943  0.9235 -0.1360  0.0548
 8171SOL    HW235973   1.719   0.166  10.081 -0.3588 -0.7123 -0.4061
 8172SOL     OW35974   3.421   3.048   6.843  0.3259 -0.7272 -0.4671
 8172SOL    HW135975   3.484   3.004   6.900  0.4518 -1.1933 -0.9646
 8172SOL    HW235976   3.384   3.118   6.897 -0.1458 -1.3909  0.0569
 8173SOL     OW35977   3.633   4.019   0.992  0.1104  0.1627  0.1639
 8173SOL    HW135978   3.710   4.048   0.943 -0.0597 -0.2773 -0.3742
 8173SOL    HW235979   3.671   3.953   1.050  2.2517  0.1625 -1.2623
 8174SOL     OW35980   2.195   3.792   3.145 -0.1540 -0.8387  0.3496
 8174SOL    HW135981   2.253   3.839   3.205 -2.2145 -0.0011  1.6517
 8174SOL    HW235982   2.174   3.855   3.076 -0.2148  0.8833  1.9601
 8175SOL     OW35983   1.328   2.115  10.514 -0.0209  0.7247  0.4526
 8175SOL    HW135984   1.333   2.105  10.609 -0.4479  0.1159  0.4127
 8175SOL    HW235985   1.295   2.027  10.498  0.7367  0.4544  0.3912
 8176SOL     OW35986   4.370   2.939   3.527 -0.3805  0.1808 -0.0355
 8176SOL    HW135987   4.399   2.849   3.538 -1.4579 -0.4508 -2.3474
 8176SOL    HW235988   4.314   2.948   3.604 -0.3225  1.5182 -0.1529
 8177SOL     OW35989   2.871   0.777   3.397 -1.0852 -0.6674 -0.4098
 8177SOL    HW135990   2.831   0.797   3.482  0.0884  2.3582 -0.5724
 8177SOL    HW235991   2.954   0.825   3.397 -1.0512 -0.7236  1.3182
 8178SOL     OW35992   2.176   0.451   7.826  0.5635  0.0836 -0.0284
 8178SOL    HW135993   2.157   0.413   7.740 -2.6805  1.8202 -0.0818
 8178SOL    HW235994   2.090   0.461   7.866 -0.0258 -0.1395 -1.2270
 8179SOL     OW35995   0.521   4.039   5.883  0.1888 -0.0523  0.6899
 8179SOL    HW135996   0.488   4.104   5.945  1.5710  0.1160  1.2477
 8179SOL    HW235997   0.546   3.961   5.932 -1.8733  0.1321  1.9872
 8180SOL     OW35998   2.955   2.644   0.129 -0.0357  0.3180 -0.4875
 8180SOL    HW135999   2.901   2.589   0.072  0.2236 -0.4518  0.0125
 8180SOL    HW236000   2.900   2.659   0.206  1.6362 -0.7678  0.9045
 8181SOL     OW36001   1.191   2.982   4.061  0.1772 -0.1442 -0.2692
 8181SOL    HW136002   1.111   2.959   4.015 -1.1061  2.4846  0.6614
 8181SOL    HW236003   1.202   2.904   4.116 -0.3362 -1.1407 -1.5878
 8182SOL     OW36004   3.193   1.079   7.938 -0.6461  0.6903 -0.0631
 8182SOL    HW136005   3.287   1.071   7.924 -0.6906 -1.4766  0.9712
 8182SOL    HW236006   3.195   1.074   8.033  0.0241 -0.8625 -0.1583
 8183SOL     OW36007   1.777   0.026  12.180 -0.4236  0.1355  0.1290
 8183SOL    HW136008   1.825   0.033  12.098 -1.2803 -1.0521 -0.4730
 8183SOL    HW236009   1.808   0.104  12.225  0.5902 -0.2588  0.1279
 8184SOL     OW36010   0.777   2.354   1.767 -0.1497  1.1366  0.1977
 8184SOL    HW136011   0.866   2.340   1.734 -0.8389 -2.4261 -0.1819
 8184SOL    HW236012   0.743   2.265   1.782 -2.1303  1.4553 -2.4371
 8185SOL     OW36013   1.111   3.779  10.638 -0.3179  0.5539  0.1924
 8185SOL    HW136014   1.113   3.779  10.542  1.0321  1.3894  0.2207
 8185SOL    HW236015   1.025   3.814  10.657 -0.8716 -0.3427 -0.6616
 8186SOL     OW36016   4.057   1.487  16.443  0.4327  0.4201  0.2407
 8186SOL    HW136017   4.084   1.428  16.373 -0.0109 -2.0988  2.1781
 8186SOL    HW236018   4.012   1.423  16.498  1.1924  0.3817  0.8307
 8187SOL     OW36019   1.322   1.843   8.754 -0.2720 -0.1849 -0.7629
 8187SOL    HW136020   1.335   1.757   8.793 -0.9511  0.7231  1.4545
 8187SOL    HW236021   1.403   1.889   8.778 -1.1231  0.6901  0.4709
 8188SOL     OW36022   1.382   3.647   5.940  0.2878  0.2199 -0.3175
 8188SOL    HW136023   1.469   3.628   5.976  0.5131  2.0360  0.1110
 8188SOL    HW236024   1.373   3.569   5.885 -0.0517 -0.1291  0.2336
 8189SOL     OW36025   0.802   0.686   0.659 -0.0927  0.1295  0.5356
 8189SOL    HW136026   0.841   0.623   0.600 -1.0841  2.0592 -2.1771
 8189SOL    HW236027   0.760   0.631   0.725 -2.7560 -0.6854 -1.8711
 8190SOL     OW36028   1.396   0.808  12.645  0.3752  0.0097 -0.0471
 8190SOL    HW136029   1.332   0.823  12.575 -0.7689  3.2881  1.6851
 8190SOL    HW236030   1.341   0.750  12.697 -0.9936 -1.0067 -2.6435
 8191SOL     OW36031   1.980   1.419   3.731  0.0041 -0.2903  0.0159
 8191SOL    HW136032   2.025   1.504   3.725  1.5877 -1.0259  1.5633
 8191SOL    HW236033   2.045   1.362   3.690  1.3024  1.6696 -0.6699
 8192SOL     OW36034   4.283   2.663  12.383 -0.2007  0.0347 -0.3051
 8192SOL    HW136035   4.354   2.683  12.444 -0.6749  1.7665 -0.3101
 8192SOL    HW236036   4.226   2.740  12.387 -0.2901 -0.0815  0.7530
 8193SOL     OW36037   3.656   0.721   0.563  0.0983  0.1928  0.3603
 8193SOL    HW136038   3.676   0.751   0.652  0.3615 -0.7342  0.6244
 8193SOL    HW236039   3.722   0.657   0.534 -0.1414  1.4673 -2.9449
 8194SOL     OW36040   3.323   0.238  14.700 -0.3176 -0.5034  0.6809
 8194SOL    HW136041   3.269   0.182  14.643  1.0591  0.0499 -1.1559
 8194SOL    HW236042   3.249   0.270  14.752 -0.6426 -1.2624  0.6977
 8195SOL     OW36043   0.436   0.239   5.885 -0.0396  0.2498 -0.3761
 8195SOL    HW136044   0.487   0.294   5.946 -0.3409  0.8358 -0.6495
 8195SOL    HW236045   0.354   0.226   5.932 -0.5685  1.2255 -1.0345
 8196SOL     OW36046   0.081   3.283   2.391  0.3065 -0.4719  0.1470
 8196SOL    HW136047   0.151   3.337   2.353  0.2973  0.5920  1.6777
 8196SOL    HW236048   0.090   3.307   2.483 -2.2084  1.1278 -0.0458
 8197SOL     OW36049   2.688   2.559   0.584  0.0002 -0.0588  0.0903
 8197SOL    HW136050   2.599   2.563   0.550 -0.9094 -2.5667  2.1396
 8197SOL    HW236051   2.666   2.573   0.676 -2.1191 -2.6044 -0.0281
 8198SOL     OW36052   0.479   4.412   2.448 -0.3681  0.3375  0.0674
 8198SOL    HW136053   0.507   4.442   2.362 -0.9630 -0.3362 -0.3648
 8198SOL    HW236054   0.396   4.457   2.464 -0.9900 -0.6718 -0.2855
 8199SOL     OW36055   4.433   2.212   5.535 -0.3326 -0.4662  0.3942
 8199SOL    HW136056   4.457   2.249   5.450  0.3243 -0.5500  0.5381
 8199SOL    HW236057   4.388   2.280   5.585 -0.2484  0.3628 -0.6738
 8200SOL     OW36058   2.338   1.834  11.564  0.3762  0.1407 -0.2864
 8200SOL    HW136059   2.348   1.886  11.485 -3.2091  0.4183 -0.5608
 8200SOL    HW236060   2.426   1.797  11.572  0.2637  0.3113  1.7899
 8201SOL     OW36061   2.990   0.424   6.816 -0.2478 -0.1597 -0.1275
 8201SOL    HW136062   2.982   0.411   6.910 -1.2436  1.8639  0.0651
 8201SOL    HW236063   2.936   0.503   6.810 -0.6162 -0.3979  0.0038
 8202SOL     OW36064   0.324   0.200   5.080  0.2259  0.4114 -0.4539
 8202SOL    HW136065   0.236   0.234   5.070  0.8227  2.2176  0.5486
 8202SOL    HW236066   0.324   0.180   5.174 -1.4145  2.7885  0.0314
 8203SOL     OW36067   0.378   0.444   7.595 -0.0667  0.0747 -0.1778
 8203SOL    HW136068   0.388   0.363   7.646 -1.5832 -0.3469 -0.5349
 8203SOL    HW236069   0.321   0.503   7.645 -0.1221  0.5484 -0.8066
 8204SOL     OW36070   0.156   3.575  13.114  0.4551  0.8922 -0.2003
 8204SOL    HW136071   0.122   3.511  13.177  0.2534  1.1689 -0.0266
 8204SOL    HW236072   0.110   3.540  13.037 -0.5145  0.0119  0.7768
 8205SOL     OW36073   2.486   3.642   1.804 -0.0367 -0.7966 -0.0479
 8205SOL    HW136074   2.452   3.628   1.892 -1.1858 -1.7533 -0.6368
 8205SOL    HW236075   2.444   3.584   1.741 -1.6393  1.4704 -1.0678
 8206SOL     OW36076   3.583   3.129  11.818 -0.0288 -0.5055 -0.5412
 8206SOL    HW136077   3.678   3.136  11.824 -0.2902  0.8509  2.1298
 8206SOL    HW236078   3.576   3.037  11.793 -0.7819 -0.4695 -0.4574
 8207SOL     OW36079   4.445   0.740   4.486  0.4448  0.5782  0.2777
 8207SOL    HW136080   4.504   0.683   4.536  1.3629  0.6363 -0.7357
 8207SOL    HW236081   4.464   0.710   4.397 -1.3675 -1.7325  0.6651
 8208SOL     OW36082   0.347   1.024  12.288 -0.4720 -0.5007 -0.0267
 8208SOL    HW136083   0.423   1.010  12.231 -0.2844 -0.3267  0.1842
 8208SOL    HW236084   0.288   0.981  12.226 -0.5427 -0.6890  0.1717
 8209SOL     OW36085   0.705   1.130   8.358  0.9885 -0.1039 -0.2419
 8209SOL    HW136086   0.626   1.169   8.397  2.5262  0.1540  2.6806
 8209SOL    HW236087   0.777   1.188   8.382  0.3068 -0.1599  1.9989
 8210SOL     OW36088   2.262   2.865   7.819 -0.6326  0.4745 -0.3180
 8210SOL    HW136089   2.218   2.935   7.771  0.2674  1.5269  0.3964
 8210SOL    HW236090   2.202   2.840   7.890 -0.0518 -1.8530 -0.6431
 8211SOL     OW36091   3.786   2.674   6.131 -0.3151  0.0241  0.2371
 8211SOL    HW136092   3.785   2.646   6.223  1.1364 -1.1129 -0.0889
 8211SOL    HW236093   3.880   2.687   6.122 -0.4816  0.7870 -0.3366
 8212SOL     OW36094   4.399   1.822  10.345  0.1040  0.5067 -0.4716
 8212SOL    HW136095   4.310   1.832  10.313  0.3538  0.3867 -1.2187
 8212SOL    HW236096   4.423   1.750  10.286  0.7635 -1.0175  1.6464
 8213SOL     OW36097   0.495   3.847   6.078  0.3313 -0.0032  0.3983
 8213SOL    HW136098   0.463   3.757   6.075 -0.2136  0.1840  0.5915
 8213SOL    HW236099   0.418   3.893   6.112  0.1572 -1.0698  1.4465
 8214SOL     OW36100   3.386   3.147   2.503 -0.6508 -0.2270 -0.0711
 8214SOL    HW136101   3.443   3.148   2.427 -1.6156 -2.8301 -0.8044
 8214SOL    HW236102   3.364   3.054   2.509  0.3692 -0.4519  0.1733
 8215SOL     OW36103   0.719   0.805   0.424 -0.2780  0.4985  0.1252
 8215SOL    HW136104   0.745   0.773   0.511 -0.8672  1.2398  0.5706
 8215SOL    HW236105   0.662   0.733   0.397  1.3641 -0.3466 -1.0543
 8216SOL     OW36106   3.917   2.875  16.423  0.3552  0.1929 -0.0610
 8216SOL    HW136107   3.854   2.869  16.495  4.5641  1.3327  3.7308
 8216SOL    HW236108   3.933   2.782  16.406  3.1975  0.7051 -0.1220
 8217SOL     OW36109   3.334   2.801   3.486  0.0414  0.1496  0.4203
 8217SOL    HW136110   3.351   2.717   3.529  1.3236  1.2435  2.0583
 8217SOL    HW236111   3.303   2.854   3.559 -1.6750 -0.4536  0.1316
 8218SOL     OW36112   2.373   1.632   7.519 -0.3994  0.3839 -0.1420
 8218SOL    HW136113   2.444   1.626   7.584 -0.9740  3.3969  0.7427
 8218SOL    HW236114   2.421   1.585   7.451  1.2482 -3.7214  3.8532
 8219SOL     OW36115   4.680   3.606   8.517 -0.0736  0.3735 -0.0949
 8219SOL    HW136116   0.051   3.605   8.536 -0.5024 -1.3666  2.0726
 8219SOL    HW236117   4.657   3.695   8.542 -1.9302  0.3201 -1.6177
 8220SOL     OW36118   4.535   1.054   6.426  0.3094 -0.1150  0.1489
 8220SOL    HW136119   4.508   0.963   6.420  2.6441 -0.7380 -1.0374
 8220SOL    HW236120   4.625   1.048   6.459  0.3929  0.0857 -0.0393
 8221SOL     OW36121   2.346   3.141  11.247  0.0000 -0.0521  0.2721
 8221SOL    HW136122   2.348   3.049  11.220  0.8078 -0.1969  0.8210
 8221SOL    HW236123   2.387   3.131  11.333  0.7460 -2.5977 -0.3823
 8222SOL     OW36124   2.851   1.716   6.631  0.6668  0.0997 -0.6305
 8222SOL    HW136125   2.925   1.688   6.684 -0.5943  2.4538  2.3513
 8222SOL    HW236126   2.870   1.810   6.623 -0.6001  0.5440  1.7128
 8223SOL     OW36127   1.910   0.689   2.939 -0.7488  0.1349 -0.2047
 8223SOL    HW136128   1.927   0.753   2.870 -2.6041 -0.0527 -0.8382
 8223SOL    HW236129   1.817   0.667   2.925 -0.8721 -0.3046  1.3890
 8224SOL     OW36130   2.243   2.722   6.596 -0.2471 -0.2738 -0.3491
 8224SOL    HW136131   2.314   2.783   6.578 -1.0236  0.8000  0.2439
 8224SOL    HW236132   2.286   2.647   6.555 -0.5928 -1.0255  0.6500
 8225SOL     OW36133   3.736   4.537  13.861  0.3094 -0.1742  0.5402
 8225SOL    HW136134   3.696   4.455  13.832  2.1748 -1.1160  0.6378
 8225SOL    HW236135   3.673   4.595  13.818  1.1201  0.4761  0.2413
 8226SOL     OW36136   0.665   3.760   3.677  0.1939 -0.2133 -0.1172
 8226SOL    HW136137   0.641   3.851   3.694  1.0800 -0.1248  0.6477
 8226SOL    HW236138   0.642   3.752   3.585 -0.0242 -0.0263 -0.0789
 8227SOL     OW36139   3.017   1.000   4.005  0.2534  0.2634  0.3972
 8227SOL    HW136140   2.967   1.079   3.981  0.5601  0.9338  1.9775
 8227SOL    HW236141   2.943   0.948   4.037  1.1597 -1.1802  0.1330
 8228SOL     OW36142   2.451   1.361   3.090 -0.1553  0.1110  0.1240
 8228SOL    HW136143   2.370   1.319   3.060  0.2634 -0.5572 -0.0633
 8228SOL    HW236144   2.523   1.307   3.057  1.1035  2.1884 -0.5601
 8229SOL     OW36145   0.852   1.085   3.794  0.2831  0.0589  0.4925
 8229SOL    HW136146   0.781   1.112   3.736  2.2356 -1.4509 -2.6357
 8229SOL    HW236147   0.917   1.154   3.783  1.1205 -0.7626  0.2517
 8230SOL     OW36148   2.428   1.051   6.240  0.2946  1.0163 -0.2717
 8230SOL    HW136149   2.503   1.035   6.297  1.4810 -0.4185 -2.1971
 8230SOL    HW236150   2.435   0.970   6.188 -0.6820  0.8943 -0.1972
 8231SOL     OW36151   4.166   3.036   8.433  0.0712 -0.3800  0.1211
 8231SOL    HW136152   4.114   3.095   8.377  0.0038  1.4237  2.0769
 8231SOL    HW236153   4.174   3.096   8.507 -0.4051  0.4011 -0.4621
 8232SOL     OW36154   3.934   3.122   8.264 -0.3442 -0.1294 -0.1459
 8232SOL    HW136155   3.920   3.216   8.275  0.3392  0.3026 -2.9962
 8232SOL    HW236156   3.985   3.121   8.183 -0.8612 -1.4472 -0.4525
 8233SOL     OW36157   1.780   1.407   5.316 -0.3825 -0.6667 -0.2489
 8233SOL    HW136158   1.688   1.433   5.309 -0.6888 -1.2551  1.6319
 8233SOL    HW236159   1.822   1.479   5.269 -1.0143 -1.3106 -1.7847
 8234SOL     OW36160   0.427   4.006   2.652 -0.2183 -0.1657  0.0592
 8234SOL    HW136161   0.507   4.034   2.608  0.9414 -2.5128  0.7069
 8234SOL    HW236162   0.460   4.020   2.741  1.4283 -1.6669 -0.3341
 8235SOL     OW36163   3.016   3.244   6.574 -0.6464 -0.2686  0.2375
 8235SOL    HW136164   2.928   3.280   6.566 -0.8538 -0.3893  2.0171
 8235SOL    HW236165   3.003   3.150   6.568  1.0550 -0.4265 -0.9382
 8236SOL     OW36166   0.008   0.441   1.614 -0.0300 -0.3932  0.2140
 8236SOL    HW136167   4.698   0.376   1.551 -0.9733  0.9846 -0.7128
 8236SOL    HW236168   0.082   0.485   1.572 -0.7907 -1.3869 -2.1971
 8237SOL     OW36169   1.128   3.388   3.112  0.1836 -0.4857  0.1920
 8237SOL    HW136170   1.073   3.326   3.160  2.3211 -1.4711  1.3609
 8237SOL    HW236171   1.207   3.348   3.147  0.2221 -1.2038 -0.7553
 8238SOL     OW36172   1.156   1.586   2.064  0.4835 -0.1502 -0.1108
 8238SOL    HW136173   1.159   1.652   2.133  3.4745  0.9709 -1.3022
 8238SOL    HW236174   1.211   1.635   2.002  0.0849 -0.7844 -0.9627
 8239SOL     OW36175   4.158   3.013  16.518  0.1077  0.3720  0.2946
 8239SOL    HW136176   4.111   2.966  16.587 -0.0566 -0.3048 -0.2846
 8239SOL    HW236177   4.093   3.026  16.450  0.4438 -0.6257 -0.2085
 8240SOL     OW36178   3.779   2.302   5.413  0.0080 -0.8132  0.8126
 8240SOL    HW136179   3.712   2.362   5.444  1.0094  0.7912 -0.1137
 8240SOL    HW236180   3.844   2.306   5.483  0.4794 -0.1070  0.3428
 8241SOL     OW36181   1.208   4.524   7.943 -0.5407 -0.7909 -0.6910
 8241SOL    HW136182   1.234   4.440   7.904  0.2989 -0.9902  0.2700
 8241SOL    HW236183   1.127   4.494   7.985 -0.1438  0.2774  0.8619
 8242SOL     OW36184   3.461   3.177   8.933 -0.0385  0.1712  0.0774
 8242SOL    HW136185   3.408   3.137   8.864 -0.2377 -1.7446  1.3369
 8242SOL    HW236186   3.544   3.152   8.892 -0.2877 -0.4068 -0.0737
 8243SOL     OW36187   1.445   2.695   2.139 -0.4448 -0.1335  0.4617
 8243SOL    HW136188   1.540   2.695   2.144 -0.3585 -1.2170 -1.1516
 8243SOL    HW236189   1.424   2.777   2.095 -0.9380 -0.0967  0.7674
 8244SOL     OW36190   2.846   2.426   2.348  0.0611  0.1643 -0.1548
 8244SOL    HW136191   2.891   2.372   2.283  2.8441  1.4079  0.7045
 8244SOL    HW236192   2.781   2.370   2.390 -1.0363  1.2397 -0.4079
 8245SOL     OW36193   2.013   2.969  17.688  0.4301 -0.7261 -0.2604
 8245SOL    HW136194   2.101   3.005  17.675  0.0783  0.5167  0.8238
 8245SOL    HW236195   1.976   3.040   0.047  0.1741  0.6632 -2.2525
 8246SOL     OW36196   4.328   3.984   9.083  0.4661  0.0676 -0.1128
 8246SOL    HW136197   4.345   4.065   9.132  2.4721 -0.8508  0.7130
 8246SOL    HW236198   4.374   3.997   9.000 -0.6761 -1.7901 -1.0334
 8247SOL     OW36199   1.201   4.382   1.091  0.6010 -0.1848  0.0599
 8247SOL    HW136200   1.270   4.318   1.106 -1.4745 -2.4944 -0.1423
 8247SOL    HW236201   1.244   4.442   1.030  0.1989  1.0257  0.9738
 8248SOL     OW36202   2.370   3.974   4.096 -0.4967 -0.3299  0.6530
 8248SOL    HW136203   2.387   4.048   4.154 -0.4608 -0.0295  0.2503
 8248SOL    HW236204   2.459   3.963   4.063 -1.0818 -2.1265 -0.3621
 8249SOL     OW36205   1.279   3.335   4.846 -0.9111  0.3066  0.0782
 8249SOL    HW136206   1.338   3.324   4.921 -1.3485  1.5789  0.6195
 8249SOL    HW236207   1.272   3.248   4.809 -0.6864  0.1093  0.4993
 8250SOL     OW36208   0.139   3.146  10.878 -0.0317  0.5974 -0.2345
 8250SOL    HW136209   0.090   3.159  10.796  0.5466  0.9715 -0.5228
 8250SOL    HW236210   0.101   3.224  10.918  0.0293 -0.3012  1.5295
 8251SOL     OW36211   0.543   4.106   7.035 -0.3134  0.1801 -0.0516
 8251SOL    HW136212   0.458   4.141   7.061 -0.7564 -1.2676  0.4612
 8251SOL    HW236213   0.575   4.083   7.122 -2.6826 -0.9464  0.5175
 8252SOL     OW36214   2.071   1.722  16.428 -0.2155 -0.1632 -0.5622
 8252SOL    HW136215   1.985   1.681  16.435  0.6549 -1.9004 -0.1129
 8252SOL    HW236216   2.111   1.666  16.361 -0.0759  0.7288 -1.2200
 8253SOL     OW36217   4.511   2.894  17.311 -0.0844 -0.8009  0.3429
 8253SOL    HW136218   4.442   2.959  17.320  1.4447  0.6428  1.5994
 8253SOL    HW236219   4.547   2.927  17.229  0.6954  1.3163  1.5395
 8254SOL     OW36220   4.532   4.277   0.850 -0.6039  0.1247 -0.1585
 8254SOL    HW136221   4.461   4.309   0.794 -0.2075  2.7040  0.8224
 8254SOL    HW236222   4.565   4.363   0.877  1.0968  0.1895 -2.4626
 8255SOL     OW36223   4.205   2.552   5.028  0.3196 -0.1702 -0.1358
 8255SOL    HW136224   4.140   2.530   4.961  0.2309  1.1670 -0.4985
 8255SOL    HW236225   4.158   2.589   5.103  2.2816  0.5063  0.7511
 8256SOL     OW36226   0.259   2.012  12.855  0.1285  0.0247 -1.1783
 8256SOL    HW136227   0.219   2.000  12.941  0.9636 -0.1172 -0.8087
 8256SOL    HW236228   0.188   2.064  12.816  0.3721  1.1599 -0.0869
 8257SOL     OW36229   0.828   4.359   0.980 -0.5685  0.4585 -0.1825
 8257SOL    HW136230   0.913   4.316   0.970 -0.1249  0.9011  1.7309
 8257SOL    HW236231   0.831   4.375   1.074 -2.0666 -0.3709  0.0128
 8258SOL     OW36232   0.042   0.868   9.229 -0.0969 -0.6567 -0.1507
 8258SOL    HW136233   4.683   0.863   9.179  0.8436  0.5120 -1.8328
 8258SOL    HW236234   0.083   0.953   9.214  0.8070 -0.9317  0.7761
 8259SOL     OW36235   3.598   2.524   3.532  0.0950 -0.3118  0.0684
 8259SOL    HW136236   3.567   2.487   3.450  2.0723 -0.1739 -0.7384
 8259SOL    HW236237   3.515   2.538   3.578 -0.3810  1.2747 -1.2680
 8260SOL     OW36238   2.413   0.032  10.440  0.0366 -0.0798 -0.0250
 8260SOL    HW136239   2.495   4.722  10.403  0.0706 -1.1498  1.0116
 8260SOL    HW236240   2.430   0.124  10.458 -0.7692  0.3497 -1.4679
 8261SOL     OW36241   0.237   2.591   5.564 -0.6864 -0.7575  0.4845
 8261SOL    HW136242   0.144   2.568   5.572 -1.3282  1.5763 -0.1868
 8261SOL    HW236243   0.268   2.586   5.654 -0.8060  0.1781  0.5722
 8262SOL     OW36244   1.480   0.859   2.136  0.3418  0.4540  0.3610
 8262SOL    HW136245   1.399   0.827   2.175  0.4879  1.0347  1.1357
 8262SOL    HW236246   1.546   0.810   2.186  1.4760 -1.3734 -2.9614
 8263SOL     OW36247   3.904   1.577   3.737  0.0789 -0.1693  0.0383
 8263SOL    HW136248   3.903   1.660   3.689 -0.1970 -0.2793 -0.1399
 8263SOL    HW236249   3.998   1.557   3.728  0.4873  1.6008  0.3686
 8264SOL     OW36250   0.622   1.597   3.778  0.0611  0.2055 -0.5303
 8264SOL    HW136251   0.637   1.635   3.865  0.6361  1.4360 -1.1631
 8264SOL    HW236252   0.668   1.659   3.721 -1.2014  0.4482 -1.2751
 8265SOL     OW36253   2.094   4.241  14.709  0.1815 -0.2660  0.3300
 8265SOL    HW136254   2.128   4.203  14.629  4.5765  0.6283  1.7885
 8265SOL    HW236255   2.169   4.236  14.768 -0.4954  0.1539  1.2377
 8266SOL     OW36256   1.456   0.521   6.931 -0.1336 -0.3951 -0.1055
 8266SOL    HW136257   1.499   0.440   6.903 -1.4408 -1.2224  0.3012
 8266SOL    HW236258   1.385   0.479   6.980  0.1744  0.7873  1.3265
 8267SOL     OW36259   4.091   0.128   7.115 -0.0507  0.0862 -0.4387
 8267SOL    HW136260   4.049   0.107   7.032 -2.7147  0.6934  0.7596
 8267SOL    HW236261   4.034   0.076   7.172  2.2859  0.1666  1.9626
 8268SOL     OW36262   2.511   1.241   9.926  0.0960  0.6874 -0.2221
 8268SOL    HW136263   2.581   1.179   9.903  2.0006  2.3751  1.0358
 8268SOL    HW236264   2.539   1.306   9.862  3.2370 -1.4983 -1.0815
 8269SOL     OW36265   0.410   2.898   6.242  0.0835  0.6338 -0.5549
 8269SOL    HW136266   0.464   2.947   6.305  0.1051  0.4527 -0.4291
 8269SOL    HW236267   0.476   2.868   6.180  1.4079 -0.2329  1.2481
 8270SOL     OW36268   4.004   1.470   4.833 -0.3692  0.0171  0.0308
 8270SOL    HW136269   4.005   1.565   4.830  1.6176  0.0689  2.1147
 8270SOL    HW236270   4.050   1.444   4.753  1.3431  3.1566 -0.0028
 8271SOL     OW36271   2.154   4.026   4.301  0.6223  0.3648  0.1033
 8271SOL    HW136272   2.102   3.951   4.331 -1.0281  0.8460 -1.5042
 8271SOL    HW236273   2.145   4.080   4.379  0.3042  0.2406  0.1527
 8272SOL     OW36274   4.683   2.684   4.205 -0.3403 -0.4097 -0.3508
 8272SOL    HW136275   0.041   2.667   4.252 -0.2489  0.7624 -0.0876
 8272SOL    HW236276   4.685   2.626   4.129 -2.4569 -1.4358  0.3713
 8273SOL     OW36277   1.802   1.137   5.994 -0.5061  0.2319 -0.9358
 8273SOL    HW136278   1.788   1.053   6.036  1.9427  0.7239  0.8934
 8273SOL    HW236279   1.865   1.119   5.923  3.7893  1.4168  2.5779
 8274SOL     OW36280   0.964   1.965  13.178 -0.2961  0.1493  0.1394
 8274SOL    HW136281   0.879   1.993  13.212 -1.6185 -2.9757 -0.6053
 8274SOL    HW236282   0.984   2.021  13.103 -2.9808 -1.4726 -1.7792
 8275SOL     OW36283   3.117   0.338   5.964  0.5182 -0.4938 -0.7494
 8275SOL    HW136284   3.189   0.390   5.929  0.7536 -0.0255  0.4118
 8275SOL    HW236285   3.067   0.395   6.023  0.1755  0.7718 -2.2460
 8276SOL     OW36286   2.733   2.037   4.420 -0.4811  0.3843 -0.1193
 8276SOL    HW136287   2.711   1.944   4.410  2.3651 -0.0843 -1.9748
 8276SOL    HW236288   2.673   2.075   4.357 -0.7255 -1.1057 -0.7986
 8277SOL     OW36289   4.482   4.482   6.650  0.3168  0.1131 -0.6218
 8277SOL    HW136290   4.572   4.463   6.673 -0.5187  0.7736  3.1237
 8277SOL    HW236291   4.434   4.424   6.709  0.1769 -0.5963 -1.4417
 8278SOL     OW36292   2.444   2.329   8.433 -0.6027 -0.0845  0.1910
 8278SOL    HW136293   2.536   2.319   8.456 -0.2381 -1.2209 -1.7526
 8278SOL    HW236294   2.429   2.236   8.416 -0.2612 -0.1859  0.4561
 8279SOL     OW36295   2.897   0.930   8.941 -0.3001 -0.5312 -0.4508
 8279SOL    HW136296   2.886   0.835   8.935 -0.3188 -0.5479 -0.1561
 8279SOL    HW236297   2.823   0.935   9.000  0.4095 -2.5533  0.6051
 8280SOL     OW36298   0.323   3.351  10.534  0.0071 -0.4751 -0.3059
 8280SOL    HW136299   0.325   3.428  10.591 -0.2350 -0.4671 -0.3051
 8280SOL    HW236300   0.254   3.298  10.574  1.7898 -1.0699  1.9180
 8281SOL     OW36301   1.155   4.318   0.655 -0.1791  0.2779 -0.1551
 8281SOL    HW136302   1.171   4.412   0.653  0.3347  0.2050  0.7122
 8281SOL    HW236303   1.216   4.296   0.584 -0.8062  2.0172 -1.2472
 8282SOL     OW36304   4.671   1.655   0.663 -0.1882 -0.2357 -0.1562
 8282SOL    HW136305   4.686   1.722   0.596 -1.1554  0.5602  0.4233
 8282SOL    HW236306   4.685   1.581   0.604  0.3781 -0.4389  0.2313
 8283SOL     OW36307   1.823   4.086  13.087  0.6576  0.3861  0.0345
 8283SOL    HW136308   1.774   4.156  13.130  1.6364  0.7426  0.5645
 8283SOL    HW236309   1.771   4.013  13.122  1.8019 -1.2519 -1.6809
 8284SOL     OW36310   4.098   2.088   0.141 -0.4178 -0.0634 -0.2017
 8284SOL    HW136311   4.030   2.108   0.078  1.9419  2.7599 -1.8570
 8284SOL    HW236312   4.071   2.000   0.167  1.4734 -0.3135  0.9617
 8285SOL     OW36313   2.025   2.431  12.340  0.8431 -0.1201 -0.3082
 8285SOL    HW136314   1.974   2.357  12.373  0.1400  0.4427 -0.1225
 8285SOL    HW236315   2.087   2.437  12.412  0.1484 -0.9022  0.3452
 8286SOL     OW36316   2.349   0.163  15.039 -0.3151  0.1725  0.8498
 8286SOL    HW136317   2.415   0.212  14.991 -0.7087  0.1362  0.2657
 8286SOL    HW236318   2.330   0.226  15.109 -0.9809 -1.7487  2.3945
 8287SOL     OW36319   2.069   4.219  15.259  0.1480  0.0577 -0.4799
 8287SOL    HW136320   1.993   4.275  15.269  0.5771  0.3290  1.2755
 8287SOL    HW236321   2.098   4.201  15.348  0.9095  0.6555 -0.6053
 8288SOL     OW36322   3.803   4.476   1.845  0.2633 -0.5513  0.6261
 8288SOL    HW136323   3.806   4.389   1.806 -1.6790  0.8673 -2.7622
 8288SOL    HW236324   3.896   4.491   1.862 -0.0924  0.7644  1.3821
 8289SOL     OW36325   0.674   3.416   7.698  0.6656 -0.4646  0.1934
 8289SOL    HW136326   0.671   3.510   7.716 -1.0792  0.2005 -3.5716
 8289SOL    HW236327   0.769   3.406   7.702  0.3404 -2.3673  2.9928
 8290SOL     OW36328   1.196   2.664   3.203 -0.4957  0.3355  0.6897
 8290SOL    HW136329   1.164   2.589   3.153 -1.1783 -1.0536  3.1831
 8290SOL    HW236330   1.209   2.626   3.291  0.6829 -0.0746  0.3447
 8291SOL     OW36331   0.270   0.840   4.330  0.2692 -0.2173  0.1685
 8291SOL    HW136332   0.216   0.810   4.257  0.4942 -0.0190 -0.0775
 8291SOL    HW236333   0.358   0.830   4.295  1.1167  2.0879  1.6721
 8292SOL     OW36334   1.184   3.909   3.844 -0.1123 -0.0454 -0.3514
 8292SOL    HW136335   1.246   3.879   3.778 -2.0861 -0.4813 -2.0182
 8292SOL    HW236336   1.171   3.829   3.895 -0.3893  0.6740  0.7135
 8293SOL     OW36337   3.567   0.543  16.569 -0.4176  0.0436 -0.1273
 8293SOL    HW136338   3.547   0.543  16.662 -2.8658 -1.0555 -0.6683
 8293SOL    HW236339   3.652   0.587  16.564  0.1976 -1.2912 -1.6387
 8294SOL     OW36340   3.814   4.437  13.387  0.2876 -0.0361  0.2396
 8294SOL    HW136341   3.855   4.398  13.310 -0.6575  1.0738 -0.8261
 8294SOL    HW236342   3.874   4.506  13.414 -0.9104  1.4717 -0.9437
 8295SOL     OW36343   2.153   2.136   1.141  0.2157 -0.0396  0.5199
 8295SOL    HW136344   2.202   2.081   1.080 -0.3480  0.9997 -0.8645
 8295SOL    HW236345   2.156   2.080   1.219 -0.7786  0.9569  1.2768
 8296SOL     OW36346   1.593   1.739   2.085  0.5424  0.1896 -0.0077
 8296SOL    HW136347   1.662   1.781   2.033  1.2482  0.5828  1.2494
 8296SOL    HW236348   1.561   1.811   2.139  1.6990  0.9605 -0.3439
 8297SOL     OW36349   0.367   0.684   7.910 -0.3118 -0.0636 -0.4075
 8297SOL    HW136350   0.414   0.697   7.827  2.5645 -3.2222  0.6997
 8297SOL    HW236351   0.442   0.678   7.969 -0.6827 -2.2034 -0.1544
 8298SOL     OW36352   0.674   4.279   0.761 -0.5057  0.0480 -0.0822
 8298SOL    HW136353   0.743   4.239   0.709 -0.9032 -1.4088  0.4929
 8298SOL    HW236354   0.731   4.299   0.835 -0.0378  1.4041 -0.8284
 8299SOL     OW36355   3.110   4.336   3.782  0.1524 -0.5683 -0.1877
 8299SOL    HW136356   3.102   4.263   3.843 -0.1069 -1.0929 -0.8536
 8299SOL    HW236357   3.026   4.338   3.735 -0.6211  0.3385  1.2338
 8300SOL     OW36358   3.524   3.813   0.830 -0.0899  0.1441 -0.1358
 8300SOL    HW136359   3.598   3.779   0.879 -1.3175  1.2088  2.4353
 8300SOL    HW236360   3.507   3.897   0.873 -1.2951 -0.7382  1.0899
 8301SOL     OW36361   0.403   3.415   4.617  0.0067 -0.0236  0.1051
 8301SOL    HW136362   0.384   3.507   4.637  1.9586  0.5770 -0.8815
 8301SOL    HW236363   0.420   3.381   4.705  0.2327  2.0967  0.8967
 8302SOL     OW36364   1.861   1.596   8.101 -0.6680 -0.3837 -0.2453
 8302SOL    HW136365   1.952   1.617   8.085 -0.6730  0.1661  0.4752
 8302SOL    HW236366   1.823   1.680   8.123  0.6582 -0.4010  2.0631
 8303SOL     OW36367   1.248   0.118   3.648  0.5022  0.1579  0.4495
 8303SOL    HW136368   1.165   0.105   3.602  0.0342 -0.3092  1.4285
 8303SOL    HW236369   1.310   0.078   3.587 -0.2418  0.6562 -0.6218
 8304SOL     OW36370   2.450   2.289   4.156 -0.1049 -0.5997 -0.3534
 8304SOL    HW136371   2.483   2.208   4.192 -0.2052 -1.3191 -1.8719
 8304SOL    HW236372   2.533   2.329   4.129  1.2082 -1.8503  1.8716
 8305SOL     OW36373   2.218   3.182   8.403  0.0030 -0.1713 -0.0581
 8305SOL    HW136374   2.277   3.257   8.405 -1.0720  0.7409 -2.3775
 8305SOL    HW236375   2.265   3.127   8.465  1.2024  1.3547  0.3893
 8306SOL     OW36376   4.579   1.686   2.028  0.6814 -0.3540  0.1978
 8306SOL    HW136377   4.488   1.712   2.035  0.6882 -0.0095 -0.9716
 8306SOL    HW236378   4.623   1.770   2.016 -1.3786  0.5720 -0.7326
 8307SOL     OW36379   2.579   3.326   5.165  0.3358 -0.0737 -0.2073
 8307SOL    HW136380   2.589   3.348   5.072  0.1516 -1.3108 -0.5262
 8307SOL    HW236381   2.504   3.376   5.197 -1.1831 -1.1164 -2.0924
 8308SOL     OW36382   0.197   0.387   4.386  0.0883  0.0174 -0.2968
 8308SOL    HW136383   0.185   0.295   4.410 -1.4813 -0.0530 -1.3179
 8308SOL    HW236384   0.267   0.415   4.445 -1.5382  2.3173  0.5296
 8309SOL     OW36385   2.155   2.764  11.587 -0.3587 -0.1198  0.4172
 8309SOL    HW136386   2.205   2.728  11.514  1.6859  0.6721  1.4233
 8309SOL    HW236387   2.205   2.844  11.600 -0.4947 -0.1123  0.9091
 8310SOL     OW36388   1.284   1.270   0.798  0.3362  0.2104 -0.6512
 8310SOL    HW136389   1.301   1.249   0.706 -0.9362 -0.8886 -0.6283
 8310SOL    HW236390   1.200   1.314   0.790  0.7357  0.9249 -0.8754
 8311SOL     OW36391   1.167   1.453   7.784  0.0892 -0.1801 -0.1357
 8311SOL    HW136392   1.139   1.476   7.872 -0.5866 -3.6702  0.5780
 8311SOL    HW236393   1.261   1.468   7.782 -0.1468  1.2778 -0.3688
 8312SOL     OW36394   0.589   1.289   9.790  0.0066 -0.0750  0.3525
 8312SOL    HW136395   0.614   1.227   9.858 -0.8035 -0.3377  0.4021
 8312SOL    HW236396   0.495   1.277   9.777  0.0676  0.8175 -0.9023
 8313SOL     OW36397   4.281   0.952   7.572  0.7016 -0.6811  0.4478
 8313SOL    HW136398   4.212   0.895   7.605 -2.6008  3.0284 -0.0094
 8313SOL    HW236399   4.230   1.029   7.545  1.5284 -0.0377  0.7314
 8314SOL     OW36400   4.543   2.349  15.470 -0.5305  0.9789  0.3585
 8314SOL    HW136401   4.555   2.298  15.550 -0.9924  0.0738 -0.1530
 8314SOL    HW236402   4.449   2.340  15.450 -0.5952  1.0099  0.6445
 8315SOL     OW36403   0.524   2.751   2.420  0.2473 -0.8733 -0.0679
 8315SOL    HW136404   0.552   2.662   2.443  2.9591 -0.4593 -1.7436
 8315SOL    HW236405   0.522   2.801   2.502  1.3594  1.6901 -1.5829
 8316SOL     OW36406   3.400   0.588   4.424  0.0327 -0.1210  0.0675
 8316SOL    HW136407   3.316   0.604   4.466  0.0228 -0.1209  0.0475
 8316SOL    HW236408   3.403   0.646   4.348 -1.0317  2.1301  1.7593
 8317SOL     OW36409   3.823   3.447   8.743 -0.0451 -0.1222 -0.2777
 8317SOL    HW136410   3.741   3.495   8.735 -0.4649 -0.9891 -1.1722
 8317SOL    HW236411   3.879   3.519   8.775  0.8358  0.0556 -2.2006
 8318SOL     OW36412   2.549   3.669   8.552  0.3358 -0.0565  0.3790
 8318SOL    HW136413   2.539   3.751   8.600  1.6826 -0.3949  1.2491
 8318SOL    HW236414   2.580   3.601   8.612 -1.4409  1.6503  3.2323
 8319SOL     OW36415   4.058   2.300   2.420  0.5822 -0.4134 -0.4290
 8319SOL    HW136416   4.041   2.243   2.495 -1.3624  1.3017  0.4632
 8319SOL    HW236417   3.990   2.368   2.423 -1.0546 -2.0656 -0.2712
 8320SOL     OW36418   2.227   1.354  15.127  0.0185  0.4611  0.0248
 8320SOL    HW136419   2.140   1.323  15.104  1.0640 -1.5401 -1.2208
 8320SOL    HW236420   2.233   1.423  15.061  1.8479 -0.3175 -0.6222
 8321SOL     OW36421   1.117   1.449  15.832 -0.7769 -0.3321  0.0271
 8321SOL    HW136422   1.124   1.530  15.781 -1.4365 -0.7896 -0.7752
 8321SOL    HW236423   1.033   1.419  15.798  0.3712 -0.2388 -2.8995
 8322SOL     OW36424   4.490   3.186   3.800 -0.1261 -0.1800 -0.8249
 8322SOL    HW136425   4.437   3.265   3.808  1.9301  1.3009 -1.8429
 8322SOL    HW236426   4.509   3.169   3.893  0.6146  1.4554 -0.6784
 8323SOL     OW36427   1.034   2.862   4.403 -0.1245 -0.5424 -0.1221
 8323SOL    HW136428   1.038   2.929   4.471  0.1537 -0.0671 -0.6057
 8323SOL    HW236429   0.960   2.890   4.349  0.3929  0.9289 -0.0832
 8324SOL     OW36430   3.576   0.287   0.703  0.5715  0.2755 -0.2311
 8324SOL    HW136431   3.506   0.334   0.657  2.6984  1.4528 -2.2785
 8324SOL    HW236432   3.638   0.298   0.630  0.2652  1.4783 -0.3005
 8325SOL     OW36433   3.516   1.958   7.269 -0.1655 -0.2532  0.0795
 8325SOL    HW136434   3.444   1.921   7.217  0.2811 -0.9419 -0.0478
 8325SOL    HW236435   3.460   1.973   7.345  0.4978 -2.6599  1.0478
 8326SOL     OW36436   2.413   3.213  10.993 -0.2268 -0.3408  0.2344
 8326SOL    HW136437   2.405   3.175  11.080  0.1579  0.0910  0.4587
 8326SOL    HW236438   2.361   3.291  11.016  0.4272  0.2584 -0.2999
 8327SOL     OW36439   2.019   2.782   7.470  0.6903 -0.1786  0.0336
 8327SOL    HW136440   1.952   2.822   7.526  1.4678  1.6039 -0.3435
 8327SOL    HW236441   2.013   2.688   7.491  5.4048 -0.9342 -1.9069
 8328SOL     OW36442   1.806   3.752   0.408 -0.0318  0.2329 -0.1286
 8328SOL    HW136443   1.766   3.747   0.495  2.2027  0.5794  0.9440
 8328SOL    HW236444   1.888   3.796   0.432  0.9829 -0.9530 -1.4108
 8329SOL     OW36445   0.805   3.338   7.393  0.3158 -0.9071 -0.3525
 8329SOL    HW136446   0.856   3.305   7.319 -1.2887  0.5239 -2.1243
 8329SOL    HW236447   0.875   3.373   7.448 -1.5979 -0.2662  1.6876
 8330SOL     OW36448   1.347   1.887  11.731  0.2707 -0.3546 -0.9407
 8330SOL    HW136449   1.416   1.952  11.739  0.2489 -0.0907 -2.9650
 8330SOL    HW236450   1.379   1.826  11.798 -0.6372 -0.5964 -0.7267
 8331SOL     OW36451   4.336   2.886   9.022 -0.7868 -0.3969 -0.1634
 8331SOL    HW136452   4.390   2.897   9.100  1.6437  0.3806 -1.9379
 8331SOL    HW236453   4.269   2.826   9.055 -0.9547 -0.1239 -0.0154
 8332SOL     OW36454   1.397   0.141   6.652  0.2271  0.4881 -0.5743
 8332SOL    HW136455   1.422   0.185   6.733  0.9892 -1.0878  0.0514
 8332SOL    HW236456   1.376   0.217   6.598 -0.3030  1.1567  0.5729
 8333SOL     OW36457   2.483   4.015   6.905 -0.3520 -0.0784 -0.4297
 8333SOL    HW136458   2.509   3.942   6.962 -0.0332 -0.1397 -0.6524
 8333SOL    HW236459   2.556   4.077   6.913  0.6860 -1.5520  1.4969
 8334SOL     OW36460   2.108   2.538  15.979  0.0457  0.3905 -0.6179
 8334SOL    HW136461   2.197   2.515  15.953  0.5105  1.4209  0.0683
 8334SOL    HW236462   2.107   2.488  16.061  0.2411 -0.9803 -1.4680
 8335SOL     OW36463   3.947   3.246  10.498 -0.3216 -0.3829  0.1286
 8335SOL    HW136464   3.859   3.279  10.516 -1.4430 -3.6451  0.6666
 8335SOL    HW236465   3.994   3.298  10.563  3.9707 -3.0929 -0.8124
 8336SOL     OW36466   0.667   0.710   3.814 -0.1285  0.2472 -0.2796
 8336SOL    HW136467   0.752   0.712   3.858  0.4303  0.5571 -1.3500
 8336SOL    HW236468   0.687   0.770   3.742 -2.0271 -1.4911 -2.2547
 8337SOL     OW36469   1.569   1.764   4.137 -0.2012  0.2950 -0.1941
 8337SOL    HW136470   1.627   1.727   4.072  0.0873  1.0198 -0.3568
 8337SOL    HW236471   1.605   1.729   4.219  0.5384  0.3926 -0.4766
 8338SOL     OW36472   4.608   2.896  15.871 -0.6654  0.1596 -0.3343
 8338SOL    HW136473   4.630   2.990  15.869 -0.6551  0.1076 -1.9690
 8338SOL    HW236474   4.599   2.874  15.779 -1.0232  0.7103 -0.4312
 8339SOL     OW36475   3.575   3.973   4.069  0.0459  0.1439 -0.5105
 8339SOL    HW136476   3.578   3.894   4.122 -1.8871 -1.1396 -2.3687
 8339SOL    HW236477   3.665   3.985   4.037  0.2890 -2.1729 -0.6841
 8340SOL     OW36478   1.673   1.223  13.051 -0.1125  0.0200  0.3274
 8340SOL    HW136479   1.661   1.311  13.016 -2.8251 -0.6462 -0.3939
 8340SOL    HW236480   1.683   1.238  13.145 -2.0784 -0.7568  0.6525
 8341SOL     OW36481   2.408   3.361   8.488 -0.1696  0.0574  0.5016
 8341SOL    HW136482   2.468   3.435   8.477 -1.1463  0.6905 -0.6523
 8341SOL    HW236483   2.476   3.314   8.535  0.4965  0.7365  0.2212
 8342SOL     OW36484   0.279   2.136   4.885  0.1387 -0.4881 -0.0864
 8342SOL    HW136485   0.355   2.135   4.827  1.6662  0.0984  1.9009
 8342SOL    HW236486   0.218   2.081   4.836 -0.3725  0.4793 -0.5397
 8343SOL     OW36487   4.382   3.909   6.175  0.5205 -0.3223 -0.6293
 8343SOL    HW136488   4.423   3.893   6.260  0.1555 -2.0061 -0.7527
 8343SOL    HW236489   4.460   3.915   6.120  0.2133 -2.0014 -1.2699
 8344SOL     OW36490   3.392   3.408   6.621  0.1920  0.4506  0.4509
 8344SOL    HW136491   3.463   3.380   6.679 -1.3135 -2.3528  0.9550
 8344SOL    HW236492   3.331   3.451   6.681  0.3475 -0.0665  0.9809
 8345SOL     OW36493   1.707   3.130   8.526  0.0654 -0.4832  0.0666
 8345SOL    HW136494   1.652   3.099   8.454 -1.6070  1.1073  0.6577
 8345SOL    HW236495   1.795   3.137   8.489  0.5390 -1.9122  0.9261
 8346SOL     OW36496   0.062   3.141   4.665 -0.1804  0.4663 -0.5191
 8346SOL    HW136497   0.086   3.183   4.582  0.8212 -0.3586 -0.6429
 8346SOL    HW236498   0.141   3.093   4.690  0.3856  0.3139 -2.6279
 8347SOL     OW36499   2.334   0.059  17.137  0.4346 -0.3589 -0.0271
 8347SOL    HW136500   2.270   4.715  17.113 -0.6404  0.1628  1.3335
 8347SOL    HW236501   2.268   0.121  17.170 -1.0078 -0.8420 -2.0107
 8348SOL     OW36502   2.756   2.751   3.915 -0.1298  0.2748  0.2631
 8348SOL    HW136503   2.692   2.729   3.982  0.6964  0.8265  1.2203
 8348SOL    HW236504   2.709   2.823   3.873 -0.4547 -0.8594 -1.3318
 8349SOL     OW36505   1.673   0.091   6.552 -0.2895  0.6872  0.1292
 8349SOL    HW136506   1.645   0.032   6.622  0.5196  0.5887  0.3649
 8349SOL    HW236507   1.611   0.163   6.562 -0.9262  0.3784 -1.5142
 8350SOL     OW36508   4.090   0.737   6.843  0.3752 -0.8137  0.3205
 8350SOL    HW136509   4.097   0.795   6.919 -0.0672 -0.9783  0.4836
 8350SOL    HW236510   4.150   0.792   6.791 -0.5951  2.0016  2.1857
 8351SOL     OW36511   0.464   4.052   7.527 -0.4624 -0.5601 -0.0631
 8351SOL    HW136512   0.551   4.082   7.502 -0.2043 -0.6221  0.7465
 8351SOL    HW236513   0.475   3.994   7.603  2.4550  2.7639  2.0340
 8352SOL     OW36514   0.328   0.452   8.583 -0.2080  0.5663 -0.2018
 8352SOL    HW136515   0.324   0.460   8.488  1.1691 -0.5673 -0.3518
 8352SOL    HW236516   0.313   0.546   8.599  0.0586  0.1473  2.6040
 8353SOL     OW36517   3.890   1.999   3.486  0.7071 -0.2580  0.3480
 8353SOL    HW136518   3.970   1.974   3.439  1.3103 -0.3694  1.4115
 8353SOL    HW236519   3.848   2.064   3.430 -2.0890 -1.0830  1.4939
 8354SOL     OW36520   0.318   2.392   8.863  0.0145 -0.7095  0.8889
 8354SOL    HW136521   0.318   2.453   8.937  1.8139 -0.6670  0.8471
 8354SOL    HW236522   0.377   2.323   8.891  1.4465 -0.3692 -1.3330
 8355SOL     OW36523   2.577   1.617   3.073 -0.2631 -0.3357  0.1761
 8355SOL    HW136524   2.544   1.528   3.081 -0.2715 -0.2808  0.7333
 8355SOL    HW236525   2.579   1.634   2.978  1.3580  0.4738  0.3658
 8356SOL     OW36526   3.713   4.110  11.753  0.4505  0.4768 -0.3292
 8356SOL    HW136527   3.765   4.141  11.679  0.7676  0.8551  0.0511
 8356SOL    HW236528   3.712   4.187  11.810  0.7131  0.9579 -0.9745
 8357SOL     OW36529   0.811   2.787   4.672  0.0468  0.5060  0.2090
 8357SOL    HW136530   0.845   2.796   4.761  1.3265  2.5362 -0.4879
 8357SOL    HW236531   0.797   2.879   4.648  0.7130  0.3632 -0.7194
 8358SOL     OW36532   4.026   2.705   3.740 -0.1532  0.0084 -0.3538
 8358SOL    HW136533   3.943   2.706   3.691 -0.4012  1.2688  0.0848
 8358SOL    HW236534   3.999   2.640   3.804 -1.3652 -0.6172 -1.4986
 8359SOL     OW36535   3.302   2.265   0.865 -0.1137  0.3836  0.3026
 8359SOL    HW136536   3.388   2.283   0.827 -0.0014 -1.4805 -0.3023
 8359SOL    HW236537   3.293   2.336   0.928  1.1107  0.5835  0.2609
 8360SOL     OW36538   3.271   3.048   6.324 -0.0325 -0.0079  0.4556
 8360SOL    HW136539   3.360   3.053   6.357  0.0233 -0.6758  0.4081
 8360SOL    HW236540   3.241   3.139   6.323 -0.1834 -0.0759 -0.6628
 8361SOL     OW36541   1.714   2.239   4.155 -0.4421  0.3908  0.1711
 8361SOL    HW136542   1.666   2.163   4.122  0.1597  0.0671  0.0436
 8361SOL    HW236543   1.639   2.298   4.164 -0.9804 -0.2733  0.0391
 8362SOL     OW36544   1.411   3.065  12.049 -0.6190 -0.0896 -0.6144
 8362SOL    HW136545   1.359   3.117  11.988  1.9581  1.3275 -1.6441
 8362SOL    HW236546   1.353   3.026  12.114 -0.1121  1.1599  0.5824
 8363SOL     OW36547   2.923   1.954   6.762  0.2820  0.0301 -0.1029
 8363SOL    HW136548   2.988   2.020   6.787  0.2662  1.0217 -2.7132
 8363SOL    HW236549   2.943   1.881   6.821  1.1237 -0.2589 -0.7462
 8364SOL     OW36550   3.097   0.863  11.384 -0.3418 -0.6539 -0.0465
 8364SOL    HW136551   3.035   0.864  11.457 -0.4755  1.3556 -0.1968
 8364SOL    HW236552   3.155   0.938  11.397 -0.8125 -0.3029 -0.0104
 8365SOL     OW36553   1.031   1.699   7.603  0.4475 -0.5831 -0.1267
 8365SOL    HW136554   1.055   1.629   7.664  1.0988  0.2108  0.5388
 8365SOL    HW236555   0.955   1.739   7.645  0.0700 -2.2361  0.7821
 8366SOL     OW36556   1.200   1.347   4.897 -0.2297 -0.1421 -0.3912
 8366SOL    HW136557   1.218   1.257   4.870  0.6106  0.0513 -0.4813
 8366SOL    HW236558   1.198   1.400   4.818  2.4247 -0.5605 -0.7249
 8367SOL     OW36559   0.817   0.236   6.609 -0.2533 -0.5172  0.4151
 8367SOL    HW136560   0.821   0.147   6.574  0.0616 -0.8604  1.3200
 8367SOL    HW236561   0.874   0.232   6.686 -0.9198 -2.3124  0.8248
 8368SOL     OW36562   0.666   3.416  14.989  0.4373 -0.5562 -0.2359
 8368SOL    HW136563   0.626   3.402  14.903  0.5255  1.0402 -0.5366
 8368SOL    HW236564   0.608   3.367  15.047 -0.6417 -0.4108 -1.1902
 8369SOL     OW36565   1.835   0.597   3.559  0.2841  0.0243 -0.4258
 8369SOL    HW136566   1.753   0.553   3.581  1.1469 -0.5891  1.5997
 8369SOL    HW236567   1.848   0.566   3.470 -2.5761 -0.4811 -0.6902
 8370SOL     OW36568   1.346   0.171  13.964  0.2675  0.1761  0.0348
 8370SOL    HW136569   1.405   0.124  13.905  0.4716  3.0213 -2.0125
 8370SOL    HW236570   1.267   0.123  13.939 -0.0930  0.8135 -0.0476
 8371SOL     OW36571   1.527   3.644  14.925  0.7326  0.0152 -0.1083
 8371SOL    HW136572   1.492   3.695  14.998 -1.1988 -0.6160 -0.6052
 8371SOL    HW236573   1.598   3.597  14.969  1.0715  1.9200  1.3829
 8372SOL     OW36574   0.007   0.219  17.546  0.0827  0.1763  0.2381
 8372SOL    HW136575   0.100   0.197  17.548 -0.3653 -1.5352  2.0563
 8372SOL    HW236576   4.718   0.289  17.610  0.1723 -0.9810  1.5235
 8373SOL     OW36577   0.286   1.095   7.041 -0.1440  0.5505 -0.2921
 8373SOL    HW136578   0.200   1.130   7.062  0.2787  0.8958  0.8193
 8373SOL    HW236579   0.325   1.104   7.127  1.7831 -0.1029 -1.0966
 8374SOL     OW36580   2.946   4.484   3.101 -0.6539 -0.1404  0.2967
 8374SOL    HW136581   2.998   4.459   3.025 -0.1001  1.9172  0.0006
 8374SOL    HW236582   2.855   4.464   3.078 -0.3355 -1.7741  0.4215
 8375SOL     OW36583   2.175   2.307   6.044  0.3927  0.1974 -0.0881
 8375SOL    HW136584   2.198   2.398   6.059  0.8960 -0.3581  2.5677
 8375SOL    HW236585   2.099   2.289   6.100 -0.3693  2.2230 -0.4693
 8376SOL     OW36586   1.216   3.168   4.396 -0.2239 -0.3268  0.1044
 8376SOL    HW136587   1.271   3.244   4.418 -0.0973 -0.4402  0.1785
 8376SOL    HW236588   1.275   3.105   4.355 -0.7027 -0.7637  0.0878
 8377SOL     OW36589   4.447   2.431   8.557 -0.5820 -0.0198 -0.1726
 8377SOL    HW136590   4.393   2.356   8.532 -0.8686  0.3921 -0.7982
 8377SOL    HW236591   4.385   2.495   8.522  0.1533  0.9485  0.2814
 8378SOL     OW36592   0.212   2.066   6.330  0.0301 -0.0218  0.2240
 8378SOL    HW136593   0.169   1.984   6.351  0.7102 -0.2844  0.5921
 8378SOL    HW236594   0.305   2.043   6.333 -0.3344 -1.7612 -1.4730
 8379SOL     OW36595   2.681   0.749   6.567 -0.6396 -0.1187  0.0043
 8379SOL    HW136596   2.700   0.666   6.611  0.8896  0.4671  0.4470
 8379SOL    HW236597   2.677   0.710   6.480 -0.7611  0.7898 -0.4007
 8380SOL     OW36598   2.748   3.274   1.288 -0.4349 -0.3055  0.5676
 8380SOL    HW136599   2.778   3.238   1.371 -0.5434  1.9837  1.5989
 8380SOL    HW236600   2.735   3.190   1.244  1.1139 -0.7940  1.0698
 8381SOL     OW36601   2.378   4.141   5.574 -0.0989 -0.1131  0.2859
 8381SOL    HW136602   2.367   4.047   5.586  0.9173 -0.0024  2.0277
 8381SOL    HW236603   2.294   4.166   5.534  0.2355  0.5911  0.0307
 8382SOL     OW36604   1.284   3.031  12.304  0.5227 -0.3678 -0.0242
 8382SOL    HW136605   1.317   3.026  12.393  1.9574 -1.7667 -0.6389
 8382SOL    HW236606   1.210   3.092  12.307  1.6197  0.9835 -0.3894
 8383SOL     OW36607   4.069   4.141   9.128 -0.0306 -0.5319 -0.8293
 8383SOL    HW136608   4.031   4.108   9.210 -1.3244  0.4709 -1.0270
 8383SOL    HW236609   4.141   4.080   9.113  1.1674  0.9928 -1.3028
 8384SOL     OW36610   1.706   4.317   2.069 -0.3744  0.1809 -0.7047
 8384SOL    HW136611   1.697   4.389   2.007 -0.5123 -0.5323 -1.5105
 8384SOL    HW236612   1.800   4.327   2.082 -0.4914  1.1757 -0.6206
 8385SOL     OW36613   3.940   2.256  13.608 -0.1566  0.9405 -0.3330
 8385SOL    HW136614   3.899   2.298  13.532 -0.1123  1.2945 -0.1606
 8385SOL    HW236615   3.869   2.254  13.673  1.9006  3.5754  1.9544
 8386SOL     OW36616   4.461   3.314   2.643  0.3206 -0.2610  0.1149
 8386SOL    HW136617   4.450   3.219   2.649 -1.8163  0.0636  1.1944
 8386SOL    HW236618   4.444   3.342   2.732 -0.6291 -2.3409  0.5932
 8387SOL     OW36619   2.858   1.431  14.442 -0.1713  0.5861  0.0915
 8387SOL    HW136620   2.786   1.378  14.475  1.5743 -1.7207  0.2156
 8387SOL    HW236621   2.885   1.472  14.524  1.5231  3.6810 -2.0331
 8388SOL     OW36622   0.996   2.965   6.957  0.0860 -0.0908 -0.8895
 8388SOL    HW136623   0.994   2.931   7.046 -0.0510  1.7493 -0.1913
 8388SOL    HW236624   0.911   2.932   6.930 -0.7832 -0.8446  2.8318
 8389SOL     OW36625   0.659   1.895   3.304  0.0326  0.1707  0.7002
 8389SOL    HW136626   0.601   1.946   3.247  0.5924  0.0699  0.0344
 8389SOL    HW236627   0.734   1.954   3.311 -0.4428  0.6986  1.3544
 8390SOL     OW36628   0.075   2.974   2.892  0.0456  0.5138  1.0271
 8390SOL    HW136629   0.046   3.065   2.889  2.1796  1.1260 -0.7064
 8390SOL    HW236630   0.015   2.942   2.824 -1.1515  0.5722  2.0494
 8391SOL     OW36631   3.339   4.529   6.707 -0.7520 -0.1755 -0.4129
 8391SOL    HW136632   3.259   4.532   6.759 -1.1490  4.5425 -1.3203
 8391SOL    HW236633   3.337   4.439   6.674  2.1881 -0.3916 -0.0252
 8392SOL     OW36634   4.582   1.572  14.672  0.0352 -0.2973  0.2700
 8392SOL    HW136635   4.600   1.613  14.587 -1.4427 -0.8005 -0.2868
 8392SOL    HW236636   4.533   1.490  14.665  0.3706 -0.3254 -1.9141
 8393SOL     OW36637   3.211   3.190   5.443 -0.0095  0.3569 -0.0526
 8393SOL    HW136638   3.192   3.183   5.349 -0.0365 -0.7809  0.0345
 8393SOL    HW236639   3.164   3.271   5.460 -0.8204 -0.0261 -0.4561
 8394SOL     OW36640   1.563   0.547   3.577  0.1431  0.2183  0.2933
 8394SOL    HW136641   1.539   0.626   3.529  0.6958  0.7282  0.8514
 8394SOL    HW236642   1.511   0.486   3.526 -0.2403  0.4075  0.4527
 8395SOL     OW36643   4.165   0.729  11.560  0.0937 -0.0688 -0.6366
 8395SOL    HW136644   4.241   0.767  11.518  0.1214  1.5498  0.8802
 8395SOL    HW236645   4.096   0.790  11.534 -0.6167 -0.3752  0.5093
 8396SOL     OW36646   0.390   2.823   9.142 -0.1095 -0.4597  0.2219
 8396SOL    HW136647   0.424   2.736   9.160  1.5176 -0.1595 -1.3946
 8396SOL    HW236648   0.417   2.868   9.221 -2.7671  0.6088  0.5371
 8397SOL     OW36649   2.190   2.216   8.738 -0.5024 -0.6214  0.0154
 8397SOL    HW136650   2.146   2.290   8.697  0.3920 -0.1278 -0.0539
 8397SOL    HW236651   2.160   2.147   8.679 -1.9002  0.2784 -0.2961
 8398SOL     OW36652   1.876   2.350   3.707 -0.2234 -0.0137  0.1550
 8398SOL    HW136653   1.951   2.408   3.719  0.4622 -1.2438  1.8462
 8398SOL    HW236654   1.852   2.373   3.618 -0.4069  0.1224  0.2386
 8399SOL     OW36655   2.618   0.671   8.704 -0.6363 -0.2455  0.3178
 8399SOL    HW136656   2.679   0.601   8.727 -1.1498 -1.0096 -0.6270
 8399SOL    HW236657   2.634   0.726   8.781 -1.0635 -0.5427  0.6189
 8400SOL     OW36658   3.322   1.849   7.078 -0.1960 -0.2836  0.1964
 8400SOL    HW136659   3.339   1.759   7.106 -0.2496  0.2418  1.9455
 8400SOL    HW236660   3.306   1.833   6.986  3.0778  0.7658 -0.5656
 8401SOL     OW36661   4.190   0.117   5.080 -0.7826  0.4797  0.4870
 8401SOL    HW136662   4.226   0.199   5.046 -0.1406  0.0826  0.2159
 8401SOL    HW236663   4.150   0.080   5.002 -0.2356 -0.6665  0.7419
 8402SOL     OW36664   0.536   0.683   9.713 -0.0863 -0.8422 -0.1585
 8402SOL    HW136665   0.602   0.623   9.678 -0.3594 -1.4215  0.3227
 8402SOL    HW236666   0.454   0.651   9.677  0.0298  0.4174 -1.5330
 8403SOL     OW36667   2.677   0.063   3.420 -0.3558  0.5471  0.8291
 8403SOL    HW136668   2.612   0.133   3.410 -1.0200 -0.4169 -1.4141
 8403SOL    HW236669   2.660   0.032   3.509 -0.4580  0.1629  0.6774
 8404SOL     OW36670   3.232   2.850   5.697  0.3178  0.2465 -0.2164
 8404SOL    HW136671   3.237   2.938   5.660 -0.2289  0.5771  0.5091
 8404SOL    HW236672   3.188   2.868   5.780 -0.0734  1.0169 -0.5945
 8405SOL     OW36673   2.784   2.770   5.804  0.1856 -0.3688  0.0739
 8405SOL    HW136674   2.789   2.822   5.884  1.6547 -0.7564  0.2418
 8405SOL    HW236675   2.833   2.828   5.745  1.3502 -0.7205  0.6892
 8406SOL     OW36676   4.471   3.243   6.392  0.2813 -0.0914  0.1370
 8406SOL    HW136677   4.495   3.324   6.346 -0.5337  0.8069  1.2653
 8406SOL    HW236678   4.536   3.232   6.462  1.8404  1.0520 -1.1355
 8407SOL     OW36679   2.298   0.735  12.025 -0.0816  0.4368  0.2308
 8407SOL    HW136680   2.315   0.654  11.978  0.5139  0.4998  0.3350
 8407SOL    HW236681   2.248   0.696  12.096  2.8490 -0.1599  1.9753
 8408SOL     OW36682   2.549   3.026  14.936 -0.4133  0.1498 -0.0334
 8408SOL    HW136683   2.620   3.016  14.873 -0.5473 -1.3931  0.0757
 8408SOL    HW236684   2.605   3.041  15.012 -1.0756 -4.7074  1.3456
 8409SOL     OW36685   4.241   0.553   4.203 -0.4038 -0.1680  0.1590
 8409SOL    HW136686   4.302   0.549   4.277  0.0653  0.5527 -0.1793
 8409SOL    HW236687   4.258   0.474   4.152  0.7240 -0.1293  0.4760
 8410SOL     OW36688   0.456   4.265   8.340 -0.5481 -0.4915 -0.3519
 8410SOL    HW136689   0.420   4.310   8.264  0.0439 -0.3771 -0.5677
 8410SOL    HW236690   0.519   4.200   8.306 -0.9249 -0.3796 -1.2614
 8411SOL     OW36691   3.842   3.932   3.555  0.0434  0.6719 -0.3272
 8411SOL    HW136692   3.883   3.846   3.565  0.8712  1.1170  0.1453
 8411SOL    HW236693   3.751   3.909   3.534  0.0691  0.0635  0.2367
 8412SOL     OW36694   1.577   2.516   8.288 -0.1534 -0.2987 -0.6009
 8412SOL    HW136695   1.614   2.508   8.376 -0.2558 -1.8400 -0.6899
 8412SOL    HW236696   1.581   2.422   8.270  2.3932 -0.1900 -0.5230
 8413SOL     OW36697   1.375   2.598   0.652  0.1889  0.0493  0.3226
 8413SOL    HW136698   1.408   2.672   0.703  2.3193 -0.0345 -0.9283
 8413SOL    HW236699   1.460   2.569   0.618  0.0536 -0.5634  0.5216
 8414SOL     OW36700   2.794   4.274   8.291  0.6620  0.1552  0.2063
 8414SOL    HW136701   2.727   4.335   8.259  0.0399 -0.4049  0.4281
 8414SOL    HW236702   2.821   4.305   8.378  0.1770  0.5483  0.2184
 8415SOL     OW36703   3.622   4.327  17.619  0.3690 -0.0142 -0.0638
 8415SOL    HW136704   3.695   4.382  17.589 -0.0802  1.9489  2.3884
 8415SOL    HW236705   3.661   4.240  17.620  0.8699  0.2152  1.0341
 8416SOL     OW36706   4.159   2.628  13.157 -0.1788  0.1996 -0.1562
 8416SOL    HW136707   4.132   2.565  13.090 -1.9283 -0.6368  1.3509
 8416SOL    HW236708   4.171   2.708  13.106  2.4670  0.1558  0.3870
 8417SOL     OW36709   3.087   4.196   4.962 -0.5331  0.8738  0.2751
 8417SOL    HW136710   3.084   4.288   4.988 -1.2726  0.4091  1.8343
 8417SOL    HW236711   3.125   4.147   5.035 -1.4913 -1.8538 -1.0951
 8418SOL     OW36712   0.321   0.141   9.150  0.0197 -0.0864 -0.0298
 8418SOL    HW136713   0.281   0.181   9.227  0.9664  1.6939 -0.4560
 8418SOL    HW236714   0.280   0.195   9.083 -2.4004 -0.1300  1.4192
 8419SOL     OW36715   0.402   3.473   2.517  0.0503 -0.1166 -0.0464
 8419SOL    HW136716   0.359   3.438   2.439  1.5861  0.2081 -1.0371
 8419SOL    HW236717   0.479   3.417   2.509  0.7978  0.8954  0.0534
 8420SOL     OW36718   4.227   1.623   8.805 -0.1916  0.0210 -0.1443
 8420SOL    HW136719   4.162   1.685   8.838  0.9892  1.2452 -0.0955
 8420SOL    HW236720   4.213   1.544   8.857 -0.0135  1.5867  2.3082
 8421SOL     OW36721   0.837   0.000   1.615 -0.1778  0.3412 -0.4267
 8421SOL    HW136722   0.815   0.032   1.528 -0.6810  0.3125 -0.3131
 8421SOL    HW236723   0.756   0.025   1.661  0.2660 -0.1919  0.6289
 8422SOL     OW36724   1.431   3.662  10.150  0.2460 -0.6110  0.0398
 8422SOL    HW136725   1.338   3.655  10.127  0.4472  1.6163 -1.4334
 8422SOL    HW236726   1.471   3.728  10.093  1.9421 -1.8642 -0.2227
 8423SOL     OW36727   0.685   2.546   9.045 -0.2461  0.0377  0.0950
 8423SOL    HW136728   0.614   2.582   9.099  0.8439  0.3052  1.3393
 8423SOL    HW236729   0.626   2.497   8.988 -0.4138  1.1039 -0.6557
 8424SOL     OW36730   3.514   3.058  12.264  0.1496 -0.2040  0.3971
 8424SOL    HW136731   3.516   3.051  12.360 -1.9323  0.8314  0.5231
 8424SOL    HW236732   3.604   3.070  12.234 -0.1254 -1.5190 -0.8959
 8425SOL     OW36733   3.132   3.772  16.015 -0.0562 -0.1883  0.6959
 8425SOL    HW136734   3.166   3.862  16.021  0.9065 -0.4530 -0.9757
 8425SOL    HW236735   3.073   3.776  15.940  3.0914  1.5686 -1.7088
 8426SOL     OW36736   3.461   4.277   3.783 -0.1916  0.0655 -0.4127
 8426SOL    HW136737   3.493   4.186   3.784  0.5403  0.3458  0.9950
 8426SOL    HW236738   3.418   4.282   3.868  0.1114 -0.0284 -0.2560
 8427SOL     OW36739   3.015   2.312   7.686 -0.2242 -0.0256 -0.5029
 8427SOL    HW136740   3.074   2.314   7.761  0.5684  2.1680 -1.1850
 8427SOL    HW236741   3.007   2.404   7.661  0.8785 -0.2199 -1.5543
 8428SOL     OW36742   4.118   4.171   8.224 -0.0421 -0.0815  0.2941
 8428SOL    HW136743   4.076   4.085   8.217 -0.6286  0.2847 -0.7350
 8428SOL    HW236744   4.100   4.196   8.314 -0.9288 -0.1371  0.1394
 8429SOL     OW36745   4.123   2.469   1.060  0.1820 -0.0500  0.9012
 8429SOL    HW136746   4.066   2.542   1.082 -1.4037 -0.6950 -1.1273
 8429SOL    HW236747   4.148   2.489   0.970  1.9745  0.5318  1.5298
 8430SOL     OW36748   0.655   0.765   3.130 -0.4472  0.0864 -0.5819
 8430SOL    HW136749   0.562   0.785   3.120 -0.3517  0.7070 -0.2831
 8430SOL    HW236750   0.685   0.828   3.196 -1.8154 -1.1552  1.2336
 8431SOL     OW36751   1.352   2.462   7.803  0.3575  0.2580  0.5317
 8431SOL    HW136752   1.386   2.552   7.804  1.8781 -0.3117  0.4985
 8431SOL    HW236753   1.319   2.454   7.893 -0.1688 -0.7514  0.2420
 8432SOL     OW36754   0.593   1.822   9.219 -0.6216  0.0327  0.3554
 8432SOL    HW136755   0.528   1.848   9.284  1.0612  0.6872  1.7904
 8432SOL    HW236756   0.642   1.768   9.281  0.4561 -0.2149 -0.7296
 8433SOL     OW36757   1.240   4.514   7.660 -0.1806 -0.0691  0.3191
 8433SOL    HW136758   1.165   4.524   7.602  0.5311  1.5838 -0.2877
 8433SOL    HW236759   1.195   4.510   7.745  1.4826  1.4863  1.2684
 8434SOL     OW36760   1.268   2.178   3.657 -0.3360  0.1033 -0.2296
 8434SOL    HW136761   1.197   2.218   3.608 -2.2413 -1.6103  1.1372
 8434SOL    HW236762   1.333   2.156   3.590  0.5145  0.0983  0.5915
 8435SOL     OW36763   3.282   3.261  10.218 -0.1069 -0.2099  0.0991
 8435SOL    HW136764   3.187   3.275  10.227 -0.1139 -0.5062  0.5058
 8435SOL    HW236765   3.295   3.172  10.251  3.3033  0.2488 -0.0377
 8436SOL     OW36766   3.915   3.660  16.844  0.5148  0.1999  0.0313
 8436SOL    HW136767   3.902   3.631  16.934  0.3270 -1.4679 -0.5327
 8436SOL    HW236768   3.881   3.587  16.792  1.3697  0.1622 -0.4789
 8437SOL     OW36769   3.134   4.385  15.757 -0.6655 -0.5080  0.3892
 8437SOL    HW136770   3.173   4.299  15.749  1.0740  0.1904  1.4466
 8437SOL    HW236771   3.039   4.378  15.750 -0.4979 -2.4328  0.1255
 8438SOL     OW36772   0.037   3.359  17.307  0.1763 -0.5817 -0.2549
 8438SOL    HW136773   0.085   3.279  17.287 -0.6798 -0.5707 -2.3557
 8438SOL    HW236774   4.723   3.389  17.225 -0.0401  0.2784  0.1539
 8439SOL     OW36775   2.397   0.858  15.718  0.3013  0.3209 -0.2335
 8439SOL    HW136776   2.436   0.945  15.709 -0.3571  0.6278 -0.0915
 8439SOL    HW236777   2.451   0.814  15.653  1.2451  0.1191  0.6849
 8440SOL     OW36778   3.317   0.251   9.016  0.3360 -0.5341 -0.4937
 8440SOL    HW136779   3.263   0.291   9.084  1.5466 -0.0531  0.1867
 8440SOL    HW236780   3.260   0.185   8.976 -0.9367  0.6842 -0.6838
 8441SOL     OW36781   2.596   1.725  11.327  0.2789  0.0112  0.3375
 8441SOL    HW136782   2.527   1.791  11.333  1.4286  1.3095 -0.4871
 8441SOL    HW236783   2.668   1.779  11.361  0.9330 -0.9132  0.3975
 8442SOL     OW36784   2.560   1.034   6.817 -0.2608  0.1658  0.5262
 8442SOL    HW136785   2.622   1.097   6.781  0.4527 -0.7243  0.2058
 8442SOL    HW236786   2.609   0.992   6.888 -0.3321 -2.7440 -1.1470
 8443SOL     OW36787   4.282   3.728   7.028  0.3854 -0.9326  0.0510
 8443SOL    HW136788   4.374   3.714   7.049  0.6593  1.7030  0.5654
 8443SOL    HW236789   4.288   3.685   6.942  0.0016 -0.4168 -0.2361
 8444SOL     OW36790   1.352   3.391   5.824  0.5368  0.3518  0.1492
 8444SOL    HW136791   1.375   3.349   5.741 -1.0209 -0.5181  0.1462
 8444SOL    HW236792   1.412   3.355   5.889 -1.2217  0.1975  1.6744
 8445SOL     OW36793   2.357   1.599  12.581  0.8400 -0.2100 -0.0746
 8445SOL    HW136794   2.380   1.517  12.538 -1.8032 -1.0346  0.1110
 8445SOL    HW236795   2.289   1.566  12.639  0.0902 -0.1133 -0.8991
 8446SOL     OW36796   0.355   3.136  17.589 -0.1075 -0.4714 -0.3522
 8446SOL    HW136797   0.386   3.175  17.671  2.6233  0.2072 -1.7117
 8446SOL    HW236798   0.426   3.074  17.571 -0.6194 -0.5467 -2.1207
 8447SOL     OW36799   4.649   3.518   4.020  0.3367  0.5547 -0.0712
 8447SOL    HW136800   4.580   3.545   3.959  1.0597 -2.3371 -2.1661
 8447SOL    HW236801   4.693   3.446   3.973 -1.2668 -1.4379  1.5269
 8448SOL     OW36802   2.592   3.261   8.966 -0.2882  0.3077 -0.3134
 8448SOL    HW136803   2.569   3.180   9.012  0.3160 -0.2646 -1.0324
 8448SOL    HW236804   2.515   3.284   8.915 -0.8773 -2.0947 -0.5389
 8449SOL     OW36805   1.991   3.644   3.533 -0.4194  0.1440 -0.8655
 8449SOL    HW136806   1.986   3.739   3.523  0.6387  0.1180 -1.6172
 8449SOL    HW236807   2.062   3.634   3.597  0.3619 -0.3822 -1.8149
 8450SOL     OW36808   0.320   0.163   0.107 -0.6327 -0.0640  0.6345
 8450SOL    HW136809   0.246   0.193   0.160  1.4914 -0.5373  3.9019
 8450SOL    HW236810   0.274   0.143   0.026 -0.5931 -0.2588  0.6598
 8451SOL     OW36811   3.329   0.648   0.971 -0.8464 -0.0550 -0.1680
 8451SOL    HW136812   3.309   0.692   1.054 -1.2185  0.7797 -0.7019
 8451SOL    HW236813   3.270   0.691   0.909 -0.2785 -0.3708 -0.9188
 8452SOL     OW36814   1.743   0.522   2.650 -0.1838 -0.0225 -0.4201
 8452SOL    HW136815   1.714   0.563   2.732 -2.4766 -0.3818 -1.0672
 8452SOL    HW236816   1.699   0.438   2.639 -1.7686  0.7279  0.0752
 8453SOL     OW36817   0.584   2.498   2.518 -0.2231 -0.5936 -0.0469
 8453SOL    HW136818   0.560   2.405   2.520 -0.2040 -0.5824  1.0067
 8453SOL    HW236819   0.565   2.514   2.611  1.0285 -0.0903  0.1241
 8454SOL     OW36820   1.750   2.925   6.196 -0.1598 -0.4406  0.5971
 8454SOL    HW136821   1.793   2.914   6.111 -1.6359 -1.9969  0.0322
 8454SOL    HW236822   1.662   2.888   6.186 -0.0978 -0.7799  1.3180
 8455SOL     OW36823   1.178   0.538   4.816  0.3583  0.3565 -0.0475
 8455SOL    HW136824   1.157   0.547   4.909 -0.1431 -0.7506 -0.0540
 8455SOL    HW236825   1.102   0.585   4.780 -0.1953 -2.2243 -2.2788
 8456SOL     OW36826   1.449   4.538   7.161 -0.0573 -0.4395  0.1972
 8456SOL    HW136827   1.436   4.508   7.251  1.3051 -1.2102  0.1404
 8456SOL    HW236828   1.492   4.622   7.175  0.7969 -0.8381  0.0365
 8457SOL     OW36829   1.099   2.251  12.784  0.1034 -0.3265 -0.2567
 8457SOL    HW136830   1.185   2.251  12.743 -0.3394  3.9562 -1.1393
 8457SOL    HW236831   1.058   2.178  12.737  2.2675 -1.3360 -0.6084
 8458SOL     OW36832   0.758   2.503   8.432  0.6441  0.0567 -0.1052
 8458SOL    HW136833   0.820   2.498   8.359  2.5429 -0.5544  1.5403
 8458SOL    HW236834   0.814   2.534   8.503 -0.6833 -0.3726  1.1345
 8459SOL     OW36835   3.676   1.752   7.321 -0.5144  0.0738  0.0042
 8459SOL    HW136836   3.615   1.823   7.300 -1.6086 -0.0739  2.7609
 8459SOL    HW236837   3.667   1.709   7.236  1.5519  0.5051 -0.4296
 8460SOL     OW36838   0.334   1.819   4.057  0.2121  0.0670 -0.1050
 8460SOL    HW136839   0.408   1.879   4.053  1.3949 -1.4217 -0.6564
 8460SOL    HW236840   0.332   1.795   3.964 -0.3963  0.0499 -0.0894
 8461SOL     OW36841   0.858   2.329   1.327 -0.0318  0.9439  0.3475
 8461SOL    HW136842   0.783   2.388   1.333  0.4368  1.5336  0.4501
 8461SOL    HW236843   0.808   2.248   1.331  2.7421 -0.8194 -0.0809
 8462SOL     OW36844   1.824   0.948   1.061 -0.1972 -0.3035 -0.5980
 8462SOL    HW136845   1.801   0.923   0.971  0.5326 -1.6130 -0.4127
 8462SOL    HW236846   1.874   0.871   1.086  0.9878  0.4141 -0.7352
 8463SOL     OW36847   1.859   3.467   1.419 -0.4710  0.4894  0.0056
 8463SOL    HW136848   1.937   3.424   1.385 -0.9415 -0.0792 -0.3771
 8463SOL    HW236849   1.796   3.394   1.416  1.0548 -0.8955  1.2973
 8464SOL     OW36850   0.196   4.710   6.649 -0.1652  0.3889  0.4006
 8464SOL    HW136851   0.134   0.041   6.697 -1.6713 -1.3422  0.3807
 8464SOL    HW236852   0.257   0.050   6.611  0.6595 -1.1158 -0.7911
 8465SOL     OW36853   4.055   4.560   4.245  0.2435 -0.4699 -0.3183
 8465SOL    HW136854   4.093   4.602   4.168 -1.0934  3.3240  1.1006
 8465SOL    HW236855   4.014   4.628   4.298 -2.1070 -0.9434 -1.5119
 8466SOL     OW36856   4.008   3.966   3.762 -0.1217 -0.0288  0.2963
 8466SOL    HW136857   3.961   3.978   3.844  1.5946  1.4807  1.0738
 8466SOL    HW236858   3.948   3.937   3.693 -0.2680  1.2487 -0.1148
 8467SOL     OW36859   0.886   0.861   9.239 -0.1601 -0.5419  0.7277
 8467SOL    HW136860   0.832   0.937   9.259  1.8892  0.9391  0.6755
 8467SOL    HW236861   0.942   0.863   9.316 -1.0356  1.9169  1.3121
 8468SOL     OW36862   3.277   0.298   1.990  0.3764 -0.5107 -0.3132
 8468SOL    HW136863   3.309   0.221   1.942  0.6135 -1.2556  1.0439
 8468SOL    HW236864   3.355   0.349   1.972  0.1014  0.4176  1.1282
 8469SOL     OW36865   4.609   1.804   8.447 -0.6667  0.4947  0.2491
 8469SOL    HW136866   4.614   1.841   8.536 -0.5359 -1.0851  0.8986
 8469SOL    HW236867   4.685   1.839   8.401  0.5120 -1.6600  0.5698
 8470SOL     OW36868   2.450   0.224  12.638 -0.4340 -0.1763  0.2053
 8470SOL    HW136869   2.417   0.234  12.549  0.8682 -0.9382 -0.3662
 8470SOL    HW236870   2.389   0.283  12.681 -2.1734 -0.5129 -1.8131
 8471SOL     OW36871   0.153   2.858   1.327 -0.6061 -1.1885  0.1443
 8471SOL    HW136872   0.069   2.857   1.279  0.6217 -0.6811 -2.0295
 8471SOL    HW236873   0.136   2.900   1.411 -0.1534 -0.8118  0.0475
 8472SOL     OW36874   3.887   1.292  11.912  0.1116 -0.2726  0.9121
 8472SOL    HW136875   3.860   1.383  11.908 -1.1015 -0.6868 -0.2805
 8472SOL    HW236876   3.888   1.274  12.006 -0.2444 -0.1067  0.9459
 8473SOL     OW36877   2.073   1.917   4.915 -0.2003 -0.2039 -0.3895
 8473SOL    HW136878   2.118   1.938   4.998 -0.0204 -1.7506 -0.0943
 8473SOL    HW236879   2.053   1.823   4.918  0.9479 -0.4049  1.1069
 8474SOL     OW36880   2.359   2.442  15.898 -0.3242 -0.3548 -0.3570
 8474SOL    HW136881   2.358   2.508  15.828  2.0536  1.0098  0.8929
 8474SOL    HW236882   2.346   2.364  15.843  0.6831 -0.6484 -0.1744
 8475SOL     OW36883   4.517   2.069   6.155 -0.1075  0.1429  0.5922
 8475SOL    HW136884   4.468   2.088   6.075 -0.1145  2.1660  1.0678
 8475SOL    HW236885   4.558   1.986   6.132  0.3515  0.6654 -0.4656
 8476SOL     OW36886   3.871   3.847   2.554 -0.3076  0.5632 -0.3756
 8476SOL    HW136887   3.944   3.792   2.581 -0.9951 -0.9207 -1.5757
 8476SOL    HW236888   3.879   3.840   2.459  3.0777  0.4803 -0.0775
 8477SOL     OW36889   0.899   0.560   5.169 -0.6726  0.0675 -0.7188
 8477SOL    HW136890   0.828   0.571   5.106 -0.8749 -0.4126 -0.5740
 8477SOL    HW236891   0.857   0.598   5.247  0.1792 -1.4470  0.4867
 8478SOL     OW36892   0.459   0.991   9.841 -0.2181 -0.0872  0.2058
 8478SOL    HW136893   0.459   0.965   9.749  3.1213 -1.8585  0.7156
 8478SOL    HW236894   0.554   0.995   9.854 -0.2219 -0.1945  0.2634
 8479SOL     OW36895   2.795   1.708  13.040  0.1091 -0.6886  0.2244
 8479SOL    HW136896   2.818   1.685  12.950  0.9792  0.1512  0.2334
 8479SOL    HW236897   2.804   1.623  13.082  0.2330 -1.1731 -0.7768
 8480SOL     OW36898   1.930   1.408   2.173 -0.1104 -0.2274  0.1269
 8480SOL    HW136899   1.866   1.401   2.244  1.6706  1.7254  1.9378
 8480SOL    HW236900   1.875   1.439   2.101  0.3179 -2.1922 -1.0378
 8481SOL     OW36901   1.067   2.012   3.835  0.2140  0.3030  0.4146
 8481SOL    HW136902   1.149   1.965   3.853 -0.8308 -1.5895  0.2902
 8481SOL    HW236903   1.039   2.042   3.921  1.3040 -0.8355  1.1577
 8482SOL     OW36904   4.156   2.625   2.764  0.3906  0.6399  0.0560
 8482SOL    HW136905   4.122   2.552   2.816  1.3427 -0.0190 -0.2389
 8482SOL    HW236906   4.235   2.649   2.812 -0.4535  0.3957  1.5466
 8483SOL     OW36907   3.641   3.457  14.656  0.7694  0.2621 -0.3173
 8483SOL    HW136908   3.701   3.443  14.729 -1.1121 -1.2773  0.9149
 8483SOL    HW236909   3.621   3.366  14.637 -0.1173  0.2568  0.6679
 8484SOL     OW36910   0.852   1.007  16.621 -0.1883  0.1980  0.2915
 8484SOL    HW136911   0.828   1.075  16.557 -0.7680 -1.3262 -1.1093
 8484SOL    HW236912   0.799   1.033  16.697 -0.1022 -1.1649  0.8137
 8485SOL     OW36913   2.471   1.963   6.061 -0.2263  0.0886 -0.0183
 8485SOL    HW136914   2.485   2.057   6.075 -1.9833  0.0278  2.1613
 8485SOL    HW236915   2.378   1.965   6.040 -0.0430  2.0921 -0.7184
 8486SOL     OW36916   0.880   1.090   2.989 -0.3430  0.4949  0.5154
 8486SOL    HW136917   0.930   1.141   2.925 -0.1583 -0.4944 -0.1357
 8486SOL    HW236918   0.794   1.129   2.972 -0.6929  0.4782  2.2221
 8487SOL     OW36919   0.597   1.741   5.445  0.3033 -0.1462 -0.2119
 8487SOL    HW136920   0.517   1.770   5.487  0.9019 -0.5041  1.1680
 8487SOL    HW236921   0.660   1.739   5.517 -1.1629 -1.5866  1.0170
 8488SOL     OW36922   3.296   3.998   3.198 -0.1128  0.0504  0.0690
 8488SOL    HW136923   3.300   4.094   3.199 -1.4238  0.1141 -0.7156
 8488SOL    HW236924   3.204   3.981   3.220 -0.8202  3.5573 -0.1873
 8489SOL     OW36925   4.012   3.683   5.472  0.0574 -0.4775  0.0626
 8489SOL    HW136926   3.957   3.689   5.394  0.9337 -0.9045 -0.5871
 8489SOL    HW236927   4.063   3.757   5.441 -0.2120 -0.4619 -0.3404
 8490SOL     OW36928   4.369   4.586   9.732  0.4719 -0.8732  0.4823
 8490SOL    HW136929   4.351   4.618   9.644  2.6844 -1.3330 -0.1415
 8490SOL    HW236930   4.406   4.664   9.774  0.6835 -0.4237 -0.5363
 8491SOL     OW36931   0.574   2.708   0.474  0.2509 -0.3025  0.0825
 8491SOL    HW136932   0.568   2.687   0.568 -0.6821  0.7545  0.2560
 8491SOL    HW236933   0.647   2.769   0.487  0.6683 -1.0192  1.1520
 8492SOL     OW36934   2.893   4.334  10.751 -0.1831 -0.5593  0.1038
 8492SOL    HW136935   2.968   4.324  10.809 -0.9595  0.5344  1.3032
 8492SOL    HW236936   2.891   4.253  10.699  0.3392 -0.6344  0.1981
 8493SOL     OW36937   4.375   3.759   4.198  0.8503 -0.5274  0.0448
 8493SOL    HW136938   4.414   3.713   4.124  0.7064 -1.1208  0.3385
 8493SOL    HW236939   4.435   3.833   4.209  1.1141 -0.6196 -0.7895
 8494SOL     OW36940   0.492   4.661   0.108  0.3226  0.1792 -0.2464
 8494SOL    HW136941   0.500   4.583   0.163 -0.1080  0.5277  0.3056
 8494SOL    HW236942   0.410   4.699   0.140 -1.1812 -1.2495 -2.4074
 8495SOL     OW36943   0.723   0.786   8.160 -0.0629 -0.7957 -0.3907
 8495SOL    HW136944   0.694   0.773   8.250 -0.6860  1.8824 -0.2007
 8495SOL    HW236945   0.665   0.861   8.147 -0.1497 -0.5229  1.5004
 8496SOL     OW36946   0.121   3.282  17.557 -0.3975  0.1954 -0.2181
 8496SOL    HW136947   0.201   3.232  17.543 -0.4282  0.2535 -0.6087
 8496SOL    HW236948   0.093   3.307  17.468  0.0316 -0.8349 -0.6424
 8497SOL     OW36949   0.992   4.412   2.408  0.0563 -0.6440  0.0950
 8497SOL    HW136950   0.918   4.468   2.384  1.0553  0.6885  0.1810
 8497SOL    HW236951   0.966   4.379   2.495  0.8180 -0.2475  0.4657
 8498SOL     OW36952   2.501   3.634   4.220 -0.0608 -0.0410  0.1627
 8498SOL    HW136953   2.423   3.683   4.195  0.2996  0.4889  0.0711
 8498SOL    HW236954   2.534   3.626   4.130  2.3169  1.5972  0.8537
 8499SOL     OW36955   0.714   4.454   2.873  0.0409  0.2842 -0.5440
 8499SOL    HW136956   0.723   4.478   2.781 -0.3400  1.3159 -0.3132
 8499SOL    HW236957   0.637   4.396   2.869  0.3179 -0.0737 -0.7107
 8500SOL     OW36958   1.580   0.075   4.789  0.0991 -0.2885  0.4004
 8500SOL    HW136959   1.625   0.107   4.711 -2.3273  0.5890 -0.6187
 8500SOL    HW236960   1.496   0.088   4.746  0.4761 -0.6492 -0.4257
 8501SOL     OW36961   0.442   3.318  15.880  0.1733  0.0379 -0.1272
 8501SOL    HW136962   0.447   3.370  15.800  0.2529  1.2352  0.6587
 8501SOL    HW236963   0.484   3.232  15.870  0.0497  0.0877 -1.0167
 8502SOL     OW36964   3.330   0.613   3.004  0.6708 -0.2196  0.4289
 8502SOL    HW136965   3.282   0.652   3.077 -1.1399 -0.3536 -0.6956
 8502SOL    HW236966   3.254   0.568   2.966  1.1112 -0.7538  0.1812
 8503SOL     OW36967   1.863   4.053   2.971 -0.0646 -0.0358  0.1202
 8503SOL    HW136968   1.954   4.073   2.949  0.0766 -0.4061  0.3764
 8503SOL    HW236969   1.821   4.040   2.886 -0.9277  0.1870  0.5104
 8504SOL     OW36970   1.240   2.242  15.979 -0.2081 -0.2959  0.2714
 8504SOL    HW136971   1.324   2.265  15.939 -0.5187 -1.1462 -0.8632
 8504SOL    HW236972   1.191   2.269  15.902  0.4557  0.8879  0.2740
 8505SOL     OW36973   2.628   2.788  15.710  0.4077  0.1152 -0.3393
 8505SOL    HW136974   2.706   2.737  15.687  2.7340  3.5731 -0.1917
 8505SOL    HW236975   2.655   2.864  15.658  1.5160 -0.7560 -1.0334
 8506SOL     OW36976   3.602   1.217   9.103  0.0443  0.3247  0.0377
 8506SOL    HW136977   3.537   1.175   9.046 -2.1014 -0.0903  2.7717
 8506SOL    HW236978   3.666   1.236   9.034 -1.1831  0.0041 -1.1972
 8507SOL     OW36979   0.700   4.673   5.804  0.3368 -0.2909 -0.8636
 8507SOL    HW136980   0.749   4.647   5.882  1.3259 -0.1759 -1.4518
 8507SOL    HW236981   0.627   4.610   5.806 -0.5480  0.7055 -1.7308
 8508SOL     OW36982   4.680   1.023   3.832  0.0899 -0.4084  0.3457
 8508SOL    HW136983   0.036   1.032   3.779 -0.2871  1.7896  0.1730
 8508SOL    HW236984   4.711   1.060   3.915  1.8575 -0.3942 -0.3283
 8509SOL     OW36985   3.503   4.681  15.177 -0.1501 -0.0174  0.7154
 8509SOL    HW136986   3.471   4.610  15.233 -1.2651  1.4093  1.8984
 8509SOL    HW236987   3.429   4.686  15.116  0.6709 -1.1250 -0.3710
 8510SOL     OW36988   3.441   4.095   2.150 -0.5533 -0.6925 -0.1108
 8510SOL    HW136989   3.365   4.140   2.113  0.5205 -0.6472 -2.3004
 8510SOL    HW236990   3.473   4.062   2.066  0.1680  1.1492 -0.5624
 8511SOL     OW36991   4.106   1.294   0.966  0.2770  0.0865  0.3579
 8511SOL    HW136992   4.160   1.217   0.987 -0.7282 -0.6326  0.2785
 8511SOL    HW236993   4.025   1.247   0.983 -0.9295  1.6129 -1.1273
 8512SOL     OW36994   2.915   0.366  15.257 -0.0847 -0.2164 -0.6170
 8512SOL    HW136995   2.952   0.308  15.190  1.0947  0.5435 -0.6276
 8512SOL    HW236996   2.888   0.447  15.214  1.3150  0.2633 -0.5938
 8513SOL     OW36997   3.660   0.625   3.204 -0.4018  0.4452  0.0328
 8513SOL    HW136998   3.752   0.603   3.190 -0.6640  0.2833 -1.4007
 8513SOL    HW236999   3.623   0.548   3.247 -2.2832  1.3499  0.0592
 8514SOL     OW37000   4.090   2.942   4.333 -0.4862  0.6079  0.1279
 8514SOL    HW137001   4.128   2.968   4.249  0.1285  0.9070  0.5032
 8514SOL    HW237002   4.169   2.948   4.387 -0.7456 -0.0882  0.5895
 8515SOL     OW37003   2.835   0.182   3.900  0.3041  0.2231 -0.0067
 8515SOL    HW137004   2.808   0.268   3.867  1.4730  0.8973  0.8189
 8515SOL    HW237005   2.827   0.204   3.993 -1.1681 -2.3657  0.4908
 8516SOL     OW37006   2.849   0.365   1.648 -0.1075 -0.0961  0.2235
 8516SOL    HW137007   2.930   0.333   1.609 -0.9670 -2.9584  0.7336
 8516SOL    HW237008   2.884   0.411   1.724  3.1716 -1.4143 -0.4987
 8517SOL     OW37009   4.682   3.127  11.955  0.1383 -0.1579 -0.2967
 8517SOL    HW137010   4.645   3.060  11.897 -0.6002  0.5867 -0.6786
 8517SOL    HW237011   0.051   3.121  11.930  0.0978  0.8050 -0.6753
 8518SOL     OW37012   1.551   0.636   1.254 -0.3740  0.4703 -0.1031
 8518SOL    HW137013   1.624   0.580   1.228 -1.1407 -0.6111  0.0746
 8518SOL    HW237014   1.601   0.715   1.277 -0.9513  0.1096  2.3657
 8519SOL     OW37015   4.723   1.918   2.035  0.2849 -0.3479 -0.5514
 8519SOL    HW137016   4.680   1.966   1.964  1.1710 -1.5876 -1.9158
 8519SOL    HW237017   0.009   1.988   2.100 -1.0912 -1.0555  0.4314
 8520SOL     OW37018   0.846   1.430   5.789 -0.1282 -0.6135  0.3484
 8520SOL    HW137019   0.863   1.524   5.787 -0.6713 -0.4617  3.2087
 8520SOL    HW237020   0.829   1.409   5.697  2.2621 -0.5465 -0.1195
 8521SOL     OW37021   3.630   1.951  12.919  0.6278 -0.1565 -0.6036
 8521SOL    HW137022   3.681   1.895  12.977  0.2229  0.2549  0.1511
 8521SOL    HW237023   3.704   1.991  12.872  0.6008  0.6334  0.0145
 8522SOL     OW37024   3.574   0.716  12.522  0.0624  0.1271 -0.0431
 8522SOL    HW137025   3.655   0.677  12.489  0.2645  0.2330  0.3307
 8522SOL    HW237026   3.586   0.714  12.616  2.1587 -0.5297 -0.3334
 8523SOL     OW37027   1.094   0.805   9.043  0.2962 -0.0625  0.3560
 8523SOL    HW137028   1.123   0.720   9.076  0.0764 -0.7116 -1.1361
 8523SOL    HW237029   1.018   0.819   9.101  0.6252  0.0325  0.7661
 8524SOL     OW37030   0.917   1.871   7.026 -0.1320 -0.2714 -0.0525
 8524SOL    HW137031   0.984   1.924   7.071 -0.9241  0.4366  0.2994
 8524SOL    HW237032   0.930   1.892   6.933  0.2121 -0.7182 -0.1036
 8525SOL     OW37033   3.779   0.573  13.143 -0.1550  0.4338  0.3602
 8525SOL    HW137034   3.702   0.608  13.099  0.6351  3.2526  1.2101
 8525SOL    HW237035   3.764   0.481  13.122 -1.6062  0.6826  0.3230
 8526SOL     OW37036   2.125   2.189   3.131  0.6628 -0.2951  0.5499
 8526SOL    HW137037   2.099   2.098   3.123 -1.2155  0.2300  0.5693
 8526SOL    HW237038   2.212   2.181   3.091 -0.2568 -0.7306 -1.3751
 8527SOL     OW37039   1.013   2.389   9.033  0.7580 -0.0264 -0.4104
 8527SOL    HW137040   1.095   2.432   9.056 -0.8813  3.7949 -1.7382
 8527SOL    HW237041   0.992   2.434   8.952  0.7237  2.1840  0.8280
 8528SOL     OW37042   3.621   1.586   3.063 -0.3150  0.1430 -0.2126
 8528SOL    HW137043   3.597   1.662   3.011 -0.5318  0.3671  0.2105
 8528SOL    HW237044   3.536   1.547   3.086  0.2353 -0.2551  1.1384
 8529SOL     OW37045   4.365   1.023  16.669  0.1015  0.1170  0.5022
 8529SOL    HW137046   4.307   1.015  16.745 -0.1541  0.8602  0.3818
 8529SOL    HW237047   4.445   1.011  16.721  1.4409 -0.6363 -1.7338
 8530SOL     OW37048   4.167   2.927   7.128 -0.1125  0.1282 -0.0342
 8530SOL    HW137049   4.150   2.852   7.183  0.8757 -1.1574 -1.4681
 8530SOL    HW237050   4.082   2.951   7.091  0.5148  1.6991 -0.4790
 8531SOL     OW37051   0.518   2.442   5.452 -0.3557  0.0140  0.2659
 8531SOL    HW137052   0.454   2.446   5.381  0.7874 -1.1534 -0.8208
 8531SOL    HW237053   0.505   2.356   5.491 -1.2885 -0.1175 -0.3369
 8532SOL     OW37054   0.312   2.919  10.551 -0.2438 -0.0767  0.0202
 8532SOL    HW137055   0.230   2.869  10.556  0.3344 -1.0512 -0.3346
 8532SOL    HW237056   0.327   2.946  10.641  1.9249  0.9417 -0.6526
 8533SOL     OW37057   2.490   0.106   5.204 -0.4422 -0.6607  0.0352
 8533SOL    HW137058   2.465   0.160   5.278 -2.2223  0.0041 -1.0526
 8533SOL    HW237059   2.574   0.076   5.238  1.0404  1.9003 -1.3602
 8534SOL     OW37060   1.405   3.194   2.391 -0.2885 -0.3911  0.4703
 8534SOL    HW137061   1.454   3.250   2.330  0.0283 -0.6691  0.4684
 8534SOL    HW237062   1.343   3.150   2.333  1.7194 -0.4283 -1.6746
 8535SOL     OW37063   0.730   2.324  13.433  0.1692 -0.1113 -0.4041
 8535SOL    HW137064   0.767   2.332  13.521  0.9398 -0.8495 -0.6597
 8535SOL    HW237065   0.769   2.402  13.393  1.1111 -0.7456 -0.7293
 8536SOL     OW37066   3.045   1.564   5.136  0.2165 -0.5547  0.3376
 8536SOL    HW137067   3.076   1.474   5.124  2.7675  0.5431 -1.1855
 8536SOL    HW237068   3.016   1.561   5.227 -0.5288  2.2801  0.1851
 8537SOL     OW37069   0.132   2.321   6.390 -0.6756 -0.2509 -0.6705
 8537SOL    HW137070   0.044   2.308   6.355 -1.1268  0.0391  0.3743
 8537SOL    HW237071   0.173   2.236   6.374 -0.1286  0.0263 -0.7586
 8538SOL     OW37072   2.084   3.654   0.947  0.0045  0.7047 -0.1785
 8538SOL    HW137073   2.152   3.674   1.011 -0.2649  0.8375  0.0653
 8538SOL    HW237074   2.121   3.710   0.878  1.0966  0.0223 -0.1352
 8539SOL     OW37075   0.174   0.053   1.862  0.3991 -0.1631  0.5485
 8539SOL    HW137076   0.091   0.008   1.850  0.4038 -0.0600  0.1482
 8539SOL    HW237077   0.231   4.714   1.816  0.0590 -0.8837  1.1084
 8540SOL     OW37078   2.757   1.583  14.706  0.1240 -0.6625 -0.0212
 8540SOL    HW137079   2.744   1.659  14.763  1.5194 -1.3011  1.1373
 8540SOL    HW237080   2.747   1.617  14.617 -2.4353  1.2349  0.9754
 8541SOL     OW37081   0.443   0.566  14.379  0.1264 -0.3878  0.6900
 8541SOL    HW137082   0.523   0.533  14.420  2.6619  1.6333 -2.5833
 8541SOL    HW237083   0.475   0.632  14.318 -1.9952  1.4374  1.5519
 8542SOL     OW37084   0.490   0.279  14.509 -0.0500 -0.2597 -0.2301
 8542SOL    HW137085   0.561   0.344  14.505  1.5686 -2.0411 -0.7877
 8542SOL    HW237086   0.548   0.202  14.513 -0.4004 -0.5026  0.1394
 8543SOL     OW37087   2.286   0.104  13.526 -0.5606  1.2036  0.6633
 8543SOL    HW137088   2.286   0.179  13.467 -1.2289  0.4843 -0.2373
 8543SOL    HW237089   2.298   0.033  13.464 -3.3817  1.4599 -0.1496
 8544SOL     OW37090   1.893   1.761  14.959 -0.2508  0.2011  0.3471
 8544SOL    HW137091   1.921   1.737  14.871  0.0172  0.5102  0.3494
 8544SOL    HW237092   1.800   1.741  14.951 -0.3319  0.2272  1.1773
 8545SOL     OW37093   3.214   0.126   9.393 -0.4753 -0.9279 -0.6125
 8545SOL    HW137094   3.159   0.117   9.470  0.7594 -2.5074  0.0910
 8545SOL    HW237095   3.168   0.079   9.324 -3.7885  0.0516  0.9633
 8546SOL     OW37096   0.103   0.625   2.279  0.6149 -0.3766 -0.4490
 8546SOL    HW137097   0.099   0.717   2.252 -1.0811 -0.4157 -0.3786
 8546SOL    HW237098   0.107   0.574   2.198  2.7590 -0.0684 -0.5245
 8547SOL     OW37099   3.068   1.348  10.023  0.5209  0.2540  0.8390
 8547SOL    HW137100   3.082   1.346  10.118  2.2985 -0.0383  0.5688
 8547SOL    HW237101   3.136   1.292   9.986  0.0565 -0.4366  1.0382
 8548SOL     OW37102   3.808   3.476   4.013 -0.0385  0.0834  0.7349
 8548SOL    HW137103   3.883   3.425   4.043 -0.8349 -0.3537  1.9557
 8548SOL    HW237104   3.736   3.414   4.003  0.1025  0.0669 -0.2151
 8549SOL     OW37105   2.819   2.950  15.913 -0.3080  0.2938 -0.2674
 8549SOL    HW137106   2.750   2.887  15.933 -0.2991  1.4617  3.3524
 8549SOL    HW237107   2.876   2.891  15.863 -0.1241 -1.0242  1.5173
 8550SOL     OW37108   3.891   0.346  11.583 -0.5842  0.6136  0.0294
 8550SOL    HW137109   3.978   0.373  11.612 -0.2030  1.2829 -1.7306
 8550SOL    HW237110   3.848   0.321  11.665  0.3716  1.4792  0.7898
 8551SOL     OW37111   1.559   3.845  10.000  0.2349  0.5618  0.2910
 8551SOL    HW137112   1.620   3.919  10.001  0.3105  0.5065 -0.2894
 8551SOL    HW237113   1.506   3.876   9.927 -0.8840  0.6141  1.1308
 8552SOL     OW37114   3.993   0.790   3.284 -0.1705  0.0382 -0.1092
 8552SOL    HW137115   4.038   0.760   3.205  0.5323 -0.9508  0.6637
 8552SOL    HW237116   3.913   0.741   3.268  0.5436 -1.5719  1.2431
 8553SOL     OW37117   2.875   4.336   2.373 -0.3368  1.0500 -0.0228
 8553SOL    HW137118   2.921   4.372   2.298  0.4643  0.5325  0.2265
 8553SOL    HW237119   2.829   4.409   2.415  1.5382  1.7053  0.8615
 8554SOL     OW37120   3.298   0.400   1.511  0.4298  0.0023  0.7385
 8554SOL    HW137121   3.375   0.381   1.564  0.9254 -1.7950 -0.6322
 8554SOL    HW237122   3.327   0.484   1.474 -2.0870  0.4770 -0.1526
 8555SOL     OW37123   3.175   2.771   7.710  0.0655 -0.1055  0.3028
 8555SOL    HW137124   3.154   2.864   7.709  0.6790  0.0229 -0.6294
 8555SOL    HW237125   3.240   2.767   7.640 -1.1137  0.1114 -0.8129
 8556SOL     OW37126   4.259   4.684  12.556 -0.5794 -0.3147 -0.1683
 8556SOL    HW137127   4.190   4.644  12.502 -0.6484 -0.6983  0.2026
 8556SOL    HW237128   4.325   4.621  12.584  1.4694  1.4413 -1.1047
 8557SOL     OW37129   0.876   0.940   5.712  0.5608 -0.2885 -0.3634
 8557SOL    HW137130   0.826   0.999   5.655  1.9815  1.1650 -0.1283
 8557SOL    HW237131   0.852   0.854   5.679 -2.6881  0.2598  0.5456
 8558SOL     OW37132   3.732   2.483   7.085 -0.5639 -0.4483 -0.1223
 8558SOL    HW137133   3.699   2.572   7.082 -0.7281 -0.5000  0.2765
 8558SOL    HW237134   3.809   2.492   7.028  0.3703  0.3544  1.2818
 8559SOL     OW37135   3.505   0.880   9.505 -0.0357  0.6702 -0.7338
 8559SOL    HW137136   3.596   0.877   9.534 -0.4244 -1.6012  0.2770
 8559SOL    HW237137   3.494   0.974   9.492  2.1197  1.1425  0.8379
 8560SOL     OW37138   2.282   1.466   5.184  0.4147  0.1639  0.4610
 8560SOL    HW137139   2.266   1.374   5.205 -3.3758  0.3034 -1.7346
 8560SOL    HW237140   2.367   1.478   5.226  0.8144 -3.3318  0.7088
 8561SOL     OW37141   2.433   4.160   3.581  0.5785 -0.3553  0.2072
 8561SOL    HW137142   2.461   4.094   3.644  1.0015 -0.9335 -0.5794
 8561SOL    HW237143   2.484   4.142   3.502 -1.1413  0.4082 -1.0965
 8562SOL     OW37144   3.248   1.923   9.878  0.1121  0.3178 -0.2190
 8562SOL    HW137145   3.215   1.919   9.968  0.7706 -0.5915 -0.0165
 8562SOL    HW237146   3.338   1.943   9.903 -0.6364  1.9048  1.1945
 8563SOL     OW37147   4.623   3.399   6.177  0.1300  0.2155  0.3516
 8563SOL    HW137148   4.702   3.356   6.208 -0.1689 -1.5055 -1.2850
 8563SOL    HW237149   4.637   3.379   6.085 -1.7843 -1.4127  0.4181
 8564SOL     OW37150   1.885   0.201  10.748 -0.1175 -0.1210 -0.1544
 8564SOL    HW137151   1.817   0.134  10.751 -0.0940 -0.1145  0.6060
 8564SOL    HW237152   1.885   0.236  10.837  1.4591 -1.9654  0.5857
 8565SOL     OW37153   2.828   2.685  13.372  0.2076  0.2694 -0.4706
 8565SOL    HW137154   2.870   2.646  13.449  2.4941 -0.9105 -2.2794
 8565SOL    HW237155   2.774   2.750  13.415 -2.4728 -3.0293  1.1014
 8566SOL     OW37156   0.416   1.020   1.914 -0.2037  0.3010 -0.2911
 8566SOL    HW137157   0.344   1.034   1.852 -2.0373 -0.3362  1.6837
 8566SOL    HW237158   0.391   0.931   1.936  3.9494 -0.2784  1.8465
 8567SOL     OW37159   4.590   0.276  15.299 -0.5248  0.3957  0.0378
 8567SOL    HW137160   4.662   0.280  15.236  0.4629 -1.0685  1.0849
 8567SOL    HW237161   4.610   0.366  15.324  3.0382 -0.2419 -0.4973
 8568SOL     OW37162   2.092   3.866   7.206  0.1238 -0.0474  0.4663
 8568SOL    HW137163   2.047   3.782   7.207 -1.1507  0.6489  1.6284
 8568SOL    HW237164   2.016   3.921   7.189 -0.5761 -0.9700  0.6159
 8569SOL     OW37165   3.237   4.143   6.112 -0.0890 -0.1848  1.1749
 8569SOL    HW137166   3.284   4.060   6.110 -1.4289 -0.9299  0.4292
 8569SOL    HW237167   3.294   4.210   6.075  0.0017 -2.2170 -2.4456
 8570SOL     OW37168   0.562   2.700   4.547  0.0060 -0.4300 -0.7036
 8570SOL    HW137169   0.640   2.746   4.577  0.9110 -1.1320 -1.9769
 8570SOL    HW237170   0.511   2.703   4.627  2.1301  2.2783  0.5595
 8571SOL     OW37171   3.939   0.946   5.580  0.1634 -0.0544  0.1942
 8571SOL    HW137172   3.904   1.024   5.538 -1.5870  0.2980  2.3086
 8571SOL    HW237173   4.016   0.981   5.624 -0.5322  0.0091  1.3470
 8572SOL     OW37174   1.622   3.843  17.221  0.5462 -0.0644  0.4183
 8572SOL    HW137175   1.689   3.809  17.162  0.3496 -0.6854  0.5554
 8572SOL    HW237176   1.574   3.903  17.164  0.6502  0.1385  0.5438
 8573SOL     OW37177   3.049   1.723   3.991  0.0089  0.1309  0.4681
 8573SOL    HW137178   3.100   1.794   4.031  0.1755 -0.2607  0.9632
 8573SOL    HW237179   3.020   1.763   3.910  0.8329  1.4408  0.8195
 8574SOL     OW37180   2.307   4.288   7.451  0.1055  0.1205  0.1693
 8574SOL    HW137181   2.347   4.209   7.414  1.3456  0.9403 -0.2210
 8574SOL    HW237182   2.249   4.303   7.376 -0.7529 -0.8373  0.6280
 8575SOL     OW37183   3.407   3.925   6.010  0.7996  0.1499  0.0630
 8575SOL    HW137184   3.483   3.962   5.966  0.1065  0.4550 -0.8563
 8575SOL    HW237185   3.442   3.836   6.010  2.0837  0.6418  0.7139
 8576SOL     OW37186   0.964   4.036  14.800 -0.1589  0.0193  0.0075
 8576SOL    HW137187   0.962   4.130  14.812  0.1659 -0.3386  2.9370
 8576SOL    HW237188   0.881   4.007  14.837 -0.3738  1.3914  0.5863
 8577SOL     OW37189   3.417   2.946   9.841  0.6181 -0.7283 -0.1084
 8577SOL    HW137190   3.449   3.026   9.800  0.2061 -0.3792  0.2500
 8577SOL    HW237191   3.388   2.976   9.927  2.5300  0.2826  0.1790
 8578SOL     OW37192   0.848   3.653  10.485 -0.6726 -0.2696  0.2791
 8578SOL    HW137193   0.812   3.567  10.508 -0.1900 -0.0561  1.8588
 8578SOL    HW237194   0.766   3.702  10.490 -0.7484 -0.2691 -0.9854
 8579SOL     OW37195   0.601   3.193   5.045  0.9862 -0.3631  0.0245
 8579SOL    HW137196   0.660   3.262   5.074 -0.4882 -0.2907  2.8330
 8579SOL    HW237197   0.596   3.138   5.123 -2.1139 -1.3467 -0.8777
 8580SOL     OW37198   4.395   1.699  14.798 -0.0411  0.0545  0.2685
 8580SOL    HW137199   4.471   1.649  14.767  1.3167  0.5717  2.7891
 8580SOL    HW237200   4.324   1.640  14.775 -0.6759  1.4093 -1.2560
 8581SOL     OW37201   3.988   1.317   7.030  0.6135 -0.1546 -0.2665
 8581SOL    HW137202   3.945   1.339   7.113 -1.1180  2.5086 -1.8960
 8581SOL    HW237203   3.913   1.328   6.973  0.2132  0.3904  0.3676
 8582SOL     OW37204   2.355   2.887   6.388 -0.2584 -0.4400 -0.9725
 8582SOL    HW137205   2.370   2.908   6.296  2.6298  1.8872  0.0089
 8582SOL    HW237206   2.299   2.961   6.412  1.7905  1.6054 -2.4923
 8583SOL     OW37207   1.887   4.055   6.675  0.1179 -0.2229 -0.1614
 8583SOL    HW137208   1.880   4.150   6.664  0.2530 -0.4963 -2.6314
 8583SOL    HW237209   1.922   4.056   6.764  0.4251 -0.4028 -0.2768
 8584SOL     OW37210   0.503   2.725   3.898 -0.1898  0.2963  0.0054
 8584SOL    HW137211   0.413   2.758   3.889  0.2566  1.7420  0.7860
 8584SOL    HW237212   0.556   2.776   3.838  0.4424  0.5996  0.8213
 8585SOL     OW37213   1.841   3.560   5.852 -0.3907  0.0669 -0.3382
 8585SOL    HW137214   1.903   3.487   5.851 -0.5514 -0.0782  0.1545
 8585SOL    HW237215   1.892   3.627   5.806  0.6339  0.7780  1.7768
 8586SOL     OW37216   3.382   0.926   3.670  0.4323  0.1884  0.0186
 8586SOL    HW137217   3.433   0.852   3.636  1.6214  0.9670  0.1250
 8586SOL    HW237218   3.410   1.001   3.618 -0.1523  1.1657  1.1108
 8587SOL     OW37219   2.188   1.506   2.798 -0.3075  0.4224  0.4197
 8587SOL    HW137220   2.252   1.437   2.814 -1.2515 -0.0496  2.2152
 8587SOL    HW237221   2.232   1.587   2.822  0.8397  0.4659 -1.8815
 8588SOL     OW37222   2.407   0.352   6.010 -0.2081 -0.3620 -0.4501
 8588SOL    HW137223   2.382   0.361   6.102  2.2267  0.0617  0.1540
 8588SOL    HW237224   2.502   0.356   6.004 -0.2570  0.2992 -0.8408
 8589SOL     OW37225   2.164   2.224  13.757 -0.0574 -0.5186  0.3966
 8589SOL    HW137226   2.256   2.236  13.733 -1.0126  1.9258 -2.0079
 8589SOL    HW237227   2.167   2.214  13.852 -1.7297  0.9328  0.5966
 8590SOL     OW37228   4.523   2.496   3.963 -0.2870 -0.3982 -0.1462
 8590SOL    HW137229   4.474   2.429   4.012  0.7272 -0.6005  0.6043
 8590SOL    HW237230   4.588   2.435   3.928 -0.4164 -0.9524  0.5695
 8591SOL     OW37231   3.155   2.720  11.840  0.1375  0.2448  0.2374
 8591SOL    HW137232   3.130   2.684  11.755  0.0380 -1.6391  1.0672
 8591SOL    HW237233   3.076   2.774  11.848 -0.4106 -0.4492 -0.4475
 8592SOL     OW37234   1.140   1.123   6.669  0.0669  0.4307  0.2393
 8592SOL    HW137235   1.091   1.166   6.739  0.6801 -2.8025  2.6691
 8592SOL    HW237236   1.167   1.042   6.711 -2.2310  0.0522  1.0046
 8593SOL     OW37237   3.792   3.743  13.664 -0.2642  0.3007  0.1514
 8593SOL    HW137238   3.878   3.779  13.684  0.1564 -1.3185  1.2884
 8593SOL    HW237239   3.735   3.770  13.736  0.0374  2.8521 -0.5721
 8594SOL     OW37240   2.742   3.267   8.078 -0.0869  0.6870 -0.2097
 8594SOL    HW137241   2.692   3.193   8.045  0.0833 -0.2390  1.6187
 8594SOL    HW237242   2.822   3.225   8.107 -0.7253 -1.4382 -1.5911
 8595SOL     OW37243   4.425   0.555   8.926  0.0351  0.1674 -0.1435
 8595SOL    HW137244   4.404   0.556   8.832  1.5997 -0.1785 -0.5005
 8595SOL    HW237245   4.513   0.518   8.931 -0.6959 -1.5020  0.2721
 8596SOL     OW37246   3.687   0.608   4.784 -0.2464  0.4850 -0.2093
 8596SOL    HW137247   3.764   0.580   4.834 -0.0563  1.1363 -0.1341
 8596SOL    HW237248   3.735   0.631   4.704 -1.2022 -0.9680 -1.1758
 8597SOL     OW37249   1.869   2.034  16.229  0.4083  0.1682  0.2478
 8597SOL    HW137250   1.804   1.965  16.218 -0.8909  1.3614  0.3923
 8597SOL    HW237251   1.952   1.991  16.208 -0.9357 -3.1428  1.7331
 8598SOL     OW37252   2.692   3.709   1.625 -0.4675  0.6544  0.4572
 8598SOL    HW137253   2.610   3.735   1.668 -1.1567 -2.8122  1.2036
 8598SOL    HW237254   2.731   3.654   1.693 -0.2244  1.1436  0.7199
 8599SOL     OW37255   0.578   0.549   8.705 -0.3565 -0.0842 -0.2346
 8599SOL    HW137256   0.499   0.547   8.759 -0.1241  0.3569  0.1229
 8599SOL    HW237257   0.565   0.484   8.635 -2.6360 -0.2770  0.3706
 8600SOL     OW37258   4.395   3.670   7.371  0.1764 -0.0937 -0.1416
 8600SOL    HW137259   4.430   3.755   7.396 -1.4960  0.6423 -0.3362
 8600SOL    HW237260   4.369   3.692   7.282  0.7255 -3.1466 -1.0760
 8601SOL     OW37261   1.036   0.041   4.897  0.1469 -0.0104  0.2374
 8601SOL    HW137262   1.025   0.081   4.811  2.8410  0.1556 -0.0315
 8601SOL    HW237263   0.981   4.687   4.883  1.2439 -0.9666  1.2122
 8602SOL     OW37264   0.337   2.567   0.063 -0.3012 -0.1997  0.4718
 8602SOL    HW137265   0.261   2.602   0.110  0.0993  0.1258  0.8773
 8602SOL    HW237266   0.327   2.589  17.665 -1.8563 -2.3723  0.1199
 8603SOL     OW37267   2.993   0.371   7.383  0.3013 -0.0725  0.2365
 8603SOL    HW137268   3.086   0.360   7.365  0.0163 -1.1896 -0.5421
 8603SOL    HW237269   2.975   0.465   7.375 -1.1488 -0.3602  0.0072
 8604SOL     OW37270   1.603   3.654   8.001  0.5541  0.1970  0.5161
 8604SOL    HW137271   1.670   3.585   8.004  2.3185  1.9408  1.6850
 8604SOL    HW237272   1.530   3.605   8.038  1.6602 -1.7381  0.1591
 8605SOL     OW37273   3.449   0.127   2.706  0.5198 -0.0341 -0.2137
 8605SOL    HW137274   3.361   0.093   2.720  0.5007 -0.2142 -0.7519
 8605SOL    HW237275   3.470   0.186   2.778  0.4237  0.4361 -0.5740
 8606SOL     OW37276   2.835   3.090  11.369 -0.1102  0.3865  0.3606
 8606SOL    HW137277   2.858   3.134  11.451 -0.3836  1.3619 -0.0816
 8606SOL    HW237278   2.844   3.165  11.311 -1.0601 -1.0610 -1.6582
 8607SOL     OW37279   1.295   4.240  15.852  0.0021  0.5244 -0.1589
 8607SOL    HW137280   1.310   4.329  15.818  1.5975  0.8554  1.4653
 8607SOL    HW237281   1.375   4.222  15.900 -0.2874  2.5001  1.0856
 8608SOL     OW37282   0.293   1.702   9.170  0.0841  0.1029 -0.4663
 8608SOL    HW137283   0.307   1.785   9.215 -1.9688  0.6500 -0.8367
 8608SOL    HW237284   0.386   1.678   9.171  0.4583  1.5706 -0.1766
 8609SOL     OW37285   2.208   3.937   2.711 -0.4528  0.4105 -0.8494
 8609SOL    HW137286   2.125   3.892   2.695 -0.6635  0.0678  1.2372
 8609SOL    HW237287   2.257   3.858   2.735 -2.7382 -0.8052 -0.1554
 8610SOL     OW37288   0.571   3.851   3.064  0.1123  0.3238  0.0890
 8610SOL    HW137289   0.506   3.783   3.086  0.4080  0.1678  0.4933
 8610SOL    HW237290   0.638   3.854   3.133  0.4473  0.5944 -0.2529
 8611SOL     OW37291   4.044   3.150   5.057  0.0560 -0.2668 -0.2086
 8611SOL    HW137292   3.956   3.180   5.079  0.1661  0.8075 -1.1974
 8611SOL    HW237293   4.088   3.151   5.142  0.2133 -1.3220 -0.2804
 8612SOL     OW37294   4.546   2.345   0.495  0.1092 -0.2760  0.4176
 8612SOL    HW137295   4.489   2.371   0.422  0.5714  2.0659  0.8777
 8612SOL    HW237296   4.613   2.413   0.484 -0.8500  0.4983 -0.7262
 8613SOL     OW37297   2.492   2.842  11.216 -0.5069 -0.2528  0.2165
 8613SOL    HW137298   2.422   2.833  11.151 -2.2050  1.4578  1.8013
 8613SOL    HW237299   2.449   2.805  11.294  1.9860  1.1787  2.2699
 8614SOL     OW37300   1.539   1.508   6.865  0.5109  0.1081 -0.3072
 8614SOL    HW137301   1.484   1.436   6.836  0.1703 -0.8650  2.8051
 8614SOL    HW237302   1.616   1.461   6.896 -0.8805  0.4442  3.6149
 8615SOL     OW37303   2.608   1.538   7.603  0.5396 -0.3754  0.4704
 8615SOL    HW137304   2.572   1.453   7.576 -2.5116  0.2810  2.5613
 8615SOL    HW237305   2.698   1.522   7.631  1.0705  0.4333 -0.7797
 8616SOL     OW37306   1.509   4.260   6.998  0.1473 -0.1979  0.2538
 8616SOL    HW137307   1.550   4.343   6.975  0.9811 -0.9223 -0.8280
 8616SOL    HW237308   1.534   4.205   6.924  0.9693 -0.3712  0.6661
 8617SOL     OW37309   2.583   4.706   4.668  0.5620  0.7397  0.6913
 8617SOL    HW137310   2.539   0.013   4.748  0.6511 -0.0281  1.0306
 8617SOL    HW237311   2.568   0.060   4.614  0.1311  0.8435  0.9598
 8618SOL     OW37312   4.349   1.231   4.455 -0.1239  0.3020 -0.1851
 8618SOL    HW137313   4.408   1.213   4.382 -1.1403  3.2998 -1.7426
 8618SOL    HW237314   4.350   1.151   4.509  3.5317  0.1812 -0.4420
 8619SOL     OW37315   4.331   3.828  15.062  0.2404 -0.7602  0.1793
 8619SOL    HW137316   4.421   3.827  15.027  0.0329 -0.1642 -0.3606
 8619SOL    HW237317   4.348   3.841  15.155 -0.1928  0.4594  0.0838
 8620SOL     OW37318   2.411   3.061   7.274  0.2773  0.2923 -0.3065
 8620SOL    HW137319   2.360   2.987   7.306 -0.9939  1.9740  1.5770
 8620SOL    HW237320   2.417   3.030   7.184 -0.4987 -1.7919  0.3675
 8621SOL     OW37321   3.430   0.302   5.259  0.5765 -0.0899 -0.4819
 8621SOL    HW137322   3.395   0.375   5.309 -3.9342 -3.4236  1.2174
 8621SOL    HW237323   3.346   0.286   5.216 -0.2326  0.0603  1.0234
 8622SOL     OW37324   4.410   0.286   8.520  0.0962 -0.4151  0.1020
 8622SOL    HW137325   4.419   0.198   8.556 -2.5068 -0.5589  0.3916
 8622SOL    HW237326   4.408   0.265   8.427  4.0497  0.4186 -0.1679
 8623SOL     OW37327   3.524   1.339   0.562 -0.2334  0.6810  0.7463
 8623SOL    HW137328   3.534   1.356   0.656 -0.5322  0.5186  0.8101
 8623SOL    HW237329   3.443   1.288   0.570  0.1943 -0.2914 -1.1154
 8624SOL     OW37330   1.734   1.592   9.944 -0.3602 -0.1349 -0.2150
 8624SOL    HW137331   1.774   1.669   9.904  0.4490 -0.3087  0.2540
 8624SOL    HW237332   1.665   1.570   9.882  0.0758  0.5355 -0.9339
 8625SOL     OW37333   4.155   3.397  13.111 -0.4815  0.1915  0.0989
 8625SOL    HW137334   4.064   3.400  13.083 -0.4320 -3.0868 -0.4814
 8625SOL    HW237335   4.145   3.413  13.204  0.0771 -0.6889  0.3121
 8626SOL     OW37336   3.554   0.243   1.817 -0.2398  0.2902 -0.1784
 8626SOL    HW137337   3.612   0.183   1.863 -1.8972 -0.5768  0.8131
 8626SOL    HW237338   3.573   0.319   1.873 -1.7466 -0.5684  1.5043
 8627SOL     OW37339   0.005   0.170   2.840  0.6546 -0.8522  0.1939
 8627SOL    HW137340   0.070   0.240   2.839  1.5935 -1.6856  1.7674
 8627SOL    HW237341   0.003   0.159   2.745  1.5439 -1.4264  0.2444
 8628SOL     OW37342   1.742   2.540   0.740 -0.1189 -0.0839  0.6128
 8628SOL    HW137343   1.822   2.571   0.783  0.8117 -0.5929 -0.7761
 8628SOL    HW237344   1.772   2.458   0.700 -0.2955  1.1998 -2.0949
 8629SOL     OW37345   4.029   2.929   5.838 -0.1308  0.2749 -0.3211
 8629SOL    HW137346   4.094   2.878   5.886  0.7927 -1.2516 -3.2349
 8629SOL    HW237347   4.047   2.887   5.754  0.3285 -0.3581  0.0956
 8630SOL     OW37348   1.566   0.867   5.754 -0.3291  0.3860 -0.1194
 8630SOL    HW137349   1.590   0.780   5.786  0.4119  0.3985 -0.6595
 8630SOL    HW237350   1.608   0.865   5.668  0.7609 -1.7628  0.4596
 8631SOL     OW37351   1.642   3.354   3.567 -0.2417 -0.1224  0.4478
 8631SOL    HW137352   1.729   3.382   3.594 -0.4448  0.4568  0.5000
 8631SOL    HW237353   1.627   3.269   3.608 -0.6712 -0.2016  0.1368
 8632SOL     OW37354   0.313   1.081   5.392  0.1058 -0.3093  0.2826
 8632SOL    HW137355   0.376   1.010   5.402 -0.4109 -0.9006 -0.6914
 8632SOL    HW237356   0.373   1.156   5.390 -0.6206  0.2524 -0.6538
 8633SOL     OW37357   3.488   1.255   8.121  0.5324 -0.7150  0.7889
 8633SOL    HW137358   3.583   1.263   8.135  0.4054  1.4404  0.5179
 8633SOL    HW237359   3.478   1.173   8.074  0.8792 -0.9154  1.0624
 8634SOL     OW37360   3.726   3.498   6.431 -0.3836  0.8155 -0.0987
 8634SOL    HW137361   3.756   3.497   6.522 -0.9343 -0.1264  0.0677
 8634SOL    HW237362   3.680   3.582   6.428  1.9290  1.9771 -3.1301
 8635SOL     OW37363   3.941   0.437   2.612  0.1796 -0.4032  0.0267
 8635SOL    HW137364   3.849   0.453   2.591  0.5835  0.7309 -0.8615
 8635SOL    HW237365   3.960   0.499   2.683  1.0788 -2.2142  1.3815
 8636SOL     OW37366   4.385   1.697   3.495 -0.1296  0.4283 -0.4076
 8636SOL    HW137367   4.433   1.630   3.445 -0.4965 -1.0552  1.2222
 8636SOL    HW237368   4.366   1.749   3.417  0.1781  0.5887 -0.3796
 8637SOL     OW37369   3.729   0.334   5.274  0.2969  0.3407 -0.4366
 8637SOL    HW137370   3.759   0.252   5.237 -0.9856 -0.8393  1.1325
 8637SOL    HW237371   3.640   0.340   5.239 -0.4041  1.0768  1.4590
 8638SOL     OW37372   0.770   3.913  13.989  0.1597  0.1832 -0.2850
 8638SOL    HW137373   0.708   3.867  14.045  0.4769 -1.4517 -1.2782
 8638SOL    HW237374   0.734   3.999  14.011 -2.2414 -0.5897 -1.2269
 8639SOL     OW37375   2.345   0.414   8.143  0.2753  0.6445  0.1511
 8639SOL    HW137376   2.387   0.361   8.075 -0.1246  0.4423  0.0617
 8639SOL    HW237377   2.272   0.355   8.162 -1.0335  2.0273 -0.5704
 8640SOL     OW37378   4.643   2.255  14.246  0.1034 -0.1325 -0.1169
 8640SOL    HW137379   4.696   2.251  14.326 -1.5525  0.7369  1.0294
 8640SOL    HW237380   4.671   2.341  14.215  1.0200 -0.4140 -0.0589
 8641SOL     OW37381   3.341   3.121   4.196 -0.2203 -0.1979  0.6027
 8641SOL    HW137382   3.296   3.163   4.269 -2.3502 -2.9133  0.8167
 8641SOL    HW237383   3.432   3.140   4.220 -0.4121  0.5908  0.6934
 8642SOL     OW37384   4.423   2.384   7.786 -0.5887 -0.3004  0.7537
 8642SOL    HW137385   4.421   2.294   7.816 -0.9692 -0.9631 -1.2907
 8642SOL    HW237386   4.516   2.400   7.766 -1.8032  1.7104 -3.4353
 8643SOL     OW37387   1.364   2.371   0.906 -0.2671  0.0376 -0.0487
 8643SOL    HW137388   1.426   2.436   0.939 -1.5748  0.2212  2.0847
 8643SOL    HW237389   1.403   2.347   0.822  3.7843  2.7828  1.0140
 8644SOL     OW37390   2.752   4.050   8.952  0.0903 -0.0099 -0.4941
 8644SOL    HW137391   2.845   4.072   8.960 -0.0358  0.7710 -1.1402
 8644SOL    HW237392   2.751   3.954   8.943 -1.5703  0.1039 -1.4550
 8645SOL     OW37393   1.495   2.073   8.829  0.1873  0.4689  0.7396
 8645SOL    HW137394   1.490   2.107   8.740 -0.9333  0.3363  0.7546
 8645SOL    HW237395   1.579   2.115   8.847  0.1811  0.1559  1.4997
 8646SOL     OW37396   2.185   3.198  14.596 -0.0773 -0.6208  0.2045
 8646SOL    HW137397   2.236   3.222  14.674  2.1502 -0.1390 -1.4063
 8646SOL    HW237398   2.116   3.140  14.630  0.4348 -0.7937  0.9546
 8647SOL     OW37399   3.779   1.333   8.916  0.4485 -0.2363 -0.2600
 8647SOL    HW137400   3.716   1.306   8.850 -1.7956 -0.0421  1.7938
 8647SOL    HW237401   3.849   1.359   8.856 -0.0559  0.1438 -0.6759
 8648SOL     OW37402   2.063   0.560  12.467 -0.0209  0.4823 -0.1876
 8648SOL    HW137403   1.977   0.587  12.434  0.0025  0.0504 -0.6034
 8648SOL    HW237404   2.093   0.650  12.479 -0.3491  0.5638  0.0168
 8649SOL     OW37405   0.275   3.327   9.368  0.0497 -0.3452 -0.4109
 8649SOL    HW137406   0.291   3.352   9.459 -0.8117  1.0595 -0.6427
 8649SOL    HW237407   0.364   3.328   9.331  0.1506 -0.7934 -0.1788
 8650SOL     OW37408   1.441   1.571   5.912 -0.7093 -0.4049 -0.0888
 8650SOL    HW137409   1.502   1.498   5.898  0.9734  1.0916 -0.5063
 8650SOL    HW237410   1.452   1.571   6.007 -2.5168 -0.0574  0.1170
 8651SOL     OW37411   0.518   1.200   6.581  0.1877  0.6389 -0.1616
 8651SOL    HW137412   0.548   1.272   6.525 -1.2073  0.5651 -1.0152
 8651SOL    HW237413   0.446   1.247   6.623  1.0413  1.7319  0.0787
 8652SOL     OW37414   2.553   0.286   8.402 -0.3896  0.2062 -0.0648
 8652SOL    HW137415   2.567   0.298   8.308  1.2705 -0.0376  0.1555
 8652SOL    HW237416   2.592   0.202   8.423  0.6756  0.8152  0.3873
 8653SOL     OW37417   0.051   0.447  16.471  0.2545 -0.0348 -0.4339
 8653SOL    HW137418   4.684   0.422  16.452  0.6147 -0.0666 -2.0895
 8653SOL    HW237419   0.053   0.449  16.567 -0.5733  0.2242 -0.4291
 8654SOL     OW37420   4.300   4.616  10.101 -0.0433  0.0281 -0.4573
 8654SOL    HW137421   4.342   4.568  10.172 -1.0032 -0.1738 -0.0264
 8654SOL    HW237422   4.241   4.673  10.150 -0.3625 -2.3335  1.9029
 8655SOL     OW37423   2.266   3.553  15.526 -0.4694  0.1781  0.5780
 8655SOL    HW137424   2.182   3.535  15.568 -0.1351 -0.2097  1.0830
 8655SOL    HW237425   2.275   3.481  15.464 -0.8830  0.8481 -0.2564
 8656SOL     OW37426   3.192   0.296   3.443 -0.4136 -0.1525  0.0309
 8656SOL    HW137427   3.260   0.235   3.472 -1.3900 -1.8828 -1.3526
 8656SOL    HW237428   3.111   0.261   3.479  0.5735 -0.6586  1.7453
 8657SOL     OW37429   4.086   2.411   2.924  0.3006  0.4044  0.1505
 8657SOL    HW137430   3.992   2.420   2.911  0.4373  3.2094  0.9893
 8657SOL    HW237431   4.102   2.317   2.919 -1.4615  0.1411 -0.4009
 8658SOL     OW37432   3.181   2.967   0.289 -0.2773  0.3334  0.2784
 8658SOL    HW137433   3.111   2.926   0.340 -2.5083  2.4044 -1.0716
 8658SOL    HW237434   3.256   2.972   0.348  0.9566  0.2705 -1.2901
 8659SOL     OW37435   0.491   3.158   8.543  0.0774 -0.6875  0.3797
 8659SOL    HW137436   0.412   3.117   8.577 -0.7151  0.1365 -0.4618
 8659SOL    HW237437   0.555   3.088   8.547  1.4754  0.4359 -1.8054
 8660SOL     OW37438   3.261   3.970   6.635  0.4364  0.1947  0.8832
 8660SOL    HW137439   3.336   3.935   6.683  0.5965 -0.8299 -0.1197
 8660SOL    HW237440   3.255   3.910   6.561  0.9096 -1.2875  2.0469
 8661SOL     OW37441   0.515   3.019   5.521 -0.0984 -0.3797  0.2337
 8661SOL    HW137442   0.494   2.932   5.557 -0.0789 -0.4432  0.0898
 8661SOL    HW237443   0.452   3.064   5.577  0.0753 -0.2772  0.3476
 8662SOL     OW37444   3.360   0.868  15.447 -0.0486  0.0454  0.9165
 8662SOL    HW137445   3.322   0.824  15.371 -1.4826  2.5630  0.1366
 8662SOL    HW237446   3.418   0.937  15.414  0.2743 -2.0552 -2.8273
 8663SOL     OW37447   3.390   3.505   6.242 -0.3222 -0.0843 -0.3762
 8663SOL    HW137448   3.313   3.455   6.269 -1.6307  2.4563  0.5854
 8663SOL    HW237449   3.457   3.457   6.289 -1.0742  0.4584  1.2596
 8664SOL     OW37450   3.639   3.017   3.833 -0.2048 -0.0767  0.1948
 8664SOL    HW137451   3.602   2.937   3.871 -1.7422  1.7465  2.5308
 8664SOL    HW237452   3.563   3.046   3.783 -0.9771 -0.5114  1.1060
 8665SOL     OW37453   0.422   2.474  17.450  0.5082  0.6787 -0.3316
 8665SOL    HW137454   0.492   2.539  17.463  0.8856  0.2958 -0.4522
 8665SOL    HW237455   0.376   2.494  17.369  1.7235  1.4327 -0.8468
 8666SOL     OW37456   3.052   3.799   1.373  0.3411 -0.4737 -0.0990
 8666SOL    HW137457   3.094   3.761   1.450  1.4177  0.0939 -0.4158
 8666SOL    HW237458   2.971   3.748   1.367 -0.1550  0.1881  0.9777
 8667SOL     OW37459   3.189   2.791  12.105 -0.1352  0.0925  0.7588
 8667SOL    HW137460   3.179   2.759  12.015  0.6361 -3.1817  1.8447
 8667SOL    HW237461   3.277   2.829  12.097 -0.1785 -0.1807 -1.1082
 8668SOL     OW37462   1.198   4.580   0.618 -0.3000 -0.1852  0.4450
 8668SOL    HW137463   1.242   4.631   0.549 -1.8066  0.4118 -0.0700
 8668SOL    HW237464   1.131   4.643   0.644  1.0104  0.9776  1.0280
 8669SOL     OW37465   1.571   2.264   5.220 -0.0905 -0.1277  0.4758
 8669SOL    HW137466   1.657   2.295   5.190 -1.3853  0.6764 -2.3723
 8669SOL    HW237467   1.514   2.313   5.161 -0.5785 -0.6056  0.5524
 8670SOL     OW37468   4.397   1.127   9.462  0.6528  0.2236 -0.0796
 8670SOL    HW137469   4.388   1.131   9.557 -0.6794 -2.9329 -0.0739
 8670SOL    HW237470   4.415   1.034   9.449  1.1205  0.7944 -3.5904
 8671SOL     OW37471   2.110   0.368   0.769  0.4637 -0.0641  0.0895
 8671SOL    HW137472   2.108   0.296   0.706  1.4661 -0.1625  0.1626
 8671SOL    HW237473   2.173   0.326   0.827  0.7346 -0.3930 -0.4429
 8672SOL     OW37474   3.117   2.029   9.183 -0.1016 -0.3015 -0.6051
 8672SOL    HW137475   3.105   2.048   9.276  0.4051 -1.0637 -0.3844
 8672SOL    HW237476   3.178   2.096   9.152 -1.1596  1.3953  0.9675
 8673SOL     OW37477   1.730   2.542  14.620  0.3449  0.4625  0.1301
 8673SOL    HW137478   1.691   2.574  14.701 -0.3945  1.7563 -0.7325
 8673SOL    HW237479   1.824   2.539  14.640 -0.3420 -0.2514  3.1860
 8674SOL     OW37480   0.070   2.063  10.942 -0.3491 -0.4502  0.5668
 8674SOL    HW137481   0.017   2.034  10.867 -1.5064 -0.6415  1.4669
 8674SOL    HW237482   0.056   2.155  10.965  1.2649  0.4456 -2.0221
 8675SOL     OW37483   0.865   4.002  13.399  0.6545  0.4226  0.7989
 8675SOL    HW137484   0.825   3.923  13.364  1.7879 -0.0662  0.5910
 8675SOL    HW237485   0.910   3.972  13.478  1.8971  0.6319  0.1744
 8676SOL     OW37486   3.584   2.475   6.489 -0.3230  0.0233 -0.2596
 8676SOL    HW137487   3.661   2.427   6.518 -0.5067  0.8969  1.6826
 8676SOL    HW237488   3.513   2.412   6.498 -0.9845  0.8849  0.5550
 8677SOL     OW37489   1.537   1.015   7.741  0.5288 -0.8333  0.1168
 8677SOL    HW137490   1.473   0.954   7.704 -0.1521  1.0864 -1.9082
 8677SOL    HW237491   1.572   1.070   7.671  3.1954  1.5527  3.3048
 8678SOL     OW37492   4.166   4.718   4.065 -0.4386 -0.4235  0.0517
 8678SOL    HW137493   4.242   0.048   4.043 -1.2559  1.4512  1.8399
 8678SOL    HW237494   4.106   0.059   4.103 -0.5575 -0.8663  0.6175
 8679SOL     OW37495   4.217   3.173   4.114 -0.5025 -0.0565  0.5416
 8679SOL    HW137496   4.303   3.188   4.155 -1.0482  1.0236  1.3031
 8679SOL    HW237497   4.241   3.174   4.021 -0.2558 -0.1903  0.6008
 8680SOL     OW37498   0.621   4.461   1.718 -0.2239 -0.4711 -0.4804
 8680SOL    HW137499   0.632   4.553   1.741  0.3990 -0.6914  0.1311
 8680SOL    HW237500   0.711   4.433   1.739  0.2614  0.9511 -0.7202
 8681SOL     OW37501   3.496   1.819   4.173 -0.2942  0.1036  0.6303
 8681SOL    HW137502   3.502   1.864   4.257 -0.2515 -0.4882  0.9446
 8681SOL    HW237503   3.567   1.756   4.183 -0.6287 -0.8561 -2.9378
 8682SOL     OW37504   4.232   3.643   3.328 -0.2429  0.0187 -0.0619
 8682SOL    HW137505   4.242   3.591   3.407  1.0253  0.6824  0.2083
 8682SOL    HW237506   4.190   3.582   3.267  0.6889 -0.4363 -0.2430
 8683SOL     OW37507   3.792   3.272   2.359  0.2550 -0.1370 -0.0570
 8683SOL    HW137508   3.699   3.287   2.340  0.5294  0.5671 -0.8817
 8683SOL    HW237509   3.797   3.177   2.367 -1.0058 -0.1352  0.7279
 8684SOL     OW37510   3.200   1.626   1.192 -0.2394 -0.0793  0.1089
 8684SOL    HW137511   3.275   1.602   1.137 -0.6856 -0.5664 -0.2765
 8684SOL    HW237512   3.128   1.576   1.154 -0.6636  0.2876  0.4351
 8685SOL     OW37513   1.349   1.270   8.824  0.0078  0.1000  0.2678
 8685SOL    HW137514   1.399   1.224   8.891  1.1642  1.0110  0.0548
 8685SOL    HW237515   1.332   1.194   8.769  0.1607  1.7358 -2.0860
 8686SOL     OW37516   0.340   1.268   9.700  0.1554 -0.5541  0.4165
 8686SOL    HW137517   0.323   1.325   9.626  0.4825 -0.4631  0.4133
 8686SOL    HW237518   0.368   1.188   9.656  0.4053 -0.3523  0.2133
 8687SOL     OW37519   1.518   0.927   2.484 -0.3717 -0.2471 -0.4240
 8687SOL    HW137520   1.523   1.017   2.516 -2.0681 -1.2801  2.6965
 8687SOL    HW237521   1.589   0.934   2.420  1.8501  0.5328  2.0979
 8688SOL     OW37522   0.221   4.464   1.316  0.4713 -0.4154  0.0235
 8688SOL    HW137523   0.180   4.492   1.398 -2.2342 -1.0036 -1.1593
 8688SOL    HW237524   0.271   4.537   1.279  0.0812 -0.7184 -1.1054
 8689SOL     OW37525   3.887   1.668   1.518  0.5481  0.7635 -0.1254
 8689SOL    HW137526   3.812   1.637   1.467  0.7174  0.0066  0.0815
 8689SOL    HW237527   3.943   1.680   1.441  1.7694 -0.1859  0.6057
 8690SOL     OW37528   1.767   1.183   1.172 -0.1733  0.1941 -1.0168
 8690SOL    HW137529   1.675   1.166   1.155 -0.2111  1.4112 -2.0265
 8690SOL    HW237530   1.790   1.097   1.136  0.7066 -0.4123  0.9587
 8691SOL     OW37531   2.126   2.184   8.056  0.4858 -0.4416 -0.3070
 8691SOL    HW137532   2.046   2.205   8.105  0.6936 -0.0442 -0.1376
 8691SOL    HW237533   2.186   2.227   8.117 -0.3582 -0.0689  0.2716
 8692SOL     OW37534   4.507   3.398   5.418 -0.0323  0.1980 -0.6930
 8692SOL    HW137535   4.532   3.409   5.326  2.7530 -5.4208 -0.6181
 8692SOL    HW237536   4.509   3.302   5.423  3.5825  0.2834 -0.7415
 8693SOL     OW37537   3.624   3.267   3.972  0.4401  0.5024  0.2210
 8693SOL    HW137538   3.662   3.189   3.933 -3.0264 -0.1197 -1.9482
 8693SOL    HW237539   3.638   3.241   4.063  1.5771 -0.2003 -0.1460
 8694SOL     OW37540   1.736   1.421  16.238  0.0193  0.1040  0.0219
 8694SOL    HW137541   1.790   1.384  16.169  1.0296  1.1950  0.2404
 8694SOL    HW237542   1.681   1.471  16.177  1.0467  1.3517  0.1190
 8695SOL     OW37543   2.104   2.365  14.894 -0.2015  0.1388 -0.0508
 8695SOL    HW137544   2.122   2.273  14.876 -0.2058  0.2397 -0.5803
 8695SOL    HW237545   2.083   2.368  14.987  0.6240  2.7515  0.0710
 8696SOL     OW37546   4.712   2.469   4.621  0.2573 -0.1123 -0.0477
 8696SOL    HW137547   0.019   2.481   4.711  2.0862  0.8607 -0.7834
 8696SOL    HW237548   0.068   2.481   4.568  0.7951  1.7955  1.1791
 8697SOL     OW37549   2.450   1.434   3.364 -0.1598 -0.3327  0.5508
 8697SOL    HW137550   2.493   1.402   3.284  0.1650 -0.9193  0.9602
 8697SOL    HW237551   2.451   1.360   3.424 -0.0311 -0.5591  0.2721
 8698SOL     OW37552   0.781   3.868   5.828  0.0759 -0.4988 -0.4819
 8698SOL    HW137553   0.727   3.905   5.759  0.4961 -0.1619 -0.6278
 8698SOL    HW237554   0.865   3.847   5.788  0.9847  1.1830  0.5823
 8699SOL     OW37555   0.867   3.949   0.709  0.0869  0.2878 -0.1415
 8699SOL    HW137556   0.780   3.971   0.677  1.5745  2.8501 -2.4644
 8699SOL    HW237557   0.926   3.973   0.637  1.4104 -3.3944 -0.3055
 8700SOL     OW37558   1.935   2.216  11.185 -0.2104 -0.2065 -0.6126
 8700SOL    HW137559   1.851   2.197  11.144 -0.2090 -0.5732 -0.4389
 8700SOL    HW237560   1.918   2.197  11.277  2.1640 -1.3672 -0.4231
 8701SOL     OW37561   0.588   1.442   2.212  0.2451 -0.5034  0.0422
 8701SOL    HW137562   0.672   1.411   2.245  0.8928 -1.2123 -2.2845
 8701SOL    HW237563   0.604   1.414   2.122 -0.2913  0.7444 -0.4490
 8702SOL     OW37564   3.979   2.039   4.041 -0.0239  0.1860  0.2110
 8702SOL    HW137565   4.046   1.973   4.028  0.8106  1.0556  0.0809
 8702SOL    HW237566   3.985   2.078   3.953 -0.2948 -0.4627 -0.0965
 8703SOL     OW37567   3.430   0.396   2.259 -0.1453  0.1736 -0.2226
 8703SOL    HW137568   3.420   0.414   2.166  1.9893  0.9761 -0.3042
 8703SOL    HW237569   3.338   0.404   2.281 -0.5024  1.6991 -2.3881
 8704SOL     OW37570   2.605   2.183   8.772  0.0614  0.0698  0.2878
 8704SOL    HW137571   2.696   2.160   8.788 -0.0667 -0.5522  0.1550
 8704SOL    HW237572   2.568   2.116   8.714 -2.9160  0.0430  2.1957
 8705SOL     OW37573   1.723   0.896   0.166  0.4124 -0.0957  0.4098
 8705SOL    HW137574   1.728   0.917   0.260  3.5629  1.9287 -0.2395
 8705SOL    HW237575   1.804   0.937   0.139  0.3249  0.8935  1.6444
 8706SOL     OW37576   3.158   2.321   7.287  0.5201 -0.3525  0.0610
 8706SOL    HW137577   3.067   2.337   7.261  1.0338  0.6531 -1.0905
 8706SOL    HW237578   3.180   2.397   7.340 -1.4417  2.2793 -2.9306
 8707SOL     OW37579   4.672   2.260   6.662  0.0042  0.1251  0.2280
 8707SOL    HW137580   4.646   2.169   6.651 -0.3369  0.5440 -2.3283
 8707SOL    HW237581   4.647   2.296   6.577 -0.9461 -1.2016 -0.0512
 8708SOL     OW37582   1.832   0.639   8.985 -0.9485 -0.0393  0.2860
 8708SOL    HW137583   1.922   0.606   8.984 -0.3608  1.6342 -1.9410
 8708SOL    HW237584   1.793   0.604   8.905  1.7659 -0.6575 -0.7609
 8709SOL     OW37585   3.776   1.647   8.577 -0.2063 -0.3652 -0.1242
 8709SOL    HW137586   3.702   1.587   8.565  0.7595 -1.6880  0.5536
 8709SOL    HW237587   3.753   1.730   8.535 -1.1854 -0.5236  0.0800
 8710SOL     OW37588   2.266   0.982  10.427  0.4806 -0.4437  0.1515
 8710SOL    HW137589   2.200   1.023  10.371  1.4369  1.4801  0.4634
 8710SOL    HW237590   2.238   0.890  10.431  0.3481 -0.4685 -1.2887
 8711SOL     OW37591   4.393   2.291   4.870  0.8287  0.3893  0.2675
 8711SOL    HW137592   4.366   2.200   4.876  2.3028 -0.0998 -0.6770
 8711SOL    HW237593   4.487   2.277   4.883  0.4924 -1.6522  0.5019
 8712SOL     OW37594   0.799   0.789  16.454 -0.2127 -0.2800 -0.3774
 8712SOL    HW137595   0.819   0.711  16.507 -0.8317  0.8141  1.4598
 8712SOL    HW237596   0.836   0.858  16.509 -0.8004 -1.4937  1.5436
 8713SOL     OW37597   3.642   3.005   5.624  0.1523 -0.0095 -0.2360
 8713SOL    HW137598   3.701   3.080   5.629 -0.3048  0.2896  0.6307
 8713SOL    HW237599   3.562   3.052   5.600 -0.3312 -1.4803 -1.5340
 8714SOL     OW37600   4.097   1.574   0.901  0.0172  0.1421  0.1061
 8714SOL    HW137601   4.090   1.478   0.905  3.2173 -0.1422 -0.9366
 8714SOL    HW237602   4.130   1.588   0.989  0.5384 -1.6191  0.1961
 8715SOL     OW37603   1.864   2.268  12.462  0.4786  0.1609  0.0882
 8715SOL    HW137604   1.882   2.285  12.554 -1.3801  1.8258  0.1461
 8715SOL    HW237605   1.867   2.173  12.467 -0.1127  0.2852  2.6994
 8716SOL     OW37606   0.786   1.503   8.097 -0.7613  0.0248  0.0734
 8716SOL    HW137607   0.764   1.581   8.046 -2.1126 -1.8091 -2.1587
 8716SOL    HW237608   0.700   1.486   8.133 -1.7638 -0.2425 -2.4244
 8717SOL     OW37609   0.942   0.046   2.641 -0.7242  0.5020  0.4236
 8717SOL    HW137610   1.013   4.722   2.684 -1.5428  0.1022  1.3515
 8717SOL    HW237611   0.978   0.130   2.615 -1.4454  0.0430 -2.0824
 8718SOL     OW37612   2.542   3.902   4.812  0.3121 -0.1162  0.1770
 8718SOL    HW137613   2.616   3.956   4.838  1.3685 -0.9780 -0.9899
 8718SOL    HW237614   2.528   3.934   4.723 -0.8666 -0.1253  0.3705
 8719SOL     OW37615   3.126   4.396   7.761 -0.2007  0.3199  0.2180
 8719SOL    HW137616   3.048   4.376   7.708 -1.2454  0.3820  1.7244
 8719SOL    HW237617   3.130   4.313   7.808  1.4775  2.6050  4.0832
 8720SOL     OW37618   0.736   3.247   6.896 -0.4791  0.6406  0.2434
 8720SOL    HW137619   0.717   3.252   6.802  1.7449  1.0253 -0.1938
 8720SOL    HW237620   0.830   3.227   6.894 -0.6869 -0.3842  1.0806
 8721SOL     OW37621   2.948   0.077   8.289  0.4759 -0.4677  0.3155
 8721SOL    HW137622   3.005   0.001   8.290  1.0081 -0.1021 -1.3925
 8721SOL    HW237623   2.967   0.111   8.201  1.4188  0.1150  0.7506
 8722SOL     OW37624   3.585   3.926   8.511  0.0928 -0.0361 -0.1724
 8722SOL    HW137625   3.565   4.014   8.543  0.9560 -1.6324  4.7382
 8722SOL    HW237626   3.578   3.932   8.416  0.8932 -1.0932 -0.2907
 8723SOL     OW37627   0.018   0.896   6.167 -0.6277 -0.1063 -0.0411
 8723SOL    HW137628   0.058   0.850   6.241 -2.8243 -0.0416  1.1845
 8723SOL    HW237629   0.056   0.984   6.177 -0.9015  0.0784 -0.6642
 8724SOL     OW37630   0.702   3.405   5.819  0.0964 -0.8956  0.3208
 8724SOL    HW137631   0.702   3.344   5.892  0.4803 -0.8211  0.3786
 8724SOL    HW237632   0.727   3.489   5.857 -0.5536 -0.4657 -0.2020
 8725SOL     OW37633   2.008   0.943   5.850  0.1351 -0.0759  0.1727
 8725SOL    HW137634   1.979   0.866   5.801  1.1344 -1.1094  1.1935
 8725SOL    HW237635   2.031   1.006   5.783  2.9928 -1.3253 -0.0399
 8726SOL     OW37636   3.056   0.390   3.228  0.1013 -0.1218 -0.0025
 8726SOL    HW137637   3.087   0.323   3.166  0.2270 -0.3190  0.2737
 8726SOL    HW237638   3.119   0.374   3.299 -0.2393  1.5753  0.6753
 8727SOL     OW37639   3.566   2.415   4.969 -0.3404  0.1127 -0.4956
 8727SOL    HW137640   3.615   2.394   5.049  1.2133  1.5071 -1.0781
 8727SOL    HW237641   3.633   2.423   4.901 -1.9472  0.3819 -2.0583
 8728SOL     OW37642   2.438   3.058  12.060  0.3715 -0.3330 -0.0929
 8728SOL    HW137643   2.409   3.117  12.129 -2.7166  0.9672 -2.4817
 8728SOL    HW237644   2.380   3.082  11.988 -0.0657  0.0203  0.3783
 8729SOL     OW37645   1.841   4.582   6.524 -0.5282  0.1959 -0.0705
 8729SOL    HW137646   1.825   4.504   6.472 -0.9108  0.1432  0.1272
 8729SOL    HW237647   1.771   4.636   6.488  0.9833  1.0909 -1.6375
 8730SOL     OW37648   0.435   2.773  15.835 -0.0210  0.0113 -0.2411
 8730SOL    HW137649   0.410   2.857  15.798 -1.5149 -1.3239 -2.2638
 8730SOL    HW237650   0.490   2.798  15.910  0.2120 -1.8170  0.2192
 8731SOL     OW37651   3.634   4.243  13.828 -0.0095  0.0810 -0.5090
 8731SOL    HW137652   3.539   4.245  13.836  0.0888 -1.0738  1.0426
 8731SOL    HW237653   3.659   4.206  13.913  0.1432  0.1873 -0.5076
 8732SOL     OW37654   4.693   0.822   8.114  0.4874  0.3619  0.5092
 8732SOL    HW137655   4.681   0.871   8.196  2.0936 -0.6620  1.3510
 8732SOL    HW237656   4.678   0.890   8.048  3.3277 -1.0331 -1.5195
 8733SOL     OW37657   0.731   4.392   6.352  0.5457  0.1690 -0.4579
 8733SOL    HW137658   0.745   4.352   6.266 -2.4043  0.7054 -1.2012
 8733SOL    HW237659   0.684   4.325   6.401  1.4947  1.5273  2.2522
 8734SOL     OW37660   3.378   0.199   4.352  0.1008 -0.0840  0.9417
 8734SOL    HW137661   3.433   0.260   4.400 -1.1696  2.8458 -1.3552
 8734SOL    HW237662   3.386   0.119   4.404 -1.9287  0.7513  2.5366
 8735SOL     OW37663   3.783   1.958   2.947 -0.2935 -0.0260  0.2759
 8735SOL    HW137664   3.845   1.945   3.019 -1.4348 -0.7140  1.1460
 8735SOL    HW237665   3.728   2.027   2.986 -0.5976 -0.6141  0.8976
 8736SOL     OW37666   3.277   4.087   5.755 -0.1308  0.4473  0.0172
 8736SOL    HW137667   3.370   4.084   5.777 -0.3316  0.7074  0.8802
 8736SOL    HW237668   3.249   4.147   5.823 -2.7571 -0.7729  0.0217
 8737SOL     OW37669   0.745   0.199   9.553 -0.2081  0.2199 -0.1384
 8737SOL    HW137670   0.693   0.119   9.557  0.4796 -0.2808 -1.3281
 8737SOL    HW237671   0.804   0.180   9.625 -0.0047  0.5019 -0.2319
 8738SOL     OW37672   0.984   4.322  11.384  0.0379  0.1963 -0.2275
 8738SOL    HW137673   0.915   4.270  11.341  1.2054  0.5212 -2.5000
 8738SOL    HW237674   0.948   4.408  11.364  2.7969  2.0293  2.7893
 8739SOL     OW37675   1.870   3.252   3.326  0.6841 -0.9141  0.6020
 8739SOL    HW137676   1.898   3.319   3.388  1.0091  0.0785 -0.5982
 8739SOL    HW237677   1.793   3.206   3.359 -0.5794  1.7976  1.4164
 8740SOL     OW37678   3.325   1.529   6.604  0.0306  0.1114 -0.0077
 8740SOL    HW137679   3.317   1.464   6.534  1.0004  1.9108 -1.7898
 8740SOL    HW237680   3.369   1.602   6.561 -0.4940 -0.0810 -0.8680
 8741SOL     OW37681   1.234   2.833   2.540 -0.4392 -0.8742 -0.7845
 8741SOL    HW137682   1.162   2.778   2.571  0.5543 -2.1539 -0.7656
 8741SOL    HW237683   1.185   2.916   2.542  1.3287  0.2147 -2.5845
 8742SOL     OW37684   0.586   4.025  14.279 -0.4185  0.1780 -0.1138
 8742SOL    HW137685   0.558   4.112  14.308  2.1701  0.5037  1.4918
 8742SOL    HW237686   0.546   4.013  14.193 -0.3395 -0.2762 -0.0871
 8743SOL     OW37687   3.149   3.263   5.916 -0.4087  0.5818 -0.4385
 8743SOL    HW137688   3.225   3.311   5.883 -0.4850 -0.8047 -2.6564
 8743SOL    HW237689   3.106   3.334   5.963 -0.7081  1.1831 -1.6049
 8744SOL     OW37690   2.383   4.715  16.503 -0.2621 -0.2163 -0.1577
 8744SOL    HW137691   2.318   4.651  16.474  0.5319 -0.9065 -0.4430
 8744SOL    HW237692   2.463   4.662  16.508 -1.7458 -2.2534  2.2562
 8745SOL     OW37693   3.313   1.463  14.290  0.2093 -0.0811  0.3135
 8745SOL    HW137694   3.267   1.432  14.368  0.4826 -3.6532 -0.9393
 8745SOL    HW237695   3.265   1.416  14.222  1.8585 -0.4034 -0.6363
 8746SOL     OW37696   0.533   4.683   4.044  0.7556  0.3710 -0.5156
 8746SOL    HW137697   0.483   4.616   3.998 -0.1068  1.3882 -1.0625
 8746SOL    HW237698   0.542   0.032   3.982  3.1778  0.3958 -0.1519
 8747SOL     OW37699   4.456   3.011   2.628  0.5934  0.1335  0.2450
 8747SOL    HW137700   4.371   2.973   2.649 -0.4076  1.4607 -1.3480
 8747SOL    HW237701   4.516   2.947   2.664  0.1417 -0.0963  0.5855
 8748SOL     OW37702   1.717   2.076   8.369 -0.2271 -0.5658  0.2101
 8748SOL    HW137703   1.725   2.029   8.453  0.7078  0.1213  0.5027
 8748SOL    HW237704   1.623   2.063   8.362 -0.4073  0.4641  0.7923
 8749SOL     OW37705   1.883   3.873   5.474  0.1399 -0.5626  0.0528
 8749SOL    HW137706   1.878   3.905   5.384 -0.3141 -1.0723 -0.1088
 8749SOL    HW237707   1.795   3.842   5.496 -0.7496  2.3307  0.5244
 8750SOL     OW37708   1.497   0.339   7.647 -0.2464 -0.6085  0.5812
 8750SOL    HW137709   1.507   0.406   7.579  1.8860 -1.0208  0.5081
 8750SOL    HW237710   1.466   0.261   7.601 -1.2791  0.4007 -0.4288
 8751SOL     OW37711   0.109   2.436   3.944 -0.0579 -0.4031 -0.1446
 8751SOL    HW137712   0.156   2.454   3.862 -1.2796  2.5962 -0.1759
 8751SOL    HW237713   0.181   2.442   4.007 -0.0590 -2.1871  0.0378
 8752SOL     OW37714   4.313   2.178   3.446  0.1487  0.5398 -0.7046
 8752SOL    HW137715   4.324   2.145   3.535 -3.0184 -0.2449 -0.5961
 8752SOL    HW237716   4.391   2.232   3.435  0.7541 -0.3550 -0.6948
 8753SOL     OW37717   4.524   0.556   2.217 -0.3558 -0.1215 -0.4409
 8753SOL    HW137718   4.610   0.564   2.258 -1.4626  0.6787  1.6642
 8753SOL    HW237719   4.455   0.594   2.271 -0.2105 -0.8286  0.2482
 8754SOL     OW37720   0.264   1.689   2.862  0.5308  0.2056  0.3610
 8754SOL    HW137721   0.264   1.719   2.953 -1.1687  1.9142 -0.1901
 8754SOL    HW237722   0.311   1.608   2.879  0.9672  0.1851 -0.9051
 8755SOL     OW37723   1.303   0.023  15.183  0.2659 -0.1441  0.3323
 8755SOL    HW137724   1.338   0.027  15.093  1.8378  0.5796  0.9664
 8755SOL    HW237725   1.308   0.116  15.205  4.5666  0.3719 -2.6766
 8756SOL     OW37726   3.271   4.140   8.484 -0.3144  0.4133 -0.2821
 8756SOL    HW137727   3.184   4.176   8.503 -0.6377 -0.7420  0.4799
 8756SOL    HW237728   3.248   4.047   8.485 -1.7641  0.7790  3.8222
 8757SOL     OW37729   0.149   2.180   8.931  0.4074 -0.0718 -0.2509
 8757SOL    HW137730   0.198   2.249   8.887  0.5779  0.8825  1.4086
 8757SOL    HW237731   0.121   2.208   9.018  0.1678  2.1356 -1.0583
 8758SOL     OW37732   1.643   0.641   2.872 -0.8399 -0.0164 -0.1040
 8758SOL    HW137733   1.626   0.726   2.831  2.0810 -0.3481 -2.0017
 8758SOL    HW237734   1.576   0.623   2.939 -1.2972  1.1214 -0.2571
 8759SOL     OW37735   1.589   0.261   3.132  0.0832  0.5537  0.1357
 8759SOL    HW137736   1.537   0.334   3.167 -0.7327  0.1886 -0.3219
 8759SOL    HW237737   1.526   0.199   3.097  1.4493  0.1980 -1.7169
 8760SOL     OW37738   1.785   4.620  11.348  0.8163 -0.6425 -0.2289
 8760SOL    HW137739   1.796   4.640  11.255 -0.0310 -1.2503 -0.4628
 8760SOL    HW237740   1.809   4.527  11.343  1.9303 -0.4639  1.6025
 8761SOL     OW37741   0.467   3.551  10.338 -0.4574  0.2300  0.4145
 8761SOL    HW137742   0.439   3.599  10.260  0.0055  2.8404  1.8596
 8761SOL    HW237743   0.390   3.499  10.357  0.6839 -1.1920  1.1787
 8762SOL     OW37744   4.475   1.901  13.378  0.3279 -0.1658 -0.4417
 8762SOL    HW137745   4.384   1.929  13.388  0.9883  1.6029  0.5773
 8762SOL    HW237746   4.504   1.923  13.289  1.6916  0.8898  0.2624
 8763SOL     OW37747   3.281   1.425   5.516  0.0527  0.3813 -0.0870
 8763SOL    HW137748   3.296   1.335   5.543  1.2927  1.4227  2.7956
 8763SOL    HW237749   3.369   1.461   5.504 -0.1366  0.8238 -0.1548
 8764SOL     OW37750   3.240   4.215   9.088 -0.3553  0.4278  0.4945
 8764SOL    HW137751   3.282   4.187   9.006 -0.6489 -2.7172  1.4160
 8764SOL    HW237752   3.170   4.149   9.081 -1.3030  1.7635 -2.6168
 8765SOL     OW37753   3.841   3.186   3.509 -0.0009 -0.1127  0.5183
 8765SOL    HW137754   3.765   3.131   3.491  0.9529 -0.9865 -0.8111
 8765SOL    HW237755   3.907   3.163   3.444  0.5674 -0.5042  1.2325
 8766SOL     OW37756   4.322   0.267  16.395  0.3800 -0.0477  0.2058
 8766SOL    HW137757   4.388   0.336  16.404 -0.1447  0.4365  0.3662
 8766SOL    HW237758   4.357   0.191  16.441 -2.3185 -1.0781  0.5662
 8767SOL     OW37759   4.508   4.559   9.027  0.2075  0.0386 -0.0818
 8767SOL    HW137760   4.570   4.539   9.097 -1.5393 -1.4159  1.0249
 8767SOL    HW237761   4.546   4.626   8.970  1.1224  1.1181  1.7928
 8768SOL     OW37762   3.818   3.973  14.416 -0.1768  0.0976 -0.8046
 8768SOL    HW137763   3.731   3.934  14.403 -0.9187  0.8265  1.8956
 8768SOL    HW237764   3.805   4.068  14.417  0.8564  0.2494 -1.9959
 8769SOL     OW37765   3.600   0.663   6.642  0.7145 -0.0504  0.0828
 8769SOL    HW137766   3.564   0.707   6.719 -1.3755  0.2497 -1.0539
 8769SOL    HW237767   3.557   0.578   6.655 -0.9025  0.8531  0.6459
 8770SOL     OW37768   1.531   3.383   2.207 -0.3224  0.8536 -0.5199
 8770SOL    HW137769   1.603   3.436   2.240 -0.1672 -0.7119  1.7140
 8770SOL    HW237770   1.505   3.431   2.129 -2.5791 -0.0780 -0.3560
 8771SOL     OW37771   1.072   2.390   4.827  0.8068  0.5190 -0.2335
 8771SOL    HW137772   1.139   2.325   4.806 -0.3080  0.2656 -2.9281
 8771SOL    HW237773   1.056   2.432   4.743 -0.7475  0.5678  0.0802
 8772SOL     OW37774   1.553   1.405   9.594 -0.5193  0.3466  0.2675
 8772SOL    HW137775   1.517   1.493   9.604  1.7040  1.4195 -1.1439
 8772SOL    HW237776   1.470   1.358   9.595 -0.2198 -0.1576  2.1308
 8773SOL     OW37777   2.664   0.114   6.818 -0.0271 -0.1518  0.5247
 8773SOL    HW137778   2.745   0.103   6.768 -0.3730 -3.1117  0.6024
 8773SOL    HW237779   2.615   0.035   6.794 -0.4425  0.2381  0.0778
 8774SOL     OW37780   2.775   0.965   8.484  0.0293  1.0037 -0.1749
 8774SOL    HW137781   2.807   0.875   8.487  2.1994  1.7661 -0.3401
 8774SOL    HW237782   2.767   0.986   8.391 -0.3162 -0.2078 -0.4141
 8775SOL     OW37783   3.326   4.012   1.849 -0.0962  0.5010 -0.6693
 8775SOL    HW137784   3.247   4.064   1.863 -0.1755 -0.2477  1.6752
 8775SOL    HW237785   3.290   3.924   1.834 -0.2676  0.4775 -0.1452
 8776SOL     OW37786   3.897   1.304   1.398  0.3155 -0.3390 -0.1399
 8776SOL    HW137787   3.915   1.210   1.406  1.2082  0.0200  2.0255
 8776SOL    HW237788   3.888   1.329   1.490 -1.2400  0.8474 -0.6180
 8777SOL     OW37789   4.099   0.665   8.216 -0.4876 -0.3689  0.4593
 8777SOL    HW137790   4.148   0.743   8.242  1.4701 -0.8326 -1.8496
 8777SOL    HW237791   4.097   0.685   8.122 -2.1564 -2.6647  0.0110
 8778SOL     OW37792   4.151   2.459  13.371 -0.1275  0.2130 -0.0690
 8778SOL    HW137793   4.147   2.391  13.304  0.2290 -0.3627  0.4883
 8778SOL    HW237794   4.146   2.535  13.314 -0.4702  0.8472  0.8143
 8779SOL     OW37795   0.026   1.916   4.236 -0.8516  0.0559 -0.1678
 8779SOL    HW137796   4.680   1.855   4.261 -2.2379  1.1881 -1.2058
 8779SOL    HW237797   0.006   1.925   4.142  0.8803  0.0971 -0.5240
 8780SOL     OW37798   3.893   0.572   7.322 -0.3743 -0.2048 -0.4592
 8780SOL    HW137799   3.849   0.606   7.244 -0.2472 -0.1525 -0.5082
 8780SOL    HW237800   3.955   0.645   7.331 -1.1198  0.0520  2.5513
 8781SOL     OW37801   1.685   1.926   8.619  0.3265  0.5436 -0.6163
 8781SOL    HW137802   1.693   1.893   8.709 -1.3131  0.1011 -0.6252
 8781SOL    HW237803   1.666   1.841   8.579 -0.9929 -0.0218  1.2135
 8782SOL     OW37804   2.946   3.001   5.126  0.1405 -0.0412  0.6989
 8782SOL    HW137805   2.866   3.054   5.127  0.0747 -0.1289 -0.3131
 8782SOL    HW237806   2.918   2.916   5.093 -0.2104 -0.0449  1.0099
 8783SOL     OW37807   3.620   2.658  16.252  0.0236  0.9297  0.1133
 8783SOL    HW137808   3.684   2.595  16.221  1.0952  1.8505  0.4575
 8783SOL    HW237809   3.645   2.727  16.191  1.4952  0.3433  0.0593
 8784SOL     OW37810   3.523   4.702  13.703 -0.9868 -0.0714  0.2061
 8784SOL    HW137811   3.555   0.047  13.643 -0.2807  1.0217  1.8149
 8784SOL    HW237812   3.454   0.036  13.739  1.2767  3.6369 -1.3581
 8785SOL     OW37813   1.937   0.679   6.796 -0.0562  0.4261  0.1854
 8785SOL    HW137814   1.986   0.608   6.836 -0.2161 -1.0124 -2.1855
 8785SOL    HW237815   2.000   0.747   6.774  2.1681 -2.0825 -1.1151
 8786SOL     OW37816   0.397   3.448   7.515  0.0371  0.5639  0.6806
 8786SOL    HW137817   0.466   3.471   7.577  1.8403 -1.7031 -0.4617
 8786SOL    HW237818   0.449   3.458   7.436 -1.2062  1.5626 -0.0178
 8787SOL     OW37819   2.663   3.377   7.822  0.2246 -1.1205 -0.2796
 8787SOL    HW137820   2.703   3.384   7.909 -1.5073 -1.7720  0.5653
 8787SOL    HW237821   2.722   3.433   7.773  0.7394  0.5818  2.2678
 8788SOL     OW37822   4.231   2.878   3.768 -0.4706  0.5296 -0.4728
 8788SOL    HW137823   4.151   2.832   3.797 -0.1741  1.0845  1.2379
 8788SOL    HW237824   4.300   2.829   3.814 -2.9999 -1.4924  1.2010
 8789SOL     OW37825   0.682   2.125  12.402  0.6365  0.6153 -0.1408
 8789SOL    HW137826   0.751   2.133  12.336  0.7675  0.1299 -0.0624
 8789SOL    HW237827   0.614   2.149  12.339 -1.4611 -1.3582  1.4036
 8790SOL     OW37828   0.607   1.032   3.978 -0.0573  0.3257 -0.0740
 8790SOL    HW137829   0.690   0.996   3.947  0.3216  1.6064 -0.5403
 8790SOL    HW237830   0.548   0.959   3.957 -1.1466  0.7016  1.6653
 8791SOL     OW37831   3.657   0.552   8.114  0.1244 -0.3897  0.0282
 8791SOL    HW137832   3.740   0.556   8.162 -1.9964 -1.1394  3.7687
 8791SOL    HW237833   3.685   0.508   8.034  0.3702 -1.7397  0.8618
 8792SOL     OW37834   0.675   3.308   2.455 -0.4292  0.3571  0.0435
 8792SOL    HW137835   0.738   3.301   2.527 -0.9189 -3.6446  0.1032
 8792SOL    HW237836   0.605   3.246   2.477 -0.1077  0.2982  0.9042
 8793SOL     OW37837   1.446   3.447  16.361 -0.0662 -0.6792  0.0614
 8793SOL    HW137838   1.441   3.413  16.450 -1.3118 -1.5501 -0.3378
 8793SOL    HW237839   1.506   3.382  16.324  0.7870 -0.3145  0.8061
 8794SOL     OW37840   4.104   4.692   8.311  0.0355  0.7423 -0.0501
 8794SOL    HW137841   4.133   4.668   8.223 -3.0980  1.5668 -1.3349
 8794SOL    HW237842   4.192   4.693   8.347  0.6534 -1.3423 -1.5224
 8795SOL     OW37843   3.494   3.884   3.017 -0.1796  0.4238 -0.2385
 8795SOL    HW137844   3.561   3.848   3.075  0.6882  2.0450 -0.2274
 8795SOL    HW237845   3.418   3.885   3.074  0.5837  0.2767  0.7766
 8796SOL     OW37846   3.227   4.647   1.514 -0.4946  0.5880  0.4960
 8796SOL    HW137847   3.154   4.658   1.453  1.0166  0.6931 -1.2871
 8796SOL    HW237848   3.183   4.614   1.592  0.4672 -1.8834  0.0053
 8797SOL     OW37849   0.169   0.619   3.387  0.8120 -0.1498 -0.3847
 8797SOL    HW137850   0.078   0.620   3.356  0.9342  1.5235 -0.7001
 8797SOL    HW237851   0.190   0.527   3.371 -0.3370 -1.0140  2.9566
 8798SOL     OW37852   1.708   0.987   5.515 -0.2079  0.4256 -0.3343
 8798SOL    HW137853   1.689   0.974   5.423 -3.0710  1.2187  0.1555
 8798SOL    HW237854   1.786   0.933   5.530  0.3738  1.0907 -0.9873
 8799SOL     OW37855   4.198   0.319   5.770 -0.4114 -0.0088  0.0888
 8799SOL    HW137856   4.167   0.408   5.780  1.5711  0.6630  0.3337
 8799SOL    HW237857   4.279   0.331   5.720  0.1323 -1.6064  0.5924
 8800SOL     OW37858   1.945   2.953  10.362  0.0014 -0.1195  0.8323
 8800SOL    HW137859   1.876   3.018  10.352  2.3250  2.6012  2.3993
 8800SOL    HW237860   2.007   3.005  10.413 -3.5331  2.3442  2.6195
 8801SOL     OW37861   1.738   2.228   4.927 -0.1352  0.1345 -0.4656
 8801SOL    HW137862   1.774   2.160   4.984  2.7808  0.7761 -1.5437
 8801SOL    HW237863   1.749   2.301   4.988 -0.4585 -1.8469  2.0023
 8802SOL     OW37864   1.019   0.394  12.085 -0.5810 -0.0220 -0.4175
 8802SOL    HW137865   1.089   0.355  12.137 -0.3440  0.2737 -0.5211
 8802SOL    HW237866   0.981   0.316  12.044  1.6984 -0.3153 -1.9560
 8803SOL     OW37867   3.215   2.602   2.771  0.2475  0.2521  0.4041
 8803SOL    HW137868   3.304   2.597   2.805  1.0088 -0.4223 -1.6778
 8803SOL    HW237869   3.227   2.557   2.688 -2.7979 -0.2628  0.2445
 8804SOL     OW37870   4.325   1.674   7.610  0.0378  0.3395  0.3225
 8804SOL    HW137871   4.343   1.580   7.605  0.6731  0.4594  0.3578
 8804SOL    HW237872   4.230   1.679   7.606 -0.1331 -2.0290  1.3779
 8805SOL     OW37873   0.099   4.477  14.128 -0.0038  0.2180 -0.0423
 8805SOL    HW137874   0.146   4.516  14.202  0.8402 -1.5986  0.3714
 8805SOL    HW237875   0.032   4.545  14.125 -2.4087 -1.9866  3.6034
 8806SOL     OW37876   0.874   1.694   5.685  0.1369  0.1274 -0.2098
 8806SOL    HW137877   0.943   1.681   5.620  0.1367  0.6787 -0.3217
 8806SOL    HW237878   0.853   1.786   5.673  3.1251  1.1353  2.0678
 8807SOL     OW37879   1.215   0.789   2.224  0.4532 -0.3566 -0.1522
 8807SOL    HW137880   1.169   0.763   2.145  1.1864  0.5617 -0.8889
 8807SOL    HW237881   1.152   0.847   2.267  0.8434  1.3578 -1.9003
 8808SOL     OW37882   1.025   3.630   7.468 -0.5846 -0.2035  0.0494
 8808SOL    HW137883   1.118   3.627   7.444  0.0566  3.2296  2.0109
 8808SOL    HW237884   1.012   3.539   7.495 -2.4030  0.3835  1.1723
 8809SOL     OW37885   4.646   0.263  10.386  0.5768 -0.7108 -0.5253
 8809SOL    HW137886   0.015   0.282  10.405  0.3096 -0.7921  0.8517
 8809SOL    HW237887   4.632   0.341  10.332 -1.0582 -0.9774 -0.4832
 8810SOL     OW37888   3.713   2.048   8.728 -0.3698 -0.3275 -0.2499
 8810SOL    HW137889   3.802   2.014   8.742 -0.5608  0.4368  2.8091
 8810SOL    HW237890   3.667   1.965   8.741  0.8160 -0.7657  1.2349
 8811SOL     OW37891   4.327   4.526   5.853 -0.2969 -0.3139  0.3866
 8811SOL    HW137892   4.334   4.467   5.778  1.5444 -2.6804  2.4315
 8811SOL    HW237893   4.384   4.599   5.833  0.0299 -1.6215 -3.3698
 8812SOL     OW37894   1.568   3.446   1.254  0.6344  0.1794  0.0676
 8812SOL    HW137895   1.501   3.503   1.293  2.1682  0.5834  2.1364
 8812SOL    HW237896   1.644   3.504   1.259  2.2169 -1.8881 -0.2527
 8813SOL     OW37897   3.147   0.029  14.628  0.1929 -0.2811  0.6790
 8813SOL    HW137898   3.162   4.675  14.682  0.9126  0.7656  1.9829
 8813SOL    HW237899   3.163   4.713  14.543  0.9634 -1.9733  1.6073
 8814SOL     OW37900   0.876   2.434   3.151 -0.3042 -0.2498  0.4980
 8814SOL    HW137901   0.969   2.431   3.170 -0.3650 -2.0873  0.4894
 8814SOL    HW237902   0.871   2.476   3.065  0.5476  2.2026  1.6544
 8815SOL     OW37903   0.020   2.818  11.397 -0.2507 -0.0157  0.3782
 8815SOL    HW137904   0.087   2.886  11.407  1.1681 -1.1817 -1.2705
 8815SOL    HW237905   4.716   2.819  11.489 -0.8922 -0.1557  0.1902
 8816SOL     OW37906   2.486   3.211   1.484 -0.0949 -0.4096  0.1202
 8816SOL    HW137907   2.538   3.181   1.408  0.7492  0.5803  0.3119
 8816SOL    HW237908   2.549   3.187   1.552 -0.5142 -1.0852  0.2666
 8817SOL     OW37909   4.479   1.252   2.179  0.0922  0.3346 -0.4418
 8817SOL    HW137910   4.535   1.328   2.198  3.7400 -2.4359 -0.0045
 8817SOL    HW237911   4.531   1.205   2.113  1.0231  1.1868 -0.3327
 8818SOL     OW37912   0.449   0.100   4.850  0.4645  0.3008 -0.0630
 8818SOL    HW137913   0.479   0.020   4.894  0.6720 -0.4064 -1.4879
 8818SOL    HW237914   0.417   0.151   4.924 -0.7388 -0.5576  0.0102
 8819SOL     OW37915   0.772   2.235   3.661  0.1405  0.7624 -0.3970
 8819SOL    HW137916   0.840   2.171   3.642 -0.1457  0.4702 -0.4354
 8819SOL    HW237917   0.832   2.306   3.684  1.0865 -0.8369  2.0682
 8820SOL     OW37918   3.524   1.998   4.575 -0.4021  0.1935 -0.2092
 8820SOL    HW137919   3.610   2.019   4.540 -0.5840  0.3898 -0.5429
 8820SOL    HW237920   3.506   2.076   4.628 -2.2530  0.2638 -0.9073
 8821SOL     OW37921   4.235   1.098   4.812  0.4520  0.1496  0.0458
 8821SOL    HW137922   4.245   1.008   4.844 -1.6273  0.7700  2.4339
 8821SOL    HW237923   4.168   1.126   4.874 -0.4714  0.5278 -1.1015
 8822SOL     OW37924   3.202   4.528   6.424  0.2593 -0.1939 -0.2938
 8822SOL    HW137925   3.259   4.497   6.495  0.6885  0.4176 -0.3732
 8822SOL    HW237926   3.202   4.454   6.363 -1.6118 -0.5755  0.1386
 8823SOL     OW37927   3.985   0.992   1.821 -0.2071  0.1737  0.8153
 8823SOL    HW137928   4.030   0.933   1.760 -0.0877  0.9907  0.0999
 8823SOL    HW237929   4.025   0.958   1.900 -2.0343 -3.0070  0.3420
 8824SOL     OW37930   1.718   1.545   7.794  0.5212 -0.2001 -0.4254
 8824SOL    HW137931   1.725   1.479   7.864  1.9300 -0.1781 -0.5590
 8824SOL    HW237932   1.748   1.490   7.722 -2.7840  0.2009 -2.1138
 8825SOL     OW37933   4.345   4.166  10.435  0.4059  0.2671  0.4548
 8825SOL    HW137934   4.319   4.246  10.480  1.2164  1.0684 -0.5123
 8825SOL    HW237935   4.318   4.102  10.501 -0.8567 -0.0105 -0.3332
 8826SOL     OW37936   2.709   0.035   8.415  0.4775  0.4826  0.3637
 8826SOL    HW137937   2.797   0.036   8.377  0.4691 -0.3167  0.3232
 8826SOL    HW237938   2.704   4.674   8.458  1.4472  1.0254  1.5352
 8827SOL     OW37939   3.368   3.456   0.830 -0.4499 -0.3016  0.2078
 8827SOL    HW137940   3.361   3.364   0.858 -1.7619  0.1980  1.5484
 8827SOL    HW237941   3.332   3.490   0.912  0.7417  3.5376 -0.8809
 8828SOL     OW37942   4.697   2.591   7.696 -0.3049  0.7435  0.4454
 8828SOL    HW137943   0.028   2.655   7.742  1.0941 -0.1426  0.0456
 8828SOL    HW237944   0.041   2.524   7.681 -2.0840 -0.5209 -2.0602
 8829SOL     OW37945   0.134   1.913   4.625 -0.1862  0.0981 -0.4386
 8829SOL    HW137946   0.131   1.986   4.563 -2.4149  1.1205  0.8617
 8829SOL    HW237947   0.214   1.869   4.597  0.8032  0.0024  2.5359
 8830SOL     OW37948   0.063   4.003   5.811  0.0945 -0.3014  0.4936
 8830SOL    HW137949   0.071   3.916   5.773  1.4906 -0.7822  1.8774
 8830SOL    HW237950   0.105   4.064   5.750 -0.6264  0.8437  1.1339
 8831SOL     OW37951   4.191   3.538  12.067 -0.1188 -0.4196  0.1593
 8831SOL    HW137952   4.128   3.607  12.047 -0.0762 -0.3996  0.0900
 8831SOL    HW237953   4.275   3.583  12.054  1.6198 -3.7487 -0.2323
 8832SOL     OW37954   1.865   3.952   8.323 -0.8507  0.5617 -0.1196
 8832SOL    HW137955   1.885   4.026   8.266 -0.4074  1.0686  0.7072
 8832SOL    HW237956   1.823   3.981   8.403  0.5822  0.0301  0.8250
 8833SOL     OW37957   4.193   2.705   6.298  0.0139  0.4672  0.0291
 8833SOL    HW137958   4.221   2.640   6.233 -0.6168 -0.6173  0.8610
 8833SOL    HW237959   4.170   2.781   6.245 -0.9705  0.3778  0.3375
 8834SOL     OW37960   0.752   1.444   6.605 -0.6504 -0.0610  0.0708
 8834SOL    HW137961   0.727   1.425   6.696 -0.3208 -2.4111 -0.3179
 8834SOL    HW237962   0.820   1.508   6.625  0.4108 -1.6619  1.5864
 8835SOL     OW37963   2.007   3.186   2.619  0.0682 -0.5380  0.2965
 8835SOL    HW137964   2.085   3.221   2.576 -0.3093 -0.4517 -0.3196
 8835SOL    HW237965   2.042   3.138   2.694  0.9289 -1.1613 -0.4990
 8836SOL     OW37966   3.092   4.453   7.401 -0.5164 -0.2090  0.0057
 8836SOL    HW137967   3.071   4.496   7.319  0.7992 -1.7511 -1.1320
 8836SOL    HW237968   3.074   4.522   7.465  0.5465 -1.3514  1.5536
 8837SOL     OW37969   2.198   1.060  17.466 -0.2674  0.4406 -0.0934
 8837SOL    HW137970   2.253   0.986  17.490 -0.5807  0.6521  1.2276
 8837SOL    HW237971   2.159   1.032  17.383  2.7483 -1.4991 -0.8363
 8838SOL     OW37972   0.715   3.987   2.630  0.6244 -0.6007  0.0031
 8838SOL    HW137973   0.741   3.903   2.592  2.0250 -0.7395  1.2678
 8838SOL    HW237974   0.738   4.043   2.556 -0.9594 -0.2688 -0.2352
 8839SOL     OW37975   3.551   4.723   1.098  0.6896  0.0004  0.5708
 8839SOL    HW137976   3.584   4.666   1.168  0.0893  0.1446  0.9656
 8839SOL    HW237977   3.458   0.000   1.119  1.1414  1.0686  2.5613
 8840SOL     OW37978   0.900   0.531  11.666 -0.0301 -0.6997 -0.1805
 8840SOL    HW137979   0.980   0.517  11.717  1.1147 -0.0776 -1.7966
 8840SOL    HW237980   0.915   0.455  11.610 -0.3635 -1.1486  0.3357
 8841SOL     OW37981   4.043   2.116   2.652 -0.3111 -0.0222 -0.0379
 8841SOL    HW137982   3.976   2.152   2.709  0.8559 -0.6997  1.7493
 8841SOL    HW237983   4.117   2.114   2.713 -0.3580  1.2957  0.0553
 8842SOL     OW37984   0.108   1.771   7.568  0.0769  0.5235 -0.6769
 8842SOL    HW137985   0.194   1.731   7.557  0.0275 -0.1650  1.3142
 8842SOL    HW237986   0.069   1.759   7.482  1.7830 -1.8014 -1.1092
 8843SOL     OW37987   3.168   0.454   8.285  0.1152  0.2187 -0.0486
 8843SOL    HW137988   3.260   0.448   8.257  0.0176  1.9625 -0.7877
 8843SOL    HW237989   3.172   0.508   8.364 -2.9832  0.5161 -0.1022
 8844SOL     OW37990   3.530   0.426  14.740 -0.5632 -0.4932  0.2332
 8844SOL    HW137991   3.611   0.392  14.777  0.8263  0.2470 -2.1650
 8844SOL    HW237992   3.466   0.355  14.741 -1.2080  0.0826  0.0113
 8845SOL     OW37993   4.088   1.916   6.577 -0.1222  0.7318 -0.7643
 8845SOL    HW137994   4.101   1.849   6.645 -1.5914 -1.6350 -2.8164
 8845SOL    HW237995   4.131   1.871   6.504  3.4283  0.2608  1.5712
 8846SOL     OW37996   2.804   1.509  14.174 -0.2096  1.3802 -0.3671
 8846SOL    HW137997   2.768   1.591  14.206  0.9595  0.7684  2.4335
 8846SOL    HW237998   2.835   1.486  14.261 -1.3897  0.3005 -0.2280
 8847SOL     OW37999   3.445   3.112   7.816 -0.0849  0.0813  0.3229
 8847SOL    HW138000   3.538   3.133   7.829  0.1193 -1.1223  0.7776
 8847SOL    HW238001   3.429   3.115   7.722  0.1590 -0.0214  0.2779
 8848SOL     OW38002   1.947   2.014   3.473  0.2700 -0.3348  0.2386
 8848SOL    HW138003   1.928   2.023   3.566 -0.6981 -0.8174  0.0872
 8848SOL    HW238004   2.009   1.940   3.476  0.0920 -0.4834  0.2652
 8849SOL     OW38005   1.978   3.498   0.263 -0.0005 -0.5286  0.4048
 8849SOL    HW138006   1.923   3.570   0.233  1.1738  0.1868 -0.0248
 8849SOL    HW238007   1.970   3.437   0.190 -2.9569  0.3375  0.0304
 8850SOL     OW38008   2.774   1.238   8.023 -0.2354  0.4198  0.5537
 8850SOL    HW138009   2.763   1.235   7.928 -0.6311  2.4857  0.5314
 8850SOL    HW238010   2.694   1.191   8.047 -0.8910  0.5118 -1.5232
 8851SOL     OW38011   2.375   4.442   3.387 -0.2390  0.1280  0.4375
 8851SOL    HW138012   2.289   4.431   3.348 -0.2525 -1.0311  0.7794
 8851SOL    HW238013   2.421   4.410   3.309 -0.4171 -0.6273  0.6372
 8852SOL     OW38014   0.077   4.363   9.561 -0.0925 -0.1896  0.2141
 8852SOL    HW138015   0.034   4.285   9.598  1.6486 -1.7699 -1.0733
 8852SOL    HW238016   0.098   4.415   9.638  0.6294 -2.5102  1.5855
 8853SOL     OW38017   4.323   1.933  12.819 -0.1860  0.1513  0.4837
 8853SOL    HW138018   4.340   1.872  12.891  0.5409 -1.6331 -1.1949
 8853SOL    HW238019   4.415   1.952  12.803 -0.2075  0.5914  0.9090
 8854SOL     OW38020   2.263   0.401  12.789  0.2207  0.1548  0.0200
 8854SOL    HW138021   2.168   0.398  12.774  0.1037  0.4610  0.7376
 8854SOL    HW238022   2.271   0.495  12.773  2.9652 -0.0830  0.0650
 8855SOL     OW38023   1.246   0.940   7.498  0.1933  0.5386  0.0990
 8855SOL    HW138024   1.203   0.946   7.583 -0.3154  1.2474 -0.2058
 8855SOL    HW238025   1.262   1.034   7.494 -1.3786  0.9023  2.4352
 8856SOL     OW38026   1.119   1.590   3.448 -0.2979  0.0107  0.6030
 8856SOL    HW138027   1.205   1.555   3.427  0.4323 -0.8462  5.1176
 8856SOL    HW238028   1.091   1.614   3.360  3.6041  0.1141 -0.6062
 8857SOL     OW38029   2.160   3.587  10.288 -0.2365 -0.4272 -0.2819
 8857SOL    HW138030   2.142   3.679  10.309 -0.6609 -1.0966  2.2602
 8857SOL    HW238031   2.175   3.591  10.193  1.0405  1.0688 -0.0240
 8858SOL     OW38032   1.050   0.237  13.034  0.3153 -0.1903  0.7272
 8858SOL    HW138033   1.007   0.164  13.078  0.7212 -0.4527  0.6908
 8858SOL    HW238034   1.085   0.180  12.966 -1.6178 -0.8846  0.3130
 8859SOL     OW38035   3.743   2.620   6.710  0.5777 -0.0465 -0.1021
 8859SOL    HW138036   3.756   2.591   6.620 -1.8859  1.1991 -0.8716
 8859SOL    HW238037   3.726   2.714   6.705 -2.3164 -0.4641  1.7172
 8860SOL     OW38038   3.605   2.045  16.584  0.4739  0.4094 -0.3851
 8860SOL    HW138039   3.613   1.955  16.553 -0.3775  0.1936  0.0241
 8860SOL    HW238040   3.695   2.077  16.574  0.1741  0.5964 -2.4525
 8861SOL     OW38041   3.948   3.846  12.286 -0.3648 -0.1444 -0.4850
 8861SOL    HW138042   3.930   3.753  12.275  0.8175 -0.4562  0.1989
 8861SOL    HW238043   4.041   3.847  12.262 -0.0556 -0.6731  0.6981
 8862SOL     OW38044   0.150   0.629   9.112  0.3293 -0.3731 -0.8130
 8862SOL    HW138045   0.084   0.621   9.043  0.3631 -0.5228 -0.8280
 8862SOL    HW238046   0.120   0.700   9.169  0.4848 -2.5109  1.9653
 8863SOL     OW38047   1.523   1.172   5.583 -0.1317 -0.0105  0.3642
 8863SOL    HW138048   1.599   1.116   5.568 -0.6556 -0.7405  0.4478
 8863SOL    HW238049   1.461   1.108   5.619  0.5310  0.1991  1.8730
 8864SOL     OW38050   0.088   2.984  11.116 -0.0616 -0.3922  0.0794
 8864SOL    HW138051   0.075   3.052  11.050 -2.1601 -1.4465 -0.5823
 8864SOL    HW238052   0.169   3.016  11.156  0.1451 -0.4661 -0.2845
 8865SOL     OW38053   2.877   1.987   2.084 -0.1795  0.2893 -0.4579
 8865SOL    HW138054   2.926   1.905   2.091 -1.7366 -0.4966  1.5765
 8865SOL    HW238055   2.786   1.957   2.090 -0.8027  1.8011 -2.3932
 8866SOL     OW38056   0.165   2.970   7.900  0.2894  0.0985 -0.3123
 8866SOL    HW138057   0.144   2.917   7.977 -0.1264 -1.4755 -1.4975
 8866SOL    HW238058   0.234   3.030   7.928  0.4920 -0.1557 -0.2588
 8867SOL     OW38059   3.000   1.858  15.603  0.2832  0.6005 -0.0965
 8867SOL    HW138060   2.978   1.816  15.686  0.4712  0.2527 -0.2206
 8867SOL    HW238061   3.030   1.779  15.557 -0.7939 -0.4558  1.0073
 8868SOL     OW38062   1.998   0.944   2.693  0.3985  0.4703  0.7855
 8868SOL    HW138063   2.022   0.852   2.699 -0.6918  0.1158 -0.2994
 8868SOL    HW238064   2.044   0.965   2.612 -0.3307 -1.1366 -0.0262
 8869SOL     OW38065   0.110   1.025   2.636 -0.6984  0.5727  0.2430
 8869SOL    HW138066   0.079   0.935   2.647  1.6828 -0.2944 -0.0136
 8869SOL    HW238067   0.041   1.075   2.678  0.0091  0.9870  0.9213
 8870SOL     OW38068   0.808   2.108   4.767  0.1559  0.5830  0.1433
 8870SOL    HW138069   0.883   2.131   4.821  0.0855 -0.2575  0.5988
 8870SOL    HW238070   0.851   2.049   4.705  1.4852  1.3459  0.3373
 8871SOL     OW38071   3.199   0.375   4.717 -0.2489 -0.1466  0.1850
 8871SOL    HW138072   3.141   0.413   4.783  2.1725  0.4140  1.9742
 8871SOL    HW238073   3.248   0.331   4.786 -1.0575 -1.2177  0.0687
 8872SOL     OW38074   3.795   0.558  15.601  0.3847 -0.5154  0.4718
 8872SOL    HW138075   3.862   0.497  15.569  1.1228 -0.4085  1.7994
 8872SOL    HW238076   3.734   0.497  15.641  1.2921 -2.4115 -0.9967
 8873SOL     OW38077   0.634   2.009  11.921 -0.2409  0.1129 -0.4529
 8873SOL    HW138078   0.712   1.959  11.896 -0.1906 -0.0917  0.1101
 8873SOL    HW238079   0.573   1.937  11.940 -2.2625  1.1275 -3.1216
 8874SOL     OW38080   3.685   1.345   7.663  0.3191  0.1047  0.5103
 8874SOL    HW138081   3.710   1.320   7.752  1.1966  1.4388  0.6455
 8874SOL    HW238082   3.594   1.373   7.670  0.1904  0.1227 -1.2155
 8875SOL     OW38083   3.895   4.357   5.856 -0.2464 -0.0431  0.0278
 8875SOL    HW138084   3.921   4.440   5.816 -0.6543 -1.6974 -3.5940
 8875SOL    HW238085   3.983   4.345   5.894 -0.0332  1.2503 -0.0673
 8876SOL     OW38086   3.924   1.215   4.311 -0.0659  0.2328 -0.7014
 8876SOL    HW138087   4.008   1.248   4.280 -0.6888  0.8242 -1.7715
 8876SOL    HW238088   3.863   1.183   4.245 -2.9094 -0.9488  2.4450
 8877SOL     OW38089   4.592   0.665   1.075 -0.2775  0.2128 -0.1003
 8877SOL    HW138090   4.642   0.673   1.156  0.5178 -1.2795 -0.4434
 8877SOL    HW238091   4.574   0.571   1.072 -1.9535  0.4690  1.9599
 8878SOL     OW38092   2.041   2.462   7.832 -0.4554 -0.8966 -0.6230
 8878SOL    HW138093   2.010   2.498   7.915  0.1816 -0.7976 -0.4285
 8878SOL    HW238094   2.118   2.409   7.853 -1.1147 -3.0067 -3.5138
 8879SOL     OW38095   0.646   1.810  11.481  0.3629 -0.0112  0.2806
 8879SOL    HW138096   0.723   1.770  11.523  0.6447 -0.2920 -0.4944
 8879SOL    HW238097   0.653   1.770  11.394 -1.3078  0.7914 -0.2099
 8880SOL     OW38098   3.266   2.513   5.512 -0.0716  0.3234 -1.0306
 8880SOL    HW138099   3.351   2.472   5.496 -1.0515 -1.4031 -1.7715
 8880SOL    HW238100   3.274   2.600   5.473  0.9148  1.1751  1.0899
 8881SOL     OW38101   1.697   4.229   5.722 -0.2585 -0.0091  0.3651
 8881SOL    HW138102   1.642   4.236   5.800  2.8583  1.6308  2.3701
 8881SOL    HW238103   1.705   4.323   5.706  2.5272  0.0299  2.2071
 8882SOL     OW38104   2.766   2.206   4.661  0.4419  0.1851 -0.3502
 8882SOL    HW138105   2.784   2.131   4.719  0.3889  3.1960  3.5798
 8882SOL    HW238106   2.771   2.180   4.569 -0.2952  1.1675 -0.6587
 8883SOL     OW38107   0.456   1.569   4.131  0.2174  0.2960 -0.2452
 8883SOL    HW138108   0.392   1.640   4.130  0.1139  0.2043  0.2009
 8883SOL    HW238109   0.526   1.595   4.070 -1.4300  0.4671 -2.0638
 8884SOL     OW38110   1.448   0.932   1.488  0.5529 -0.7631  0.0270
 8884SOL    HW138111   1.485   0.932   1.399 -0.3211  0.0900 -0.3318
 8884SOL    HW238112   1.515   0.985   1.531  1.3271  0.7056 -2.9755
 8885SOL     OW38113   0.950   0.651  12.254 -0.5630  0.2880  0.1192
 8885SOL    HW138114   0.936   0.569  12.301  0.3845 -0.7041 -1.2988
 8885SOL    HW238115   1.022   0.616  12.200 -1.7302  1.0308 -1.9179
 8886SOL     OW38116   4.696   3.946   2.593 -0.5904  0.3194  0.1966
 8886SOL    HW138117   0.041   4.013   2.595 -0.1213 -0.1482 -0.2000
 8886SOL    HW238118   4.637   3.977   2.662 -0.2020  0.0717  0.6399
 8887SOL     OW38119   1.391   1.484   3.417  0.1570  0.0932  0.3168
 8887SOL    HW138120   1.432   1.420   3.475 -0.1805 -0.4074 -0.0008
 8887SOL    HW238121   1.404   1.569   3.459  0.3830 -0.1718  0.7761
 8888SOL     OW38122   0.109   3.385   7.095 -0.0951  0.1489 -0.9756
 8888SOL    HW138123   0.052   3.438   7.151  1.9084  1.2492  0.0099
 8888SOL    HW238124   0.076   3.413   7.009  0.7468 -3.4762 -2.4970
 8889SOL     OW38125   1.767   0.347   9.001 -0.2478  0.9092 -0.2038
 8889SOL    HW138126   1.716   0.421   9.034  0.5851  0.3538  2.3208
 8889SOL    HW238127   1.707   0.298   8.945  1.5382 -1.5945  0.0730
 8890SOL     OW38128   1.180   0.847   5.294 -0.2406 -0.2334  0.6802
 8890SOL    HW138129   1.158   0.834   5.387 -2.9378  0.1956  0.0987
 8890SOL    HW238130   1.186   0.757   5.260 -0.9410  0.1962 -0.5694
 8891SOL     OW38131   2.261   3.352   4.163 -0.4842  0.6868 -0.0933
 8891SOL    HW138132   2.223   3.382   4.245 -0.8127  2.4119 -0.8834
 8891SOL    HW238133   2.238   3.259   4.171  1.1512  0.2997  0.0370
 8892SOL     OW38134   4.618   2.060  15.414 -0.0988 -0.1818  0.1433
 8892SOL    HW138135   4.638   2.092  15.502  1.9702 -2.1985  0.4193
 8892SOL    HW238136   4.556   2.122  15.375  0.5646  0.4449  0.0913
 8893SOL     OW38137   0.325   1.789   7.302  0.1982 -0.0268  0.0601
 8893SOL    HW138138   0.243   1.743   7.288  0.0333  0.6192 -1.0663
 8893SOL    HW238139   0.380   1.711   7.300  0.9942  0.5826 -2.1333
 8894SOL     OW38140   1.933   3.925   9.131  0.5000 -0.2654 -0.3893
 8894SOL    HW138141   1.853   3.955   9.174  0.9324  1.5498 -0.8811
 8894SOL    HW238142   1.934   3.835   9.164  1.6203 -0.1871 -0.1959
 8895SOL     OW38143   0.419   3.857   0.886  0.3104  0.2483  0.3107
 8895SOL    HW138144   0.453   3.933   0.838  2.4855 -1.2591 -0.5118
 8895SOL    HW238145   0.364   3.901   0.951  2.1861  1.6653  0.9109
 8896SOL     OW38146   2.195   3.750  10.059 -0.2783  0.0688 -0.2609
 8896SOL    HW138147   2.246   3.694  10.001 -0.0557  0.4703 -0.4515
 8896SOL    HW238148   2.252   3.827  10.051 -0.1084  0.0489  0.7658
 8897SOL     OW38149   1.758   2.741   2.830 -0.5654  0.8307  0.3989
 8897SOL    HW138150   1.785   2.833   2.827 -1.0248  0.9308 -0.6335
 8897SOL    HW238151   1.757   2.727   2.925  0.3161  0.3159  0.3289
 8898SOL     OW38152   0.223   3.111   9.537  0.0059 -0.6469 -0.2839
 8898SOL    HW138153   0.204   3.185   9.479  0.2450 -0.4080 -0.0545
 8898SOL    HW238154   0.318   3.113   9.542  0.0423 -3.6160  0.1911
 8899SOL     OW38155   1.523   4.521  10.497 -0.2124  0.0486 -0.3147
 8899SOL    HW138156   1.478   4.598  10.462  2.5364  0.7410 -2.3746
 8899SOL    HW238157   1.576   4.494  10.422 -0.5516  0.5630 -0.7345
 8900SOL     OW38158   0.364   3.060   6.640 -0.0736  0.2601 -0.1868
 8900SOL    HW138159   0.271   3.061   6.662 -0.2399 -2.1926 -0.8024
 8900SOL    HW238160   0.396   3.102   6.720 -1.0180  0.8458 -0.1245
 8901SOL     OW38161   0.862   1.161   2.550  0.1198  0.1313 -0.3304
 8901SOL    HW138162   0.863   1.217   2.627 -1.7473  0.5537 -0.5974
 8901SOL    HW238163   0.817   1.216   2.485  0.0810  1.9530  1.2577
 8902SOL     OW38164   0.292   1.979  13.339 -0.2088  0.2770  0.2464
 8902SOL    HW138165   0.369   1.988  13.395 -0.0936 -1.3727  0.3386
 8902SOL    HW238166   0.217   2.007  13.392 -2.4215  0.0833 -2.7511
 8903SOL     OW38167   0.348   4.456   8.105 -0.1947 -0.1507  0.0706
 8903SOL    HW138168   0.290   4.467   8.179  0.8337 -1.8277  1.1363
 8903SOL    HW238169   0.286   4.470   8.033 -1.7197  0.7629  1.5882
 8904SOL     OW38170   1.137   2.309   5.966 -0.2172 -0.0801 -0.2688
 8904SOL    HW138171   1.063   2.252   5.983  1.3796 -2.3541 -0.9860
 8904SOL    HW238172   1.153   2.279   5.877 -0.6827 -0.2569 -0.2903
 8905SOL     OW38173   4.718   3.366   1.181  0.1777 -0.0292 -0.4881
 8905SOL    HW138174   0.079   3.397   1.146  0.3040  0.1018 -0.0711
 8905SOL    HW238175   4.691   3.436   1.240  1.0395 -1.5673  1.7457
 8906SOL     OW38176   1.063   4.713   5.758  0.6572  0.2705 -0.8353
 8906SOL    HW138177   1.067   4.622   5.729  1.7090  0.0827 -0.1051
 8906SOL    HW238178   1.133   4.706   5.823  2.1575  1.2332 -2.3429
 8907SOL     OW38179   3.135   1.099   5.943  0.2059  0.3254 -0.5292
 8907SOL    HW138180   3.138   1.033   5.874  0.8729  0.9509 -1.1038
 8907SOL    HW238181   3.225   1.095   5.976  0.0705 -1.8164 -0.4190
 8908SOL     OW38182   0.603   3.700  11.509 -0.5874 -0.1651 -0.3210
 8908SOL    HW138183   0.518   3.728  11.543  0.3569  0.7472  1.3134
 8908SOL    HW238184   0.663   3.730  11.577 -2.5557  1.5460  0.6568
 8909SOL     OW38185   0.616   2.947   3.729  0.1807 -0.2197 -0.1758
 8909SOL    HW138186   0.705   2.943   3.694  0.8581 -3.3663  1.9163
 8909SOL    HW238187   0.577   2.916   3.648 -0.1242  1.8115 -0.8018
 8910SOL     OW38188   3.248   4.011   2.703  0.0058  0.1120  0.1210
 8910SOL    HW138189   3.270   3.944   2.768 -1.3413 -0.3347  0.1091
 8910SOL    HW238190   3.269   3.976   2.617  2.6047  0.4935  0.6043
 8911SOL     OW38191   1.685   2.546   4.397  0.1778  0.1004 -0.0747
 8911SOL    HW138192   1.635   2.473   4.434  1.4201 -0.4255  0.5789
 8911SOL    HW238193   1.761   2.498   4.365  1.3500  2.4144 -0.6704
 8912SOL     OW38194   3.340   2.046   7.456  0.4160  0.6399  0.4119
 8912SOL    HW138195   3.299   2.130   7.437  0.4527  0.6509  0.3797
 8912SOL    HW238196   3.319   2.029   7.548 -1.2309 -0.1722 -0.1112
 8913SOL     OW38197   2.923   2.897  12.190 -0.2725  0.3596 -0.0601
 8913SOL    HW138198   2.933   2.991  12.205  0.4319  0.1845  0.5234
 8913SOL    HW238199   3.009   2.864  12.165  0.1665  1.0842  0.4823
 8914SOL     OW38200   1.986   1.774   8.699 -0.8509 -0.1646  0.1611
 8914SOL    HW138201   1.910   1.760   8.754 -0.2015  4.9810  2.3648
 8914SOL    HW238202   1.971   1.719   8.622  0.4815  0.4620 -0.5512
 8915SOL     OW38203   2.610   4.016   3.392  0.3165 -0.6947 -0.2888
 8915SOL    HW138204   2.660   3.956   3.447 -0.5409 -0.5938  0.5940
 8915SOL    HW238205   2.681   4.048   3.336 -1.3320  2.3371 -0.6397
 8916SOL     OW38206   0.315   1.485   3.038 -0.3973 -1.2033  0.1295
 8916SOL    HW138207   0.330   1.435   2.958  2.1054  2.1633 -1.4939
 8916SOL    HW238208   0.262   1.421   3.085 -0.0043 -0.5557  1.4625
 8917SOL     OW38209   2.340   0.661   8.849  0.5647 -0.1423 -0.1196
 8917SOL    HW138210   2.282   0.593   8.815 -1.0909  0.4753  1.4991
 8917SOL    HW238211   2.395   0.674   8.772 -2.0237  2.4683 -1.5764
 8918SOL     OW38212   3.330   2.993   4.959 -0.3438 -0.1336  0.8920
 8918SOL    HW138213   3.252   2.971   4.909  1.2477 -1.8190 -0.8664
 8918SOL    HW238214   3.329   2.924   5.025 -0.7646 -0.7102  0.2780
 8919SOL     OW38215   0.610   0.292   6.429 -0.0000 -0.6026  0.2943
 8919SOL    HW138216   0.665   0.279   6.506  1.8782 -3.2528 -1.5528
 8919SOL    HW238217   0.642   0.377   6.397 -0.9984  0.1644  1.3163
 8920SOL     OW38218   3.071   1.314  14.355 -0.0468 -0.2690  0.0893
 8920SOL    HW138219   3.111   1.322  14.441 -0.9394  0.9270  0.3942
 8920SOL    HW238220   2.987   1.355  14.374 -0.2943 -1.1005  0.8037
 8921SOL     OW38221   2.330   2.515   5.301 -0.1004  0.2087  0.0510
 8921SOL    HW138222   2.338   2.517   5.206 -0.0534 -1.8579  0.0134
 8921SOL    HW238223   2.376   2.593   5.333 -2.4266  1.3825  0.4840
 8922SOL     OW38224   3.313   0.506   6.603 -0.7984  0.6022  0.1484
 8922SOL    HW138225   3.229   0.460   6.609 -0.9654  0.7363 -1.2211
 8922SOL    HW238226   3.363   0.460   6.671  0.4599  0.8095 -0.6420
 8923SOL     OW38227   1.148   0.115   6.488 -0.2701 -0.2280  0.5747
 8923SOL    HW138228   1.129   0.042   6.546 -1.6663 -2.6364 -2.9446
 8923SOL    HW238229   1.073   0.121   6.429 -1.7016  0.3147  2.4811
 8924SOL     OW38230   2.956   3.309   9.186  0.2435  0.0625  0.6461
 8924SOL    HW138231   3.022   3.259   9.234  0.8767  0.2705 -0.0030
 8924SOL    HW238232   2.964   3.399   9.218  0.1529  0.7398 -1.2422
 8925SOL     OW38233   4.062   0.241   4.156  0.4913 -0.6231 -0.0514
 8925SOL    HW138234   4.018   0.279   4.080 -1.8556 -1.1447  1.0591
 8925SOL    HW238235   4.059   0.312   4.221 -0.7328  1.1056 -1.9936
 8926SOL     OW38236   3.431   1.626  16.548  0.2586 -0.6698  0.1239
 8926SOL    HW138237   3.480   1.698  16.508 -0.5873  0.0258  0.3500
 8926SOL    HW238238   3.473   1.618  16.633  1.6248  3.2536 -0.1878
 8927SOL     OW38239   0.364   1.568  14.581  0.1581  0.0815  0.0935
 8927SOL    HW138240   0.404   1.505  14.641 -0.5730  0.2526  0.7729
 8927SOL    HW238241   0.438   1.599  14.530 -0.3435 -0.3416 -0.8827
 8928SOL     OW38242   0.397   4.189  14.012  0.0060 -0.1989  0.3218
 8928SOL    HW138243   0.367   4.158  14.097  0.8055 -2.4094 -0.1866
 8928SOL    HW238244   0.316   4.225  13.975  0.3761 -1.6859 -1.9831
 8929SOL     OW38245   1.166   0.594   5.075 -0.2703 -0.1985 -0.1249
 8929SOL    HW138246   1.189   0.509   5.114  1.1322  1.1071  1.9233
 8929SOL    HW238247   1.080   0.613   5.112 -0.7067  0.4137 -1.4807
 8930SOL     OW38248   3.212   4.041  16.334  0.0178  0.1715  0.1134
 8930SOL    HW138249   3.210   4.125  16.289 -1.1822  0.9859  1.6720
 8930SOL    HW238250   3.236   4.068  16.422  1.4520 -0.2695 -0.1398
 8931SOL     OW38251   0.559   4.425  13.105  0.5807  0.1268  0.1711
 8931SOL    HW138252   0.538   4.345  13.057 -0.7057  1.4237 -1.4044
 8931SOL    HW238253   0.494   4.413  13.174 -1.7525  2.2481 -1.6760
 8932SOL     OW38254   1.736   0.728   6.657  0.2639 -0.7329 -0.0642
 8932SOL    HW138255   1.810   0.694   6.708  1.0415  2.3021  0.8384
 8932SOL    HW238256   1.675   0.656   6.673 -1.6511  0.9898  0.4184
 8933SOL     OW38257   1.302   3.301   5.153  0.3401  0.0080  0.0948
 8933SOL    HW138258   1.240   3.259   5.093 -0.1134  2.0052 -0.8117
 8933SOL    HW238259   1.304   3.234   5.221  0.3371  0.3161  0.3979
 8934SOL     OW38260   1.475   3.970   1.157  0.1911  0.3643  0.4526
 8934SOL    HW138261   1.548   3.915   1.128 -1.1943 -1.0190 -0.4447
 8934SOL    HW238262   1.518   4.006   1.235  0.2104  2.4918 -0.5425
 8935SOL     OW38263   1.211   2.776   9.705 -0.2106 -0.6595 -0.1654
 8935SOL    HW138264   1.170   2.851   9.749  2.2290  0.1070  0.8297
 8935SOL    HW238265   1.144   2.711   9.722 -0.1335 -0.0907  2.3132
 8936SOL     OW38266   1.090   3.836   8.714  0.2284 -0.3152  0.2687
 8936SOL    HW138267   1.100   3.805   8.804 -0.2757 -1.2511  0.0063
 8936SOL    HW238268   1.181   3.832   8.685  0.3366  0.1093  0.5699
 8937SOL     OW38269   2.679   0.632   3.070  0.1430  0.6142 -0.1207
 8937SOL    HW138270   2.621   0.556   3.058 -0.6750  1.1230  0.6663
 8937SOL    HW238271   2.739   0.603   3.139  1.2382  0.8295 -0.9687
 8938SOL     OW38272   1.933   2.091   5.959 -0.8607 -0.0067 -0.1339
 8938SOL    HW138273   1.954   2.164   5.901  2.6962 -0.2259  0.8262
 8938SOL    HW238274   1.881   2.034   5.903 -0.9260 -0.9842  0.9163
 8939SOL     OW38275   2.952   4.393   8.077 -0.3992  0.0696 -0.8185
 8939SOL    HW138276   3.045   4.370   8.068 -0.2815 -0.0422  0.6415
 8939SOL    HW238277   2.923   4.333   8.146 -1.5956 -0.5321 -1.8611
 8940SOL     OW38278   3.133   3.495   4.217 -0.1023  0.5031 -0.0704
 8940SOL    HW138279   3.134   3.439   4.294 -1.1296  3.0568  1.7670
 8940SOL    HW238280   3.204   3.460   4.162  0.7680  1.3674  0.5213
 8941SOL     OW38281   3.847   4.079   5.757 -0.3377 -0.2979  0.2785
 8941SOL    HW138282   3.938   4.065   5.732 -0.3719  1.2575 -0.7544
 8941SOL    HW238283   3.848   4.163   5.802 -1.8607  0.5944 -1.3365
 8942SOL     OW38284   0.556   2.844   7.942 -0.1170  0.0137 -0.3965
 8942SOL    HW138285   0.546   2.797   8.025 -0.8166  0.6979 -0.0876
 8942SOL    HW238286   0.531   2.786   7.870  0.7391  1.0940 -1.5679
 8943SOL     OW38287   3.525   0.709  10.108  0.3876  0.0741  0.5826
 8943SOL    HW138288   3.491   0.701  10.197  2.2070  2.8750  1.5294
 8943SOL    HW238289   3.596   0.765  10.140  0.8397 -0.0311 -0.2547
 8944SOL     OW38290   4.428   4.190   1.257  0.1678 -0.1326 -0.3574
 8944SOL    HW138291   4.497   4.212   1.195  0.8020 -0.9217  0.0733
 8944SOL    HW238292   4.446   4.269   1.309  0.8776 -1.4428  1.3943
 8945SOL     OW38293   3.829   1.201   1.652 -0.0984 -0.5802  0.3492
 8945SOL    HW138294   3.880   1.145   1.710  1.1953  0.7046  0.4518
 8945SOL    HW238295   3.749   1.148   1.647 -0.5417  0.3132 -2.3333
 8946SOL     OW38296   3.075   1.834   1.335  0.1535 -0.2242 -0.4930
 8946SOL    HW138297   3.090   1.777   1.259  0.9420  0.4966 -0.8734
 8946SOL    HW238298   3.119   1.785   1.404  2.6226  1.6475 -0.7278
 8947SOL     OW38299   3.953   3.682   7.344 -0.5240  0.3763  0.4650
 8947SOL    HW138300   4.030   3.629   7.362  0.3426  0.7473 -2.0756
 8947SOL    HW238301   3.954   3.739   7.421  0.5653  1.5082 -0.3750
 8948SOL     OW38302   0.486   0.426  16.310 -0.2763 -0.7485 -0.1462
 8948SOL    HW138303   0.434   0.458  16.384 -0.6642  1.3734 -1.3276
 8948SOL    HW238304   0.440   0.352  16.271 -0.7398  0.1375 -1.2714
 8949SOL     OW38305   1.369   3.950   3.242  0.0017  0.5140  0.1436
 8949SOL    HW138306   1.411   3.868   3.217  0.1961  0.3492  1.0096
 8949SOL    HW238307   1.404   3.952   3.331  0.9047  0.0311 -0.1997
 8950SOL     OW38308   0.680   0.511   0.805 -0.2304  0.2814 -0.5489
 8950SOL    HW138309   0.608   0.491   0.866  0.2736 -0.5277 -0.2212
 8950SOL    HW238310   0.738   0.435   0.805 -2.2611 -1.2551  0.2804
 8951SOL     OW38311   1.618   4.336   1.150  0.0309  0.3346 -0.0609
 8951SOL    HW138312   1.581   4.420   1.176  0.6820  0.2007  1.2977
 8951SOL    HW238313   1.702   4.332   1.196 -0.1962 -0.1401  0.3113
 8952SOL     OW38314   4.120   1.474   2.617  0.4569 -0.4906  0.1120
 8952SOL    HW138315   4.028   1.500   2.622  1.2436  2.6535 -1.9701
 8952SOL    HW238316   4.111   1.411   2.545 -1.2816 -0.2466  0.1184
 8953SOL     OW38317   4.229   2.077   8.952 -0.3839 -0.1699 -0.4686
 8953SOL    HW138318   4.212   2.086   8.858  0.2106  2.7141 -0.3008
 8953SOL    HW238319   4.320   2.108   8.958 -1.1750  1.9736  0.2402
 8954SOL     OW38320   2.103   0.879  14.068 -0.5822 -0.4317 -0.1323
 8954SOL    HW138321   2.033   0.913  14.012  1.2671 -1.9075 -3.3468
 8954SOL    HW238322   2.145   0.823  14.002  0.5338  1.2319 -0.8124
 8955SOL     OW38323   2.568   3.532  13.898 -0.1111 -0.1805 -0.3200
 8955SOL    HW138324   2.544   3.520  13.990 -0.9067 -0.9352 -0.6255
 8955SOL    HW238325   2.586   3.624  13.883 -0.9714 -0.0421 -0.4545
 8956SOL     OW38326   0.179   3.869   4.550 -0.2301  0.2959  0.1824
 8956SOL    HW138327   0.084   3.880   4.543 -0.3019  0.0798  0.8007
 8956SOL    HW238328   0.204   3.944   4.496  0.8071  1.4710  2.2969
 8957SOL     OW38329   4.545   2.263   3.509  0.5109 -0.4609 -0.1317
 8957SOL    HW138330   4.565   2.295   3.597  2.7970  0.2630 -0.8978
 8957SOL    HW238331   4.580   2.341   3.467 -0.0693 -0.2030 -0.1332
 8958SOL     OW38332   2.286   2.627  11.794 -0.3167  0.2246 -0.1972
 8958SOL    HW138333   2.346   2.614  11.720 -0.9453 -1.5976 -0.3755
 8958SOL    HW238334   2.219   2.675  11.745 -0.4449  0.0883 -0.1544
 8959SOL     OW38335   3.084   4.132   3.938  0.0856 -0.0963  0.4170
 8959SOL    HW138336   3.016   4.065   3.942  0.6165 -0.8851 -3.9019
 8959SOL    HW238337   3.159   4.072   3.936  0.8792  0.9263 -0.5556
 8960SOL     OW38338   1.731   2.125   7.559 -0.6905  0.1478 -0.4209
 8960SOL    HW138339   1.749   2.190   7.626  2.1755 -0.1854 -0.8729
 8960SOL    HW238340   1.643   2.097   7.585  0.8090 -4.0076  0.1762
 8961SOL     OW38341   3.460   1.217   8.512  0.0570 -0.3390  0.3230
 8961SOL    HW138342   3.451   1.153   8.441 -0.2518  0.5866 -0.4939
 8961SOL    HW238343   3.368   1.236   8.531 -0.5608  0.0087 -2.9889
 8962SOL     OW38344   0.983   2.069  12.625  0.3811  0.0257  0.0870
 8962SOL    HW138345   1.006   1.976  12.628  1.2599  0.2314 -0.2449
 8962SOL    HW238346   0.891   2.069  12.651  0.6998  2.4449  1.2442
 8963SOL     OW38347   4.221   0.542  13.694  0.3024  0.7744 -0.2239
 8963SOL    HW138348   4.208   0.447  13.701  2.2126  0.6143  1.0451
 8963SOL    HW238349   4.281   0.565  13.765 -1.7683 -0.7134  2.0359
 8964SOL     OW38350   2.798   0.776   1.073  0.0695  0.2360 -0.4310
 8964SOL    HW138351   2.893   0.783   1.067  0.2703 -1.1402  1.2331
 8964SOL    HW238352   2.793   0.720   1.150 -0.9836  2.1799  0.9337
 8965SOL     OW38353   0.347   4.518   1.745 -0.2286 -0.0483 -0.0144
 8965SOL    HW138354   0.334   4.486   1.834  0.2681 -0.6820 -0.1703
 8965SOL    HW238355   0.423   4.461   1.728 -0.3602 -0.0357 -0.6397
 8966SOL     OW38356   0.921   1.448   4.730  0.0470  0.4830 -0.4199
 8966SOL    HW138357   0.992   1.508   4.753  0.2111  0.8170 -1.7461
 8966SOL    HW238358   0.979   1.390   4.679  0.2020  0.2366  0.0368
 8967SOL     OW38359   4.241   3.186   5.581  0.0828  0.0190  0.7116
 8967SOL    HW138360   4.270   3.148   5.498 -0.4674  1.8197 -0.2872
 8967SOL    HW238361   4.180   3.255   5.557 -1.1026 -1.5630 -0.7994
 8968SOL     OW38362   1.313   0.916   3.132  0.1816  0.2903 -0.0023
 8968SOL    HW138363   1.254   0.860   3.081  0.5585 -0.2926  0.2063
 8968SOL    HW238364   1.248   0.979   3.163  1.0480  1.8842 -1.4542
 8969SOL     OW38365   4.138   3.125   3.795  0.2234  0.6548 -0.3630
 8969SOL    HW138366   4.070   3.095   3.855 -1.5789  2.5163 -1.4623
 8969SOL    HW238367   4.187   3.045   3.780  1.3919  1.1062  1.0366
 8970SOL     OW38368   2.114   1.128   2.159  0.3302 -0.9469 -0.1123
 8970SOL    HW138369   2.149   1.217   2.167 -0.0005 -0.5701 -2.8159
 8970SOL    HW238370   2.022   1.137   2.185  0.9437  2.5284  0.9228
 8971SOL     OW38371   3.604   0.431   7.267 -0.4401 -0.4616 -0.0940
 8971SOL    HW138372   3.575   0.386   7.347  0.2968  0.5787  0.7580
 8971SOL    HW238373   3.698   0.417   7.281 -0.7492  1.1040  3.4491
 8972SOL     OW38374   4.589   4.334   5.876 -0.2809  0.2454  0.4444
 8972SOL    HW138375   4.627   4.308   5.960  0.4032 -1.4673 -0.3803
 8972SOL    HW238376   4.495   4.317   5.873 -0.0542 -0.8067 -0.9009
 8973SOL     OW38377   1.755   1.296   7.908 -0.0825 -0.0809 -0.0164
 8973SOL    HW138378   1.806   1.305   7.828  2.3611 -0.5109  1.4834
 8973SOL    HW238379   1.820   1.250   7.961  1.1256  1.7569  0.1015
 8974SOL     OW38380   3.308   3.492   5.885 -0.0925  0.8864 -0.5415
 8974SOL    HW138381   3.366   3.541   5.943  0.4844  1.4608 -1.5967
 8974SOL    HW238382   3.248   3.563   5.861 -0.3841  1.4018  1.6880
 8975SOL     OW38383   2.380   2.227  12.876  0.2949  0.3696 -0.1395
 8975SOL    HW138384   2.463   2.225  12.924  0.9267 -2.2759 -1.3107
 8975SOL    HW238385   2.406   2.179  12.798  1.9237  0.9609  0.0378
 8976SOL     OW38386   2.420   2.982   4.226  0.0438  0.5809 -0.0260
 8976SOL    HW138387   2.353   2.917   4.250  0.4942 -0.0033 -0.3500
 8976SOL    HW238388   2.397   2.979   4.133  0.2606 -1.6765 -0.0008
 8977SOL     OW38389   1.946   1.845   5.349  0.6134  0.3577 -0.1347
 8977SOL    HW138390   1.984   1.930   5.328 -0.6083  1.0242  0.3892
 8977SOL    HW238391   1.986   1.789   5.282 -0.7342 -3.0360  1.8959
 8978SOL     OW38392   1.520   0.691  11.093  0.2899  0.3712 -0.3087
 8978SOL    HW138393   1.570   0.772  11.106  2.3760 -1.0874  0.6982
 8978SOL    HW238394   1.503   0.672  11.185  1.4270  0.2438 -0.1274
 8979SOL     OW38395   2.874   0.506   4.315  0.0159 -0.1420  0.1112
 8979SOL    HW138396   2.954   0.469   4.351  1.5701  1.5853 -1.5376
 8979SOL    HW238397   2.812   0.437   4.338  1.3874 -0.9441  1.3928
 8980SOL     OW38398   3.001   0.127  13.373  0.1999  0.1427 -0.0111
 8980SOL    HW138399   3.070   0.100  13.434  0.5713  1.9640  0.3654
 8980SOL    HW238400   2.966   0.202  13.422  0.5120 -0.4180  1.0825
 8981SOL     OW38401   1.661   1.947   2.266  0.3290  0.1157 -0.2789
 8981SOL    HW138402   1.599   2.005   2.222  2.3695  1.0622 -1.9022
 8981SOL    HW238403   1.739   2.001   2.252 -0.2429  1.0179  0.0331
 8982SOL     OW38404   3.771   3.399  13.362  0.0420  0.0664 -0.0807
 8982SOL    HW138405   3.733   3.457  13.428  0.2842 -0.9959  0.9968
 8982SOL    HW238406   3.724   3.436  13.288 -1.2699 -0.4396  0.4944
 8983SOL     OW38407   3.620   0.785   1.845 -0.7202  0.0143  0.1067
 8983SOL    HW138408   3.540   0.749   1.805 -0.5568 -0.0073 -0.2068
 8983SOL    HW238409   3.664   0.789   1.760  0.5924 -0.2049  0.7786
 8984SOL     OW38410   2.629   1.497   9.019 -0.2387  0.6316  0.3901
 8984SOL    HW138411   2.663   1.447   8.945 -0.0446 -0.4145  1.1877
 8984SOL    HW238412   2.600   1.578   8.976  0.6069  1.2279  0.9331
 8985SOL     OW38413   1.639   3.970   9.697 -0.6040  0.1418 -0.8571
 8985SOL    HW138414   1.690   4.025   9.639 -0.9616  0.6260 -0.7092
 8985SOL    HW238415   1.624   4.033   9.767  1.4199 -2.1884  1.6722
 8986SOL     OW38416   1.379   1.237   4.521 -0.0767 -0.1964 -0.0165
 8986SOL    HW138417   1.403   1.323   4.486  0.9455 -0.5045 -0.0749
 8986SOL    HW238418   1.407   1.194   4.440  2.5036  0.5768  0.4843
 8987SOL     OW38419   4.240   2.220   3.065  0.0478 -0.2602  0.1331
 8987SOL    HW138420   4.335   2.230   3.070  0.2740 -0.5799 -3.4575
 8987SOL    HW238421   4.232   2.195   2.973 -0.6392  0.8650 -0.1175
 8988SOL     OW38422   3.581   3.928  13.559  0.4754 -0.2116 -0.4150
 8988SOL    HW138423   3.500   3.877  13.559  1.0881 -1.1574 -2.9615
 8988SOL    HW238424   3.654   3.868  13.577  0.3851 -0.1747  0.0833
 8989SOL     OW38425   0.672   0.809   5.063  0.0664 -0.7929 -1.0337
 8989SOL    HW138426   0.767   0.805   5.057  0.1085 -0.4664 -0.5873
 8989SOL    HW238427   0.648   0.726   5.021 -0.0582 -1.1633 -0.2305
 8990SOL     OW38428   1.827   1.578   0.424 -0.4985  0.7635  0.1088
 8990SOL    HW138429   1.911   1.625   0.422  0.1035 -0.3747 -1.1080
 8990SOL    HW238430   1.859   1.489   0.434  1.8919  1.6331  0.1979
 8991SOL     OW38431   1.978   3.908   8.827 -0.3175  0.2780 -0.2397
 8991SOL    HW138432   2.004   3.862   8.906  0.4696  3.2275  1.2235
 8991SOL    HW238433   2.022   3.992   8.840 -1.2014  0.7824 -0.5272
 8992SOL     OW38434   1.241   3.032  14.658  0.2407 -0.1827 -0.3713
 8992SOL    HW138435   1.177   2.962  14.673 -0.8971  1.1812  1.0814
 8992SOL    HW238436   1.215   3.106  14.712 -0.8393  0.3047 -1.5723
 8993SOL     OW38437   3.056   4.457   5.054  0.1796 -0.1981 -0.1641
 8993SOL    HW138438   3.106   4.538   5.055 -1.8333  1.0960 -2.0995
 8993SOL    HW238439   3.062   4.436   5.147 -0.5518 -0.7974 -0.2507
 8994SOL     OW38440   0.594   1.469   5.406  0.4101 -0.2524  0.4546
 8994SOL    HW138441   0.607   1.564   5.415  3.7860 -0.8106  1.2667
 8994SOL    HW238442   0.618   1.463   5.313 -0.6717  0.7818  0.0967
 8995SOL     OW38443   0.173   1.876  15.471  0.3220  0.2452  0.2278
 8995SOL    HW138444   0.194   1.793  15.429  0.3209  0.9796 -1.2369
 8995SOL    HW238445   0.106   1.912  15.412  0.7478 -2.6224 -1.9953
 8996SOL     OW38446   3.042   3.330   8.020 -0.0909 -0.1598  0.7071
 8996SOL    HW138447   3.037   3.408   8.075  2.2783 -0.3849  1.2374
 8996SOL    HW238448   3.084   3.274   8.084  2.4912  1.1490  0.1481
 8997SOL     OW38449   0.831   4.331   7.609  0.3474 -0.6034  0.5363
 8997SOL    HW138450   0.901   4.378   7.564  0.4704  0.7602  2.1522
 8997SOL    HW238451   0.863   4.320   7.698  1.3753 -0.8961  0.1254
 8998SOL     OW38452   0.134   3.855   2.992  0.0357  0.5354 -0.3711
 8998SOL    HW138453   0.085   3.789   3.041 -0.6552 -0.6184 -2.6154
 8998SOL    HW238454   0.123   3.830   2.900  1.3473  0.2740 -0.4610
 8999SOL     OW38455   1.836   3.684   0.132 -0.0184 -0.5271  0.3781
 8999SOL    HW138456   1.812   3.714   0.220 -1.8785 -1.0257  0.0396
 8999SOL    HW238457   1.830   3.769   0.089 -0.2190 -0.9983 -0.5268
 9000SOL     OW38458   2.945   0.569   8.647 -0.0791 -0.2415 -0.0774
 9000SOL    HW138459   2.937   0.491   8.592 -0.1010 -1.9312  2.3530
 9000SOL    HW238460   2.900   0.545   8.728  1.2392 -1.5997  0.2524
 9001SOL     OW38461   0.929   3.311  17.606 -0.0667  0.5460  0.1132
 9001SOL    HW138462   0.882   3.317  17.689 -0.5030  1.3886 -0.1894
 9001SOL    HW238463   0.857   3.317  17.543  0.7023 -1.4037 -0.9314
 9002SOL     OW38464   0.320   4.105  15.183  0.7175 -0.6554  0.1362
 9002SOL    HW138465   0.376   4.162  15.130  0.6176  0.8609  1.6847
 9002SOL    HW238466   0.262   4.167  15.227  2.3005  0.9986 -0.1197
 9003SOL     OW38467   0.728   1.429  14.652 -0.2343 -0.0126 -0.2849
 9003SOL    HW138468   0.805   1.382  14.618  0.1556 -0.3061  0.9936
 9003SOL    HW238469   0.706   1.491  14.583 -0.4371 -0.7141 -0.8614
 9004SOL     OW38470   0.641   0.353   8.166  0.1228  0.3919  0.5015
 9004SOL    HW138471   0.619   0.262   8.146  1.0396 -0.1616  1.9592
 9004SOL    HW238472   0.634   0.401   8.084  0.8027 -0.0830  0.1670
 9005SOL     OW38473   2.363   0.273   7.873  0.6432 -0.5434 -0.2899
 9005SOL    HW138474   2.315   0.190   7.868 -0.3007  0.0519 -1.2347
 9005SOL    HW238475   2.290   0.333   7.857  1.0035  0.0258  0.2197
 9006SOL     OW38476   3.248   2.545   8.529  0.0612  0.1083 -0.2973
 9006SOL    HW138477   3.309   2.570   8.460 -0.0945 -0.6050 -0.6923
 9006SOL    HW238478   3.303   2.482   8.574 -1.2354 -0.1832  0.8823
 9007SOL     OW38479   0.768   2.271   6.177  0.5863  0.2975  0.2277
 9007SOL    HW138480   0.771   2.347   6.235  0.5857  0.0491  0.5558
 9007SOL    HW238481   0.806   2.208   6.239 -3.0288 -1.2150  0.9439
 9008SOL     OW38482   0.268   2.027   7.440 -0.3391  0.4987  0.0794
 9008SOL    HW138483   0.259   1.954   7.379  0.6212  0.0345  0.4961
 9008SOL    HW238484   0.270   2.097   7.374  1.6472  1.3861  1.0813
 9009SOL     OW38485   1.010   2.161   9.157  0.5390 -0.3682 -0.4708
 9009SOL    HW138486   1.007   2.256   9.145  3.3861 -0.3769 -1.3036
 9009SOL    HW238487   1.079   2.148   9.091  0.5938  1.0341 -0.6769
 9010SOL     OW38488   3.905   0.629   6.690 -0.1252 -0.2629 -0.4352
 9010SOL    HW138489   3.962   0.665   6.758 -0.9514 -0.6432  0.4569
 9010SOL    HW238490   3.831   0.688   6.697  0.7464  0.8728 -0.9670
 9011SOL     OW38491   3.097   1.299   5.129 -0.1417 -0.0554 -0.2035
 9011SOL    HW138492   3.024   1.265   5.077 -1.4870  1.1142  0.9170
 9011SOL    HW238493   3.165   1.232   5.124 -1.0816 -0.9870 -0.5112
 9012SOL     OW38494   0.908   1.342   3.165  0.1144 -0.5100 -0.0787
 9012SOL    HW138495   0.829   1.381   3.129 -0.7220 -1.6787  0.4499
 9012SOL    HW238496   0.914   1.265   3.108 -0.3575 -0.0941 -0.6819
 9013SOL     OW38497   3.234   4.569  12.425  0.1498 -0.0261 -0.3889
 9013SOL    HW138498   3.175   4.578  12.350  0.7758 -0.4711 -0.9186
 9013SOL    HW238499   3.193   4.503  12.482  0.4225  0.3259  0.2160
 9014SOL     OW38500   0.150   0.687   7.315 -0.7149 -0.6733  0.1976
 9014SOL    HW138501   0.122   0.596   7.315 -0.8254 -0.6276 -3.3430
 9014SOL    HW238502   0.140   0.697   7.410 -1.9674 -2.2425  0.2270
 9015SOL     OW38503   4.710   2.981   5.216  0.4531 -0.2336  0.0144
 9015SOL    HW138504   4.662   3.043   5.162 -0.5856  0.3341  1.5659
 9015SOL    HW238505   0.014   3.045   5.282 -1.2075 -0.3064  0.7705
 9016SOL     OW38506   0.581   0.327  15.745  0.2128 -0.4980 -0.4409
 9016SOL    HW138507   0.548   0.406  15.786 -0.9981 -0.9806 -0.4911
 9016SOL    HW238508   0.653   0.366  15.695 -0.7672 -0.8403 -2.1132
 9017SOL     OW38509   1.974   0.464  17.289  0.2736 -0.3944 -0.1452
 9017SOL    HW138510   2.053   0.506  17.326  0.9973 -1.7692 -0.1330
 9017SOL    HW238511   1.906   0.499  17.346  1.8216  0.0823  1.4387
 9018SOL     OW38512   0.020   4.319   2.797  0.3116 -0.4944 -0.0607
 9018SOL    HW138513   0.104   4.356   2.772 -0.7574  1.6469 -0.4659
 9018SOL    HW238514   0.051   4.258   2.864 -1.6483 -2.4121 -0.8744
 9019SOL     OW38515   3.776   2.658  17.113  0.1998 -0.0736 -0.0096
 9019SOL    HW138516   3.719   2.581  17.109 -0.5843  0.5578 -0.8902
 9019SOL    HW238517   3.713   2.719  17.150 -0.0055  0.2869 -0.9718
 9020SOL     OW38518   4.539   3.420   5.142 -0.4715 -0.4859 -0.2147
 9020SOL    HW138519   4.498   3.335   5.129 -2.0146  0.2630 -0.3148
 9020SOL    HW238520   4.574   3.435   5.055  1.8977  0.0584  0.8312
 9021SOL     OW38521   2.679   3.755   7.507 -0.4068 -0.1737 -0.2518
 9021SOL    HW138522   2.635   3.796   7.582  1.2944  0.2768  0.4916
 9021SOL    HW238523   2.759   3.730   7.553 -2.7134 -0.5550  3.6341
 9022SOL     OW38524   1.541   4.709  12.021 -0.2210  0.1036  0.2913
 9022SOL    HW138525   1.623   4.706  12.071 -0.2360  1.3634  0.3714
 9022SOL    HW238526   1.481   0.029  12.081 -0.4744  0.5875 -0.3141
 9023SOL     OW38527   1.617   2.268   3.034  0.3278 -0.3596 -0.3390
 9023SOL    HW138528   1.606   2.188   3.086  2.7864 -0.1552  0.5015
 9023SOL    HW238529   1.713   2.268   3.031  0.3585 -0.6372  0.6217
 9024SOL     OW38530   2.046   4.046  10.172  0.5263 -0.2160  0.0819
 9024SOL    HW138531   2.078   3.969  10.220  0.6405  0.4161  1.0354
 9024SOL    HW238532   2.015   4.091  10.251 -0.6770  1.1428 -1.1818
 9025SOL     OW38533   3.840   2.028   4.686  0.0739 -0.0791  0.4056
 9025SOL    HW138534   3.794   1.944   4.684  1.4450 -0.8571  1.1324
 9025SOL    HW238535   3.800   2.089   4.748  0.1094  1.7451 -1.3407
 9026SOL     OW38536   4.358   2.118   7.911 -0.3312 -0.2694 -0.8021
 9026SOL    HW138537   4.275   2.166   7.917 -0.0697  0.0612  0.0762
 9026SOL    HW238538   4.338   2.036   7.865 -0.6632 -1.1066  0.8443
 9027SOL     OW38539   4.364   4.079   3.066 -0.3757  0.2805 -0.0869
 9027SOL    HW138540   4.288   4.094   3.124  0.5992 -0.1395  1.3067
 9027SOL    HW238541   4.318   4.050   2.988 -0.3474 -2.1988  0.8157
 9028SOL     OW38542   4.606   0.621   3.308  0.2409  0.2675  0.0301
 9028SOL    HW138543   4.593   0.527   3.320  2.0418 -0.0065 -0.1381
 9028SOL    HW238544   4.532   0.663   3.352  0.5337  1.4536 -0.6331
 9029SOL     OW38545   1.723   3.819   6.853  0.3134  0.3329 -0.2977
 9029SOL    HW138546   1.816   3.803   6.833 -0.2872  1.1776 -3.7990
 9029SOL    HW238547   1.691   3.729   6.857 -1.1142  0.8352 -0.5933
 9030SOL     OW38548   3.462   1.008   8.003  0.4141  0.0256  0.1471
 9030SOL    HW138549   3.550   0.997   7.966  0.7907  2.2003  0.4092
 9030SOL    HW238550   3.433   0.919   8.025 -1.9458  1.2147  1.8181
 9031SOL     OW38551   0.687   0.203   9.884  0.1314  0.4684 -0.0535
 9031SOL    HW138552   0.625   0.185   9.955 -0.0271 -2.3803 -0.9507
 9031SOL    HW238553   0.770   0.161   9.906 -1.1979 -2.4735 -0.7505
 9032SOL     OW38554   2.036   0.819   6.270 -0.1706 -0.1723 -0.2270
 9032SOL    HW138555   2.124   0.786   6.283 -0.4072  0.2627  2.5449
 9032SOL    HW238556   2.054   0.907   6.304  1.4184 -1.3254  1.8818
 9033SOL     OW38557   2.391   1.537  16.647 -0.0758 -0.6779  0.7266
 9033SOL    HW138558   2.303   1.553  16.681 -0.0063  0.2479  0.4803
 9033SOL    HW238559   2.446   1.591  16.704 -0.7113  0.6347  0.1053
 9034SOL     OW38560   0.038   0.091  12.332 -0.1378  0.0293  0.0453
 9034SOL    HW138561   4.670   0.095  12.360 -0.3344  0.1722 -0.6070
 9034SOL    HW238562   0.031   0.107  12.237 -0.3332 -0.4215 -0.0123
 9035SOL     OW38563   1.707   2.632   7.409  0.3929 -0.0665 -0.0489
 9035SOL    HW138564   1.721   2.590   7.324  1.1059 -0.5052  0.2888
 9035SOL    HW238565   1.687   2.722   7.383  0.4762 -0.1238 -0.3109
 9036SOL     OW38566   4.476   0.076   9.232  0.3085  0.4521 -0.0633
 9036SOL    HW138567   4.504   0.024   9.307  1.0019  0.3847 -0.3661
 9036SOL    HW238568   4.557   0.121   9.208  1.4810 -2.6992 -1.9189
 9037SOL     OW38569   2.620   0.732   8.990  0.4619  0.0929 -0.6038
 9037SOL    HW138570   2.614   0.820   9.027 -1.3056 -0.0674 -0.5233
 9037SOL    HW238571   2.561   0.679   9.044 -1.6874  1.3967 -1.6865
 9038SOL     OW38572   3.577   1.938   1.807 -0.6648 -0.4716 -0.2151
 9038SOL    HW138573   3.622   2.019   1.828 -0.8425 -0.8845  1.7341
 9038SOL    HW238574   3.649   1.877   1.793  0.1700  0.5923 -0.5011
 9039SOL     OW38575   3.889   4.596   6.483  0.3167  0.3374  1.1639
 9039SOL    HW138576   3.943   4.569   6.409  0.0675  0.1753  1.0426
 9039SOL    HW238577   3.864   4.684   6.454  1.8418  0.4308  0.1370
 9040SOL     OW38578   1.776   4.105  10.114  0.3692 -0.2790  0.4834
 9040SOL    HW138579   1.865   4.123  10.082  0.8501 -3.2305  0.2142
 9040SOL    HW238580   1.782   4.123  10.208 -0.2790  1.1721  0.2489
 9041SOL     OW38581   3.844   0.719   7.934 -0.3929 -0.1751  0.2786
 9041SOL    HW138582   3.857   0.736   7.840  0.9692  1.0570  0.6798
 9041SOL    HW238583   3.920   0.660   7.940  1.0688  1.5036 -1.6283
 9042SOL     OW38584   1.192   4.483  17.410 -0.2171  0.0866 -0.4144
 9042SOL    HW138585   1.139   4.512  17.336  1.0219  1.4427 -0.7646
 9042SOL    HW238586   1.207   4.568  17.450  2.3650  0.2275 -1.6543
 9043SOL     OW38587   0.180   1.918   2.707 -0.0246  0.0619 -0.0729
 9043SOL    HW138588   0.120   1.941   2.778 -0.1056 -0.9514  0.1880
 9043SOL    HW238589   0.206   1.834   2.744 -0.0193 -1.3033 -3.2042
 9044SOL     OW38590   3.776   1.214   6.303 -0.0640  0.3038 -0.3936
 9044SOL    HW138591   3.756   1.261   6.222  0.8535  2.2678  0.5196
 9044SOL    HW238592   3.828   1.140   6.273 -0.5397  0.0168 -0.5137
 9045SOL     OW38593   2.124   0.804  17.675 -0.3368  0.7048  0.2746
 9045SOL    HW138594   2.114   0.709  17.663  0.4385  0.2856  2.9082
 9045SOL    HW238595   2.216   0.820  17.659 -0.2223  0.8241  1.0707
 9046SOL     OW38596   3.206   1.295   1.132  0.1458  0.5182 -0.2438
 9046SOL    HW138597   3.124   1.342   1.146 -0.2227 -1.5789  4.5036
 9046SOL    HW238598   3.276   1.354   1.103  0.3105  0.4985  0.1052
 9047SOL     OW38599   1.316   3.958   2.509  0.2778 -0.0863  0.3846
 9047SOL    HW138600   1.371   3.944   2.586 -0.6288  0.1785  1.0835
 9047SOL    HW238601   1.273   4.042   2.525 -0.4609 -0.2499 -0.7277
 9048SOL     OW38602   3.588   1.387  10.735 -0.1216  0.3407  0.0568
 9048SOL    HW138603   3.610   1.337  10.656  0.4500 -0.6860  0.8698
 9048SOL    HW238604   3.511   1.437  10.710  0.1462  0.9767  0.5080
 9049SOL     OW38605   3.785   0.304   4.303 -0.3123 -0.2832 -0.3931
 9049SOL    HW138606   3.795   0.299   4.398  1.9482 -0.6141 -0.6346
 9049SOL    HW238607   3.762   0.394   4.281  0.3279  0.4575  1.9760
 9050SOL     OW38608   2.317   4.391   8.528 -0.0454  0.5975 -0.0137
 9050SOL    HW138609   2.362   4.443   8.461 -1.8493  0.9959 -0.9274
 9050SOL    HW238610   2.226   4.418   8.512  0.9640  3.9060 -0.1540
 9051SOL     OW38611   0.877   1.331   9.351  0.4902 -0.0006 -0.6035
 9051SOL    HW138612   0.863   1.325   9.446 -0.2940  1.2267 -0.6434
 9051SOL    HW238613   0.938   1.257   9.343 -0.7561 -0.9832 -1.0289
 9052SOL     OW38614   1.019   2.044   8.025  0.2691 -0.0766  0.3223
 9052SOL    HW138615   1.032   2.110   8.093  1.0591  0.8266 -0.7276
 9052SOL    HW238616   1.077   2.074   7.955 -1.3669  2.0545 -0.1170
 9053SOL     OW38617   3.542   3.865  16.683  0.4203  0.1495  1.0008
 9053SOL    HW138618   3.504   3.828  16.763 -0.7294 -0.5417  0.1274
 9053SOL    HW238619   3.502   3.952  16.689 -1.4843 -0.5365 -2.3272
 9054SOL     OW38620   0.846   0.182   5.672  0.2276  0.2864  0.2170
 9054SOL    HW138621   0.884   0.098   5.699 -1.6849 -0.8514 -0.6722
 9054SOL    HW238622   0.753   0.165   5.685  0.1509  1.1781  0.8639
 9055SOL     OW38623   4.068   4.510   1.857 -0.3832  0.5813  0.4863
 9055SOL    HW138624   4.116   4.591   1.877  0.5628 -0.0644  0.7855
 9055SOL    HW238625   4.127   4.437   1.873  0.7843  1.1344 -1.2966
 9056SOL     OW38626   1.987   0.864   4.115  0.2963 -0.6283  0.1235
 9056SOL    HW138627   1.969   0.810   4.192  0.7993 -1.9545 -0.6869
 9056SOL    HW238628   1.926   0.936   4.130  1.5305 -0.0740  2.4381
 9057SOL     OW38629   0.049   2.134  12.769 -0.1474 -0.2518  0.7235
 9057SOL    HW138630   0.091   2.194  12.708 -0.8212 -1.8148 -1.2602
 9057SOL    HW238631   4.678   2.144  12.753 -0.2304 -1.0697  0.6930
 9058SOL     OW38632   0.417   0.239   1.547 -0.2203  0.1311 -0.1999
 9058SOL    HW138633   0.334   0.193   1.539 -0.5321  0.4383  1.3738
 9058SOL    HW238634   0.484   0.171   1.539 -0.8163 -0.3625 -1.0971
 9059SOL     OW38635   0.169   0.174  13.138 -0.5768  0.3522  0.4669
 9059SOL    HW138636   0.133   0.259  13.163  0.1621  0.0228  2.6582
 9059SOL    HW238637   0.178   0.139  13.227  1.5449 -0.2835  0.0097
 9060SOL     OW38638   0.598   0.201   6.793 -0.2777  0.8171 -0.3378
 9060SOL    HW138639   0.669   0.162   6.742  0.0884  1.5109 -0.3685
 9060SOL    HW238640   0.587   0.291   6.759 -0.8092  0.6394 -0.6496
 9061SOL     OW38641   2.441   1.259  17.140  0.2267 -0.7051 -0.1018
 9061SOL    HW138642   2.521   1.294  17.099 -0.4443  1.6707  0.6047
 9061SOL    HW238643   2.461   1.166  17.138  3.3638 -0.0497  0.0559
 9062SOL     OW38644   2.839   4.217  16.493 -0.4437  0.2448 -0.0030
 9062SOL    HW138645   2.890   4.169  16.559 -2.3380 -1.7248 -0.0112
 9062SOL    HW238646   2.790   4.153  16.442  1.4254  0.6414 -2.3081
 9063SOL     OW38647   3.547   3.419   8.043  0.2724  0.0975 -0.0371
 9063SOL    HW138648   3.632   3.376   8.054 -0.4853 -0.9186  1.7511
 9063SOL    HW238649   3.485   3.362   8.088  0.5707 -1.2883 -1.3863
 9064SOL     OW38650   2.501   0.195   4.483  0.5343  0.7599 -0.4120
 9064SOL    HW138651   2.446   0.268   4.512 -1.4810 -0.3524 -1.5038
 9064SOL    HW238652   2.448   0.156   4.414 -0.0533 -1.6101  1.4099
 9065SOL     OW38653   1.643   1.001   2.795  0.1536 -0.1723 -0.3720
 9065SOL    HW138654   1.583   1.055   2.846  1.4174  0.6280  0.2599
 9065SOL    HW238655   1.591   0.990   2.715 -0.1536  1.3957 -0.3871
 9066SOL     OW38656   4.722   1.910  15.185 -0.0495 -0.0543  0.2824
 9066SOL    HW138657   4.674   1.973  15.239  1.2416 -0.0294  1.4138
 9066SOL    HW238658   0.069   1.969  15.162  0.0945 -0.2832  0.1342
 9067SOL     OW38659   3.526   1.170   1.868  0.1600 -0.4230 -0.4124
 9067SOL    HW138660   3.596   1.129   1.917 -0.1365 -0.1313  0.2559
 9067SOL    HW238661   3.519   1.105   1.798 -0.9772 -0.5661 -0.1644
 9068SOL     OW38662   4.488   0.453  16.486 -0.2675 -0.0392 -0.2830
 9068SOL    HW138663   4.484   0.549  16.492 -1.0340  0.0189 -1.4867
 9068SOL    HW238664   4.482   0.424  16.576 -0.5643 -0.2090 -0.3572
 9069SOL     OW38665   1.008   4.057   4.513  0.5710 -0.5442  0.1515
 9069SOL    HW138666   0.930   4.009   4.544  0.7104 -1.8073 -1.4683
 9069SOL    HW238667   0.984   4.123   4.449  0.7973  1.5946  2.2552
 9070SOL     OW38668   1.376   0.383  15.019 -0.4828 -0.0723  0.0435
 9070SOL    HW138669   1.433   0.375  14.942  2.4230 -1.1817  2.2940
 9070SOL    HW238670   1.291   0.361  14.981 -0.4646 -0.3625  0.1683
 9071SOL     OW38671   2.204   4.069   7.904  0.6821 -0.3016 -0.1283
 9071SOL    HW138672   2.274   4.132   7.889  0.5048 -0.2135 -0.5879
 9071SOL    HW238673   2.257   3.994   7.929 -0.3166 -1.9217 -2.8737
 9072SOL     OW38674   3.018   0.034   7.991  0.0722  0.2190  0.6807
 9072SOL    HW138675   3.029   0.074   7.905  1.6887 -1.0345  0.3171
 9072SOL    HW238676   2.959   4.686   7.963 -0.2323  0.8003 -0.1596
 9073SOL     OW38677   2.991   1.384   4.413 -0.1201 -0.6172 -0.4829
 9073SOL    HW138678   3.069   1.336   4.442  1.6109  3.5824  1.8501
 9073SOL    HW238679   2.934   1.340   4.476 -2.2836 -0.5404 -2.4080
 9074SOL     OW38680   0.130   4.544  13.700  0.1969 -0.3787 -0.2876
 9074SOL    HW138681   0.079   4.528  13.620  0.7762 -0.4523 -0.6380
 9074SOL    HW238682   0.211   4.579  13.664  0.5095 -0.4294  0.3569
 9075SOL     OW38683   1.158   3.522   3.569 -0.1124 -0.4982 -0.7652
 9075SOL    HW138684   1.199   3.569   3.497 -0.9544 -0.1309 -1.0051
 9075SOL    HW238685   1.090   3.589   3.577  0.7989  0.5068 -1.4765
 9076SOL     OW38686   2.278   2.612   6.086  0.3600 -0.4007  0.6163
 9076SOL    HW138687   2.228   2.689   6.112  1.2269  0.3544  0.0693
 9076SOL    HW238688   2.247   2.606   5.995 -0.4816 -1.1118  0.9501
 9077SOL     OW38689   4.067   4.329   6.295  0.4179  0.3379 -0.2253
 9077SOL    HW138690   4.110   4.268   6.236  2.7104 -0.2879  2.0749
 9077SOL    HW238691   4.103   4.313   6.382  2.2330 -4.0921 -1.8410
 9078SOL     OW38692   1.572   3.073   0.557  0.5331 -0.2261 -0.3603
 9078SOL    HW138693   1.571   3.068   0.461  1.8077 -0.2666 -0.3658
 9078SOL    HW238694   1.513   3.148   0.566  0.4643 -0.5113  1.5602
 9079SOL     OW38695   1.388   0.999  14.044  0.1549  0.2462  1.1108
 9079SOL    HW138696   1.387   1.078  13.990 -0.6379  0.9530  2.1483
 9079SOL    HW238697   1.480   0.973  14.044 -0.7681 -3.1217  2.6852
 9080SOL     OW38698   2.845   2.987   1.680 -0.0236  0.0199  0.1210
 9080SOL    HW138699   2.866   2.914   1.738  0.6490  0.0881 -0.0446
 9080SOL    HW238700   2.850   3.059   1.742 -2.0327  1.6655 -1.6107
 9081SOL     OW38701   1.539   0.878  15.252 -0.0828 -0.7919  0.1809
 9081SOL    HW138702   1.531   0.957  15.198 -2.1296 -0.5529  0.8175
 9081SOL    HW238703   1.587   0.812  15.204  0.2563 -3.2002  3.8265
 9082SOL     OW38704   2.774   1.662   5.818  0.2446  0.5204 -0.2940
 9082SOL    HW138705   2.773   1.641   5.912 -2.4399  2.2670  0.0813
 9082SOL    HW238706   2.748   1.754   5.823  0.7868  0.6290  0.6279
 9083SOL     OW38707   3.053   1.886   3.770  0.1201 -0.4424  0.3000
 9083SOL    HW138708   2.966   1.860   3.740  0.6023 -0.6947 -0.8948
 9083SOL    HW238709   3.088   1.931   3.694  0.1278  0.2213  0.6958
 9084SOL     OW38710   4.329   3.270  12.892  0.1270 -0.6487 -0.0334
 9084SOL    HW138711   4.274   3.314  12.956  1.1076 -0.6071  0.7855
 9084SOL    HW238712   4.317   3.315  12.809 -1.4216 -0.8079  0.1070
 9085SOL     OW38713   2.494   3.722  11.740 -0.1755  0.2227  0.5601
 9085SOL    HW138714   2.477   3.676  11.658 -1.0225 -0.0277  0.8718
 9085SOL    HW238715   2.420   3.699  11.796 -0.7384 -0.6395 -0.5349
 9086SOL     OW38716   1.888   2.252   3.045 -0.0564  0.6237  0.3231
 9086SOL    HW138717   1.971   2.212   3.073  0.1468  0.0700 -1.0876
 9086SOL    HW238718   1.905   2.279   2.955 -1.9520  0.8122  0.0261
 9087SOL     OW38719   3.765   0.766   6.251 -0.4613 -0.2700  0.3430
 9087SOL    HW138720   3.703   0.837   6.235  1.7236  1.3391 -0.9005
 9087SOL    HW238721   3.708   0.691   6.238  0.3705 -0.6030 -1.3886
 9088SOL     OW38722   3.601   1.987   6.478  0.8377 -0.3423  0.5762
 9088SOL    HW138723   3.577   1.989   6.385  1.5259 -0.3277  0.3958
 9088SOL    HW238724   3.696   1.977   6.484  1.1058  0.5550 -2.1738
 9089SOL     OW38725   3.710   3.347  10.544 -0.1292 -0.3589 -0.2976
 9089SOL    HW138726   3.676   3.344  10.454 -1.8309 -0.2088  0.3379
 9089SOL    HW238727   3.638   3.298  10.584 -0.6621 -0.0361 -0.8538
 9090SOL     OW38728   1.496   3.119   2.092 -0.1530 -0.5878  0.0739
 9090SOL    HW138729   1.554   3.194   2.078 -0.6304 -0.3122 -0.4174
 9090SOL    HW238730   1.531   3.052   2.033 -1.0345  0.3625 -1.5291
 9091SOL     OW38731   1.799   4.041   7.052 -0.1440 -0.2739  0.0021
 9091SOL    HW138732   1.758   3.997   6.978  2.5624  0.8124 -2.1349
 9091SOL    HW238733   1.723   4.043   7.111 -0.9864  3.3489 -1.2403
 9092SOL     OW38734   0.105   2.293   4.237 -0.2580 -0.1608 -0.8269
 9092SOL    HW138735   0.164   2.367   4.228 -0.6544  0.2864  0.2408
 9092SOL    HW238736   0.154   2.232   4.182  1.1271  0.1267  0.0990
 9093SOL     OW38737   2.829   1.658   0.394  0.0659 -0.4252 -0.6567
 9093SOL    HW138738   2.835   1.622   0.305 -2.1774  0.6572 -1.2432
 9093SOL    HW238739   2.905   1.614   0.431  0.9468  0.4623 -1.4035
 9094SOL     OW38740   2.089   0.223   9.962  0.9452 -0.5213 -0.0122
 9094SOL    HW138741   2.005   0.270   9.967  1.0344 -0.2140 -1.3751
 9094SOL    HW238742   2.089   0.206   9.868  3.1967 -1.2238  0.1361
 9095SOL     OW38743   0.188   1.891   3.485  0.3839 -0.3610  0.3201
 9095SOL    HW138744   0.245   1.816   3.501  0.0193 -1.0309 -1.5721
 9095SOL    HW238745   0.252   1.954   3.453 -0.5349  0.1323 -0.5496
 9096SOL     OW38746   2.482   2.062   4.268 -0.0113 -0.3314  0.0032
 9096SOL    HW138747   2.461   1.983   4.218  0.4345  0.6292 -1.6818
 9096SOL    HW238748   2.401   2.073   4.318  1.2322 -1.3376  2.2451
 9097SOL     OW38749   4.179   0.560  15.546  0.3654  0.1288 -0.5959
 9097SOL    HW138750   4.099   0.524  15.509  0.5973  0.1717 -1.1580
 9097SOL    HW238751   4.213   0.496  15.608  0.0338  0.9043  0.3933
 9098SOL     OW38752   0.444   4.399  13.754 -0.2376  0.0078 -0.7107
 9098SOL    HW138753   0.366   4.408  13.809  0.9418  1.4207  0.7177
 9098SOL    HW238754   0.437   4.305  13.738 -0.8724  0.0966 -0.9330
 9099SOL     OW38755   2.149   3.592   5.041  0.0175 -0.3100  0.1009
 9099SOL    HW138756   2.095   3.513   5.043 -0.3707 -0.0198  1.1123
 9099SOL    HW238757   2.108   3.644   5.110  1.0508 -2.3842  2.2642
 9100SOL     OW38758   1.966   2.419   2.826  0.1652  0.6349  0.8757
 9100SOL    HW138759   2.009   2.393   2.744 -0.4490  1.7589  0.1944
 9100SOL    HW238760   1.918   2.495   2.792 -0.3278 -0.0961 -0.0786
 9101SOL     OW38761   4.065   3.486   2.825 -0.1082 -0.0133  0.1494
 9101SOL    HW138762   3.976   3.459   2.802 -0.5041  0.8011  0.7025
 9101SOL    HW238763   4.078   3.581   2.817  1.4726 -0.3982 -1.8701
 9102SOL     OW38764   1.416   4.012   7.716  0.3763 -0.4429  0.1124
 9102SOL    HW138765   1.446   3.942   7.775 -0.6519  0.6943  1.9965
 9102SOL    HW238766   1.469   4.087   7.743  0.0584 -0.2163  0.1092
 9103SOL     OW38767   2.731   1.065  17.604  0.0591  0.1182  0.3341
 9103SOL    HW138768   2.771   1.150  17.620 -1.7059  1.1777 -1.0286
 9103SOL    HW238769   2.762   1.007  17.674  0.1667  1.2223  1.1998
 9104SOL     OW38770   2.630   1.368   9.693  1.0457 -0.4155 -0.4259
 9104SOL    HW138771   2.639   1.447   9.639 -0.1292 -0.4734 -0.7134
 9104SOL    HW238772   2.718   1.334   9.674  0.6061 -0.3126 -2.6233
 9105SOL     OW38773   2.485   4.407   2.735 -0.1474 -0.2759  0.5520
 9105SOL    HW138774   2.578   4.393   2.717 -0.4332  0.3148 -1.3318
 9105SOL    HW238775   2.442   4.335   2.691  0.1809  0.5607 -1.1410
 9106SOL     OW38776   0.699   4.603   5.525  0.0515  0.4825  0.1166
 9106SOL    HW138777   0.775   4.599   5.467 -1.1387 -2.1476 -1.2825
 9106SOL    HW238778   0.734   4.653   5.599  0.4324  0.7604 -0.2473
 9107SOL     OW38779   0.254   0.695   4.650  0.4616 -0.3315 -0.0802
 9107SOL    HW138780   0.325   0.640   4.616  0.5207  0.6226 -1.4668
 9107SOL    HW238781   0.272   0.688   4.744 -1.0001 -3.1537 -0.0206
 9108SOL     OW38782   3.961   2.835   8.812 -0.4403 -0.3195 -0.6308
 9108SOL    HW138783   4.008   2.899   8.759  0.8283 -0.5141  0.2652
 9108SOL    HW238784   3.951   2.765   8.747 -2.3791 -0.7128  0.0877
 9109SOL     OW38785   4.352   4.298   6.152 -0.4772 -0.4050  0.0796
 9109SOL    HW138786   4.317   4.237   6.216  0.4729 -0.1714  0.8263
 9109SOL    HW238787   4.436   4.254   6.140 -0.7864 -1.5610  2.1819
 9110SOL     OW38788   2.291   3.831   8.121 -0.1084  0.0353 -0.1270
 9110SOL    HW138789   2.357   3.900   8.123  2.2078 -2.1729 -0.5368
 9110SOL    HW238790   2.320   3.792   8.203  0.9691  0.0264 -0.5163
 9111SOL     OW38791   1.685   0.583   3.837  0.4980 -0.3924 -0.0456
 9111SOL    HW138792   1.622   0.582   3.765  0.6579  0.6282 -0.1950
 9111SOL    HW238793   1.734   0.501   3.821 -0.9167 -0.4945 -3.7901
 9112SOL     OW38794   0.587   1.798   6.420  0.1595  0.1075  0.2765
 9112SOL    HW138795   0.549   1.739   6.354 -0.4978 -0.0660  0.8120
 9112SOL    HW238796   0.569   1.884   6.384  0.3186  0.0369  0.0259
 9113SOL     OW38797   4.020   2.452   7.708 -0.1434 -0.0647 -0.1543
 9113SOL    HW138798   4.025   2.546   7.722 -1.0333 -0.1074  0.4819
 9113SOL    HW238799   3.925   2.439   7.705 -0.0673 -0.1697 -2.3283
 9114SOL     OW38800   1.577   3.920  12.945 -0.2230 -0.1689  0.7206
 9114SOL    HW138801   1.652   3.860  12.944 -0.5788 -0.6139  1.5715
 9114SOL    HW238802   1.503   3.861  12.931 -0.3699  0.5191 -1.4654
 9115SOL     OW38803   2.893   3.015   4.168 -0.0082  0.3133  0.8458
 9115SOL    HW138804   2.853   2.929   4.160 -0.0967  0.6688 -2.3954
 9115SOL    HW238805   2.938   3.001   4.252  0.2128 -1.7114  0.3898
 9116SOL     OW38806   3.231   1.579   5.716  0.1987 -0.1146  0.2053
 9116SOL    HW138807   3.154   1.556   5.767  1.0267 -0.4747  1.2911
 9116SOL    HW238808   3.229   1.512   5.648 -2.5144 -1.7138  1.9006
 9117SOL     OW38809   1.430   1.576   7.792 -0.1896  0.4720  0.4274
 9117SOL    HW138810   1.442   1.576   7.887  1.5784 -0.7741  0.1967
 9117SOL    HW238811   1.521   1.553   7.773 -0.3277 -0.2578  0.6572
 9118SOL     OW38812   0.307   0.331   0.724  0.4316  0.0301  0.2945
 9118SOL    HW138813   0.355   0.387   0.785  2.2172 -1.4588  0.2457
 9118SOL    HW238814   0.217   0.341   0.755 -0.0086  0.6873 -1.1691
 9119SOL     OW38815   0.272   0.113  17.521 -0.1989  0.1771  0.6670
 9119SOL    HW138816   0.312   0.193  17.485  1.5709 -1.9494 -2.1200
 9119SOL    HW238817   0.280   0.066  17.438  0.3217  0.7271  0.3999
 9120SOL     OW38818   4.314   4.287   5.690  0.2556 -0.4422 -0.2657
 9120SOL    HW138819   4.277   4.276   5.602  0.0934 -1.2078 -0.0997
 9120SOL    HW238820   4.306   4.207   5.743  1.8722 -0.9157 -0.7115
 9121SOL     OW38821   2.938   4.511   2.788 -0.0680 -0.1982  0.3030
 9121SOL    HW138822   2.864   4.554   2.746  0.2926  1.3222  1.2653
 9121SOL    HW238823   2.990   4.488   2.710 -0.6775 -0.1878 -0.1093
 9122SOL     OW38824   3.998   3.198   0.008 -0.8452  0.2986  0.2561
 9122SOL    HW138825   4.085   3.164  17.679  0.0559  3.4356 -0.9415
 9122SOL    HW238826   4.022   3.286   0.037 -1.1789  0.5138 -0.1219
 9123SOL     OW38827   4.274   2.836   3.003 -0.0181 -0.3848  0.1555
 9123SOL    HW138828   4.307   2.753   2.969 -0.2524 -1.0817  1.6763
 9123SOL    HW238829   4.210   2.862   2.936  0.1273 -0.8483 -0.1647
 9124SOL     OW38830   0.539   3.018   9.275 -0.3613  0.4692  0.3593
 9124SOL    HW138831   0.538   3.106   9.237  0.6719  0.1044 -0.5348
 9124SOL    HW238832   0.498   3.037   9.360 -1.3462 -1.5937  0.3434
 9125SOL     OW38833   2.364   4.140  10.561  0.3287  0.1014  0.1542
 9125SOL    HW138834   2.403   4.147  10.474  0.5302  0.1779  0.2511
 9125SOL    HW238835   2.339   4.047  10.567  4.4842 -1.0789 -1.3113
 9126SOL     OW38836   2.560   2.667  14.963  0.6514  0.2995  0.2683
 9126SOL    HW138837   2.557   2.710  14.877 -0.4369  2.7272  1.5195
 9126SOL    HW238838   2.513   2.727  15.021 -1.0666 -0.7448 -0.0468
 9127SOL     OW38839   3.195   0.347  12.050  0.6269 -0.5133 -0.2067
 9127SOL    HW138840   3.252   0.281  12.010  0.8426  0.4583 -1.4968
 9127SOL    HW238841   3.245   0.429  12.047  1.1448 -0.8046  0.2969
 9128SOL     OW38842   3.154   2.358   6.084  0.1588  0.2185  0.3392
 9128SOL    HW138843   3.112   2.291   6.138  2.0368 -0.0084  1.4896
 9128SOL    HW238844   3.077   2.383   6.031 -0.7758  2.3415  2.6961
 9129SOL     OW38845   3.646   0.467   1.377  0.4980 -0.5405 -0.0288
 9129SOL    HW138846   3.620   0.410   1.450  0.7120  0.8184  1.1005
 9129SOL    HW238847   3.740   0.475   1.396  0.6935 -0.6642 -0.9349
 9130SOL     OW38848   2.823   2.391   5.405  0.3320  0.9192 -0.2626
 9130SOL    HW138849   2.876   2.445   5.345 -0.5280  0.9079 -1.0369
 9130SOL    HW238850   2.778   2.459   5.454 -0.2029 -1.1322  2.0538
 9131SOL     OW38851   0.250   1.341   3.583  0.5692  0.2923 -0.0709
 9131SOL    HW138852   0.279   1.344   3.492 -1.1331 -2.2616 -0.7083
 9131SOL    HW238853   0.333   1.334   3.630  0.1022 -1.3596  0.5231
 9132SOL     OW38854   4.114   3.217  10.131 -0.7031  0.6822 -0.5545
 9132SOL    HW138855   4.088   3.226  10.040 -1.6129  3.1985 -0.0481
 9132SOL    HW238856   4.190   3.162  10.112 -2.1351 -1.3481 -0.3497
 9133SOL     OW38857   0.836   3.715   4.348 -0.2286 -0.2816  0.3705
 9133SOL    HW138858   0.851   3.626   4.379 -2.7149 -0.7982  0.0904
 9133SOL    HW238859   0.847   3.767   4.428 -0.2269  1.2313 -0.6194
 9134SOL     OW38860   3.911   1.474  15.394 -0.1368 -0.3947 -0.1939
 9134SOL    HW138861   3.877   1.546  15.340  0.8806  1.6363  1.9128
 9134SOL    HW238862   3.922   1.410  15.323  1.4657 -0.2872 -0.0351
 9135SOL     OW38863   1.754   1.776  16.182  0.2766 -0.2038 -0.6650
 9135SOL    HW138864   1.783   1.813  16.099 -0.5240 -1.1709 -1.3653
 9135SOL    HW238865   1.677   1.724  16.163 -0.3323  0.7004 -0.6597
 9136SOL     OW38866   1.988   2.542  12.058  0.7503 -0.3333  0.3478
 9136SOL    HW138867   1.976   2.496  12.141  2.0021 -1.8948 -0.3294
 9136SOL    HW238868   1.899   2.545  12.024  0.7032 -0.0911  0.4871
 9137SOL     OW38869   4.691   0.151   7.430  0.1010 -0.5609 -0.2847
 9137SOL    HW138870   4.700   0.155   7.334 -1.8008  2.0303 -0.3792
 9137SOL    HW238871   4.596   0.143   7.436 -0.1652  3.0335  0.5638
 9138SOL     OW38872   1.015   2.429   2.898  0.2371 -0.5362  0.2455
 9138SOL    HW138873   1.014   2.336   2.921 -3.6659 -0.5667 -0.1897
 9138SOL    HW238874   0.941   2.455   2.844  2.0438  0.0703 -1.9564
 9139SOL     OW38875   1.940   0.274   7.742  0.5694 -0.1717  0.3544
 9139SOL    HW138876   1.917   0.325   7.665  0.1260  3.7913  3.0922
 9139SOL    HW238877   1.864   0.287   7.799 -0.0974 -1.5067 -0.2313
 9140SOL     OW38878   2.112   3.043   1.848 -0.3881 -0.4161  0.2528
 9140SOL    HW138879   2.093   3.117   1.905  3.5409  0.3955  0.5329
 9140SOL    HW238880   2.026   3.003   1.841 -1.5382  1.9494  0.9593
 9141SOL     OW38881   4.652   1.491   6.022  0.6832 -0.1607  0.6722
 9141SOL    HW138882   4.569   1.444   6.035  1.2108 -1.2071  0.1803
 9141SOL    HW238883   4.702   1.430   5.969 -0.6757  0.3937 -1.2566
 9142SOL     OW38884   2.538   3.871  10.277 -0.5058  0.0488  0.1010
 9142SOL    HW138885   2.609   3.814  10.246  0.0541  1.6574 -1.5601
 9142SOL    HW238886   2.472   3.805  10.302 -0.6084 -0.1238 -0.6091
 9143SOL     OW38887   4.365   4.355   3.200 -0.0161  0.3844  0.2197
 9143SOL    HW138888   4.403   4.330   3.284  0.0145  0.7317  0.3097
 9143SOL    HW238889   4.425   4.316   3.137 -2.8090 -0.1142 -2.1465
 9144SOL     OW38890   0.903   3.821   5.164  0.6026 -0.2856 -0.6377
 9144SOL    HW138891   0.976   3.867   5.122  1.5673 -1.0174  0.2486
 9144SOL    HW238892   0.926   3.731   5.140 -0.5300 -0.6881 -0.1990
 9145SOL     OW38893   0.243   4.357  15.319 -0.6086  1.0261 -0.1998
 9145SOL    HW138894   0.266   4.437  15.366  1.4594  0.4954 -0.3450
 9145SOL    HW238895   0.321   4.307  15.341 -1.1852  0.8549  1.4356
 9146SOL     OW38896   3.393   1.881   0.226 -0.6934 -0.1915  0.0941
 9146SOL    HW138897   3.457   1.811   0.236  1.0165  1.3173 -0.1485
 9146SOL    HW238898   3.329   1.834   0.280 -2.1624  2.0892  0.3744
 9147SOL     OW38899   4.144   0.167  12.754  0.1069  0.1695  0.5116
 9147SOL    HW138900   4.175   0.131  12.670 -0.8338  0.2443  0.1300
 9147SOL    HW238901   4.154   0.090  12.809  2.3676  1.1118  1.4114
 9148SOL     OW38902   3.753   2.811  16.067  0.0700  0.3741  0.0386
 9148SOL    HW138903   3.715   2.855  15.992 -0.2992 -0.4701 -0.2759
 9148SOL    HW238904   3.837   2.857  16.071  0.2622  0.0827 -0.6446
 9149SOL     OW38905   2.189   2.698   6.857 -0.1285  0.2344  0.0413
 9149SOL    HW138906   2.195   2.691   6.762  1.1309 -0.4762  0.1730
 9149SOL    HW238907   2.244   2.623   6.880 -1.3809  0.0514  2.4409
 9150SOL     OW38908   2.166   0.340   8.821  0.2264  0.3200 -0.4699
 9150SOL    HW138909   2.126   0.262   8.784  0.1133  0.7301 -1.2221
 9150SOL    HW238910   2.205   0.391   8.750 -1.5687  0.6652 -1.2037
 9151SOL     OW38911   2.449   0.068   2.663  0.1137  0.0483 -0.4864
 9151SOL    HW138912   2.371   0.019   2.690  1.8537 -3.1216 -1.1680
 9151SOL    HW238913   2.408   0.150   2.635  0.6661  0.2275 -0.7663
 9152SOL     OW38914   4.639   1.159   9.305 -0.3526  0.2743 -0.3351
 9152SOL    HW138915   4.565   1.121   9.352 -0.6276  0.6242 -0.4788
 9152SOL    HW238916   4.622   1.125   9.217  1.8320 -2.8111  0.4134
 9153SOL     OW38917   2.361   0.991   2.125 -0.6119  0.4421  0.1846
 9153SOL    HW138918   2.274   1.026   2.103  0.3610  1.4888 -1.9591
 9153SOL    HW238919   2.367   0.902   2.090  0.3065 -0.0452  1.5713
 9154SOL     OW38920   3.525   4.327  15.105 -0.3158  0.1090 -0.0427
 9154SOL    HW138921   3.604   4.326  15.158 -0.5738  0.6511  0.3678
 9154SOL    HW238922   3.556   4.293  15.022 -4.1499 -1.1766 -0.9385
 9155SOL     OW38923   0.077   0.340   4.706 -0.3479  0.0430  0.6187
 9155SOL    HW138924   0.101   0.295   4.787 -2.8936  0.3164  1.5220
 9155SOL    HW238925   0.097   0.271   4.642  1.7564 -0.4202  1.7773
 9156SOL     OW38926   0.072   0.981  17.165  0.4966 -0.0971  0.2459
 9156SOL    HW138927   0.026   0.906  17.126 -1.1940  0.5500  0.9929
 9156SOL    HW238928   0.047   0.984  17.257  2.7290  0.8856  0.8186
 9157SOL     OW38929   0.359   3.275   4.007 -0.2448 -0.8933 -0.4990
 9157SOL    HW138930   0.320   3.236   4.085 -0.6375 -1.6406 -1.0769
 9157SOL    HW238931   0.352   3.203   3.945  1.0712 -0.8102 -0.7466
 9158SOL     OW38932   4.023   3.188   3.059 -0.2800  0.7118  0.1283
 9158SOL    HW138933   4.102   3.223   3.017 -0.5119 -0.8245 -1.5565
 9158SOL    HW238934   3.978   3.147   2.985  0.8817  3.0113 -1.8610
 9159SOL     OW38935   4.290   1.677   2.644 -0.4082  0.1342  0.1756
 9159SOL    HW138936   4.246   1.747   2.692 -1.4703 -1.1806  1.0865
 9159SOL    HW238937   4.234   1.601   2.653  0.3025 -0.6182 -1.7599
 9160SOL     OW38938   0.270   2.543  17.243  0.0883 -0.7054  0.5451
 9160SOL    HW138939   0.195   2.490  17.216 -0.3349  1.5840 -2.7996
 9160SOL    HW238940   0.305   2.566  17.157 -2.1194  2.1883  0.4140
 9161SOL     OW38941   2.284   4.639   5.166 -0.0530 -0.4153  0.0543
 9161SOL    HW138942   2.357   4.701   5.160  0.8657 -1.7856 -2.6717
 9161SOL    HW238943   2.273   4.620   5.073  0.4229 -3.3009  0.6037
 9162SOL     OW38944   4.175   3.283   5.267 -0.1350 -0.6787 -0.1665
 9162SOL    HW138945   4.112   3.332   5.321  1.4646  0.3442  0.7744
 9162SOL    HW238946   4.208   3.357   5.217 -0.6245  0.7645  1.6189
 9163SOL     OW38947   3.611   3.901   0.507 -0.1548 -0.1368  0.2238
 9163SOL    HW138948   3.550   3.831   0.531  0.5268 -0.4928  0.9187
 9163SOL    HW238949   3.559   3.980   0.517  2.8203  1.6754  1.3972
 9164SOL     OW38950   0.485   2.227   5.636 -0.7871  0.6659 -0.0204
 9164SOL    HW138951   0.391   2.218   5.652 -1.0425 -0.4104 -2.1115
 9164SOL    HW238952   0.521   2.199   5.720 -0.9789 -2.3372 -0.9419
 9165SOL     OW38953   3.815   3.609   4.385 -0.1626  0.6097  0.4634
 9165SOL    HW138954   3.889   3.572   4.336 -2.6243 -2.0572 -1.2063
 9165SOL    HW238955   3.821   3.550   4.461  1.0286  1.9331  1.3927
 9166SOL     OW38956   0.763   0.507  11.908 -0.0980 -0.4492 -0.7930
 9166SOL    HW138957   0.816   0.569  11.958  0.0832 -0.9226 -0.4031
 9166SOL    HW238958   0.772   0.545  11.821  0.6035  2.3929  0.5134
 9167SOL     OW38959   3.394   3.606   5.011  0.3065 -0.4783  0.0823
 9167SOL    HW138960   3.470   3.606   4.953 -0.6760 -0.1481 -1.2224
 9167SOL    HW238961   3.374   3.513   5.017 -0.2015 -0.1112  3.8644
 9168SOL     OW38962   3.662   0.380   8.714 -0.5997  0.1618 -0.1915
 9168SOL    HW138963   3.673   0.291   8.748 -0.9065  0.4107  0.5533
 9168SOL    HW238964   3.744   0.395   8.666  0.5442 -0.1285  1.6777
 9169SOL     OW38965   0.608   4.149   8.077 -0.2817  0.5159 -0.0311
 9169SOL    HW138966   0.518   4.115   8.078 -1.1450  2.6904 -2.0497
 9169SOL    HW238967   0.610   4.177   7.985  0.4599  1.6254  0.3344
 9170SOL     OW38968   0.577   1.767  14.610 -0.2972 -0.7139  0.2502
 9170SOL    HW138969   0.575   1.811  14.695  1.6395 -0.3893  0.1355
 9170SOL    HW238970   0.566   1.837  14.546 -0.0862 -1.1567 -0.2727
 9171SOL     OW38971   2.279   0.925  12.973  0.0534 -0.3983 -0.0857
 9171SOL    HW138972   2.290   0.906  13.067  0.4512 -1.1229 -0.2757
 9171SOL    HW238973   2.215   0.996  12.973 -0.1247 -0.5564  0.6333
 9172SOL     OW38974   2.413   1.929   5.743 -0.2308 -0.1698 -0.3365
 9172SOL    HW138975   2.347   1.997   5.732  0.1291 -0.4914 -4.4713
 9172SOL    HW238976   2.416   1.894   5.653  0.0601  0.1723 -0.4618
 9173SOL     OW38977   0.180   1.017   6.747 -0.7510 -0.3388  0.4438
 9173SOL    HW138978   0.208   1.088   6.805 -1.2279 -0.9178  1.3787
 9173SOL    HW238979   0.118   1.061   6.689  0.3702 -0.3996 -0.7966
 9174SOL     OW38980   4.587   2.602   0.716  0.1117  0.7031 -0.0289
 9174SOL    HW138981   4.530   2.641   0.782  0.2311  0.1354  0.4056
 9174SOL    HW238982   4.597   2.519   0.762  1.0362  1.0768  0.4392
 9175SOL     OW38983   2.158   4.297   8.168  0.6646 -0.6031 -0.2357
 9175SOL    HW138984   2.141   4.336   8.083  1.1137 -0.1772 -0.1306
 9175SOL    HW238985   2.250   4.270   8.162  0.7171 -0.6170  0.5990
 9176SOL     OW38986   0.463   3.035  10.364  0.8611  0.1814  0.0063
 9176SOL    HW138987   0.414   2.979  10.304 -0.4965  2.3216 -0.9147
 9176SOL    HW238988   0.424   3.004  10.445 -0.7529  0.3694 -0.7049
 9177SOL     OW38989   0.121   2.238   8.423  0.5100 -0.0373  0.4380
 9177SOL    HW138990   0.100   2.318   8.470  1.5624 -0.4089  1.5403
 9177SOL    HW238991   0.055   2.238   8.353 -0.3413 -0.1241  1.2474
 9178SOL     OW38992   2.023   0.001   0.871  0.0489  0.0224  0.1105
 9178SOL    HW138993   1.961   4.654   0.849 -0.3757  0.1908  0.8068
 9178SOL    HW238994   1.970   0.041   0.939  0.0497 -1.7204  1.1218
 9179SOL     OW38995   0.496   2.535   8.487 -0.1341 -0.3606 -0.1346
 9179SOL    HW138996   0.588   2.518   8.467 -0.1966 -0.5349 -0.2647
 9179SOL    HW238997   0.461   2.447   8.495  1.7068 -1.0978 -0.1921
 9180SOL     OW38998   1.955   3.068   5.273  0.4963  0.1493  0.1236
 9180SOL    HW138999   2.042   3.070   5.313  0.8279  1.0590 -0.6412
 9180SOL    HW239000   1.977   3.097   5.185  0.4084 -0.1170  0.0129
 9181SOL     OW39001   1.761   1.470  14.067  0.2194  0.3963 -0.0735
 9181SOL    HW139002   1.699   1.534  14.032 -2.4481 -1.4459  1.2783
 9181SOL    HW239003   1.788   1.519  14.144 -1.6723  0.1746  0.7380
 9182SOL     OW39004   2.500   0.159  10.914 -0.7421  0.2315  0.2411
 9182SOL    HW139005   2.501   0.069  10.882 -0.6967  1.0860 -2.2005
 9182SOL    HW239006   2.409   0.184  10.903 -1.1109 -0.7747  1.0078
 9183SOL     OW39007   3.595   4.637   7.764  0.2570  0.1226 -0.2903
 9183SOL    HW139008   3.570   0.007   7.768 -0.3029 -0.1158  1.9045
 9183SOL    HW239009   3.506   4.602   7.757  0.2113 -0.0136  0.9416
 9184SOL     OW39010   4.497   1.188   8.057  0.2563 -0.0528  0.5369
 9184SOL    HW139011   4.472   1.242   8.132 -0.4498  0.3765 -0.0060
 9184SOL    HW239012   4.588   1.169   8.079 -0.0222 -2.1844 -0.1651
 9185SOL     OW39013   3.379   2.764   7.497 -0.5159  0.9398  0.2211
 9185SOL    HW139014   3.377   2.854   7.465  0.7894  0.3776 -1.4577
 9185SOL    HW239015   3.461   2.731   7.460 -0.4857 -0.9987  1.9988
 9186SOL     OW39016   2.719   2.469  12.187 -0.4797 -0.0982 -0.2943
 9186SOL    HW139017   2.641   2.501  12.232  0.7874  0.9724  1.1420
 9186SOL    HW239018   2.778   2.441  12.257  0.6395  0.0958 -1.1750
 9187SOL     OW39019   1.057   1.453  12.048  0.2550 -0.0908 -0.6747
 9187SOL    HW139020   0.988   1.402  12.005 -0.6947 -0.6295  1.4640
 9187SOL    HW239021   1.115   1.463  11.973  0.6053  0.0147 -0.3891
 9188SOL     OW39022   2.318   2.490  13.142  0.1143 -0.3216 -0.6062
 9188SOL    HW139023   2.249   2.506  13.207  0.9236  2.1924 -0.3583
 9188SOL    HW239024   2.368   2.572  13.138  0.4070 -0.4627  0.2340
 9189SOL     OW39025   2.163   3.304  16.317  0.4744 -0.0640  0.0961
 9189SOL    HW139026   2.138   3.241  16.249  0.8832 -1.4651  1.2498
 9189SOL    HW239027   2.158   3.386  16.268  0.6082  0.1239  0.3939
 9190SOL     OW39028   3.981   3.935   5.994  0.1613 -0.3147 -0.3119
 9190SOL    HW139029   3.993   3.890   5.910  2.7895  0.1001 -0.1750
 9190SOL    HW239030   3.909   3.887   6.034  2.1617 -2.3873  0.7924
 9191SOL     OW39031   2.183   0.322   5.545  0.6635 -0.0650  0.5006
 9191SOL    HW139032   2.120   0.277   5.601  1.6648 -3.3110 -1.0130
 9191SOL    HW239033   2.171   0.412   5.578  1.8920 -0.2166  1.3738
 9192SOL     OW39034   4.444   3.408   2.894  0.7237  0.1445 -0.6703
 9192SOL    HW139035   4.368   3.360   2.928  1.6250 -0.6813  0.1896
 9192SOL    HW239036   4.440   3.482   2.954 -0.3192 -1.0678  0.7426
 9193SOL     OW39037   3.607   0.568  14.978 -0.2074  0.6547 -0.4612
 9193SOL    HW139038   3.588   0.658  14.950 -1.2203  0.4119 -0.5693
 9193SOL    HW239039   3.563   0.525  14.905 -1.3811  0.5885  0.2796
 9194SOL     OW39040   1.971   1.244  13.243 -0.2190 -0.6437 -0.3775
 9194SOL    HW139041   1.985   1.192  13.164 -0.1835  0.7281 -1.2538
 9194SOL    HW239042   1.956   1.174  13.307  0.0029 -0.0044  0.3739
 9195SOL     OW39043   0.816   2.405   7.723 -0.3994 -0.3686  0.2086
 9195SOL    HW139044   0.884   2.340   7.706 -0.3732  0.2286 -1.9177
 9195SOL    HW239045   0.764   2.405   7.643 -0.0395  0.9577 -0.0197
 9196SOL     OW39046   0.912   0.432  12.451 -0.5078 -0.2968 -0.3714
 9196SOL    HW139047   0.876   0.420  12.539  0.3821 -0.4474 -0.0283
 9196SOL    HW239048   1.007   0.429  12.466 -0.1451 -0.3099 -2.6831
 9197SOL     OW39049   0.565   1.555   9.041 -0.4600 -0.2813 -0.0604
 9197SOL    HW139050   0.617   1.594   9.111  0.3283  2.5630 -2.2331
 9197SOL    HW239051   0.555   1.462   9.061 -1.5280 -0.2177 -0.3261
 9198SOL     OW39052   3.862   2.096   6.493 -0.2385  0.0973 -0.3022
 9198SOL    HW139053   3.923   2.143   6.435 -0.9967 -0.7880 -1.8094
 9198SOL    HW239054   3.916   2.023   6.521 -0.9493 -1.0101 -1.8377
 9199SOL     OW39055   0.991   1.881   4.272 -0.7963  0.1741  0.4990
 9199SOL    HW139056   1.067   1.826   4.256 -2.6436 -2.0476 -0.7671
 9199SOL    HW239057   0.925   1.816   4.246 -0.5148  0.6063 -1.3448
 9200SOL     OW39058   3.913   1.562   6.689  0.0831 -0.3936 -0.3666
 9200SOL    HW139059   3.973   1.558   6.764  0.2693  0.9897 -0.4304
 9200SOL    HW239060   3.875   1.648   6.711 -1.9120 -1.5180  0.6022
 9201SOL     OW39061   4.443   1.534   7.140  0.5038 -0.6440 -0.6213
 9201SOL    HW139062   4.474   1.623   7.153  2.3662 -1.3553 -0.2058
 9201SOL    HW239063   4.364   1.551   7.089  1.6733  1.6130 -1.6771
 9202SOL     OW39064   0.457   4.610  10.564 -0.6371  0.3324  0.0684
 9202SOL    HW139065   0.451   4.514  10.562  0.3169  0.2407  1.4978
 9202SOL    HW239066   0.544   4.612  10.605  0.1028 -2.1436 -1.3431
 9203SOL     OW39067   2.681   2.098   7.960  0.1075 -0.4943  0.0734
 9203SOL    HW139068   2.663   2.062   8.047  1.1772  0.0042  0.4959
 9203SOL    HW239069   2.746   2.035   7.931  2.6294  1.5877  1.2101
 9204SOL     OW39070   3.776   1.136   4.703 -0.2323 -0.2986 -0.1558
 9204SOL    HW139071   3.739   1.067   4.758  2.6230 -0.9737  0.9501
 9204SOL    HW239072   3.809   1.077   4.635  1.8702  0.4547  0.2109
 9205SOL     OW39073   1.014   0.184   6.801 -0.4559 -0.1717 -0.4931
 9205SOL    HW139074   0.970   0.159   6.882 -1.2519  2.5650 -0.0808
 9205SOL    HW239075   1.033   0.096   6.769  0.8053 -0.6114  1.5005
 9206SOL     OW39076   0.176   3.181   8.362  0.6068 -0.4988  0.1893
 9206SOL    HW139077   0.216   3.110   8.313 -0.8855 -1.2278  0.0101
 9206SOL    HW239078   0.145   3.143   8.444  1.6199  2.8858  2.1083
 9207SOL     OW39079   3.894   1.291   5.746 -0.4006  0.3290 -0.2684
 9207SOL    HW139080   3.924   1.330   5.663 -2.1134 -1.3836 -1.7030
 9207SOL    HW239081   3.939   1.206   5.743  1.4059  1.2015  2.0963
 9208SOL     OW39082   1.594   3.363   4.547 -0.1344 -0.4138  0.2245
 9208SOL    HW139083   1.615   3.343   4.638  1.4612  0.4395  0.0374
 9208SOL    HW239084   1.623   3.454   4.550 -0.7349 -0.3131  2.9872
 9209SOL     OW39085   4.585   0.512  15.608 -0.5310  0.2119  0.1959
 9209SOL    HW139086   4.567   0.421  15.632  2.3240 -0.5101 -0.3073
 9209SOL    HW239087   4.542   0.525  15.523 -2.5075 -0.9026  1.0532
 9210SOL     OW39088   3.457   3.703  13.685  0.5571  0.4231  0.4123
 9210SOL    HW139089   3.375   3.674  13.724 -0.4339  0.1243 -1.8968
 9210SOL    HW239090   3.512   3.716  13.762  0.7058 -2.5865  0.8040
 9211SOL     OW39091   1.071   1.946   6.276 -0.5613  0.0899  0.2693
 9211SOL    HW139092   1.146   1.902   6.316 -0.8614 -0.6386  0.0293
 9211SOL    HW239093   0.996   1.895   6.307  0.1272 -1.4999 -0.6491
 9212SOL     OW39094   0.160   2.739   3.531  0.0350  0.2130 -0.4027
 9212SOL    HW139095   0.255   2.741   3.518  0.3204 -1.2339  1.5923
 9212SOL    HW239096   0.141   2.820   3.579  0.9604 -1.0831  2.1343
 9213SOL     OW39097   0.597   1.565   7.624 -0.6222  0.1796 -0.5261
 9213SOL    HW139098   0.691   1.557   7.607 -0.4385  0.9582  0.1340
 9213SOL    HW239099   0.559   1.550   7.537 -0.9476  0.6438 -0.4689
 9214SOL     OW39100   1.130   2.190  15.570 -0.0811  0.0676  0.3968
 9214SOL    HW139101   1.098   2.118  15.516 -1.0220  0.2683  0.6837
 9214SOL    HW239102   1.050   2.243  15.563  1.2607  1.9292 -0.6616
 9215SOL     OW39103   0.593   4.298  14.338 -0.2178  0.1579  0.2293
 9215SOL    HW139104   0.681   4.333  14.341  0.7709 -2.1474 -1.9099
 9215SOL    HW239105   0.557   4.333  14.257 -0.8763 -2.9930 -0.8715
 9216SOL     OW39106   4.427   3.749  10.307 -0.3595  0.0229  0.0370
 9216SOL    HW139107   4.504   3.802  10.326 -1.3309  1.1323  0.8034
 9216SOL    HW239108   4.385   3.798  10.236 -0.0771  1.1868  0.6766
 9217SOL     OW39109   4.126   0.058   6.216 -0.1615 -0.1954  0.2923
 9217SOL    HW139110   4.203   0.017   6.256 -0.5848 -1.2169  0.0663
 9217SOL    HW239111   4.099   4.712   6.156 -1.6313 -0.6733  1.4935
 9218SOL     OW39112   0.276   3.231   7.924 -0.1145 -0.2406 -0.0670
 9218SOL    HW139113   0.252   3.262   7.837 -1.3080  0.2049  0.4242
 9218SOL    HW239114   0.370   3.248   7.918 -0.1932  0.4240  0.5824
 9219SOL     OW39115   3.851   3.688   5.265 -0.3268  0.2057 -0.2645
 9219SOL    HW139116   3.841   3.774   5.224 -0.6054 -0.9875 -2.6517
 9219SOL    HW239117   3.870   3.627   5.194  0.5520 -1.6801  1.5971
 9220SOL     OW39118   0.069   2.806  11.731  0.3905  0.0603 -0.0457
 9220SOL    HW139119   0.033   2.722  11.761 -0.3854  1.8272  3.9082
 9220SOL    HW239120   4.719   2.864  11.751  0.7608  0.7088 -0.5741
 9221SOL     OW39121   4.580   1.720   2.715 -0.2012 -0.0214 -0.7399
 9221SOL    HW139122   4.559   1.785   2.783 -1.5687 -1.1928 -0.0373
 9221SOL    HW239123   4.498   1.703   2.667 -1.6566  0.2274  1.6561
 9222SOL     OW39124   1.073   3.559  12.516  0.1556  0.6564  0.2201
 9222SOL    HW139125   1.083   3.503  12.593  0.7951  2.7606  1.6481
 9222SOL    HW239126   1.116   3.643  12.533  1.0074 -0.1090  1.8664
 9223SOL     OW39127   1.792   0.510  12.344  0.3671  0.0615  0.4922
 9223SOL    HW139128   1.766   0.582  12.401  0.9633 -0.9540  2.0320
 9223SOL    HW239129   1.820   0.554  12.263 -3.2524  0.3095 -0.6267
 9224SOL     OW39130   2.366   3.557   3.459  0.0326 -0.4231  0.1294
 9224SOL    HW139131   2.357   3.469   3.495  1.9184 -0.0224  1.5499
 9224SOL    HW239132   2.303   3.614   3.503  0.1318 -1.0977  1.1350
 9225SOL     OW39133   3.643   3.419   1.073  0.4179  0.1491 -0.2744
 9225SOL    HW139134   3.592   3.499   1.086 -0.8273 -0.5804 -0.7086
 9225SOL    HW239135   3.736   3.442   1.076  0.4321  0.4211 -2.4069
 9226SOL     OW39136   0.015   2.029   8.604 -0.1931 -0.2831 -0.0595
 9226SOL    HW139137   0.046   2.090   8.537 -4.1323  1.5163 -0.2065
 9226SOL    HW239138   4.685   2.088   8.657  1.6564  0.1076  1.3903
 9227SOL     OW39139   4.245   2.123  12.557 -0.3990 -0.8155 -0.0265
 9227SOL    HW139140   4.170   2.071  12.526  0.0364 -0.1404 -2.2005
 9227SOL    HW239141   4.289   2.161  12.481 -0.4357  0.5752  0.6497
 9228SOL     OW39142   4.078   1.065  16.555  0.0620  0.4123 -0.1419
 9228SOL    HW139143   4.110   1.044  16.643  1.4062  2.8341 -0.0369
 9228SOL    HW239144   4.148   1.113  16.511  0.8652  0.3170  1.0419
 9229SOL     OW39145   0.781   4.284  14.791  0.2815 -0.0677  0.5402
 9229SOL    HW139146   0.787   4.324  14.878  0.1231 -0.0765  0.5543
 9229SOL    HW239147   0.832   4.346  14.739 -1.2998  0.6496 -0.1452
 9230SOL     OW39148   3.367   3.934  15.594  0.2080 -0.3866 -0.2004
 9230SOL    HW139149   3.408   3.941  15.508  0.5430  1.8731  0.1350
 9230SOL    HW239150   3.356   3.839  15.604 -2.0115  0.0201  1.2284
 9231SOL     OW39151   3.203   3.154   8.773  0.2052 -1.3242  0.7532
 9231SOL    HW139152   3.148   3.230   8.793  1.4015 -0.1472 -0.4051
 9231SOL    HW239153   3.167   3.086   8.830  0.4040  0.8852  3.4886
 9232SOL     OW39154   3.106   1.474   1.394 -0.2010 -0.4948  0.4282
 9232SOL    HW139155   3.155   1.530   1.335  0.3802 -1.4426  0.0136
 9232SOL    HW239156   3.086   1.532   1.468  0.4480  1.7754 -1.1939
 9233SOL     OW39157   2.240   0.772   5.949  0.0499 -0.0514  0.0838
 9233SOL    HW139158   2.223   0.701   5.887 -1.8945 -1.5183  2.2544
 9233SOL    HW239159   2.159   0.824   5.955  1.3446  1.7363  2.1470
 9234SOL     OW39160   3.662   1.064  13.236  0.1289  0.1291  0.1523
 9234SOL    HW139161   3.578   1.027  13.207 -0.2774  1.7722 -0.7660
 9234SOL    HW239162   3.692   1.119  13.164  0.0952  1.1393  0.9107
 9235SOL     OW39163   4.113   0.486  12.846  0.4239  0.4301  0.1731
 9235SOL    HW139164   4.192   0.468  12.897  0.8811 -0.6803 -0.9002
 9235SOL    HW239165   4.086   0.394  12.846 -0.2975  0.6399 -0.3810
 9236SOL     OW39166   1.622   2.721  15.436  0.0955  0.1381 -0.7671
 9236SOL    HW139167   1.618   2.816  15.451 -1.4555 -0.4813  2.7310
 9236SOL    HW239168   1.711   2.709  15.467  0.0080 -0.0418 -0.5861
 9237SOL     OW39169   0.563   0.084   8.134  0.2080  0.3533  0.1179
 9237SOL    HW139170   0.575   4.717   8.104 -1.5395  0.2645 -0.2886
 9237SOL    HW239171   0.482   0.084   8.185 -1.1430 -0.0277 -2.0159
 9238SOL     OW39172   2.852   1.804   4.690  0.1066 -0.8027  0.7766
 9238SOL    HW139173   2.865   1.831   4.781  2.3034  1.0397 -0.0913
 9238SOL    HW239174   2.913   1.730   4.689 -0.0573 -0.9408  1.1421
 9239SOL     OW39175   4.182   2.667   9.117  0.3930  0.0285  0.4641
 9239SOL    HW139176   4.198   2.604   9.047 -0.3860 -1.5691  1.7316
 9239SOL    HW239177   4.213   2.615   9.192 -1.1562 -0.3049  0.8707
 9240SOL     OW39178   1.782   0.282   9.611 -0.3646  0.4767  0.1049
 9240SOL    HW139179   1.718   0.289   9.682  0.3902 -0.9231  0.9210
 9240SOL    HW239180   1.745   0.215   9.553 -0.4944  0.4720  0.1912
 9241SOL     OW39181   3.408   3.580   3.273 -0.4612  0.3074 -0.2245
 9241SOL    HW139182   3.358   3.591   3.353  0.4199  0.1525  0.3426
 9241SOL    HW239183   3.451   3.665   3.272  0.8114 -0.3302  0.6991
 9242SOL     OW39184   3.510   1.553   5.533 -0.2277  0.1888 -0.4137
 9242SOL    HW139185   3.530   1.647   5.539 -0.6589  0.2347  0.2426
 9242SOL    HW239186   3.581   1.534   5.472 -0.1291  0.8665 -0.5162
 9243SOL     OW39187   1.555   3.712   9.662  0.2377  0.1440  0.2420
 9243SOL    HW139188   1.598   3.796   9.676 -3.5342  2.0946  0.2287
 9243SOL    HW239189   1.614   3.663   9.719  0.3217  0.4417  0.4120
 9244SOL     OW39190   2.881   1.999   8.834 -0.4290 -0.3454 -0.0180
 9244SOL    HW139191   2.905   1.937   8.765 -0.2701  2.4853 -2.4730
 9244SOL    HW239192   2.946   1.969   8.898  1.9253  3.5338 -0.5999
 9245SOL     OW39193   2.104   4.095  15.543  0.0263  0.2169 -0.2938
 9245SOL    HW139194   2.149   4.125  15.623 -1.9252 -0.0304  0.8993
 9245SOL    HW239195   2.143   4.008  15.535  0.6096  0.4274  0.1990
 9246SOL     OW39196   4.189   2.985  11.643  0.4399 -0.2336  0.2085
 9246SOL    HW139197   4.224   3.074  11.642  0.0726 -0.0786  1.6526
 9246SOL    HW239198   4.269   2.940  11.668  1.5585  1.0291 -1.1160
 9247SOL     OW39199   4.305   2.712   6.991 -0.3322 -0.2167  0.3318
 9247SOL    HW139200   4.300   2.806   7.005 -2.6589  0.0356 -2.3107
 9247SOL    HW239201   4.239   2.695   6.925 -1.2371 -0.1125  1.2071
 9248SOL     OW39202   2.172   1.221   5.287 -0.2015  0.1820  0.6233
 9248SOL    HW139203   2.170   1.130   5.257  0.3542 -0.3194  2.1042
 9248SOL    HW239204   2.090   1.264   5.264  0.3854  1.8889  1.7493
 9249SOL     OW39205   2.414   2.643   7.154 -0.6280 -0.8449 -0.4816
 9249SOL    HW139206   2.471   2.716   7.180 -0.7168 -1.4941  1.5248
 9249SOL    HW239207   2.418   2.585   7.230  0.5333  2.0535  1.6659
 9250SOL     OW39208   0.827   3.738  11.699 -0.0051  0.4403 -0.5633
 9250SOL    HW139209   0.873   3.656  11.678 -0.9282 -0.8620  2.5870
 9250SOL    HW239210   0.876   3.776  11.771  0.5892 -0.6354 -0.3979
 9251SOL     OW39211   2.335   2.062   8.408  0.1533 -0.6381 -0.1629
 9251SOL    HW139212   2.406   2.034   8.466 -1.7144 -1.6520  1.6212
 9251SOL    HW239213   2.268   1.996   8.423 -0.9872  0.4773 -0.3543
 9252SOL     OW39214   1.983   2.823   6.507  0.2244 -0.0185  0.0117
 9252SOL    HW139215   1.960   2.834   6.599 -1.7085  0.9993 -0.5828
 9252SOL    HW239216   2.055   2.761   6.520  1.3776  1.5804  1.1851
 9253SOL     OW39217   3.647   3.017   3.467  0.3589  0.2590  0.0516
 9253SOL    HW139218   3.646   2.930   3.506  0.0785  0.8632  1.3913
 9253SOL    HW239219   3.602   2.997   3.386  2.3755  1.2229 -1.3138
 9254SOL     OW39220   3.738   3.025  10.613  0.3900 -0.7321  0.6789
 9254SOL    HW139221   3.675   3.097  10.623  0.4943 -0.5829  0.2515
 9254SOL    HW239222   3.679   2.953  10.632 -0.6042  0.2259  1.2250
 9255SOL     OW39223   1.454   2.554   6.397 -0.2251 -0.4956  0.0236
 9255SOL    HW139224   1.383   2.527   6.455 -1.2444  1.9246 -0.0947
 9255SOL    HW239225   1.464   2.472   6.349  2.4235 -2.2716  3.6655
 9256SOL     OW39226   0.338   2.680   9.552  0.2667 -0.0569  0.1920
 9256SOL    HW139227   0.292   2.666   9.470  0.1897  1.1317  0.0297
 9256SOL    HW239228   0.281   2.749   9.586  2.4852  2.7738 -1.8658
 9257SOL     OW39229   4.205   0.394   5.004 -0.2317  0.6089 -0.2456
 9257SOL    HW139230   4.261   0.468   5.028 -1.7778  1.9052 -0.6664
 9257SOL    HW239231   4.228   0.389   4.912  0.5691  0.2034 -0.0235
 9258SOL     OW39232   0.629   3.125   7.135 -0.0622 -0.8215 -0.0411
 9258SOL    HW139233   0.679   3.152   7.059 -1.0308  0.4425 -0.2247
 9258SOL    HW239234   0.552   3.182   7.138  0.5577  0.0607 -1.3755
 9259SOL     OW39235   0.420   3.968   9.018  0.6046 -0.3086 -0.3271
 9259SOL    HW139236   0.342   3.927   8.982  1.4476 -2.4342  0.2719
 9259SOL    HW239237   0.420   3.959   9.113 -1.3183  0.6215 -0.2405
 9260SOL     OW39238   3.845   2.980   8.514 -0.1076  0.2609  0.3936
 9260SOL    HW139239   3.827   3.064   8.557 -0.1382  0.9760 -1.0288
 9260SOL    HW239240   3.866   2.991   8.421  1.6511  0.3621  0.8086
 9261SOL     OW39241   1.277   1.843   3.895  0.0792 -0.8562  0.2567
 9261SOL    HW139242   1.355   1.858   3.842  0.0538 -1.8874 -0.0625
 9261SOL    HW239243   1.309   1.809   3.979  1.9972 -0.8863 -0.4724
 9262SOL     OW39244   2.548   2.807  14.685  0.0371  0.3475  0.2650
 9262SOL    HW139245   2.607   2.736  14.660  1.8185  2.0447 -0.4303
 9262SOL    HW239246   2.615   2.872  14.707  0.8790 -0.5849  0.4848
 9263SOL     OW39247   1.189   1.803   2.262 -0.4079 -0.1292 -0.1623
 9263SOL    HW139248   1.219   1.864   2.195 -2.5310 -0.6221 -1.5466
 9263SOL    HW239249   1.138   1.867   2.312 -0.5451  0.0675 -0.5603
 9264SOL     OW39250   3.008   0.876   3.711  0.2417  0.0675 -0.0167
 9264SOL    HW139251   3.022   0.792   3.755  0.2401  0.4873  0.7908
 9264SOL    HW239252   2.982   0.931   3.785  1.7640  2.5397 -1.3111
 9265SOL     OW39253   0.513   2.713   5.553  0.1603  0.7211  0.0251
 9265SOL    HW139254   0.437   2.656   5.542  0.5182  0.1311  0.6147
 9265SOL    HW239255   0.560   2.658   5.616 -0.9294 -1.4055 -1.0302
 9266SOL     OW39256   0.686   3.145  10.252  0.6560  0.0248 -0.9140
 9266SOL    HW139257   0.751   3.082  10.285 -1.5202 -1.7582  0.0042
 9266SOL    HW239258   0.612   3.096  10.288  1.0914 -0.8265 -1.1579
 9267SOL     OW39259   3.671   0.409   2.458  0.8236 -0.3380 -0.1368
 9267SOL    HW139260   3.711   0.496   2.451 -2.1685  1.1030  0.7478
 9267SOL    HW239261   3.586   0.431   2.421  0.7130 -3.5722 -1.7467
 9268SOL     OW39262   0.136   1.720   1.362  0.1667  0.2143  0.1288
 9268SOL    HW139263   0.133   1.639   1.310  1.4457  0.0029  0.3727
 9268SOL    HW239264   0.098   1.782   1.299 -0.5859 -0.1998  0.1820
 9269SOL     OW39265   0.680   3.835   1.405  0.1255  0.3140  0.1823
 9269SOL    HW139266   0.593   3.826   1.367  1.2949 -1.6424 -2.0574
 9269SOL    HW239267   0.651   3.904   1.465 -1.9205 -0.6354  0.2510
 9270SOL     OW39268   2.341   3.042   5.099 -0.1904 -0.6271 -0.7162
 9270SOL    HW139269   2.417   3.087   5.061 -0.8741  0.3010 -0.9676
 9270SOL    HW239270   2.370   2.954   5.073 -0.5120 -0.7951 -0.5023
 9271SOL     OW39271   0.603   2.671   9.399  0.0113 -0.2336 -0.4608
 9271SOL    HW139272   0.561   2.643   9.318 -0.5305 -0.4247 -0.1174
 9271SOL    HW239273   0.522   2.673   9.450  0.9473  0.7761  0.9971
 9272SOL     OW39274   2.511   0.760  10.439 -0.0159 -0.2662  0.0025
 9272SOL    HW139275   2.418   0.742  10.427 -0.0477  0.7996 -1.4209
 9272SOL    HW239276   2.543   0.670  10.428  3.0698  0.6433  1.4328
 9273SOL     OW39277   0.590   1.053   8.108 -0.2504  0.8885  0.2833
 9273SOL    HW139278   0.642   1.075   8.185  0.8669  1.2124 -0.5699
 9273SOL    HW239279   0.505   1.078   8.145  1.1321 -0.3258  4.1996
 9274SOL     OW39280   1.816   3.140   5.676 -0.4545  0.1514  0.4864
 9274SOL    HW139281   1.793   3.117   5.586 -1.6933  0.5371  0.7004
 9274SOL    HW239282   1.897   3.090   5.690  0.5668  1.2353 -1.5736
 9275SOL     OW39283   2.753   2.769   0.299 -0.2106  0.3527 -0.3847
 9275SOL    HW139284   2.691   2.810   0.359 -1.8637 -3.8685  0.7664
 9275SOL    HW239285   2.699   2.699   0.265 -0.0898 -0.8704  1.9395
 9276SOL     OW39286   3.874   4.589   5.067  0.0901  0.4550 -0.3750
 9276SOL    HW139287   3.871   4.509   5.014 -0.0223  0.3594 -0.2238
 9276SOL    HW239288   3.942   4.633   5.016 -1.1557  1.3806 -1.2102
 9277SOL     OW39289   1.931   0.997  13.902 -0.6237 -0.1329 -0.2317
 9277SOL    HW139290   1.900   1.078  13.943 -0.9455  0.6224 -1.9590
 9277SOL    HW239291   1.923   1.008  13.807 -0.1122 -2.7452 -0.5653
 9278SOL     OW39292   2.232   2.101   5.460  0.7786 -0.5254 -0.0790
 9278SOL    HW139293   2.306   2.043   5.476  0.1309 -0.4063  3.2919
 9278SOL    HW239294   2.242   2.145   5.376 -1.4045 -2.7971 -1.5622
 9279SOL     OW39295   0.060   2.640   6.567 -0.2340 -0.0556 -0.6331
 9279SOL    HW139296   0.141   2.676   6.603  0.6435 -1.7865 -0.8865
 9279SOL    HW239297   0.015   2.725   6.573 -1.3891 -0.6544 -0.7291
 9280SOL     OW39298   3.108   1.891   8.945  0.1555  0.2030 -0.0223
 9280SOL    HW139299   3.104   1.937   9.028  2.1831  0.4118 -0.0623
 9280SOL    HW239300   3.193   1.925   8.918 -1.5648  2.1931 -3.0298
 9281SOL     OW39301   2.814   3.299   2.319  0.2825  0.5611 -0.2773
 9281SOL    HW139302   2.728   3.299   2.360 -1.0724 -1.8733 -3.1059
 9281SOL    HW239303   2.791   3.261   2.234  0.9631  0.9654 -0.6386
 9282SOL     OW39304   1.528   3.036   8.341 -0.6290 -0.2007  0.1745
 9282SOL    HW139305   1.515   2.955   8.292  2.0211 -0.3969 -0.2376
 9282SOL    HW239306   1.445   3.044   8.387 -1.9528 -0.5955 -2.0994
 9283SOL     OW39307   2.447   2.618   8.416 -0.1791 -0.2759  0.0881
 9283SOL    HW139308   2.450   2.523   8.411 -0.1816 -0.2362 -0.6395
 9283SOL    HW239309   2.482   2.645   8.331  1.4388  2.2088  1.5240
 9284SOL     OW39310   0.155   4.165   4.424 -0.1903 -0.0506 -0.6114
 9284SOL    HW139311   0.070   4.157   4.383 -2.5098 -0.0401  4.1787
 9284SOL    HW239312   0.153   4.258   4.448  2.3252 -0.0812 -0.1836
 9285SOL     OW39313   2.560   3.525   1.201  0.2858 -0.0410  0.1299
 9285SOL    HW139314   2.631   3.475   1.242  0.1220 -2.0301 -2.0185
 9285SOL    HW239315   2.600   3.550   1.118  0.3832  0.0803  0.2137
 9286SOL     OW39316   3.155   3.235   0.256  0.1082 -0.1204 -0.0738
 9286SOL    HW139317   3.196   3.234   0.170 -0.8180  1.8060 -0.5360
 9286SOL    HW239318   3.198   3.157   0.292 -2.1900 -0.2531  2.4325
 9287SOL     OW39319   2.426   3.424  15.076 -0.2000 -0.1065  0.1739
 9287SOL    HW139320   2.482   3.429  14.998 -1.3297  1.0928 -0.5596
 9287SOL    HW239321   2.352   3.479  15.050  1.9615  2.0509 -1.3803
 9288SOL     OW39322   2.775   2.660   3.562 -0.4788  0.2732  0.5658
 9288SOL    HW139323   2.834   2.633   3.632 -0.2105 -0.7129 -0.0409
 9288SOL    HW239324   2.802   2.752   3.556 -1.0987  0.3326 -1.3469
 9289SOL     OW39325   1.988   1.277  14.408  0.0096 -0.0777 -0.0283
 9289SOL    HW139326   1.976   1.183  14.416  0.1682 -0.3068 -2.3411
 9289SOL    HW239327   1.985   1.304  14.500  2.0329  0.6021 -0.1631
 9290SOL     OW39328   0.204   0.083   7.574  0.3203  0.3935 -0.8182
 9290SOL    HW139329   0.109   0.080   7.563  0.3385 -1.6242 -0.5254
 9290SOL    HW239330   0.228   0.049   7.488 -2.9174  0.2143 -1.6422
 9291SOL     OW39331   1.246   4.195   6.939 -0.4658 -0.1176  0.8363
 9291SOL    HW139332   1.338   4.193   6.963 -0.0070  1.3046 -0.8565
 9291SOL    HW239333   1.215   4.251   7.010  0.5082  0.4488  0.8066
 9292SOL     OW39334   0.739   1.553   4.525 -0.0341 -0.1137 -0.2192
 9292SOL    HW139335   0.665   1.593   4.572  1.4510  0.5081  1.5679
 9292SOL    HW239336   0.792   1.525   4.600 -3.1628 -0.1677  1.9867
 9293SOL     OW39337   1.665   3.786   3.512 -0.2792  0.1092 -0.0582
 9293SOL    HW139338   1.703   3.801   3.599 -1.8954  0.9342  0.4936
 9293SOL    HW239339   1.741   3.806   3.457 -0.3151  2.3644  0.6948
 9294SOL     OW39340   1.436   1.273   2.237  0.2282 -0.2711 -0.0668
 9294SOL    HW139341   1.508   1.334   2.221  0.6674 -1.0692 -1.0908
 9294SOL    HW239342   1.357   1.327   2.228  1.0937  0.9124 -0.6146
 9295SOL     OW39343   4.330   0.554   8.676  0.1780 -0.3878 -0.1737
 9295SOL    HW139344   4.273   0.561   8.600  0.1338 -2.2881 -0.3045
 9295SOL    HW239345   4.410   0.557   8.623 -0.3684 -1.1786 -1.0271
 9296SOL     OW39346   1.351   1.389  15.991 -0.0260 -0.4475 -0.3500
 9296SOL    HW139347   1.287   1.423  15.929  1.7263 -0.8073 -2.3461
 9296SOL    HW239348   1.298   1.329  16.043 -0.6289  0.9686  0.6969
 9297SOL     OW39349   1.693   4.374   8.468 -0.3373 -0.1172  0.2764
 9297SOL    HW139350   1.678   4.462   8.502 -1.0711  0.6304 -1.9818
 9297SOL    HW239351   1.788   4.383   8.472 -0.2841 -0.0944 -1.1164
 9298SOL     OW39352   3.492   3.662   6.514  0.3329  0.0272  0.2671
 9298SOL    HW139353   3.525   3.696   6.598 -0.0563 -0.8082  0.7667
 9298SOL    HW239354   3.451   3.583   6.549  1.1678 -0.3530  0.3982
 9299SOL     OW39355   2.890   2.091   8.496  0.2992  0.1438  0.1630
 9299SOL    HW139356   2.959   2.152   8.524 -1.3195  1.0198  2.2104
 9299SOL    HW239357   2.821   2.149   8.465  1.7979  1.9886  0.2313
 9300SOL     OW39358   3.879   2.304   4.951 -0.0883 -0.8462  0.9637
 9300SOL    HW139359   3.940   2.233   4.969 -0.7782 -1.1372  2.1571
 9300SOL    HW239360   3.809   2.253   4.911 -0.8736 -0.9164  2.4317
 9301SOL     OW39361   0.274   1.658   8.368  0.0256  0.2444 -0.3711
 9301SOL    HW139362   0.349   1.699   8.326 -0.7052  0.3642 -1.5710
 9301SOL    HW239363   0.207   1.711   8.324 -1.3594 -1.5214 -0.3994
 9302SOL     OW39364   1.352   0.024   0.434  0.2979 -0.1643 -0.6129
 9302SOL    HW139365   1.397   0.109   0.437  0.8499 -0.4127 -2.0565
 9302SOL    HW239366   1.421   4.688   0.462 -0.5220 -0.8531 -0.0340
 9303SOL     OW39367   2.314   1.304   6.139  0.0694 -0.1438  0.1867
 9303SOL    HW139368   2.345   1.243   6.206 -0.9920  0.1221  0.9093
 9303SOL    HW239369   2.283   1.242   6.073 -0.1588 -1.9137  1.9507
 9304SOL     OW39370   0.836   0.087   8.025  0.2319  0.6317  0.2349
 9304SOL    HW139371   0.785   0.105   8.104 -0.2011 -1.6549  0.4539
 9304SOL    HW239372   0.772   0.085   7.953 -0.6947  1.6163  1.0231
 9305SOL     OW39373   0.359   1.061   3.366 -0.3552 -0.1064  0.1236
 9305SOL    HW139374   0.311   1.057   3.283  1.1428  1.3794 -0.8181
 9305SOL    HW239375   0.375   0.968   3.380 -1.8452 -0.4825 -0.6489
 9306SOL     OW39376   0.515   4.464   5.789 -0.4851 -1.0204 -0.2822
 9306SOL    HW139377   0.487   4.409   5.863 -2.2800  0.3665  0.0904
 9306SOL    HW239378   0.438   4.518   5.772  0.3047  0.1827 -0.0266
 9307SOL     OW39379   3.897   3.593  16.005  0.3970  0.0330  0.1351
 9307SOL    HW139380   3.842   3.647  15.949  1.8793  1.7378  0.3151
 9307SOL    HW239381   3.915   3.523  15.943 -1.1565  0.3656 -0.6768
 9308SOL     OW39382   1.746   0.190   6.115  0.2699 -0.3171 -0.1200
 9308SOL    HW139383   1.791   0.128   6.173 -1.4201 -0.7680  0.7330
 9308SOL    HW239384   1.676   0.218   6.175  0.6518  1.9418 -0.7586
 9309SOL     OW39385   3.489   1.254   7.338  0.2274  0.5586  0.2436
 9309SOL    HW139386   3.527   1.342   7.344 -0.4669  0.7736  1.4998
 9309SOL    HW239387   3.534   1.231   7.257  1.5127  1.0550  0.8219
 9310SOL     OW39388   1.802   3.290   7.409  0.4788 -0.5166  0.1301
 9310SOL    HW139389   1.850   3.316   7.488  0.1559 -0.9848  0.4837
 9310SOL    HW239390   1.857   3.324   7.338  0.0345 -1.9749 -0.9251
 9311SOL     OW39391   3.955   2.583   6.352 -0.7745  0.6050  0.1835
 9311SOL    HW139392   3.993   2.506   6.394  0.3337  1.8461  1.4866
 9311SOL    HW239393   4.037   2.633   6.346  0.1779 -1.1955 -1.6405
 9312SOL     OW39394   1.246   4.415   3.116  0.2274  0.4505 -0.4972
 9312SOL    HW139395   1.204   4.341   3.161  1.6886 -0.0648  0.0290
 9312SOL    HW239396   1.334   4.412   3.153 -0.4031  1.3913  1.0743
 9313SOL     OW39397   2.808   3.639   5.240 -0.3574 -0.4723  0.9514
 9313SOL    HW139398   2.731   3.613   5.291  0.9393  0.1272  3.1935
 9313SOL    HW239399   2.863   3.561   5.246  0.7020  0.1892 -0.1254
 9314SOL     OW39400   0.565   0.389  13.879 -0.2184  0.8062 -0.2878
 9314SOL    HW139401   0.485   0.380  13.828  0.5899 -0.7701 -1.2809
 9314SOL    HW239402   0.604   0.303  13.861 -1.1225  0.4310 -0.4527
 9315SOL     OW39403   1.879   3.705   1.910 -0.3910 -0.2505 -0.2956
 9315SOL    HW139404   1.970   3.733   1.900 -0.5551  0.9560  1.7275
 9315SOL    HW239405   1.872   3.673   1.820 -1.3121 -2.1709  0.4645
 9316SOL     OW39406   1.375   0.239   8.077 -0.3068  0.4379  0.2060
 9316SOL    HW139407   1.403   0.174   8.012  0.8867 -1.2521  2.4205
 9316SOL    HW239408   1.303   0.284   8.032 -0.0261  1.0876  0.4121
 9317SOL     OW39409   4.634   3.333   8.207  0.5668  0.6681 -0.5164
 9317SOL    HW139410   4.627   3.262   8.142  0.5987 -0.7649  1.0493
 9317SOL    HW239411   4.632   3.275   8.283  3.0391  0.1471 -0.8690
 9318SOL     OW39412   0.855   0.540   7.872  0.5618  0.0506  0.3097
 9318SOL    HW139413   0.858   0.631   7.844  1.2444 -0.3096 -0.7995
 9318SOL    HW239414   0.946   0.513   7.884 -0.2474 -3.2422 -0.9661
 9319SOL     OW39415   4.397   2.773   2.441 -0.4081  0.0154  0.0061
 9319SOL    HW139416   4.446   2.855   2.434  0.3083 -0.4706 -0.6459
 9319SOL    HW239417   4.453   2.718   2.386  0.1126 -0.3555  0.9089
 9320SOL     OW39418   1.397   1.875  10.864 -0.1865 -0.3225 -0.0153
 9320SOL    HW139419   1.371   1.958  10.824 -1.2061 -1.0008 -0.7739
 9320SOL    HW239420   1.492   1.883  10.869 -0.0216 -0.9559 -2.1153
 9321SOL     OW39421   3.614   2.123   6.217  0.3461 -0.5421  0.0401
 9321SOL    HW139422   3.676   2.180   6.263 -0.2132 -0.6441  0.9195
 9321SOL    HW239423   3.671   2.047   6.200 -1.7791 -2.1941  0.2741
 9322SOL     OW39424   2.694   2.607   7.108 -0.4637  0.1044  0.5077
 9322SOL    HW139425   2.683   2.676   7.173 -1.9278  0.2840  0.0829
 9322SOL    HW239426   2.603   2.588   7.083  0.2906 -0.2514 -2.0216
 9323SOL     OW39427   1.450   4.153  15.596 -0.2444 -0.3624  0.3153
 9323SOL    HW139428   1.381   4.116  15.651  0.6582 -1.5268  0.6860
 9323SOL    HW239429   1.528   4.146  15.652 -0.6601 -2.7850  0.6167
 9324SOL     OW39430   1.923   0.234  15.874  0.0301  0.0402 -0.8362
 9324SOL    HW139431   1.900   0.194  15.957  0.1871 -1.2946 -1.4379
 9324SOL    HW239432   1.902   0.326  15.891  0.4283 -0.0121 -0.0878
 9325SOL     OW39433   0.997   2.587   4.349 -0.6316 -0.5880  0.1496
 9325SOL    HW139434   1.032   2.674   4.367 -1.3944 -0.3304  0.4323
 9325SOL    HW239435   0.907   2.607   4.323 -0.4845 -0.1231  0.0025
 9326SOL     OW39436   4.356   4.474   2.624 -0.5969  0.2007 -0.0400
 9326SOL    HW139437   4.362   4.379   2.634 -3.5026  0.1711  1.4801
 9326SOL    HW239438   4.311   4.496   2.705 -0.7248 -0.3916  0.0537
 9327SOL     OW39439   1.772   0.853   3.439  0.0704  0.0788 -0.1742
 9327SOL    HW139440   1.802   0.793   3.372 -1.7973 -0.8225 -0.2149
 9327SOL    HW239441   1.791   0.801   3.517 -1.4200 -0.1549  0.0333
 9328SOL     OW39442   1.140   0.211  14.998 -0.4394  0.2217 -0.2965
 9328SOL    HW139443   1.070   0.149  15.016 -0.1047 -0.2028 -0.4702
 9328SOL    HW239444   1.155   0.246  15.085 -2.0902  1.8967 -0.6916
 9329SOL     OW39445   3.842   3.155   9.339  0.6206  0.3390  0.3013
 9329SOL    HW139446   3.820   3.130   9.428  0.3693  0.9393  0.4092
 9329SOL    HW239447   3.884   3.075   9.308 -1.4599 -0.6781  0.1077
 9330SOL     OW39448   4.533   4.198   4.839 -0.1115  0.2988 -0.1064
 9330SOL    HW139449   4.559   4.133   4.774  3.2137  1.7353 -0.2270
 9330SOL    HW239450   4.589   4.166   4.910 -1.6093  3.6225  2.6032
 9331SOL     OW39451   2.083   2.398   5.157 -0.1565  0.2566 -0.1038
 9331SOL    HW139452   2.113   2.475   5.109 -0.2232 -0.0000 -0.5608
 9331SOL    HW239453   2.164   2.360   5.192 -0.3952 -2.6254 -2.6723
 9332SOL     OW39454   2.425   2.341   8.919 -0.4853 -0.4706  0.1028
 9332SOL    HW139455   2.469   2.282   8.858 -1.2002  2.1061 -2.8734
 9332SOL    HW239456   2.332   2.325   8.903 -0.1233 -0.9091 -1.5868
 9333SOL     OW39457   3.617   2.674   5.216 -0.3963 -0.3603 -0.8381
 9333SOL    HW139458   3.684   2.607   5.198 -0.5114 -0.3540 -1.2955
 9333SOL    HW239459   3.593   2.658   5.307 -1.2771  0.6030 -0.9088
 9334SOL     OW39460   2.502   2.949   5.866 -0.8026 -0.2926  0.0080
 9334SOL    HW139461   2.565   2.958   5.795  0.3233 -3.0613  0.6423
 9334SOL    HW239462   2.503   3.033   5.912 -0.4022 -0.1908 -0.1891
 9335SOL     OW39463   1.791   1.043   4.976 -0.7346  0.2002 -0.5379
 9335SOL    HW139464   1.753   0.990   5.047 -0.5115 -1.4223 -1.6197
 9335SOL    HW239465   1.795   0.981   4.903 -2.5318 -2.6299  1.7319
 9336SOL     OW39466   1.882   1.168   8.634 -0.4059 -0.1814 -0.6180
 9336SOL    HW139467   1.880   1.204   8.723  3.1765  0.1473 -0.6737
 9336SOL    HW239468   1.787   1.166   8.617 -0.3112  1.0378 -1.2238
 9337SOL     OW39469   2.260   2.415   3.476 -0.0652 -0.2577  0.1133
 9337SOL    HW139470   2.175   2.377   3.455 -1.6238  2.0364  2.1776
 9337SOL    HW239471   2.233   2.486   3.534  0.3761  0.8247 -1.0015
 9338SOL     OW39472   3.323   1.609   3.344  0.0875 -0.1523 -0.3804
 9338SOL    HW139473   3.323   1.556   3.264  0.2871  0.9741 -1.1308
 9338SOL    HW239474   3.331   1.698   3.308 -1.5356  0.8880  1.8202
 9339SOL     OW39475   2.989   3.467   2.230  0.6275 -0.2408  0.5990
 9339SOL    HW139476   2.908   3.418   2.248  0.5531 -0.9245 -1.7014
 9339SOL    HW239477   3.042   3.389   2.246 -0.4678 -0.3392  3.9556
 9340SOL     OW39478   2.531   0.758  13.691  0.2621 -0.1574 -0.1937
 9340SOL    HW139479   2.453   0.724  13.649  0.1469 -1.0172  0.7058
 9340SOL    HW239480   2.547   0.693  13.760  1.7141 -0.8069 -1.1630
 9341SOL     OW39481   2.369   3.456   6.262 -0.1608 -0.3808 -0.1324
 9341SOL    HW139482   2.309   3.440   6.335 -1.7260  0.9623 -1.1118
 9341SOL    HW239483   2.386   3.365   6.237  0.0287 -1.0357  2.3801
 9342SOL     OW39484   0.587   1.074   5.058 -0.1336 -0.0338 -0.3064
 9342SOL    HW139485   0.512   1.091   4.999 -0.2408  1.9006  0.3715
 9342SOL    HW239486   0.589   0.980   5.045 -0.7363 -0.2250  0.9830
 9343SOL     OW39487   3.162   3.112  17.057 -0.1018  0.0829  0.0259
 9343SOL    HW139488   3.104   3.165  17.002  0.3026  0.8754  0.3591
 9343SOL    HW239489   3.105   3.096  17.132  0.9792  2.0039  1.2696
 9344SOL     OW39490   4.396   2.146  14.250  0.3244  0.2481  0.1740
 9344SOL    HW139491   4.329   2.211  14.229  0.4144  0.6245  1.0512
 9344SOL    HW239492   4.479   2.191  14.239  0.6107 -0.3200  0.0143
 9345SOL     OW39493   0.404   2.185   8.352 -0.2576 -0.5075  0.7705
 9345SOL    HW139494   0.321   2.188   8.398 -0.2400 -0.7289  0.8193
 9345SOL    HW239495   0.451   2.251   8.402 -1.2032 -0.0448  1.0517
 9346SOL     OW39496   1.347   0.078   7.572  0.3984  0.0770  0.0854
 9346SOL    HW139497   1.379   0.009   7.514 -0.3486 -1.9277  2.0644
 9346SOL    HW239498   1.267   0.104   7.525 -1.0311 -1.4359  1.6801
 9347SOL     OW39499   1.743   1.830   6.066  0.5319 -0.4988  0.3935
 9347SOL    HW139500   1.703   1.864   5.986 -3.0636 -0.7354  2.0838
 9347SOL    HW239501   1.663   1.824   6.118  0.7070 -1.2005  0.5778
 9348SOL     OW39502   4.503   4.618  11.871 -0.4735 -0.0447 -0.2244
 9348SOL    HW139503   4.451   4.541  11.846  0.0349 -0.2580 -0.6317
 9348SOL    HW239504   4.588   4.579  11.891 -0.0333  2.0607  1.9049
 9349SOL     OW39505   2.077   0.114  12.190 -0.1818 -0.1599  0.5730
 9349SOL    HW139506   2.136   0.084  12.259 -0.4701 -1.7603  0.1363
 9349SOL    HW239507   2.023   0.175  12.241  1.8605  1.8300  0.3439
 9350SOL     OW39508   0.978   3.052   0.549 -0.1372  0.2574  0.4226
 9350SOL    HW139509   0.968   3.037   0.643 -0.9251 -2.0426 -0.0369
 9350SOL    HW239510   1.072   3.065   0.548  0.1907 -2.1068  0.4637
 9351SOL     OW39511   1.782   1.811   4.977  0.2576 -0.1272 -0.7523
 9351SOL    HW139512   1.687   1.804   4.964  0.4347 -2.8483 -0.5411
 9351SOL    HW239513   1.800   1.720   4.999  1.0823  0.2474  0.1262
 9352SOL     OW39514   1.064   1.393   0.687  0.3335 -0.1505  0.1194
 9352SOL    HW139515   1.032   1.419   0.601  1.3647 -0.0197 -0.2234
 9352SOL    HW239516   0.993   1.420   0.745 -1.2426 -2.4477 -0.7917
 9353SOL     OW39517   1.651   4.717  11.747  0.3316 -0.0637  0.1647
 9353SOL    HW139518   1.607   4.703  11.831 -1.3097  2.1829 -0.3244
 9353SOL    HW239519   1.644   4.638  11.694  0.4710 -1.0587  1.6156
 9354SOL     OW39520   1.042   4.044   0.467  0.3485 -0.1860  0.0029
 9354SOL    HW139521   1.073   3.971   0.413  1.0723  0.0250  0.1321
 9354SOL    HW239522   1.065   4.113   0.405 -0.9493  1.1149  0.9604
 9355SOL     OW39523   2.089   0.809  15.261  0.3787  0.2704 -0.1856
 9355SOL    HW139524   2.117   0.805  15.352  0.0334  2.5289  0.0176
 9355SOL    HW239525   2.148   0.741  15.228  0.3437  0.3053 -0.3213
 9356SOL     OW39526   0.680   0.925   2.422  0.0223 -0.0875  0.5587
 9356SOL    HW139527   0.618   0.997   2.410 -0.9858 -0.4859  3.3927
 9356SOL    HW239528   0.639   0.856   2.369  0.7412 -0.1692  0.1122
 9357SOL     OW39529   1.025   1.850   4.729  0.6308  0.2919 -0.3554
 9357SOL    HW139530   1.051   1.769   4.685 -1.6140  0.8807 -2.7490
 9357SOL    HW239531   0.998   1.903   4.654  1.3872  0.0252 -0.8120
 9358SOL     OW39532   3.737   1.944   1.522  0.7729  0.0782 -0.2268
 9358SOL    HW139533   3.781   1.926   1.605  1.7385  0.5436 -0.6330
 9358SOL    HW239534   3.689   1.861   1.515 -1.2051  1.2631 -0.7791
 9359SOL     OW39535   3.001   2.692   8.627  0.3714  0.4711 -0.4309
 9359SOL    HW139536   2.958   2.619   8.672 -0.9730  1.3802 -0.2441
 9359SOL    HW239537   3.076   2.634   8.612 -0.9744 -1.4642  0.3966
 9360SOL     OW39538   0.425   1.032  11.636 -0.4457  0.3307  0.3422
 9360SOL    HW139539   0.393   1.087  11.707  1.4355  1.5599  0.2230
 9360SOL    HW239540   0.414   1.096  11.566 -2.6331 -1.7607 -1.2569
 9361SOL     OW39541   4.047   1.550  15.149 -0.0221 -0.0745  0.1167
 9361SOL    HW139542   4.135   1.580  15.174 -0.9229  0.6600  2.4264
 9361SOL    HW239543   4.075   1.459  15.155  2.9229  0.7929 -0.4903
 9362SOL     OW39544   3.943   3.306   6.198 -0.2414 -0.1812 -0.6405
 9362SOL    HW139545   3.948   3.250   6.276 -1.3128 -1.8100 -1.7470
 9362SOL    HW239546   3.965   3.253   6.121 -1.4115 -2.5468  0.6243
 9363SOL     OW39547   1.742   1.922  12.670  0.7860 -0.6567 -0.1599
 9363SOL    HW139548   1.737   2.011  12.706  0.1705  0.3086 -2.6486
 9363SOL    HW239549   1.774   1.946  12.583 -0.7713  2.2319  0.0498
 9364SOL     OW39550   0.431   4.078   3.982  0.3422  0.5575  0.2361
 9364SOL    HW139551   0.372   4.105   3.912  0.5573 -0.2822 -0.2646
 9364SOL    HW239552   0.407   4.116   4.066  1.2669  0.9602  0.3264
 9365SOL     OW39553   3.123   2.798  14.715 -0.4787 -0.3981  0.4888
 9365SOL    HW139554   3.187   2.861  14.680  0.0128 -0.9165  0.4596
 9365SOL    HW239555   3.162   2.749  14.787 -1.0931  0.5331  1.4429
 9366SOL     OW39556   4.501   2.123   8.958  0.0892 -0.0976  0.5352
 9366SOL    HW139557   4.534   2.155   8.874 -3.3967  0.0566 -0.7789
 9366SOL    HW239558   4.562   2.055   8.986 -0.6016 -1.3183 -0.8987
 9367SOL     OW39559   0.224   2.606   0.497 -0.3760  0.5008 -0.0124
 9367SOL    HW139560   0.176   2.591   0.578 -1.0532  1.7141 -0.1832
 9367SOL    HW239561   0.253   2.697   0.512 -0.2325  0.6553 -1.2950
 9368SOL     OW39562   1.473   1.924   6.444 -0.0798  0.2376  0.0353
 9368SOL    HW139563   1.556   1.877   6.448  0.9255  1.9697 -0.3531
 9368SOL    HW239564   1.433   1.886   6.522 -1.1269  1.6719  0.1955
 9369SOL     OW39565   0.519   3.145  11.782 -0.1477  1.0107 -0.1984
 9369SOL    HW139566   0.518   3.056  11.748  1.6239  0.4223  1.2871
 9369SOL    HW239567   0.594   3.135  11.840  0.0484 -1.3670 -0.8668
 9370SOL     OW39568   3.805   3.892  16.722  0.2141 -0.9590 -0.5475
 9370SOL    HW139569   3.717   3.857  16.711 -0.7222  0.9612  0.8858
 9370SOL    HW239570   3.846   3.815  16.760 -0.7287 -1.4114 -0.4471
 9371SOL     OW39571   2.704   4.046   9.258 -0.0146  0.3354 -0.0530
 9371SOL    HW139572   2.758   3.976   9.223 -0.8275  0.2854 -1.2006
 9371SOL    HW239573   2.630   3.997   9.293  0.3339 -0.0836  0.0932
 9372SOL     OW39574   0.137   2.391   7.652 -0.0195  0.0500 -0.1046
 9372SOL    HW139575   0.121   2.299   7.674 -0.1291  0.2293  0.5677
 9372SOL    HW239576   0.204   2.381   7.584 -2.6200 -1.2507 -2.4831
 9373SOL     OW39577   4.707   4.301   5.416 -0.7020  0.0561 -0.4001
 9373SOL    HW139578   0.072   4.309   5.453 -0.0170 -0.4114 -1.9351
 9373SOL    HW239579   4.674   4.390   5.433  2.1368  1.4241 -1.9905
 9374SOL     OW39580   0.384   3.336  11.641  0.6026 -0.6984 -0.7083
 9374SOL    HW139581   0.409   3.258  11.690 -0.1328  0.5351  1.6426
 9374SOL    HW239582   0.412   3.404  11.703 -1.4020  1.7632 -2.5079
 9375SOL     OW39583   1.922   1.154  10.955 -0.5752 -0.5353 -0.0819
 9375SOL    HW139584   1.841   1.104  10.954 -0.5717 -0.5408 -0.1154
 9375SOL    HW239585   1.957   1.116  11.035 -0.9063 -1.1349 -0.2254
 9376SOL     OW39586   1.465   0.485  12.578  0.2495  0.2246  0.6339
 9376SOL    HW139587   1.382   0.455  12.541  0.1295 -0.6090  1.5903
 9376SOL    HW239588   1.473   0.560  12.519 -0.2844 -0.1200  0.1341
 9377SOL     OW39589   4.126   0.053  11.561 -1.4041 -0.1146 -0.0032
 9377SOL    HW139590   4.114   0.068  11.467  0.4327  0.6817 -0.1190
 9377SOL    HW239591   4.085   0.131  11.597 -2.6204 -0.5892 -0.3660
 9378SOL     OW39592   1.099   1.442   2.412  0.0330  0.2107  0.7074
 9378SOL    HW139593   1.082   1.388   2.336 -2.6733  2.5110 -0.3462
 9378SOL    HW239594   1.184   1.480   2.392 -0.2086  0.4740  0.1756
 9379SOL     OW39595   3.734   1.117   3.142 -0.2290  0.0192 -0.1100
 9379SOL    HW139596   3.648   1.128   3.183 -0.2461 -2.9077  0.6389
 9379SOL    HW239597   3.781   1.086   3.219  0.4814  2.7436  0.5402
 9380SOL     OW39598   3.069   1.028   8.726 -0.0478  0.5547  0.6339
 9380SOL    HW139599   2.991   1.022   8.781 -0.4035  1.6535  0.2489
 9380SOL    HW239600   3.131   0.988   8.788  0.3363  0.3075  0.0842
 9381SOL     OW39601   0.377   3.045   3.826 -0.0286  0.1968 -0.3998
 9381SOL    HW139602   0.327   2.967   3.802 -1.1848  0.5461  0.8857
 9381SOL    HW239603   0.465   3.029   3.793  0.2066 -0.0603  0.3581
 9382SOL     OW39604   1.669   1.582   5.590  0.5483 -0.5761 -0.3565
 9382SOL    HW139605   1.694   1.528   5.664  0.6465  0.0665  0.0805
 9382SOL    HW239606   1.699   1.668   5.619 -2.5803  0.1722  0.7196
 9383SOL     OW39607   2.287   2.998  15.033  0.2262 -0.3270  0.4518
 9383SOL    HW139608   2.254   2.981  14.944 -2.7803  2.5121  0.9984
 9383SOL    HW239609   2.382   3.001  15.026  0.2121 -0.5062  0.1668
 9384SOL     OW39610   2.855   3.615   1.417 -0.4448  0.5481 -0.4307
 9384SOL    HW139611   2.842   3.533   1.465 -0.3810  0.9591  0.2912
 9384SOL    HW239612   2.801   3.676   1.467 -0.9235  1.0601 -1.5867
 9385SOL     OW39613   2.663   1.679  14.479  0.5524 -0.0477 -0.0144
 9385SOL    HW139614   2.691   1.728  14.401  0.4760  1.4345  0.8930
 9385SOL    HW239615   2.617   1.600  14.449  2.3697 -1.1639  0.0905
 9386SOL     OW39616   3.775   0.976  15.805 -0.9443 -0.0418 -0.4831
 9386SOL    HW139617   3.749   1.068  15.806 -0.8130 -0.0011 -0.9477
 9386SOL    HW239618   3.824   0.956  15.886  0.4733  0.8739 -1.1206
 9387SOL     OW39619   2.686   3.464  10.742  0.9408 -0.4547 -0.2660
 9387SOL    HW139620   2.677   3.499  10.653 -1.7305  1.3565  0.7035
 9387SOL    HW239621   2.769   3.501  10.770  1.1327 -1.7261  0.8336
 9388SOL     OW39622   2.083   0.697   4.863  0.3919 -0.2316  0.2928
 9388SOL    HW139623   2.138   0.713   4.940 -2.5636  1.8370  1.9844
 9388SOL    HW239624   2.001   0.685   4.910  0.5363  0.5582  0.7547
 9389SOL     OW39625   2.339   0.644  12.646 -0.1589 -0.3451 -0.2291
 9389SOL    HW139626   2.430   0.617  12.656  0.0461 -0.1221 -1.5168
 9389SOL    HW239627   2.318   0.664  12.737 -0.2802  1.7544 -0.7333
 9390SOL     OW39628   2.075   2.824  15.706 -0.4696  0.1009 -0.3184
 9390SOL    HW139629   2.142   2.799  15.642 -1.8733  1.8672 -2.4586
 9390SOL    HW239630   2.005   2.791  15.650 -0.2300 -1.8830  0.5214
 9391SOL     OW39631   0.512   2.121   5.355 -0.0254 -0.3309 -0.2526
 9391SOL    HW139632   0.540   2.134   5.445 -1.3503  0.0631  0.1024
 9391SOL    HW239633   0.420   2.098   5.369 -0.0499  0.1240  0.3478
 9392SOL     OW39634   0.681   0.389   1.110 -0.3234 -0.2752 -0.1052
 9392SOL    HW139635   0.648   0.475   1.134  0.0202  0.5494 -2.5084
 9392SOL    HW239636   0.755   0.408   1.051 -0.4956  0.6714 -0.0061
 9393SOL     OW39637   3.135   2.602  16.884 -0.4071  0.4687 -0.0444
 9393SOL    HW139638   3.199   2.662  16.922  3.4778 -1.6998 -3.0402
 9393SOL    HW239639   3.104   2.557  16.963  0.6012 -1.4876 -0.7612
 9394SOL     OW39640   1.474   3.897   4.155  0.2946  0.1548 -0.3603
 9394SOL    HW139641   1.415   3.971   4.145 -0.7145 -0.5666  0.3405
 9394SOL    HW239642   1.407   3.831   4.137 -0.3771  1.2585 -1.8665
 9395SOL     OW39643   1.759   4.501   5.804 -0.1445 -0.4816  0.1937
 9395SOL    HW139644   1.813   4.578   5.822  0.0171 -1.0115  1.9856
 9395SOL    HW239645   1.718   4.491   5.890 -2.8868  0.7321 -0.9579
 9396SOL     OW39646   3.518   1.518   6.041 -0.1540  0.1692 -0.2499
 9396SOL    HW139647   3.524   1.502   5.947  0.0698 -1.0045 -0.0287
 9396SOL    HW239648   3.446   1.463   6.071 -0.7466  0.3994 -1.2441
 9397SOL     OW39649   3.317   2.325   5.121 -0.1809 -0.8954  0.0606
 9397SOL    HW139650   3.307   2.401   5.064  2.4993 -1.3060 -0.9620
 9397SOL    HW239651   3.410   2.329   5.145 -0.1635 -0.9600  0.0068
 9398SOL     OW39652   0.055   0.148   6.417  0.6703 -0.3958  0.6749
 9398SOL    HW139653   4.694   0.164   6.459  0.0940  2.1830 -1.4753
 9398SOL    HW239654   0.118   0.191   6.475  2.2139  0.3410 -1.5391
 9399SOL     OW39655   0.601   4.151  10.189  0.4701  0.4950  0.3267
 9399SOL    HW139656   0.633   4.238  10.211  0.0526  0.6061  0.4924
 9399SOL    HW239657   0.636   4.093  10.257  1.0204 -1.1364 -1.3332
 9400SOL     OW39658   1.246   3.031   1.059 -0.6071 -0.1462  0.4353
 9400SOL    HW139659   1.207   3.108   1.101  2.0089  1.1006  0.5564
 9400SOL    HW239660   1.246   2.957   1.119  0.0819 -0.1619  0.4173
 9401SOL     OW39661   4.092   2.528   3.434 -0.3530 -0.2597 -0.6446
 9401SOL    HW139662   4.114   2.619   3.414 -2.2340  0.9504  2.7324
 9401SOL    HW239663   4.166   2.506   3.490 -0.4392 -0.8655 -0.7637
 9402SOL     OW39664   2.916   0.417   8.191  0.3422  0.0621  0.5440
 9402SOL    HW139665   2.936   0.480   8.122 -0.2470 -1.1579 -0.7498
 9402SOL    HW239666   3.001   0.410   8.235  1.5277 -0.7336 -1.8845
 9403SOL     OW39667   2.545   4.077   2.744  0.0037 -0.6772  0.2980
 9403SOL    HW139668   2.636   4.106   2.750 -0.8861  2.0085  0.8850
 9403SOL    HW239669   2.518   4.018   2.815  0.7357 -2.6129 -1.0310
 9404SOL     OW39670   3.874   0.646  13.401 -0.0035 -1.2254 -0.2780
 9404SOL    HW139671   3.952   0.702  13.394 -0.4187 -0.4817  0.9825
 9404SOL    HW239672   3.840   0.634  13.313 -0.5428  0.9284 -0.3695
 9405SOL     OW39673   2.019   1.543   7.272 -0.5296 -0.4271  1.1228
 9405SOL    HW139674   2.106   1.572   7.245 -0.3940 -0.7401  1.2325
 9405SOL    HW239675   2.010   1.460   7.226 -0.7299  0.0837  0.2214
 9406SOL     OW39676   3.583   2.127   3.060  0.1047  0.0240 -0.4869
 9406SOL    HW139677   3.546   2.055   3.110  0.6900 -0.1904 -0.3577
 9406SOL    HW239678   3.640   2.170   3.124  0.6764 -0.1924 -0.8438
 9407SOL     OW39679   3.394   1.235  13.558  0.1352  0.2910  0.1098
 9407SOL    HW139680   3.411   1.141  13.555  0.7597  0.3735  1.2126
 9407SOL    HW239681   3.485   1.265  13.557  0.8352 -1.9683 -4.3145
 9408SOL     OW39682   3.421   1.556   8.232  0.1751  0.7163  0.0541
 9408SOL    HW139683   3.369   1.476   8.221  0.4926  0.2082  2.1137
 9408SOL    HW239684   3.360   1.606   8.285 -0.2206  0.2049  0.0798
 9409SOL     OW39685   4.563   3.967  16.925  0.0531 -0.0239  0.2565
 9409SOL    HW139686   4.529   3.887  16.964 -0.2769  0.4316  0.9068
 9409SOL    HW239687   4.650   3.970  16.966  0.0703 -0.7560  0.2709
 9410SOL     OW39688   1.348   3.081   4.701 -0.3930  0.0609  0.3236
 9410SOL    HW139689   1.412   3.021   4.739  1.4179  2.3518  0.8188
 9410SOL    HW239690   1.376   3.088   4.610 -1.8712 -1.0554 -0.2346
 9411SOL     OW39691   3.063   4.625  17.365 -0.4466  0.7754  0.3985
 9411SOL    HW139692   3.048   4.704  17.418 -1.6190  2.0241 -1.7893
 9411SOL    HW239693   3.142   4.595  17.410  1.7706  3.3164 -1.8010
 9412SOL     OW39694   0.722   0.084   3.730  0.0895 -0.6293  0.0274
 9412SOL    HW139695   0.806   0.125   3.753  1.2780 -1.8976 -2.0754
 9412SOL    HW239696   0.735   4.713   3.728 -1.1159 -0.7940  0.0746
 9413SOL     OW39697   2.238   2.500   4.419 -0.0153  0.0728 -0.0262
 9413SOL    HW139698   2.290   2.420   4.418  0.5373  0.4319 -0.5795
 9413SOL    HW239699   2.197   2.493   4.505  1.6396 -0.2341  0.7521
 9414SOL     OW39700   0.281   4.595   2.445 -0.1880 -0.2605  0.4462
 9414SOL    HW139701   0.197   4.568   2.408 -1.4235  1.7335  1.7817
 9414SOL    HW239702   0.258   4.631   2.531  1.3068  1.2243  0.2052
 9415SOL     OW39703   0.870   4.598  13.953 -0.0985  0.0125 -0.0606
 9415SOL    HW139704   0.854   4.606  13.859  3.2953  1.5306 -0.5335
 9415SOL    HW239705   0.814   4.522  13.968  0.4018 -0.0947  1.3648
 9416SOL     OW39706   3.866   3.278   0.263  0.2969 -0.5145  0.7165
 9416SOL    HW139707   3.908   3.329   0.333  1.7224 -2.8180  1.5364
 9416SOL    HW239708   3.906   3.192   0.277  0.0170 -0.6218  0.8492
 9417SOL     OW39709   2.769   3.557  16.865  0.5048  0.8334 -0.0562
 9417SOL    HW139710   2.705   3.532  16.798 -1.8659 -0.6419  2.7662
 9417SOL    HW239711   2.736   3.511  16.943  3.9961  0.9587  1.4965
 9418SOL     OW39712   4.001   2.971  16.001 -0.6328  0.1361  0.1794
 9418SOL    HW139713   4.047   2.895  15.963 -0.4477  0.1637  0.3472
 9418SOL    HW239714   4.075   2.998  16.055 -1.1115  3.6844 -0.9846
 9419SOL     OW39715   0.859   0.460   7.325  0.1896 -0.2121 -0.0907
 9419SOL    HW139716   0.880   0.543   7.283  1.1657  0.6689  2.1375
 9419SOL    HW239717   0.940   0.451   7.375 -0.2835  0.5343  0.8088
 9420SOL     OW39718   4.426   4.312  16.202  0.4228 -0.1635  1.3203
 9420SOL    HW139719   4.445   4.405  16.190 -2.9454  0.4302  0.8192
 9420SOL    HW239720   4.398   4.305  16.293 -0.4570 -0.0329  1.0576
 9421SOL     OW39721   0.153   1.969  13.090  0.1080 -0.5014 -0.1237
 9421SOL    HW139722   0.179   1.877  13.090 -2.9874 -1.3751  0.8087
 9421SOL    HW239723   0.183   2.008  13.172 -0.5663 -2.5430  1.0885
 9422SOL     OW39724   4.620   4.545  11.491  0.0536  0.1244 -0.0829
 9422SOL    HW139725   4.563   4.471  11.470 -2.2127  1.9113 -0.2099
 9422SOL    HW239726   4.699   4.498  11.519 -0.0663 -0.0373 -0.0196
 9423SOL     OW39727   3.195   3.703   5.539 -0.4819 -0.2819 -0.1578
 9423SOL    HW139728   3.284   3.713   5.572 -0.0063 -0.0044 -1.5451
 9423SOL    HW239729   3.160   3.784   5.577 -1.6323 -0.4078 -0.9585
 9424SOL     OW39730   3.109   4.576   4.195  0.2141 -0.0249  0.7948
 9424SOL    HW139731   3.090   4.606   4.284  0.4603  0.5401  0.6526
 9424SOL    HW239732   3.072   4.489   4.181 -1.8938  1.0288 -0.0863
 9425SOL     OW39733   3.339   0.598  12.074  0.2402  0.3377  0.0698
 9425SOL    HW139734   3.335   0.579  12.168 -1.2030  1.9213  0.3243
 9425SOL    HW239735   3.304   0.687  12.075 -1.1478 -0.1822 -0.6716
 9426SOL     OW39736   0.816   2.493   0.920  0.3472 -0.1155  0.1848
 9426SOL    HW139737   0.825   2.411   0.969 -1.1640 -0.4177 -0.0269
 9426SOL    HW239738   0.796   2.471   0.829 -0.7811  0.8924  0.1893
 9427SOL     OW39739   2.243   1.582  17.017  0.4281  0.0436 -0.6092
 9427SOL    HW139740   2.282   1.669  17.004 -1.7231  1.4116  2.0332
 9427SOL    HW239741   2.199   1.569  16.933  0.2300  0.0905 -0.5130
 9428SOL     OW39742   0.738   0.450   5.570 -0.1572 -0.1384 -0.1037
 9428SOL    HW139743   0.819   0.399   5.575  0.3906  0.6638 -0.7453
 9428SOL    HW239744   0.664   0.397   5.599  1.3953 -1.1611  2.0188
 9429SOL     OW39745   4.391   2.777  12.864  0.6995 -0.0782 -0.2117
 9429SOL    HW139746   4.473   2.781  12.913 -0.5355 -1.1103  1.9194
 9429SOL    HW239747   4.330   2.827  12.918  2.0063 -0.1352  1.3156
 9430SOL     OW39748   2.573   1.518   2.784  0.6360  0.0328 -0.1503
 9430SOL    HW139749   2.516   1.442   2.793 -2.8662  2.8431  0.9999
 9430SOL    HW239750   2.525   1.575   2.724 -4.5905 -2.7295  1.4222
 9431SOL     OW39751   0.712   2.445   4.755  0.0792 -0.2930  0.1825
 9431SOL    HW139752   0.754   2.386   4.817  0.3793 -0.0038  0.2531
 9431SOL    HW239753   0.790   2.495   4.733 -0.6924 -0.3053 -2.6332
 9432SOL     OW39754   4.646   4.227   1.930 -0.0325 -0.5441 -0.1236
 9432SOL    HW139755   4.672   4.168   1.859  0.8637 -2.0879  1.5007
 9432SOL    HW239756   4.590   4.165   1.975 -0.4601 -0.4304 -0.5005
 9433SOL     OW39757   1.177   1.744   5.977  0.5539  0.2750  0.2424
 9433SOL    HW139758   1.187   1.693   5.897  1.6598 -0.8535  1.0809
 9433SOL    HW239759   1.205   1.831   5.950 -0.2311 -0.0245 -1.4700
 9434SOL     OW39760   2.811   4.569   6.053  0.1084 -0.4419 -0.5895
 9434SOL    HW139761   2.900   4.575   6.088  0.3006 -1.3430 -0.9038
 9434SOL    HW239762   2.818   4.564   5.957 -2.4524 -2.6853 -0.6595
 9435SOL     OW39763   1.765   2.314   7.781 -0.0530 -0.2538  0.3144
 9435SOL    HW139764   1.817   2.335   7.859  0.7686  1.9128 -0.8448
 9435SOL    HW239765   1.791   2.378   7.715  0.3780  0.0966  0.8239
 9436SOL     OW39766   1.781   3.525   5.407  0.3659 -0.1243  0.5350
 9436SOL    HW139767   1.692   3.504   5.436 -0.3013  1.3052 -0.4475
 9436SOL    HW239768   1.818   3.441   5.431 -0.2127  0.1212  2.2316
 9437SOL     OW39769   1.928   2.644  11.675 -0.2270  0.0056 -0.8338
 9437SOL    HW139770   1.997   2.692  11.630 -0.2386  0.4732 -0.3510
 9437SOL    HW239771   1.871   2.720  11.688  1.4699  1.3434 -1.2322
 9438SOL     OW39772   1.598   3.069   4.520  0.3662 -0.0502 -0.0063
 9438SOL    HW139773   1.621   3.151   4.477 -3.0148  1.0275  0.2211
 9438SOL    HW239774   1.597   3.004   4.450 -3.4643 -0.1371  0.1306
 9439SOL     OW39775   0.998   2.725  10.592 -0.1452  0.2556 -0.3218
 9439SOL    HW139776   0.929   2.716  10.526 -1.1252  1.0579  0.6052
 9439SOL    HW239777   1.050   2.797  10.557 -0.0548 -0.1690 -1.0743
 9440SOL     OW39778   1.720   3.382   6.173 -0.3252 -0.0389  0.4061
 9440SOL    HW139779   1.809   3.348   6.169 -0.6906 -0.9351 -0.2873
 9440SOL    HW239780   1.680   3.345   6.252  0.9989  2.1774  2.1164
 9441SOL     OW39781   2.020   3.728   5.220 -0.3298  0.0824  0.2961
 9441SOL    HW139782   1.965   3.806   5.212 -0.2845  0.0439 -0.4054
 9441SOL    HW239783   1.985   3.695   5.303 -1.5508 -0.6308 -0.5092
 9442SOL     OW39784   1.200   4.010   1.278 -0.4931  0.8350 -0.3575
 9442SOL    HW139785   1.280   4.059   1.260  1.1268 -0.8808  2.2219
 9442SOL    HW239786   1.191   3.981   1.187 -1.8124  0.8898 -0.2489
 9443SOL     OW39787   1.443   3.017   6.258 -0.5908  0.0487 -0.3229
 9443SOL    HW139788   1.383   2.980   6.323  1.8141 -0.9020  1.3734
 9443SOL    HW239789   1.466   2.934   6.218 -0.2904 -0.2448  0.4576
 9444SOL     OW39790   3.499   0.734  13.786  0.0305 -0.0892 -0.5507
 9444SOL    HW139791   3.561   0.806  13.776 -1.7437  1.4986  0.0394
 9444SOL    HW239792   3.461   0.751  13.872 -1.5149  2.6440 -1.7914
 9445SOL     OW39793   3.209   2.184   2.374 -0.7539 -0.3038 -0.1818
 9445SOL    HW139794   3.262   2.263   2.390 -2.6100  0.9587 -0.3190
 9445SOL    HW239795   3.207   2.190   2.279  1.7809  1.4509 -0.1224
 9446SOL     OW39796   1.746   0.540   7.288 -0.3109 -0.0588  0.0416
 9446SOL    HW139797   1.831   0.561   7.250 -1.3981  0.9716 -1.8120
 9446SOL    HW239798   1.696   0.592   7.225 -0.3751 -0.0440  0.1056
 9447SOL     OW39799   4.240   0.486  16.762 -0.4472 -0.3839 -0.5383
 9447SOL    HW139800   4.187   0.481  16.682  0.9040 -0.3207 -1.4455
 9447SOL    HW239801   4.260   0.579  16.774  0.8221 -0.5508 -1.2850
 9448SOL     OW39802   3.947   3.684   0.301 -0.5077  0.3649  0.2557
 9448SOL    HW139803   3.917   3.629   0.373 -1.0217 -0.7961 -0.8275
 9448SOL    HW239804   3.944   3.769   0.344 -1.6152  0.2793  0.3573
 9449SOL     OW39805   0.494   3.419   5.464 -0.0208 -0.4735 -0.2631
 9449SOL    HW139806   0.497   3.432   5.369 -0.8663 -0.8645 -0.3483
 9449SOL    HW239807   0.562   3.354   5.485  3.6906  3.6206  0.3411
 9450SOL     OW39808   1.699   3.941   9.296  0.8991  0.3026 -0.2447
 9450SOL    HW139809   1.674   3.850   9.310  1.4074 -0.1928 -2.5926
 9450SOL    HW239810   1.665   3.980   9.377  0.8888 -0.8252  0.2901
 9451SOL     OW39811   1.939   4.026  16.868 -0.2422  0.3481 -0.6371
 9451SOL    HW139812   1.877   4.038  16.797  0.1126 -0.8793 -1.1389
 9451SOL    HW239813   1.986   3.948  16.841  0.2854  0.0491  1.1539
 9452SOL     OW39814   2.660   2.998   5.647  0.7032  0.7975 -0.2806
 9452SOL    HW139815   2.750   2.971   5.629  0.4457  0.0099 -0.3680
 9452SOL    HW239816   2.624   2.987   5.559 -0.3409  0.3337  0.2061
 9453SOL     OW39817   1.751   1.831  13.467 -0.3864 -0.5428 -0.4177
 9453SOL    HW139818   1.730   1.908  13.414  0.9162  1.1255  1.5160
 9453SOL    HW239819   1.813   1.783  13.412  2.3949  1.3405  1.1049
 9454SOL     OW39820   2.199   2.647   2.567 -0.4740 -0.0244 -0.1468
 9454SOL    HW139821   2.107   2.671   2.565 -0.5781 -0.5136 -0.8908
 9454SOL    HW239822   2.212   2.669   2.660  1.3613  1.9249 -0.8621
 9455SOL     OW39823   2.716   3.043   1.134  0.5929  0.3479 -0.5265
 9455SOL    HW139824   2.809   3.024   1.136  0.8246  1.4236 -0.7883
 9455SOL    HW239825   2.671   2.962   1.159  0.9678  0.6837  1.1923
 9456SOL     OW39826   2.026   0.409   5.104  0.3746  0.1281  0.2996
 9456SOL    HW139827   2.080   0.343   5.146  1.0709  1.1791  1.0456
 9456SOL    HW239828   1.951   0.396   5.162 -0.9434 -0.4134 -1.5023
 9457SOL     OW39829   3.745   0.945   8.020 -0.3721 -0.8368  0.3579
 9457SOL    HW139830   3.768   0.951   8.113  0.5584  1.6236 -0.0356
 9457SOL    HW239831   3.800   0.873   7.989  1.1782  0.2967  0.4552
 9458SOL     OW39832   3.652   4.031   2.315  0.0575  0.0356  1.0371
 9458SOL    HW139833   3.572   4.049   2.266 -0.2604 -0.4856  1.3622
 9458SOL    HW239834   3.711   4.005   2.244  0.5941 -0.4045  1.6399
 9459SOL     OW39835   3.376   3.878   3.834  0.2698  0.2432 -0.4263
 9459SOL    HW139836   3.438   3.952   3.835 -0.7907  1.1118  0.5243
 9459SOL    HW239837   3.358   3.882   3.740  1.0584 -0.4356 -0.6107
 9460SOL     OW39838   3.722   0.330   8.363  0.4179  0.1692 -0.3599
 9460SOL    HW139839   3.802   0.291   8.398  0.7184  1.8874  0.8656
 9460SOL    HW239840   3.744   0.419   8.337 -1.1908  0.8151  0.4836
 9461SOL     OW39841   4.316   0.864   4.922  0.3440 -0.2198  0.1529
 9461SOL    HW139842   4.390   0.808   4.899  1.5791  0.8731  1.4807
 9461SOL    HW239843   4.344   0.883   5.011 -0.0179 -0.0703  0.2369
 9462SOL     OW39844   0.656   0.398   4.759  0.6568  0.2061  0.4120
 9462SOL    HW139845   0.571   0.378   4.798  1.0028 -1.0189  0.5287
 9462SOL    HW239846   0.683   0.309   4.740  2.5753  1.1644 -1.4510
 9463SOL     OW39847   1.804   1.591   4.673 -0.0909 -0.9426  0.1130
 9463SOL    HW139848   1.769   1.680   4.663  0.8421 -0.5593  0.2494
 9463SOL    HW239849   1.760   1.551   4.748 -1.0661 -0.0806  0.0028
 9464SOL     OW39850   0.541   4.325   9.080  0.6747 -1.4257  0.0181
 9464SOL    HW139851   0.574   4.386   9.014 -1.1458 -1.8620 -1.2838
 9464SOL    HW239852   0.620   4.287   9.118  0.3229 -2.9663 -0.8093
 9465SOL     OW39853   3.783   1.481   3.261  0.1388  0.3830 -0.2258
 9465SOL    HW139854   3.719   1.529   3.313 -0.6493  1.0099 -1.7644
 9465SOL    HW239855   3.762   1.510   3.172 -0.1678  0.9088  0.0161
 9466SOL     OW39856   1.526   4.506   7.644 -0.4830  0.0644 -0.8210
 9466SOL    HW139857   1.430   4.507   7.639 -0.5160 -1.6640 -0.5392
 9466SOL    HW239858   1.543   4.434   7.705 -2.7213 -0.4262 -0.7746
 9467SOL     OW39859   2.040   3.049   7.748 -0.1304 -0.1321  0.4478
 9467SOL    HW139860   1.992   3.011   7.674  1.1205  1.4874 -1.1822
 9467SOL    HW239861   2.071   3.130   7.708 -0.9727  0.6017  1.2949
 9468SOL     OW39862   3.596   1.336  10.469 -0.2968 -0.0279  0.0321
 9468SOL    HW139863   3.634   1.271  10.409 -0.9576 -0.0534 -0.3538
 9468SOL    HW239864   3.640   1.416  10.442 -0.8898  0.1539 -0.3929
 9469SOL     OW39865   2.108   2.917   4.164  0.3826 -0.7257 -0.1873
 9469SOL    HW139866   2.120   2.873   4.079 -1.8792 -1.1883 -0.2673
 9469SOL    HW239867   2.166   2.864   4.219 -0.1393 -0.7396  0.3417
 9470SOL     OW39868   0.206   4.436   9.342 -0.4190  0.0389  0.3906
 9470SOL    HW139869   0.173   4.403   9.426 -2.3906 -1.3931 -0.9488
 9470SOL    HW239870   0.231   4.358   9.293 -0.5485  0.7531 -0.8156
 9471SOL     OW39871   2.257   2.933   8.792  0.0108 -0.3238  0.1137
 9471SOL    HW139872   2.167   2.956   8.772 -0.4557 -0.4013  2.0623
 9471SOL    HW239873   2.306   2.982   8.726 -1.8635 -0.5953 -1.4566
 9472SOL     OW39874   2.045   4.014   1.787 -0.1468 -0.9421  0.2482
 9472SOL    HW139875   2.124   3.960   1.800  2.0198  1.9550 -0.8041
 9472SOL    HW239876   2.016   4.032   1.876 -0.1287  2.1800 -0.3894
 9473SOL     OW39877   4.648   3.547   7.292 -0.6946 -0.4202 -0.3031
 9473SOL    HW139878   4.620   3.558   7.383  1.4290  1.1880  0.1655
 9473SOL    HW239879   4.571   3.557   7.237  0.5589  1.0053 -1.8001
 9474SOL     OW39880   4.186   1.485   8.442  0.0389 -0.3393 -0.1140
 9474SOL    HW139881   4.274   1.523   8.438 -0.5858  0.8131 -3.2701
 9474SOL    HW239882   4.206   1.397   8.475 -1.4631 -0.9225 -0.7695
 9475SOL     OW39883   4.604   2.936   8.298 -0.5919 -0.0983  0.0567
 9475SOL    HW139884   4.561   2.881   8.363  0.9002 -1.2787  0.0459
 9475SOL    HW239885   4.551   3.015   8.306 -0.7580 -0.1634 -0.4441
 9476SOL     OW39886   1.495   4.385   3.194 -0.1152  0.1826 -0.0402
 9476SOL    HW139887   1.548   4.462   3.174 -0.6798  0.6168  0.1531
 9476SOL    HW239888   1.560   4.317   3.172 -0.2869 -0.0063  0.0443
 9477SOL     OW39889   3.086   0.700  11.163 -0.3978 -0.2427 -0.4798
 9477SOL    HW139890   3.082   0.726  11.255  0.4651  0.3732 -0.6062
 9477SOL    HW239891   3.103   0.787  11.126 -0.8887  0.4980  1.0227
 9478SOL     OW39892   2.852   2.656  14.794 -0.0393 -0.2150 -0.4101
 9478SOL    HW139893   2.789   2.619  14.855  2.9076 -0.8798  2.2451
 9478SOL    HW239894   2.809   2.643  14.710 -1.6524 -3.4350  0.9284
 9479SOL     OW39895   1.485   3.371   0.073  0.0763  0.1931  0.1996
 9479SOL    HW139896   1.426   3.420   0.016  1.0599  0.2347 -0.7747
 9479SOL    HW239897   1.533   3.310   0.017 -0.8388  0.5031 -0.9189
 9480SOL     OW39898   3.124   4.118   7.811 -0.1963  0.2116 -0.0375
 9480SOL    HW139899   3.051   4.084   7.863  0.2215  0.1460  0.4984
 9480SOL    HW239900   3.167   4.033   7.798 -0.4605 -0.1047  1.2419
 9481SOL     OW39901   0.900   2.670  11.579  0.2487 -0.1897 -0.0452
 9481SOL    HW139902   0.879   2.618  11.501 -0.8475 -0.4963  0.4563
 9481SOL    HW239903   0.955   2.730  11.528 -0.4566 -0.1940 -0.8121
 9482SOL     OW39904   1.332   2.292  12.679 -0.1903 -0.0803 -0.1974
 9482SOL    HW139905   1.409   2.239  12.661 -1.5525 -0.9648 -3.4811
 9482SOL    HW239906   1.366   2.379  12.660 -1.9095  1.0293  1.7652
 9483SOL     OW39907   1.420   4.500   2.668 -0.2550  0.2035 -0.1246
 9483SOL    HW139908   1.403   4.436   2.600 -3.7334  0.2313  0.7066
 9483SOL    HW239909   1.401   4.448   2.746 -0.3827 -0.3899 -0.5521
 9484SOL     OW39910   4.697   2.774   8.567 -0.0402 -0.4987 -0.7616
 9484SOL    HW139911   4.677   2.866   8.584  0.7787 -0.3905 -0.4164
 9484SOL    HW239912   4.630   2.731   8.620 -1.0459  0.5029 -1.2163
 9485SOL     OW39913   2.654   0.340   3.684 -0.5467 -0.2361  0.0142
 9485SOL    HW139914   2.719   0.406   3.704  0.8877 -0.8580 -2.7069
 9485SOL    HW239915   2.638   0.354   3.591  1.2783 -2.6941 -0.6561
 9486SOL     OW39916   3.286   4.286   2.676 -0.6206  0.4699  0.1957
 9486SOL    HW139917   3.290   4.194   2.705 -0.8246  0.1417 -0.8083
 9486SOL    HW239918   3.367   4.289   2.624  0.2511 -0.2915  1.4949
 9487SOL     OW39919   4.318   0.171   8.266 -0.1635 -0.1327  0.5794
 9487SOL    HW139920   4.338   0.078   8.278  1.7674  0.5086  2.3787
 9487SOL    HW239921   4.401   0.215   8.244 -1.3907  0.6707 -2.4288
 9488SOL     OW39922   3.598   4.675   6.852  0.4041  0.5332 -0.3699
 9488SOL    HW139923   3.606   0.034   6.899 -0.5163  0.3326  0.1476
 9488SOL    HW239924   3.533   4.692   6.784  0.6930  1.9234 -0.3003
 9489SOL     OW39925   2.305   0.179   1.387 -0.0554  0.2915 -0.4345
 9489SOL    HW139926   2.293   0.232   1.466 -0.4890  0.5826 -0.6992
 9489SOL    HW239927   2.377   0.122   1.417  2.6473  2.6417 -2.4812
 9490SOL     OW39928   4.661   1.630   1.760 -0.0767  0.1820 -0.1279
 9490SOL    HW139929   0.028   1.613   1.733 -0.0682 -0.6604  0.4360
 9490SOL    HW239930   4.671   1.641   1.855  0.3317 -0.9051 -0.0407
 9491SOL     OW39931   3.877   0.670   9.208  0.5820 -0.3169 -0.3188
 9491SOL    HW139932   3.858   0.592   9.158  1.2781  0.1333 -1.2765
 9491SOL    HW239933   3.933   0.703   9.138 -1.0528  0.7716 -1.1221
 9492SOL     OW39934   3.591   3.033   5.072  0.4772  0.2594 -0.3856
 9492SOL    HW139935   3.631   2.976   5.006 -1.1323  0.4772 -1.5368
 9492SOL    HW239936   3.506   3.057   5.036  0.7642 -0.4925 -1.5699
 9493SOL     OW39937   1.327   2.412   8.075  0.7700  0.4184  0.1257
 9493SOL    HW139938   1.379   2.332   8.085 -0.7190 -0.2220  2.9181
 9493SOL    HW239939   1.288   2.414   8.162  1.9466 -1.8766  0.7178
 9494SOL     OW39940   2.778   0.023  13.250  0.3620 -0.0806 -0.0595
 9494SOL    HW139941   2.753   0.110  13.218  0.7034  0.2352  0.5261
 9494SOL    HW239942   2.863   0.047  13.289  1.1735  0.9619 -2.5026
 9495SOL     OW39943   4.289   3.657   1.959  0.3790  0.1681  0.2860
 9495SOL    HW139944   4.196   3.670   1.938  0.6604  0.9880 -0.4181
 9495SOL    HW239945   4.322   3.722   2.021 -0.6690  1.3513 -0.3911
 9496SOL     OW39946   3.383   2.765   7.017 -0.0869  0.1642  0.0275
 9496SOL    HW139947   3.334   2.806   7.089 -1.4664 -0.8866 -0.3077
 9496SOL    HW239948   3.316   2.705   6.985  0.8134 -0.3185 -0.9507
 9497SOL     OW39949   1.230   4.370   1.769 -0.3240 -0.0968  0.3196
 9497SOL    HW139950   1.235   4.335   1.680 -2.0406  1.0444 -0.2350
 9497SOL    HW239951   1.269   4.458   1.765  1.5063 -1.0389 -2.1551
 9498SOL     OW39952   1.754   3.819   8.717 -0.7789  0.2507  0.5852
 9498SOL    HW139953   1.837   3.865   8.729  0.4337 -1.4526 -1.3311
 9498SOL    HW239954   1.747   3.772   8.800  4.2210  0.2304  0.9926
 9499SOL     OW39955   3.563   2.485   4.404  0.2493 -0.3806  0.7099
 9499SOL    HW139956   3.588   2.575   4.422  2.4765 -1.0492  1.0244
 9499SOL    HW239957   3.634   2.439   4.359  0.4675  0.0479  0.6239
 9500SOL     OW39958   3.046   1.496   0.444 -0.3680  0.0327 -0.0313
 9500SOL    HW139959   3.092   1.429   0.394 -1.2317 -0.5155 -0.1031
 9500SOL    HW239960   3.091   1.488   0.528 -0.6357  1.3503  0.2227
 9501SOL     OW39961   0.135   1.938   5.629 -0.0076 -0.0674  0.0427
 9501SOL    HW139962   0.062   1.999   5.643  0.4684  0.6862 -0.7534
 9501SOL    HW239963   0.136   1.877   5.703 -0.3277  1.5891  1.4225
 9502SOL     OW39964   2.470   1.551   6.080  0.1075 -0.2218  0.6243
 9502SOL    HW139965   2.403   1.617   6.101  0.2331 -0.5483  2.0477
 9502SOL    HW239966   2.422   1.474   6.111  1.5321 -0.6688  1.7295
 9503SOL     OW39967   2.187   1.307  17.023  0.5124  0.2199  0.3471
 9503SOL    HW139968   2.150   1.228  16.984  0.5214 -0.0720  0.9342
 9503SOL    HW239969   2.273   1.301  16.982  0.4593 -1.1218  0.4313
 9504SOL     OW39970   2.678   0.116   7.911 -0.4793 -0.3087 -0.0170
 9504SOL    HW139971   2.595   0.078   7.939 -0.4228 -1.1063 -0.9653
 9504SOL    HW239972   2.730   0.036   7.903  1.3425  0.7387  1.1780
 9505SOL     OW39973   3.955   1.581   6.397 -0.4031 -0.1715 -0.4066
 9505SOL    HW139974   3.973   1.560   6.489  1.2548  3.6443  0.1647
 9505SOL    HW239975   4.036   1.631   6.381 -0.2410 -0.4843 -0.5676
 9506SOL     OW39976   1.760   1.559  10.220 -0.0848 -0.3973 -0.1732
 9506SOL    HW139977   1.764   1.591  10.129  1.1206  2.1615  0.7891
 9506SOL    HW239978   1.677   1.598  10.250 -1.2789 -2.3383 -0.9323
 9507SOL     OW39979   1.999   2.673  10.423 -0.4802  0.1726  0.4881
 9507SOL    HW139980   2.057   2.623  10.367 -0.5463 -1.6134  2.0148
 9507SOL    HW239981   1.984   2.759  10.384 -0.7677  0.9240  2.2375
 9508SOL     OW39982   1.289   4.221   3.720  0.8491 -0.3395  0.1321
 9508SOL    HW139983   1.380   4.208   3.694  1.2559  3.9752 -0.5727
 9508SOL    HW239984   1.250   4.203   3.635  1.3197 -1.5493  0.1785
 9509SOL     OW39985   1.119   0.387   2.087  0.4352  0.4097  0.0850
 9509SOL    HW139986   1.151   0.410   2.174 -0.9348  0.3641  0.5923
 9509SOL    HW239987   1.142   0.464   2.036 -0.1430  1.6617  1.7249
 9510SOL     OW39988   0.526   4.647   6.675 -0.6744 -0.0599  0.2405
 9510SOL    HW139989   0.558   4.632   6.764 -1.5095 -0.1925  0.5227
 9510SOL    HW239990   0.432   4.650   6.695 -0.5951 -1.8106  0.9144
 9511SOL     OW39991   2.495   4.279   0.264  0.1041 -0.0264  0.1533
 9511SOL    HW139992   2.463   4.369   0.258  1.5779  0.4306 -0.7600
 9511SOL    HW239993   2.421   4.233   0.223  0.8711 -0.9298 -0.2089
 9512SOL     OW39994   4.035   3.157   7.588 -0.4752 -0.5312  0.1036
 9512SOL    HW139995   4.114   3.205   7.562  0.2868 -1.1584  1.2255
 9512SOL    HW239996   4.057   3.066   7.569 -0.8641 -0.1366 -2.2126
 9513SOL     OW39997   2.378   0.969   5.333 -0.5337  0.1967 -0.0008
 9513SOL    HW139998   2.471   0.981   5.353 -0.6836  1.3277  0.0428
 9513SOL    HW239999   2.368   0.988   5.239 -1.1342 -0.6992 -0.1140
 9514SOL     OW40000   3.607   0.481   1.103 -0.3256  0.4486 -0.0715
 9514SOL    HW140001   3.582   0.572   1.090 -1.3180  0.1945  0.0475
 9514SOL    HW240002   3.614   0.471   1.198 -0.2813  2.7570  0.1498
 9515SOL     OW40003   3.194   0.645   8.638 -0.2275 -0.4669 -0.0943
 9515SOL    HW140004   3.102   0.627   8.659 -0.9987  3.2580 -0.1923
 9515SOL    HW240005   3.229   0.562   8.669  1.1866 -1.0809 -3.2661
 9516SOL     OW40006   1.661   2.089  15.610  0.1665 -0.0280  0.2667
 9516SOL    HW140007   1.629   2.175  15.585  2.2329  0.4793 -0.6079
 9516SOL    HW240008   1.666   2.053  15.522  2.0125 -0.8737  0.6996
 9517SOL     OW40009   3.842   4.200   2.468  0.4801 -0.0508  0.5034
 9517SOL    HW140010   3.786   4.143   2.415  0.0718 -0.5666  1.4754
 9517SOL    HW240011   3.863   4.256   2.394 -2.3602 -0.2170 -0.4018
 9518SOL     OW40012   1.334   4.015   2.039 -0.0614 -0.6065  0.2542
 9518SOL    HW140013   1.426   3.999   2.062  0.4303 -0.5271 -1.6448
 9518SOL    HW240014   1.291   3.970   2.112  1.4322 -2.1302  0.2071
 9519SOL     OW40015   4.241   0.673  10.199  0.6592 -0.2558  0.2744
 9519SOL    HW140016   4.260   0.586  10.164 -1.5739  0.1492 -1.8901
 9519SOL    HW240017   4.329   0.701  10.226 -1.0054  1.6827  3.6079
 9520SOL     OW40018   1.464   0.759   3.441  0.1346  0.5613  0.1619
 9520SOL    HW140019   1.370   0.751   3.427 -0.1299  2.7762  0.6193
 9520SOL    HW240020   1.486   0.843   3.401 -1.1861  0.8897  0.1487
 9521SOL     OW40021   2.890   3.569   8.495  0.0622 -0.6103 -0.8392
 9521SOL    HW140022   2.806   3.526   8.508  0.6838 -1.8555 -1.0082
 9521SOL    HW240023   2.934   3.502   8.443  1.5131  0.2871 -0.7721
 9522SOL     OW40024   2.030   0.127   1.369 -0.2406 -0.0855  0.6118
 9522SOL    HW140025   2.052   0.100   1.280 -0.3138  0.6473  0.3759
 9522SOL    HW240026   2.120   0.124   1.402  0.7118 -1.5373 -2.1719
 9523SOL     OW40027   2.527   0.362   6.709 -0.7058  0.1792  0.0564
 9523SOL    HW140028   2.524   0.317   6.794 -1.9109 -2.4104 -1.3876
 9523SOL    HW240029   2.617   0.391   6.695  0.0764 -1.3894  1.7896
 9524SOL     OW40030   2.487   2.754  11.925 -0.6352 -0.6836 -0.1517
 9524SOL    HW140031   2.467   2.664  11.900 -0.2624 -1.1259  1.1264
 9524SOL    HW240032   2.440   2.802  11.857  5.6206  1.8607 -2.7474
 9525SOL     OW40033   3.776   4.566   2.396 -0.1489  0.1370 -0.3164
 9525SOL    HW140034   3.866   4.563   2.428 -0.2707 -0.0436  0.0124
 9525SOL    HW240035   3.728   4.619   2.459 -2.7705 -0.9313 -1.4221
 9526SOL     OW40036   4.039   1.024   5.174 -0.1074 -0.0253 -0.2866
 9526SOL    HW140037   4.133   1.004   5.177  0.1412  1.6726  3.3668
 9526SOL    HW240038   4.032   1.118   5.187 -3.0921 -0.2372 -0.3767
 9527SOL     OW40039   2.640   1.172   3.624  0.0091  0.2597  0.0688
 9527SOL    HW140040   2.656   1.199   3.533 -0.6431 -1.6232 -0.6245
 9527SOL    HW240041   2.546   1.156   3.617  0.2973 -0.5383 -2.0988
 9528SOL     OW40042   2.250   3.860   5.296 -0.4632 -0.4560 -0.3215
 9528SOL    HW140043   2.198   3.937   5.275 -1.1533 -0.8475 -0.0598
 9528SOL    HW240044   2.187   3.788   5.287 -1.6867  0.0490  3.8308
 9529SOL     OW40045   1.478   2.194   9.677  0.6774 -0.1602 -0.2234
 9529SOL    HW140046   1.484   2.245   9.758  2.0920 -2.4260  1.0933
 9529SOL    HW240047   1.454   2.268   9.621 -0.5340  0.3272  0.9477
 9530SOL     OW40048   0.308   2.965  10.813 -0.6836  0.1907 -0.4965
 9530SOL    HW140049   0.240   3.025  10.843 -1.5354 -0.2125 -1.6034
 9530SOL    HW240050   0.262   2.890  10.849  2.3811 -1.1956  0.5492
 9531SOL     OW40051   0.423   4.002   4.818 -0.4965 -0.2196  0.4132
 9531SOL    HW140052   0.339   4.037   4.788 -0.5425 -0.4347  0.2902
 9531SOL    HW240053   0.395   3.935   4.881  0.7010 -0.1979  0.9738
 9532SOL     OW40054   3.399   4.182  12.281 -0.2646  0.3879 -0.2069
 9532SOL    HW140055   3.311   4.148  12.299 -0.4600  1.0873  0.1381
 9532SOL    HW240056   3.380   4.274  12.264 -0.0330  0.3379 -0.7368
 9533SOL     OW40057   2.289   2.928  11.787  0.0840  0.2637 -0.4244
 9533SOL    HW140058   2.252   3.013  11.813 -0.9558 -0.1310 -0.6160
 9533SOL    HW240059   2.250   2.871  11.852  1.5051  1.0646  1.1399
 9534SOL     OW40060   1.407   2.113   4.307 -0.2129 -0.3239  0.1135
 9534SOL    HW140061   1.354   2.172   4.253 -1.1631 -0.1275  1.2706
 9534SOL    HW240062   1.470   2.072   4.247  0.3581 -0.6994  0.9807
 9535SOL     OW40063   2.015   4.598  12.676 -0.1006  0.3752 -0.2866
 9535SOL    HW140064   1.955   4.523  12.668  0.3312 -0.1233  1.0412
 9535SOL    HW240065   2.074   4.563  12.743  1.3647  2.7463 -0.3600
 9536SOL     OW40066   3.974   1.038   7.327 -0.6431 -0.6427  0.1337
 9536SOL    HW140067   4.059   1.082   7.330 -0.3822 -1.1250 -0.2083
 9536SOL    HW240068   4.000   0.950   7.356  0.3423  0.0164  1.2372
 9537SOL     OW40069   3.490   2.887  10.646 -0.2802  0.5802  0.2773
 9537SOL    HW140070   3.399   2.884  10.618  0.1633 -2.7503 -0.8263
 9537SOL    HW240071   3.483   2.835  10.726 -0.9242  0.9340  0.4475
 9538SOL     OW40072   3.635   0.579   6.105  0.5251 -0.4422 -0.2636
 9538SOL    HW140073   3.590   0.559   6.187  2.0669 -1.4179  0.3550
 9538SOL    HW240074   3.684   0.498   6.090 -0.8095 -1.0938 -1.1040
 9539SOL     OW40075   2.703   4.065  14.074 -0.1646 -0.5358 -0.1030
 9539SOL    HW140076   2.628   4.066  14.133 -2.1949  0.6031 -2.6858
 9539SOL    HW240077   2.776   4.101  14.124 -0.0998  0.3586 -0.8216
 9540SOL     OW40078   2.512   2.597   0.217 -0.0666  0.2933 -0.5330
 9540SOL    HW140079   2.451   2.598   0.290 -0.5972  0.9216 -0.9816
 9540SOL    HW240080   2.470   2.534   0.158  0.9486 -3.1354  2.4437
 9541SOL     OW40081   0.531   2.528  12.968  0.5861 -0.2581 -0.3171
 9541SOL    HW140082   0.541   2.447  13.018 -2.1421  0.0584  0.7145
 9541SOL    HW240083   0.563   2.591  13.032 -0.5510 -0.4012  0.3934
 9542SOL     OW40084   2.493   4.419  10.980  0.7778  0.6641  0.2001
 9542SOL    HW140085   2.485   4.358  11.054 -0.0808  0.6926  0.1297
 9542SOL    HW240086   2.560   4.472  11.022 -0.6684  1.8421  1.0186
 9543SOL     OW40087   1.804   2.960  10.730  0.5072 -0.1463  0.1421
 9543SOL    HW140088   1.726   2.906  10.744 -0.0397  0.2847 -1.2600
 9543SOL    HW240089   1.794   3.021  10.804  0.9825  2.6307 -2.0708
 9544SOL     OW40090   3.252   4.279   2.055  0.4001  0.6092 -0.4449
 9544SOL    HW140091   3.176   4.287   2.113  2.2341 -2.8671  2.4486
 9544SOL    HW240092   3.219   4.341   1.990  1.0007  1.5341  0.1367
 9545SOL     OW40093   2.205   1.271   1.805  0.0229  0.0758  0.1161
 9545SOL    HW140094   2.145   1.201   1.830  0.3720 -1.4753 -3.4630
 9545SOL    HW240095   2.280   1.239   1.854  0.7977  1.3040 -0.2748
 9546SOL     OW40096   0.032   3.410   0.095  0.2149  0.5437 -0.4401
 9546SOL    HW140097   0.081   3.365   0.026  1.6061 -0.0196  0.9253
 9546SOL    HW240098   0.023   3.495   0.052 -3.3295  0.0280 -0.7478
 9547SOL     OW40099   4.411   1.287   6.603 -0.0330  0.0279 -0.1036
 9547SOL    HW140100   4.448   1.371   6.577 -1.7124  0.5562 -0.8182
 9547SOL    HW240101   4.410   1.250   6.515 -1.0946 -1.4740  0.5446
 9548SOL     OW40102   0.977   1.292   7.690  0.0491 -0.2493  0.2273
 9548SOL    HW140103   0.945   1.260   7.775  1.8532  0.0760  1.0247
 9548SOL    HW240104   1.036   1.361   7.720  0.2465 -0.3323  0.0343
 9549SOL     OW40105   0.656   2.829   7.137 -0.0314  0.4256 -0.3807
 9549SOL    HW140106   0.600   2.803   7.210 -1.5446 -0.9768 -2.0384
 9549SOL    HW240107   0.641   2.923   7.139  0.9705  0.5928 -0.5488
 9550SOL     OW40108   0.040   1.637   2.543  0.6948  0.2075  0.4116
 9550SOL    HW140109   0.018   1.679   2.459 -2.0760 -1.5160  0.2510
 9550SOL    HW240110   4.710   1.688   2.604 -0.2726  0.7366 -0.8584
 9551SOL     OW40111   2.047   3.665   2.947  0.1601 -0.2497 -0.7359
 9551SOL    HW140112   1.974   3.629   2.997  0.6750  0.2932  0.3898
 9551SOL    HW240113   2.113   3.688   3.012 -1.6081  0.6667  0.6996
 9552SOL     OW40114   3.000   1.831   6.045 -0.1836  0.0449 -0.4647
 9552SOL    HW140115   3.005   1.804   5.953  1.7785  0.4828 -0.4706
 9552SOL    HW240116   3.077   1.791   6.085 -0.6987 -0.5254 -0.0383
 9553SOL     OW40117   1.055   1.928   8.837  0.3420 -0.1639 -0.1358
 9553SOL    HW140118   1.133   1.883   8.806  0.1044 -0.9417  0.3984
 9553SOL    HW240119   0.998   1.853   8.857 -1.0836  0.3695 -2.1934
 9554SOL     OW40120   1.267   2.421   6.539  0.0831  0.4343  0.0882
 9554SOL    HW140121   1.230   2.357   6.478  0.9051 -0.6822  0.7795
 9554SOL    HW240122   1.201   2.404   6.606 -0.4117 -0.6463 -0.6722
 9555SOL     OW40123   1.110   1.677   0.800 -0.1693 -0.0255  0.2186
 9555SOL    HW140124   1.088   1.732   0.724 -0.5526 -1.8446 -0.9994
 9555SOL    HW240125   1.093   1.591   0.761 -0.3516  0.6703 -1.2489
 9556SOL     OW40126   3.271   0.008  14.028  0.0124 -0.0881 -0.1939
 9556SOL    HW140127   3.309   0.039  13.946  4.0782 -1.2803  1.2516
 9556SOL    HW240128   3.293   4.638  14.017 -0.1273  0.1359 -2.3608
 9557SOL     OW40129   3.483   3.304  15.361  0.5291  0.2389  0.0129
 9557SOL    HW140130   3.472   3.399  15.371  0.7984  0.2246  0.4457
 9557SOL    HW240131   3.425   3.270  15.430 -0.0251  0.1304 -0.5059
 9558SOL     OW40132   3.755   1.188   7.909  0.0413 -0.3256  0.0251
 9558SOL    HW140133   3.822   1.229   7.964 -0.6391 -1.0208  1.3576
 9558SOL    HW240134   3.761   1.096   7.936 -0.8428  1.0026  4.6324
 9559SOL     OW40135   0.199   4.489  13.138  0.1526  0.2021  0.1523
 9559SOL    HW140136   0.189   4.475  13.044 -0.0044  0.7080  0.0950
 9559SOL    HW240137   0.122   4.543  13.156  0.6088  0.5749  0.9618
 9560SOL     OW40138   2.130   0.300   4.069 -0.1340  0.3854 -0.1239
 9560SOL    HW140139   2.125   0.341   4.155  1.1128 -1.6657  0.9049
 9560SOL    HW240140   2.148   0.375   4.011  0.8689  1.3212  1.3933
 9561SOL     OW40141   3.427   3.815   5.631 -0.2347 -0.4289 -0.1384
 9561SOL    HW140142   3.495   3.770   5.580 -2.3014 -2.2060 -1.2903
 9561SOL    HW240143   3.444   3.909   5.624 -1.1312 -0.3635 -1.3940
 9562SOL     OW40144   1.389   4.255   3.427  0.3149 -0.0331  0.4041
 9562SOL    HW140145   1.439   4.327   3.467  1.5264 -0.8292  0.3296
 9562SOL    HW240146   1.417   4.260   3.336  2.0615 -1.3711  0.8546
 9563SOL     OW40147   3.668   1.540   1.041 -1.1203  0.2995  0.0017
 9563SOL    HW140148   3.712   1.473   1.094 -0.8287 -1.1704 -2.1121
 9563SOL    HW240149   3.715   1.622   1.054 -0.2273 -0.1582 -0.3360
 9564SOL     OW40150   0.456   2.522  10.690 -0.1915  0.4070  0.2947
 9564SOL    HW140151   0.478   2.446  10.744  1.0772  0.2586 -0.4211
 9564SOL    HW240152   0.377   2.486  10.650  0.3019 -1.1259  0.7357
 9565SOL     OW40153   1.458   1.159  13.529 -0.9497 -0.0532  0.6994
 9565SOL    HW140154   1.434   1.245  13.494  0.9211  0.0371 -0.3459
 9565SOL    HW240155   1.491   1.117  13.450 -1.5867 -0.0728  0.4374
   4.72321   4.72321  17.69470
